 vasp.5.4.1 05Feb16 (build Mar 02 2016 14:09:44) complex                        
  
 executed on   Abel-impi-ifc-cuda date 2019.09.13  12:03:40
 running on    1 total cores
 distrk:  each k-point on    1 cores,    1 groups
 distr:  one band on NCORES_PER_BAND=   1 cores,    1 groups


--------------------------------------------------------------------------------------------------------


 INCAR:
 POTCAR:   PAW_PBE Si 05Jan2001                   
 POTCAR:   PAW_PBE O 08Apr2002                    
 POTCAR:   PAW_PBE Si 05Jan2001                   
   VRHFIN =Si: s2p2                                                             
   LEXCH  = PE                                                                  
   EATOM  =   103.0669 eV,    7.5752 Ry                                         
                                                                                
   TITEL  = PAW_PBE Si 05Jan2001                                                
   LULTRA =        F    use ultrasoft PP ?                                      
   IUNSCR =        1    unscreen: 0-lin 1-nonlin 2-no                           
   RPACOR =    1.500    partial core radius                                     
   POMASS =   28.085; ZVAL   =    4.000    mass and valenz                      
   RCORE  =    1.900    outmost cutoff radius                                   
   RWIGS  =    2.480; RWIGS  =    1.312    wigner-seitz radius (au A)           
   ENMAX  =  245.345; ENMIN  =  184.009 eV                                      
   ICORE  =        2    local potential                                         
   LCOR   =        T    correct aug charges                                     
   LPAW   =        T    paw PP                                                  
   EAUG   =  322.069                                                            
   DEXC   =    -.007                                                            
   RMAX   =    2.944    core radius for proj-oper                               
   RAUG   =    1.300    factor for augmentation sphere                          
   RDEP   =    1.993    radius for radial grids                                 
   QCUT   =   -4.246; QGAM   =    8.493    optimization parameters              
                                                                                
   Description                                                                  
     l     E      TYP  RCUT    TYP  RCUT                                        
     0   .000     23  1.900                                                     
     0   .000     23  1.900                                                     
     1   .000     23  1.900                                                     
     1   .000     23  1.900                                                     
     2   .000      7  1.900                                                     
  local pseudopotential read in
  partial core-charges read in
  atomic valenz-charges read in
  non local Contribution for L=           0  read in
    real space projection operators read in
  non local Contribution for L=           0  read in
    real space projection operators read in
  non local Contribution for L=           1  read in
    real space projection operators read in
  non local Contribution for L=           1  read in
    real space projection operators read in
    PAW grid and wavefunctions read in
 
   number of l-projection  operators is LMAX  =           4
   number of lm-projection operators is LMMAX =           8
 
 POTCAR:   PAW_PBE O 08Apr2002                    
   VRHFIN =O: s2p4                                                              
   LEXCH  = PE                                                                  
   EATOM  =   432.3788 eV,   31.7789 Ry                                         
                                                                                
   TITEL  = PAW_PBE O 08Apr2002                                                 
   LULTRA =        F    use ultrasoft PP ?                                      
   IUNSCR =        0    unscreen: 0-lin 1-nonlin 2-no                           
   RPACOR =     .000    partial core radius                                     
   POMASS =   16.000; ZVAL   =    6.000    mass and valenz                      
   RCORE  =    1.520    outmost cutoff radius                                   
   RWIGS  =    1.550; RWIGS  =     .820    wigner-seitz radius (au A)           
   ENMAX  =  400.000; ENMIN  =  300.000 eV                                      
   ICORE  =        2    local potential                                         
   LCOR   =        T    correct aug charges                                     
   LPAW   =        T    paw PP                                                  
   EAUG   =  605.392                                                            
   DEXC   =     .000                                                            
   RMAX   =    2.264    core radius for proj-oper                               
   RAUG   =    1.300    factor for augmentation sphere                          
   RDEP   =    1.550    radius for radial grids                                 
   QCUT   =   -5.520; QGAM   =   11.041    optimization parameters              
                                                                                
   Description                                                                  
     l     E      TYP  RCUT    TYP  RCUT                                        
     0   .000     23  1.200                                                     
     0  -.700     23  1.200                                                     
     1   .000     23  1.520                                                     
     1   .600     23  1.520                                                     
     2   .000      7  1.500                                                     
  local pseudopotential read in
  atomic valenz-charges read in
  non local Contribution for L=           0  read in
    real space projection operators read in
  non local Contribution for L=           0  read in
    real space projection operators read in
  non local Contribution for L=           1  read in
    real space projection operators read in
  non local Contribution for L=           1  read in
    real space projection operators read in
    PAW grid and wavefunctions read in
 
   number of l-projection  operators is LMAX  =           4
   number of lm-projection operators is LMMAX =           8
 
 Optimization of the real space projectors (new method)

 maximal supplied QI-value         = 19.84
 optimisation between [QCUT,QGAM] = [ 10.12, 20.44] = [ 28.68,116.96] Ry 
 Optimized for a Real-space Cutoff    1.23 Angstroem

   l    n(q)    QCUT    max X(q) W(low)/X(q) W(high)/X(q)  e(spline) 
   0      7    10.119     8.708    0.24E-04    0.14E-04    0.43E-08
   0      7    10.119   106.241    0.56E-04    0.21E-03    0.45E-07
   1      7    10.119     5.901    0.36E-04    0.73E-05    0.14E-07
   1      7    10.119    73.241    0.33E-03    0.48E-03    0.11E-06
 Optimization of the real space projectors (new method)

 maximal supplied QI-value         = 24.76
 optimisation between [QCUT,QGAM] = [ 10.15, 20.30] = [ 28.85,115.39] Ry 
 Optimized for a Real-space Cutoff    1.30 Angstroem

   l    n(q)    QCUT    max X(q) W(low)/X(q) W(high)/X(q)  e(spline) 
   0      8    10.150     4.192    0.55E-04    0.58E-04    0.78E-07
   0      8    10.150     8.473    0.46E-03    0.68E-03    0.23E-06
   1      7    10.150     2.474    0.11E-03    0.93E-04    0.33E-07
   1      7    10.150     3.912    0.46E-03    0.50E-03    0.15E-06
 PAW_PBE Si 05Jan2001                   :
 energy of atom  1       EATOM= -103.0669
 kinetic energy error for atom=    0.0012 (will be added to EATOM!!)
 PAW_PBE O 08Apr2002                    :
 energy of atom  2       EATOM= -432.3788
 kinetic energy error for atom=    0.1156 (will be added to EATOM!!)
 
 
 POSCAR: SiO2_P3221_icsd_34644                   
  positions in direct lattice
  No initial velocities read in
 exchange correlation table for  LEXCH =        8
   RHO(1)=    0.500       N(1)  =     2000
   RHO(2)=  100.500       N(2)  =     4000
 


--------------------------------------------------------------------------------------------------------


 ion  position               nearest neighbor table
   1  0.470  0.020  0.667-   4 1.51   5 1.61   7 1.63   9 1.68   3 2.98   2 3.03   2 3.11   3 3.14

   2  0.000  0.470  0.333-   8 1.60   5 1.60   6 1.62   7 1.62   1 3.03   3 3.06   3 3.06   1 3.11

   3  0.530  0.530  0.000-   6 1.60   9 1.60   8 1.62   4 1.62   1 2.98   2 3.06   2 3.06   1 3.14

   4  0.414  0.266  0.786-   1 1.51   3 1.62
   5  0.734  0.148  0.452-   2 1.60   1 1.61
   6  0.852  0.586  0.119-   3 1.60   2 1.62
   7  0.148  0.734  0.548-   2 1.62   1 1.63
   8  0.266  0.414  0.214-   2 1.60   3 1.62
   9  0.586  0.852  0.881-   3 1.60   1 1.68
 
  LATTYP: Found a hexagonal cell.
 ALAT       =     4.9137000030
 C/A-ratio  =     1.1000122101
  
  Lattice vectors:
  
 A1 = (   4.9137000000,   0.0000000000,   0.0000000000)
 A2 = (  -2.4568500000,   4.2553890300,   0.0000000000)
 A3 = (   0.0000000000,   0.0000000000,   5.4051300000)


Analysis of symmetry for initial positions (statically):
=====================================================================
 Subroutine PRICEL returns:
 Original cell was already a primitive cell.
 

 Routine SETGRP: Setting up the symmetry group for a 
 hexagonal supercell.


 Subroutine GETGRP returns: Found  1 space group operations
 (whereof  1 operations were pure point group operations)
 out of a pool of 24 trial point group operations.


The static configuration has the point symmetry C_1 .


Analysis of symmetry for dynamics (positions and initial velocities):
=====================================================================
 Subroutine PRICEL returns:
 Original cell was already a primitive cell.
 

 Routine SETGRP: Setting up the symmetry group for a 
 hexagonal supercell.


 Subroutine GETGRP returns: Found  1 space group operations
 (whereof  1 operations were pure point group operations)
 out of a pool of 24 trial point group operations.


The dynamic configuration has the point symmetry C_1 .


 Subroutine INISYM returns: Found  1 space group operations
 (whereof  1 operations are pure point group operations),
 and found     1 'primitive' translations

 
 
 KPOINTS: k-density: 5.0                          

Automatic generation of k-mesh.
Space group operators:
 irot       det(A)        alpha          n_x          n_y          n_z        tau_x        tau_y        tau_z
    1     1.000000     0.000001     1.000000     0.000000     0.000000     0.000000     0.000000     0.000000
 
 Subroutine IBZKPT returns following result:
 ===========================================
 
 Found    148 irreducible k-points:
 
 Following reciprocal coordinates:
            Coordinates               Weight
  0.000000  0.000000  0.000000      1.000000
  0.142857  0.000000  0.000000      2.000000
  0.285714  0.000000  0.000000      2.000000
  0.428571  0.000000  0.000000      2.000000
  0.000000  0.142857  0.000000      2.000000
  0.142857  0.142857  0.000000      2.000000
  0.285714  0.142857  0.000000      2.000000
  0.428571  0.142857  0.000000      2.000000
 -0.428571  0.142857  0.000000      2.000000
 -0.285714  0.142857  0.000000      2.000000
 -0.142857  0.142857  0.000000      2.000000
  0.000000  0.285714  0.000000      2.000000
  0.142857  0.285714  0.000000      2.000000
  0.285714  0.285714  0.000000      2.000000
  0.428571  0.285714  0.000000      2.000000
 -0.428571  0.285714  0.000000      2.000000
 -0.285714  0.285714  0.000000      2.000000
 -0.142857  0.285714  0.000000      2.000000
  0.000000  0.428571  0.000000      2.000000
  0.142857  0.428571  0.000000      2.000000
  0.285714  0.428571  0.000000      2.000000
  0.428571  0.428571  0.000000      2.000000
 -0.428571  0.428571  0.000000      2.000000
 -0.285714  0.428571  0.000000      2.000000
 -0.142857  0.428571  0.000000      2.000000
  0.000000  0.000000  0.166667      2.000000
  0.142857  0.000000  0.166667      2.000000
  0.285714  0.000000  0.166667      2.000000
  0.428571  0.000000  0.166667      2.000000
 -0.428571  0.000000  0.166667      2.000000
 -0.285714  0.000000  0.166667      2.000000
 -0.142857 -0.000000  0.166667      2.000000
  0.000000  0.142857  0.166667      2.000000
  0.142857  0.142857  0.166667      2.000000
  0.285714  0.142857  0.166667      2.000000
  0.428571  0.142857  0.166667      2.000000
 -0.428571  0.142857  0.166667      2.000000
 -0.285714  0.142857  0.166667      2.000000
 -0.142857  0.142857  0.166667      2.000000
  0.000000  0.285714  0.166667      2.000000
  0.142857  0.285714  0.166667      2.000000
  0.285714  0.285714  0.166667      2.000000
  0.428571  0.285714  0.166667      2.000000
 -0.428571  0.285714  0.166667      2.000000
 -0.285714  0.285714  0.166667      2.000000
 -0.142857  0.285714  0.166667      2.000000
  0.000000  0.428571  0.166667      2.000000
  0.142857  0.428571  0.166667      2.000000
  0.285714  0.428571  0.166667      2.000000
  0.428571  0.428571  0.166667      2.000000
 -0.428571  0.428571  0.166667      2.000000
 -0.285714  0.428571  0.166667      2.000000
 -0.142857  0.428571  0.166667      2.000000
  0.000000 -0.428571  0.166667      2.000000
  0.142857 -0.428571  0.166667      2.000000
  0.285714 -0.428571  0.166667      2.000000
  0.428571 -0.428571  0.166667      2.000000
 -0.428571 -0.428571  0.166667      2.000000
 -0.285714 -0.428571  0.166667      2.000000
 -0.142857 -0.428571  0.166667      2.000000
  0.000000 -0.285714  0.166667      2.000000
  0.142857 -0.285714  0.166667      2.000000
  0.285714 -0.285714  0.166667      2.000000
  0.428571 -0.285714  0.166667      2.000000
 -0.428571 -0.285714  0.166667      2.000000
 -0.285714 -0.285714  0.166667      2.000000
 -0.142857 -0.285714  0.166667      2.000000
  0.000000 -0.142857  0.166667      2.000000
  0.142857 -0.142857  0.166667      2.000000
  0.285714 -0.142857  0.166667      2.000000
  0.428571 -0.142857  0.166667      2.000000
 -0.428571 -0.142857  0.166667      2.000000
 -0.285714 -0.142857  0.166667      2.000000
 -0.142857 -0.142857  0.166667      2.000000
  0.000000  0.000000  0.333333      2.000000
  0.142857  0.000000  0.333333      2.000000
  0.285714  0.000000  0.333333      2.000000
  0.428571  0.000000  0.333333      2.000000
 -0.428571  0.000000  0.333333      2.000000
 -0.285714  0.000000  0.333333      2.000000
 -0.142857 -0.000000  0.333333      2.000000
  0.000000  0.142857  0.333333      2.000000
  0.142857  0.142857  0.333333      2.000000
  0.285714  0.142857  0.333333      2.000000
  0.428571  0.142857  0.333333      2.000000
 -0.428571  0.142857  0.333333      2.000000
 -0.285714  0.142857  0.333333      2.000000
 -0.142857  0.142857  0.333333      2.000000
  0.000000  0.285714  0.333333      2.000000
  0.142857  0.285714  0.333333      2.000000
  0.285714  0.285714  0.333333      2.000000
  0.428571  0.285714  0.333333      2.000000
 -0.428571  0.285714  0.333333      2.000000
 -0.285714  0.285714  0.333333      2.000000
 -0.142857  0.285714  0.333333      2.000000
  0.000000  0.428571  0.333333      2.000000
  0.142857  0.428571  0.333333      2.000000
  0.285714  0.428571  0.333333      2.000000
  0.428571  0.428571  0.333333      2.000000
 -0.428571  0.428571  0.333333      2.000000
 -0.285714  0.428571  0.333333      2.000000
 -0.142857  0.428571  0.333333      2.000000
  0.000000 -0.428571  0.333333      2.000000
  0.142857 -0.428571  0.333333      2.000000
  0.285714 -0.428571  0.333333      2.000000
  0.428571 -0.428571  0.333333      2.000000
 -0.428571 -0.428571  0.333333      2.000000
 -0.285714 -0.428571  0.333333      2.000000
 -0.142857 -0.428571  0.333333      2.000000
  0.000000 -0.285714  0.333333      2.000000
  0.142857 -0.285714  0.333333      2.000000
  0.285714 -0.285714  0.333333      2.000000
  0.428571 -0.285714  0.333333      2.000000
 -0.428571 -0.285714  0.333333      2.000000
 -0.285714 -0.285714  0.333333      2.000000
 -0.142857 -0.285714  0.333333      2.000000
  0.000000 -0.142857  0.333333      2.000000
  0.142857 -0.142857  0.333333      2.000000
  0.285714 -0.142857  0.333333      2.000000
  0.428571 -0.142857  0.333333      2.000000
 -0.428571 -0.142857  0.333333      2.000000
 -0.285714 -0.142857  0.333333      2.000000
 -0.142857 -0.142857  0.333333      2.000000
  0.000000  0.000000  0.500000      1.000000
  0.142857  0.000000  0.500000      2.000000
  0.285714  0.000000  0.500000      2.000000
  0.428571  0.000000  0.500000      2.000000
  0.000000  0.142857  0.500000      2.000000
  0.142857  0.142857  0.500000      2.000000
  0.285714  0.142857  0.500000      2.000000
  0.428571  0.142857  0.500000      2.000000
 -0.428571  0.142857  0.500000      2.000000
 -0.285714  0.142857  0.500000      2.000000
 -0.142857  0.142857  0.500000      2.000000
  0.000000  0.285714  0.500000      2.000000
  0.142857  0.285714  0.500000      2.000000
  0.285714  0.285714  0.500000      2.000000
  0.428571  0.285714  0.500000      2.000000
 -0.428571  0.285714  0.500000      2.000000
 -0.285714  0.285714  0.500000      2.000000
 -0.142857  0.285714  0.500000      2.000000
  0.000000  0.428571  0.500000      2.000000
  0.142857  0.428571  0.500000      2.000000
  0.285714  0.428571  0.500000      2.000000
  0.428571  0.428571  0.500000      2.000000
 -0.428571  0.428571  0.500000      2.000000
 -0.285714  0.428571  0.500000      2.000000
 -0.142857  0.428571  0.500000      2.000000
 
 Following cartesian coordinates:
            Coordinates               Weight
  0.000000  0.000000  0.000000      1.000000
  0.029073  0.016785  0.000000      2.000000
  0.058146  0.033571  0.000000      2.000000
  0.087220  0.050356  0.000000      2.000000
  0.000000  0.033571  0.000000      2.000000
  0.029073  0.050356  0.000000      2.000000
  0.058146  0.067142  0.000000      2.000000
  0.087220  0.083927  0.000000      2.000000
 -0.087220 -0.016785  0.000000      2.000000
 -0.058146  0.000000  0.000000      2.000000
 -0.029073  0.016785  0.000000      2.000000
  0.000000  0.067142  0.000000      2.000000
  0.029073  0.083927  0.000000      2.000000
  0.058146  0.100713  0.000000      2.000000
  0.087220  0.117498  0.000000      2.000000
 -0.087220  0.016785  0.000000      2.000000
 -0.058146  0.033571  0.000000      2.000000
 -0.029073  0.050356  0.000000      2.000000
  0.000000  0.100713  0.000000      2.000000
  0.029073  0.117498  0.000000      2.000000
  0.058146  0.134284  0.000000      2.000000
  0.087220  0.151069  0.000000      2.000000
 -0.087220  0.050356  0.000000      2.000000
 -0.058146  0.067142  0.000000      2.000000
 -0.029073  0.083927  0.000000      2.000000
  0.000000  0.000000  0.030835      2.000000
  0.029073  0.016785  0.030835      2.000000
  0.058146  0.033571  0.030835      2.000000
  0.087220  0.050356  0.030835      2.000000
 -0.087220 -0.050356  0.030835      2.000000
 -0.058146 -0.033571  0.030835      2.000000
 -0.029073 -0.016785  0.030835      2.000000
  0.000000  0.033571  0.030835      2.000000
  0.029073  0.050356  0.030835      2.000000
  0.058146  0.067142  0.030835      2.000000
  0.087220  0.083927  0.030835      2.000000
 -0.087220 -0.016785  0.030835      2.000000
 -0.058146  0.000000  0.030835      2.000000
 -0.029073  0.016785  0.030835      2.000000
  0.000000  0.067142  0.030835      2.000000
  0.029073  0.083927  0.030835      2.000000
  0.058146  0.100713  0.030835      2.000000
  0.087220  0.117498  0.030835      2.000000
 -0.087220  0.016785  0.030835      2.000000
 -0.058146  0.033571  0.030835      2.000000
 -0.029073  0.050356  0.030835      2.000000
  0.000000  0.100713  0.030835      2.000000
  0.029073  0.117498  0.030835      2.000000
  0.058146  0.134284  0.030835      2.000000
  0.087220  0.151069  0.030835      2.000000
 -0.087220  0.050356  0.030835      2.000000
 -0.058146  0.067142  0.030835      2.000000
 -0.029073  0.083927  0.030835      2.000000
  0.000000 -0.100713  0.030835      2.000000
  0.029073 -0.083927  0.030835      2.000000
  0.058146 -0.067142  0.030835      2.000000
  0.087220 -0.050356  0.030835      2.000000
 -0.087220 -0.151069  0.030835      2.000000
 -0.058146 -0.134284  0.030835      2.000000
 -0.029073 -0.117498  0.030835      2.000000
  0.000000 -0.067142  0.030835      2.000000
  0.029073 -0.050356  0.030835      2.000000
  0.058146 -0.033571  0.030835      2.000000
  0.087220 -0.016785  0.030835      2.000000
 -0.087220 -0.117498  0.030835      2.000000
 -0.058146 -0.100713  0.030835      2.000000
 -0.029073 -0.083927  0.030835      2.000000
  0.000000 -0.033571  0.030835      2.000000
  0.029073 -0.016785  0.030835      2.000000
  0.058146 -0.000000  0.030835      2.000000
  0.087220  0.016785  0.030835      2.000000
 -0.087220 -0.083927  0.030835      2.000000
 -0.058146 -0.067142  0.030835      2.000000
 -0.029073 -0.050356  0.030835      2.000000
  0.000000  0.000000  0.061670      2.000000
  0.029073  0.016785  0.061670      2.000000
  0.058146  0.033571  0.061670      2.000000
  0.087220  0.050356  0.061670      2.000000
 -0.087220 -0.050356  0.061670      2.000000
 -0.058146 -0.033571  0.061670      2.000000
 -0.029073 -0.016785  0.061670      2.000000
  0.000000  0.033571  0.061670      2.000000
  0.029073  0.050356  0.061670      2.000000
  0.058146  0.067142  0.061670      2.000000
  0.087220  0.083927  0.061670      2.000000
 -0.087220 -0.016785  0.061670      2.000000
 -0.058146  0.000000  0.061670      2.000000
 -0.029073  0.016785  0.061670      2.000000
  0.000000  0.067142  0.061670      2.000000
  0.029073  0.083927  0.061670      2.000000
  0.058146  0.100713  0.061670      2.000000
  0.087220  0.117498  0.061670      2.000000
 -0.087220  0.016785  0.061670      2.000000
 -0.058146  0.033571  0.061670      2.000000
 -0.029073  0.050356  0.061670      2.000000
  0.000000  0.100713  0.061670      2.000000
  0.029073  0.117498  0.061670      2.000000
  0.058146  0.134284  0.061670      2.000000
  0.087220  0.151069  0.061670      2.000000
 -0.087220  0.050356  0.061670      2.000000
 -0.058146  0.067142  0.061670      2.000000
 -0.029073  0.083927  0.061670      2.000000
  0.000000 -0.100713  0.061670      2.000000
  0.029073 -0.083927  0.061670      2.000000
  0.058146 -0.067142  0.061670      2.000000
  0.087220 -0.050356  0.061670      2.000000
 -0.087220 -0.151069  0.061670      2.000000
 -0.058146 -0.134284  0.061670      2.000000
 -0.029073 -0.117498  0.061670      2.000000
  0.000000 -0.067142  0.061670      2.000000
  0.029073 -0.050356  0.061670      2.000000
  0.058146 -0.033571  0.061670      2.000000
  0.087220 -0.016785  0.061670      2.000000
 -0.087220 -0.117498  0.061670      2.000000
 -0.058146 -0.100713  0.061670      2.000000
 -0.029073 -0.083927  0.061670      2.000000
  0.000000 -0.033571  0.061670      2.000000
  0.029073 -0.016785  0.061670      2.000000
  0.058146 -0.000000  0.061670      2.000000
  0.087220  0.016785  0.061670      2.000000
 -0.087220 -0.083927  0.061670      2.000000
 -0.058146 -0.067142  0.061670      2.000000
 -0.029073 -0.050356  0.061670      2.000000
  0.000000  0.000000  0.092505      1.000000
  0.029073  0.016785  0.092505      2.000000
  0.058146  0.033571  0.092505      2.000000
  0.087220  0.050356  0.092505      2.000000
  0.000000  0.033571  0.092505      2.000000
  0.029073  0.050356  0.092505      2.000000
  0.058146  0.067142  0.092505      2.000000
  0.087220  0.083927  0.092505      2.000000
 -0.087220 -0.016785  0.092505      2.000000
 -0.058146  0.000000  0.092505      2.000000
 -0.029073  0.016785  0.092505      2.000000
  0.000000  0.067142  0.092505      2.000000
  0.029073  0.083927  0.092505      2.000000
  0.058146  0.100713  0.092505      2.000000
  0.087220  0.117498  0.092505      2.000000
 -0.087220  0.016785  0.092505      2.000000
 -0.058146  0.033571  0.092505      2.000000
 -0.029073  0.050356  0.092505      2.000000
  0.000000  0.100713  0.092505      2.000000
  0.029073  0.117498  0.092505      2.000000
  0.058146  0.134284  0.092505      2.000000
  0.087220  0.151069  0.092505      2.000000
 -0.087220  0.050356  0.092505      2.000000
 -0.058146  0.067142  0.092505      2.000000
 -0.029073  0.083927  0.092505      2.000000
 
 TETIRR: Found    880 inequivalent tetrahedra from     1764


--------------------------------------------------------------------------------------------------------




 Dimension of arrays:
   k-points           NKPTS =    148   k-points in BZ     NKDIM =    148   number of bands    NBANDS=     29
   number of dos      NEDOS =    301   number of ions     NIONS =      9
   non local maximal  LDIM  =      4   non local SUM 2l+1 LMDIM =      8
   total plane-waves  NPLWV =  16128
   max r-space proj   IRMAX =   1367   max aug-charges    IRDMAX=   4970
   dimension x,y,z NGX =    24 NGY =   24 NGZ =   28
   dimension x,y,z NGXF=    48 NGYF=   48 NGZF=   56
   support grid    NGXF=    48 NGYF=   48 NGZF=   56
   ions per type =               3   6
 NGX,Y,Z   is equivalent  to a cutoff of   8.12,  8.12,  8.61 a.u.
 NGXF,Y,Z  is equivalent  to a cutoff of  16.24, 16.24, 17.22 a.u.


 I would recommend the setting:
   dimension x,y,z NGX =    24 NGY =   24 NGZ =   26
 SYSTEM =  unknown system                          
 POSCAR =  SiO2_P3221_icsd_34644                   

 Startparameter for this run:
   NWRITE =      2    write-flag & timer
   PREC   = normal    normal or accurate (medium, high low for compatibility)
   ISTART =      0    job   : 0-new  1-cont  2-samecut
   ICHARG =      2    charge: 1-file 2-atom 10-const
   ISPIN  =      1    spin polarized calculation?
   LNONCOLLINEAR =      F non collinear calculations
   LSORBIT =      F    spin-orbit coupling
   INIWAV =      1    electr: 0-lowe 1-rand  2-diag
   LASPH  =      F    aspherical Exc in radial PAW
   METAGGA=      F    non-selfconsistent MetaGGA calc.

 Electronic Relaxation 1
   ENCUT  =  400.0 eV  29.40 Ry    5.42 a.u.   8.01  8.01  8.81*2*pi/ulx,y,z
   ENINI  =  400.0     initial cutoff
   ENAUG  =  605.4 eV  augmentation charge cutoff
   NELM   =     60;   NELMIN=  4; NELMDL= -5     # of ELM steps 
   EDIFF  = 0.1E-04   stopping-criterion for ELM
   LREAL  =      T    real-space projection
   NLSPLINE    = F    spline interpolate recip. space projectors
   LCOMPAT=      F    compatible to vasp.4.4
   GGA_COMPAT  = T    GGA compatible to vasp.4.4-vasp.4.6
   LMAXPAW     = -100 max onsite density
   LMAXMIX     =    2 max onsite mixed and CHGCAR
   VOSKOWN=      0    Vosko Wilk Nusair interpolation
   ROPT   =   -0.00050  -0.00050
 Ionic relaxation
   EDIFFG = 0.1E-03   stopping-criterion for IOM
   NSW    =      0    number of steps for IOM
   NBLOCK =      1;   KBLOCK =      1    inner block; outer block 
   IBRION =     -1    ionic relax: 0-MD 1-quasi-New 2-CG
   NFREE  =      0    steps in history (QN), initial steepest desc. (CG)
   ISIF   =      2    stress and relaxation
   IWAVPR =     10    prediction:  0-non 1-charg 2-wave 3-comb
   ISYM   =      2    0-nonsym 1-usesym 2-fastsym
   LCORR  =      T    Harris-Foulkes like correction to forces

   POTIM  = 0.5000    time-step for ionic-motion
   TEIN   =    0.0    initial temperature
   TEBEG  =    0.0;   TEEND  =   0.0 temperature during run
   SMASS  =  -3.00    Nose mass-parameter (am)
   estimated Nose-frequenzy (Omega)   =  0.10E-29 period in steps =****** mass=  -0.552E-27a.u.
   SCALEE = 1.0000    scale energy and forces
   NPACO  =    256;   APACO  = 16.0  distance and # of slots for P.C.
   PSTRESS=    0.0 pullay stress

  Mass of Ions in am
   POMASS =  28.09 16.00
  Ionic Valenz
   ZVAL   =   4.00  6.00
  Atomic Wigner-Seitz radii
   RWIGS  =  -1.00 -1.00
  virtual crystal weights 
   VCA    =   1.00  1.00
   NELECT =      48.0000    total number of electrons
   NUPDOWN=      -1.0000    fix difference up-down

 DOS related values:
   EMIN   =  10.00;   EMAX   =-10.00  energy-range for DOS
   EFERMI =   0.00
   ISMEAR =    -5;   SIGMA  =   0.20  broadening in eV -4-tet -1-fermi 0-gaus

 Electronic relaxation 2 (details)
   IALGO  =     68    algorithm
   LDIAG  =      T    sub-space diagonalisation (order eigenvalues)
   LSUBROT=      F    optimize rotation matrix (better conditioning)
   TURBO    =      0    0=normal 1=particle mesh
   IRESTART =      0    0=no restart 2=restart with 2 vectors
   NREBOOT  =      0    no. of reboots
   NMIN     =      0    reboot dimension
   EREF     =   0.00    reference energy to select bands
   IMIX   =      4    mixing-type and parameters
     AMIX     =   0.40;   BMIX     =  1.00
     AMIX_MAG =   1.60;   BMIX_MAG =  1.00
     AMIN     =   0.10
     WC   =   100.;   INIMIX=   1;  MIXPRE=   1;  MAXMIX= -45

 Intra band minimization:
   WEIMIN = 0.0000     energy-eigenvalue tresh-hold
   EBREAK =  0.86E-07  absolut break condition
   DEPER  =   0.30     relativ break condition  

   TIME   =   0.40     timestep for ELM

  volume/ion in A,a.u.               =      12.56        84.74
  Fermi-wavevector in a.u.,A,eV,Ry     =   1.230563  2.325427 20.603106  1.514286
  Thomas-Fermi vector in A             =   2.365407
 
 Write flags
   LWAVE  =      F    write WAVECAR
   LCHARG =      T    write CHGCAR
   LVTOT  =      F    write LOCPOT, total local potential
   LVHAR  =      F    write LOCPOT, Hartree potential only
   LELF   =      F    write electronic localiz. function (ELF)
   LORBIT =      0    0 simple, 1 ext, 2 COOP (PROOUT)


 Dipole corrections
   LMONO  =      F    monopole corrections only (constant potential shift)
   LDIPOL =      F    correct potential (dipole corrections)
   IDIPOL =      0    1-x, 2-y, 3-z, 4-all directions 
   EPSILON=  1.0000000 bulk dielectric constant

 Exchange correlation treatment:
   GGA     =    --    GGA type
   LEXCH   =     8    internal setting for exchange type
   VOSKOWN=      0    Vosko Wilk Nusair interpolation
   LHFCALC =     F    Hartree Fock is set to
   LHFONE  =     F    Hartree Fock one center treatment
   AEXX    =    0.0000 exact exchange contribution

 Linear response parameters
   LEPSILON=     F    determine dielectric tensor
   LRPA    =     F    only Hartree local field effects (RPA)
   LNABLA  =     F    use nabla operator in PAW spheres
   LVEL    =     F    velocity operator in full k-point grid
   LINTERFAST=   F  fast interpolation
   KINTER  =     0    interpolate to denser k-point grid
   CSHIFT  =0.1000    complex shift for real part using Kramers Kronig
   OMEGAMAX=  -1.0    maximum frequency
   DEG_THRESHOLD= 0.2000000E-02 threshold for treating states as degnerate
   RTIME   =    0.100 relaxation time in fs

 Orbital magnetization related:
   ORBITALMAG=     F  switch on orbital magnetization
   LCHIMAG   =     F  perturbation theory with respect to B field
   DQ        =  0.001000  dq finite difference perturbation B field



--------------------------------------------------------------------------------------------------------


 Static calculation
 charge density and potential will be updated during run
 non-spin polarized calculation
 RMM-DIIS sequential band-by-band and
  variant of blocked Davidson during initial phase
 perform sub-space diagonalisation
    before iterative eigenvector-optimisation
 modified Broyden-mixing scheme, WC =      100.0
 initial mixing is a Kerker type mixing with AMIX =  0.4000 and BMIX =      1.0000
 Hartree-type preconditioning will be used
 using additional bands            5
 real space projection scheme for non local part
 use partial core corrections
 calculate Harris-corrections to forces 
   (improved forces if not selfconsistent)
 use gradient corrections 
 use of overlap-Matrix (Vanderbilt PP)
 Fermi weights with tetrahedron method with Bloechl corrections


--------------------------------------------------------------------------------------------------------


  energy-cutoff  :      400.00
  volume of cell :      113.02
      direct lattice vectors                 reciprocal lattice vectors
     4.913700000  0.000000000  0.000000000     0.203512628  0.117498070  0.000000000
    -2.456850000  4.255389030  0.000000000     0.000000000  0.234996141  0.000000000
     0.000000000  0.000000000  5.405130000     0.000000000  0.000000000  0.185009426

  length of vectors
     4.913700000  4.913700003  5.405130000     0.234996141  0.234996141  0.185009426


 
 k-points in units of 2pi/SCALE and weight: k-density: 5.0                          
   0.00000000  0.00000000  0.00000000       0.003
   0.02907323  0.01678544  0.00000000       0.007
   0.05814647  0.03357088  0.00000000       0.007
   0.08721970  0.05035632  0.00000000       0.007
   0.00000000  0.03357088  0.00000000       0.007
   0.02907323  0.05035632  0.00000000       0.007
   0.05814647  0.06714175  0.00000000       0.007
   0.08721970  0.08392719  0.00000000       0.007
  -0.08721970 -0.01678544  0.00000000       0.007
  -0.05814647  0.00000000  0.00000000       0.007
  -0.02907323  0.01678544  0.00000000       0.007
   0.00000000  0.06714175  0.00000000       0.007
   0.02907323  0.08392719  0.00000000       0.007
   0.05814647  0.10071263  0.00000000       0.007
   0.08721970  0.11749807  0.00000000       0.007
  -0.08721970  0.01678544  0.00000000       0.007
  -0.05814647  0.03357088  0.00000000       0.007
  -0.02907323  0.05035632  0.00000000       0.007
   0.00000000  0.10071263  0.00000000       0.007
   0.02907323  0.11749807  0.00000000       0.007
   0.05814647  0.13428351  0.00000000       0.007
   0.08721970  0.15106895  0.00000000       0.007
  -0.08721970  0.05035632  0.00000000       0.007
  -0.05814647  0.06714175  0.00000000       0.007
  -0.02907323  0.08392719  0.00000000       0.007
   0.00000000  0.00000000  0.03083490       0.007
   0.02907323  0.01678544  0.03083490       0.007
   0.05814647  0.03357088  0.03083490       0.007
   0.08721970  0.05035632  0.03083490       0.007
  -0.08721970 -0.05035632  0.03083490       0.007
  -0.05814647 -0.03357088  0.03083490       0.007
  -0.02907323 -0.01678544  0.03083490       0.007
   0.00000000  0.03357088  0.03083490       0.007
   0.02907323  0.05035632  0.03083490       0.007
   0.05814647  0.06714175  0.03083490       0.007
   0.08721970  0.08392719  0.03083490       0.007
  -0.08721970 -0.01678544  0.03083490       0.007
  -0.05814647  0.00000000  0.03083490       0.007
  -0.02907323  0.01678544  0.03083490       0.007
   0.00000000  0.06714175  0.03083490       0.007
   0.02907323  0.08392719  0.03083490       0.007
   0.05814647  0.10071263  0.03083490       0.007
   0.08721970  0.11749807  0.03083490       0.007
  -0.08721970  0.01678544  0.03083490       0.007
  -0.05814647  0.03357088  0.03083490       0.007
  -0.02907323  0.05035632  0.03083490       0.007
   0.00000000  0.10071263  0.03083490       0.007
   0.02907323  0.11749807  0.03083490       0.007
   0.05814647  0.13428351  0.03083490       0.007
   0.08721970  0.15106895  0.03083490       0.007
  -0.08721970  0.05035632  0.03083490       0.007
  -0.05814647  0.06714175  0.03083490       0.007
  -0.02907323  0.08392719  0.03083490       0.007
   0.00000000 -0.10071263  0.03083490       0.007
   0.02907323 -0.08392719  0.03083490       0.007
   0.05814647 -0.06714175  0.03083490       0.007
   0.08721970 -0.05035632  0.03083490       0.007
  -0.08721970 -0.15106895  0.03083490       0.007
  -0.05814647 -0.13428351  0.03083490       0.007
  -0.02907323 -0.11749807  0.03083490       0.007
   0.00000000 -0.06714175  0.03083490       0.007
   0.02907323 -0.05035632  0.03083490       0.007
   0.05814647 -0.03357088  0.03083490       0.007
   0.08721970 -0.01678544  0.03083490       0.007
  -0.08721970 -0.11749807  0.03083490       0.007
  -0.05814647 -0.10071263  0.03083490       0.007
  -0.02907323 -0.08392719  0.03083490       0.007
   0.00000000 -0.03357088  0.03083490       0.007
   0.02907323 -0.01678544  0.03083490       0.007
   0.05814647 -0.00000000  0.03083490       0.007
   0.08721970  0.01678544  0.03083490       0.007
  -0.08721970 -0.08392719  0.03083490       0.007
  -0.05814647 -0.06714175  0.03083490       0.007
  -0.02907323 -0.05035632  0.03083490       0.007
   0.00000000  0.00000000  0.06166981       0.007
   0.02907323  0.01678544  0.06166981       0.007
   0.05814647  0.03357088  0.06166981       0.007
   0.08721970  0.05035632  0.06166981       0.007
  -0.08721970 -0.05035632  0.06166981       0.007
  -0.05814647 -0.03357088  0.06166981       0.007
  -0.02907323 -0.01678544  0.06166981       0.007
   0.00000000  0.03357088  0.06166981       0.007
   0.02907323  0.05035632  0.06166981       0.007
   0.05814647  0.06714175  0.06166981       0.007
   0.08721970  0.08392719  0.06166981       0.007
  -0.08721970 -0.01678544  0.06166981       0.007
  -0.05814647  0.00000000  0.06166981       0.007
  -0.02907323  0.01678544  0.06166981       0.007
   0.00000000  0.06714175  0.06166981       0.007
   0.02907323  0.08392719  0.06166981       0.007
   0.05814647  0.10071263  0.06166981       0.007
   0.08721970  0.11749807  0.06166981       0.007
  -0.08721970  0.01678544  0.06166981       0.007
  -0.05814647  0.03357088  0.06166981       0.007
  -0.02907323  0.05035632  0.06166981       0.007
   0.00000000  0.10071263  0.06166981       0.007
   0.02907323  0.11749807  0.06166981       0.007
   0.05814647  0.13428351  0.06166981       0.007
   0.08721970  0.15106895  0.06166981       0.007
  -0.08721970  0.05035632  0.06166981       0.007
  -0.05814647  0.06714175  0.06166981       0.007
  -0.02907323  0.08392719  0.06166981       0.007
   0.00000000 -0.10071263  0.06166981       0.007
   0.02907323 -0.08392719  0.06166981       0.007
   0.05814647 -0.06714175  0.06166981       0.007
   0.08721970 -0.05035632  0.06166981       0.007
  -0.08721970 -0.15106895  0.06166981       0.007
  -0.05814647 -0.13428351  0.06166981       0.007
  -0.02907323 -0.11749807  0.06166981       0.007
   0.00000000 -0.06714175  0.06166981       0.007
   0.02907323 -0.05035632  0.06166981       0.007
   0.05814647 -0.03357088  0.06166981       0.007
   0.08721970 -0.01678544  0.06166981       0.007
  -0.08721970 -0.11749807  0.06166981       0.007
  -0.05814647 -0.10071263  0.06166981       0.007
  -0.02907323 -0.08392719  0.06166981       0.007
   0.00000000 -0.03357088  0.06166981       0.007
   0.02907323 -0.01678544  0.06166981       0.007
   0.05814647 -0.00000000  0.06166981       0.007
   0.08721970  0.01678544  0.06166981       0.007
  -0.08721970 -0.08392719  0.06166981       0.007
  -0.05814647 -0.06714175  0.06166981       0.007
  -0.02907323 -0.05035632  0.06166981       0.007
   0.00000000  0.00000000  0.09250471       0.003
   0.02907323  0.01678544  0.09250471       0.007
   0.05814647  0.03357088  0.09250471       0.007
   0.08721970  0.05035632  0.09250471       0.007
   0.00000000  0.03357088  0.09250471       0.007
   0.02907323  0.05035632  0.09250471       0.007
   0.05814647  0.06714175  0.09250471       0.007
   0.08721970  0.08392719  0.09250471       0.007
  -0.08721970 -0.01678544  0.09250471       0.007
  -0.05814647  0.00000000  0.09250471       0.007
  -0.02907323  0.01678544  0.09250471       0.007
   0.00000000  0.06714175  0.09250471       0.007
   0.02907323  0.08392719  0.09250471       0.007
   0.05814647  0.10071263  0.09250471       0.007
   0.08721970  0.11749807  0.09250471       0.007
  -0.08721970  0.01678544  0.09250471       0.007
  -0.05814647  0.03357088  0.09250471       0.007
  -0.02907323  0.05035632  0.09250471       0.007
   0.00000000  0.10071263  0.09250471       0.007
   0.02907323  0.11749807  0.09250471       0.007
   0.05814647  0.13428351  0.09250471       0.007
   0.08721970  0.15106895  0.09250471       0.007
  -0.08721970  0.05035632  0.09250471       0.007
  -0.05814647  0.06714175  0.09250471       0.007
  -0.02907323  0.08392719  0.09250471       0.007
 
 k-points in reciprocal lattice and weights: k-density: 5.0                          
   0.00000000  0.00000000  0.00000000       0.003
   0.14285714  0.00000000  0.00000000       0.007
   0.28571429  0.00000000  0.00000000       0.007
   0.42857143  0.00000000  0.00000000       0.007
   0.00000000  0.14285714  0.00000000       0.007
   0.14285714  0.14285714  0.00000000       0.007
   0.28571429  0.14285714  0.00000000       0.007
   0.42857143  0.14285714  0.00000000       0.007
  -0.42857143  0.14285714  0.00000000       0.007
  -0.28571429  0.14285714  0.00000000       0.007
  -0.14285714  0.14285714  0.00000000       0.007
   0.00000000  0.28571429  0.00000000       0.007
   0.14285714  0.28571429  0.00000000       0.007
   0.28571429  0.28571429  0.00000000       0.007
   0.42857143  0.28571429  0.00000000       0.007
  -0.42857143  0.28571429  0.00000000       0.007
  -0.28571429  0.28571429  0.00000000       0.007
  -0.14285714  0.28571429  0.00000000       0.007
   0.00000000  0.42857143  0.00000000       0.007
   0.14285714  0.42857143  0.00000000       0.007
   0.28571429  0.42857143  0.00000000       0.007
   0.42857143  0.42857143  0.00000000       0.007
  -0.42857143  0.42857143  0.00000000       0.007
  -0.28571429  0.42857143  0.00000000       0.007
  -0.14285714  0.42857143  0.00000000       0.007
   0.00000000  0.00000000  0.16666667       0.007
   0.14285714  0.00000000  0.16666667       0.007
   0.28571429  0.00000000  0.16666667       0.007
   0.42857143  0.00000000  0.16666667       0.007
  -0.42857143  0.00000000  0.16666667       0.007
  -0.28571429  0.00000000  0.16666667       0.007
  -0.14285714 -0.00000000  0.16666667       0.007
   0.00000000  0.14285714  0.16666667       0.007
   0.14285714  0.14285714  0.16666667       0.007
   0.28571429  0.14285714  0.16666667       0.007
   0.42857143  0.14285714  0.16666667       0.007
  -0.42857143  0.14285714  0.16666667       0.007
  -0.28571429  0.14285714  0.16666667       0.007
  -0.14285714  0.14285714  0.16666667       0.007
   0.00000000  0.28571429  0.16666667       0.007
   0.14285714  0.28571429  0.16666667       0.007
   0.28571429  0.28571429  0.16666667       0.007
   0.42857143  0.28571429  0.16666667       0.007
  -0.42857143  0.28571429  0.16666667       0.007
  -0.28571429  0.28571429  0.16666667       0.007
  -0.14285714  0.28571429  0.16666667       0.007
   0.00000000  0.42857143  0.16666667       0.007
   0.14285714  0.42857143  0.16666667       0.007
   0.28571429  0.42857143  0.16666667       0.007
   0.42857143  0.42857143  0.16666667       0.007
  -0.42857143  0.42857143  0.16666667       0.007
  -0.28571429  0.42857143  0.16666667       0.007
  -0.14285714  0.42857143  0.16666667       0.007
   0.00000000 -0.42857143  0.16666667       0.007
   0.14285714 -0.42857143  0.16666667       0.007
   0.28571429 -0.42857143  0.16666667       0.007
   0.42857143 -0.42857143  0.16666667       0.007
  -0.42857143 -0.42857143  0.16666667       0.007
  -0.28571429 -0.42857143  0.16666667       0.007
  -0.14285714 -0.42857143  0.16666667       0.007
   0.00000000 -0.28571429  0.16666667       0.007
   0.14285714 -0.28571429  0.16666667       0.007
   0.28571429 -0.28571429  0.16666667       0.007
   0.42857143 -0.28571429  0.16666667       0.007
  -0.42857143 -0.28571429  0.16666667       0.007
  -0.28571429 -0.28571429  0.16666667       0.007
  -0.14285714 -0.28571429  0.16666667       0.007
   0.00000000 -0.14285714  0.16666667       0.007
   0.14285714 -0.14285714  0.16666667       0.007
   0.28571429 -0.14285714  0.16666667       0.007
   0.42857143 -0.14285714  0.16666667       0.007
  -0.42857143 -0.14285714  0.16666667       0.007
  -0.28571429 -0.14285714  0.16666667       0.007
  -0.14285714 -0.14285714  0.16666667       0.007
   0.00000000  0.00000000  0.33333333       0.007
   0.14285714  0.00000000  0.33333333       0.007
   0.28571429  0.00000000  0.33333333       0.007
   0.42857143  0.00000000  0.33333333       0.007
  -0.42857143  0.00000000  0.33333333       0.007
  -0.28571429  0.00000000  0.33333333       0.007
  -0.14285714 -0.00000000  0.33333333       0.007
   0.00000000  0.14285714  0.33333333       0.007
   0.14285714  0.14285714  0.33333333       0.007
   0.28571429  0.14285714  0.33333333       0.007
   0.42857143  0.14285714  0.33333333       0.007
  -0.42857143  0.14285714  0.33333333       0.007
  -0.28571429  0.14285714  0.33333333       0.007
  -0.14285714  0.14285714  0.33333333       0.007
   0.00000000  0.28571429  0.33333333       0.007
   0.14285714  0.28571429  0.33333333       0.007
   0.28571429  0.28571429  0.33333333       0.007
   0.42857143  0.28571429  0.33333333       0.007
  -0.42857143  0.28571429  0.33333333       0.007
  -0.28571429  0.28571429  0.33333333       0.007
  -0.14285714  0.28571429  0.33333333       0.007
   0.00000000  0.42857143  0.33333333       0.007
   0.14285714  0.42857143  0.33333333       0.007
   0.28571429  0.42857143  0.33333333       0.007
   0.42857143  0.42857143  0.33333333       0.007
  -0.42857143  0.42857143  0.33333333       0.007
  -0.28571429  0.42857143  0.33333333       0.007
  -0.14285714  0.42857143  0.33333333       0.007
   0.00000000 -0.42857143  0.33333333       0.007
   0.14285714 -0.42857143  0.33333333       0.007
   0.28571429 -0.42857143  0.33333333       0.007
   0.42857143 -0.42857143  0.33333333       0.007
  -0.42857143 -0.42857143  0.33333333       0.007
  -0.28571429 -0.42857143  0.33333333       0.007
  -0.14285714 -0.42857143  0.33333333       0.007
   0.00000000 -0.28571429  0.33333333       0.007
   0.14285714 -0.28571429  0.33333333       0.007
   0.28571429 -0.28571429  0.33333333       0.007
   0.42857143 -0.28571429  0.33333333       0.007
  -0.42857143 -0.28571429  0.33333333       0.007
  -0.28571429 -0.28571429  0.33333333       0.007
  -0.14285714 -0.28571429  0.33333333       0.007
   0.00000000 -0.14285714  0.33333333       0.007
   0.14285714 -0.14285714  0.33333333       0.007
   0.28571429 -0.14285714  0.33333333       0.007
   0.42857143 -0.14285714  0.33333333       0.007
  -0.42857143 -0.14285714  0.33333333       0.007
  -0.28571429 -0.14285714  0.33333333       0.007
  -0.14285714 -0.14285714  0.33333333       0.007
   0.00000000  0.00000000  0.50000000       0.003
   0.14285714  0.00000000  0.50000000       0.007
   0.28571429  0.00000000  0.50000000       0.007
   0.42857143  0.00000000  0.50000000       0.007
   0.00000000  0.14285714  0.50000000       0.007
   0.14285714  0.14285714  0.50000000       0.007
   0.28571429  0.14285714  0.50000000       0.007
   0.42857143  0.14285714  0.50000000       0.007
  -0.42857143  0.14285714  0.50000000       0.007
  -0.28571429  0.14285714  0.50000000       0.007
  -0.14285714  0.14285714  0.50000000       0.007
   0.00000000  0.28571429  0.50000000       0.007
   0.14285714  0.28571429  0.50000000       0.007
   0.28571429  0.28571429  0.50000000       0.007
   0.42857143  0.28571429  0.50000000       0.007
  -0.42857143  0.28571429  0.50000000       0.007
  -0.28571429  0.28571429  0.50000000       0.007
  -0.14285714  0.28571429  0.50000000       0.007
   0.00000000  0.42857143  0.50000000       0.007
   0.14285714  0.42857143  0.50000000       0.007
   0.28571429  0.42857143  0.50000000       0.007
   0.42857143  0.42857143  0.50000000       0.007
  -0.42857143  0.42857143  0.50000000       0.007
  -0.28571429  0.42857143  0.50000000       0.007
  -0.14285714  0.42857143  0.50000000       0.007
 
 position of ions in fractional coordinates (direct lattice) 
   0.46980000  0.02000000  0.66667000
   0.00000000  0.46980000  0.33333000
   0.53020000  0.53020000  0.00000000
   0.41450000  0.26620000  0.78560000
   0.73380000  0.14830000  0.45227000
   0.85170000  0.58550000  0.11893000
   0.14830000  0.73380000  0.54773000
   0.26620000  0.41450000  0.21440000
   0.58550000  0.85170000  0.88107000
 
 position of ions in cartesian coordinates  (Angst):
   2.25931926  0.08510778  3.60343802
  -1.15422813  1.99918177  1.80169198
   1.30262187  2.25620726  0.00000000
   1.38271518  1.13278456  4.24627013
   3.24132221  0.63107419  2.44457815
   2.74651261  2.49153028  0.64283211
  -1.07413482  3.12260447  2.96055185
   0.28966261  1.76385875  1.15885987
   0.78447221  3.62431484  4.76229789
 


--------------------------------------------------------------------------------------------------------


 k-point  1 :   0.0000 0.0000 0.0000  plane waves:    2009
 k-point  2 :   0.1429 0.0000 0.0000  plane waves:    2044
 k-point  3 :   0.2857 0.0000 0.0000  plane waves:    2062
 k-point  4 :   0.4286 0.0000 0.0000  plane waves:    2048
 k-point  5 :   0.0000 0.1429 0.0000  plane waves:    2044
 k-point  6 :   0.1429 0.1429 0.0000  plane waves:    2048
 k-point  7 :   0.2857 0.1429 0.0000  plane waves:    2048
 k-point  8 :   0.4286 0.1429 0.0000  plane waves:    2058
 k-point  9 :  -0.4286 0.1429 0.0000  plane waves:    2048
 k-point 10 :  -0.2857 0.1429 0.0000  plane waves:    2048
 k-point 11 :  -0.1429 0.1429 0.0000  plane waves:    2044
 k-point 12 :   0.0000 0.2857 0.0000  plane waves:    2062
 k-point 13 :   0.1429 0.2857 0.0000  plane waves:    2048
 k-point 14 :   0.2857 0.2857 0.0000  plane waves:    2074
 k-point 15 :   0.4286 0.2857 0.0000  plane waves:    2074
 k-point 16 :  -0.4286 0.2857 0.0000  plane waves:    2048
 k-point 17 :  -0.2857 0.2857 0.0000  plane waves:    2062
 k-point 18 :  -0.1429 0.2857 0.0000  plane waves:    2048
 k-point 19 :   0.0000 0.4286 0.0000  plane waves:    2048
 k-point 20 :   0.1429 0.4286 0.0000  plane waves:    2058
 k-point 21 :   0.2857 0.4286 0.0000  plane waves:    2074
 k-point 22 :   0.4286 0.4286 0.0000  plane waves:    2058
 k-point 23 :  -0.4286 0.4286 0.0000  plane waves:    2048
 k-point 24 :  -0.2857 0.4286 0.0000  plane waves:    2048
 k-point 25 :  -0.1429 0.4286 0.0000  plane waves:    2048
 k-point 26 :   0.0000 0.0000 0.1667  plane waves:    2039
 k-point 27 :   0.1429 0.0000 0.1667  plane waves:    2043
 k-point 28 :   0.2857 0.0000 0.1667  plane waves:    2047
 k-point 29 :   0.4286 0.0000 0.1667  plane waves:    2050
 k-point 30 :  -0.4286 0.0000 0.1667  plane waves:    2050
 k-point 31 :  -0.2857 0.0000 0.1667  plane waves:    2047
 k-point 32 :  -0.1429-0.0000 0.1667  plane waves:    2043
 k-point 33 :   0.0000 0.1429 0.1667  plane waves:    2043
 k-point 34 :   0.1429 0.1429 0.1667  plane waves:    2046
 k-point 35 :   0.2857 0.1429 0.1667  plane waves:    2059
 k-point 36 :   0.4286 0.1429 0.1667  plane waves:    2061
 k-point 37 :  -0.4286 0.1429 0.1667  plane waves:    2059
 k-point 38 :  -0.2857 0.1429 0.1667  plane waves:    2046
 k-point 39 :  -0.1429 0.1429 0.1667  plane waves:    2043
 k-point 40 :   0.0000 0.2857 0.1667  plane waves:    2047
 k-point 41 :   0.1429 0.2857 0.1667  plane waves:    2059
 k-point 42 :   0.2857 0.2857 0.1667  plane waves:    2060
 k-point 43 :   0.4286 0.2857 0.1667  plane waves:    2060
 k-point 44 :  -0.4286 0.2857 0.1667  plane waves:    2059
 k-point 45 :  -0.2857 0.2857 0.1667  plane waves:    2047
 k-point 46 :  -0.1429 0.2857 0.1667  plane waves:    2046
 k-point 47 :   0.0000 0.4286 0.1667  plane waves:    2050
 k-point 48 :   0.1429 0.4286 0.1667  plane waves:    2061
 k-point 49 :   0.2857 0.4286 0.1667  plane waves:    2060
 k-point 50 :   0.4286 0.4286 0.1667  plane waves:    2061
 k-point 51 :  -0.4286 0.4286 0.1667  plane waves:    2050
 k-point 52 :  -0.2857 0.4286 0.1667  plane waves:    2059
 k-point 53 :  -0.1429 0.4286 0.1667  plane waves:    2059
 k-point 54 :   0.0000-0.4286 0.1667  plane waves:    2050
 k-point 55 :   0.1429-0.4286 0.1667  plane waves:    2059
 k-point 56 :   0.2857-0.4286 0.1667  plane waves:    2059
 k-point 57 :   0.4286-0.4286 0.1667  plane waves:    2050
 k-point 58 :  -0.4286-0.4286 0.1667  plane waves:    2061
 k-point 59 :  -0.2857-0.4286 0.1667  plane waves:    2060
 k-point 60 :  -0.1429-0.4286 0.1667  plane waves:    2061
 k-point 61 :   0.0000-0.2857 0.1667  plane waves:    2047
 k-point 62 :   0.1429-0.2857 0.1667  plane waves:    2046
 k-point 63 :   0.2857-0.2857 0.1667  plane waves:    2047
 k-point 64 :   0.4286-0.2857 0.1667  plane waves:    2059
 k-point 65 :  -0.4286-0.2857 0.1667  plane waves:    2060
 k-point 66 :  -0.2857-0.2857 0.1667  plane waves:    2060
 k-point 67 :  -0.1429-0.2857 0.1667  plane waves:    2059
 k-point 68 :   0.0000-0.1429 0.1667  plane waves:    2043
 k-point 69 :   0.1429-0.1429 0.1667  plane waves:    2043
 k-point 70 :   0.2857-0.1429 0.1667  plane waves:    2046
 k-point 71 :   0.4286-0.1429 0.1667  plane waves:    2059
 k-point 72 :  -0.4286-0.1429 0.1667  plane waves:    2061
 k-point 73 :  -0.2857-0.1429 0.1667  plane waves:    2059
 k-point 74 :  -0.1429-0.1429 0.1667  plane waves:    2046
 k-point 75 :   0.0000 0.0000 0.3333  plane waves:    2028
 k-point 76 :   0.1429 0.0000 0.3333  plane waves:    2045
 k-point 77 :   0.2857 0.0000 0.3333  plane waves:    2054
 k-point 78 :   0.4286 0.0000 0.3333  plane waves:    2056
 k-point 79 :  -0.4286 0.0000 0.3333  plane waves:    2056
 k-point 80 :  -0.2857 0.0000 0.3333  plane waves:    2054
 k-point 81 :  -0.1429-0.0000 0.3333  plane waves:    2045
 k-point 82 :   0.0000 0.1429 0.3333  plane waves:    2045
 k-point 83 :   0.1429 0.1429 0.3333  plane waves:    2061
 k-point 84 :   0.2857 0.1429 0.3333  plane waves:    2054
 k-point 85 :   0.4286 0.1429 0.3333  plane waves:    2049
 k-point 86 :  -0.4286 0.1429 0.3333  plane waves:    2054
 k-point 87 :  -0.2857 0.1429 0.3333  plane waves:    2061
 k-point 88 :  -0.1429 0.1429 0.3333  plane waves:    2045
 k-point 89 :   0.0000 0.2857 0.3333  plane waves:    2054
 k-point 90 :   0.1429 0.2857 0.3333  plane waves:    2054
 k-point 91 :   0.2857 0.2857 0.3333  plane waves:    2050
 k-point 92 :   0.4286 0.2857 0.3333  plane waves:    2050
 k-point 93 :  -0.4286 0.2857 0.3333  plane waves:    2054
 k-point 94 :  -0.2857 0.2857 0.3333  plane waves:    2054
 k-point 95 :  -0.1429 0.2857 0.3333  plane waves:    2061
 k-point 96 :   0.0000 0.4286 0.3333  plane waves:    2056
 k-point 97 :   0.1429 0.4286 0.3333  plane waves:    2049
 k-point 98 :   0.2857 0.4286 0.3333  plane waves:    2050
 k-point 99 :   0.4286 0.4286 0.3333  plane waves:    2049
 k-point ** :  -0.4286 0.4286 0.3333  plane waves:    2056
 k-point ** :  -0.2857 0.4286 0.3333  plane waves:    2054
 k-point ** :  -0.1429 0.4286 0.3333  plane waves:    2054
 k-point ** :   0.0000-0.4286 0.3333  plane waves:    2056
 k-point ** :   0.1429-0.4286 0.3333  plane waves:    2054
 k-point ** :   0.2857-0.4286 0.3333  plane waves:    2054
 k-point ** :   0.4286-0.4286 0.3333  plane waves:    2056
 k-point ** :  -0.4286-0.4286 0.3333  plane waves:    2049
 k-point ** :  -0.2857-0.4286 0.3333  plane waves:    2050
 k-point ** :  -0.1429-0.4286 0.3333  plane waves:    2049
 k-point ** :   0.0000-0.2857 0.3333  plane waves:    2054
 k-point ** :   0.1429-0.2857 0.3333  plane waves:    2061
 k-point ** :   0.2857-0.2857 0.3333  plane waves:    2054
 k-point ** :   0.4286-0.2857 0.3333  plane waves:    2054
 k-point ** :  -0.4286-0.2857 0.3333  plane waves:    2050
 k-point ** :  -0.2857-0.2857 0.3333  plane waves:    2050
 k-point ** :  -0.1429-0.2857 0.3333  plane waves:    2054
 k-point ** :   0.0000-0.1429 0.3333  plane waves:    2045
 k-point ** :   0.1429-0.1429 0.3333  plane waves:    2045
 k-point ** :   0.2857-0.1429 0.3333  plane waves:    2061
 k-point ** :   0.4286-0.1429 0.3333  plane waves:    2054
 k-point ** :  -0.4286-0.1429 0.3333  plane waves:    2049
 k-point ** :  -0.2857-0.1429 0.3333  plane waves:    2054
 k-point ** :  -0.1429-0.1429 0.3333  plane waves:    2061
 k-point ** :   0.0000 0.0000 0.5000  plane waves:    2058
 k-point ** :   0.1429 0.0000 0.5000  plane waves:    2046
 k-point ** :   0.2857 0.0000 0.5000  plane waves:    2042
 k-point ** :   0.4286 0.0000 0.5000  plane waves:    2052
 k-point ** :   0.0000 0.1429 0.5000  plane waves:    2046
 k-point ** :   0.1429 0.1429 0.5000  plane waves:    2060
 k-point ** :   0.2857 0.1429 0.5000  plane waves:    2070
 k-point ** :   0.4286 0.1429 0.5000  plane waves:    2054
 k-point ** :  -0.4286 0.1429 0.5000  plane waves:    2070
 k-point ** :  -0.2857 0.1429 0.5000  plane waves:    2060
 k-point ** :  -0.1429 0.1429 0.5000  plane waves:    2046
 k-point ** :   0.0000 0.2857 0.5000  plane waves:    2042
 k-point ** :   0.1429 0.2857 0.5000  plane waves:    2070
 k-point ** :   0.2857 0.2857 0.5000  plane waves:    2046
 k-point ** :   0.4286 0.2857 0.5000  plane waves:    2046
 k-point ** :  -0.4286 0.2857 0.5000  plane waves:    2070
 k-point ** :  -0.2857 0.2857 0.5000  plane waves:    2042
 k-point ** :  -0.1429 0.2857 0.5000  plane waves:    2060
 k-point ** :   0.0000 0.4286 0.5000  plane waves:    2052
 k-point ** :   0.1429 0.4286 0.5000  plane waves:    2054
 k-point ** :   0.2857 0.4286 0.5000  plane waves:    2046
 k-point ** :   0.4286 0.4286 0.5000  plane waves:    2054
 k-point ** :  -0.4286 0.4286 0.5000  plane waves:    2052
 k-point ** :  -0.2857 0.4286 0.5000  plane waves:    2070
 k-point ** :  -0.1429 0.4286 0.5000  plane waves:    2070

 maximum and minimum number of plane-waves per node :      2074     2009

 maximum number of plane-waves:      2074
 maximum index in each direction: 
   IXMAX=    8   IYMAX=    8   IZMAX=    8
   IXMIN=   -8   IYMIN=   -8   IZMIN=   -9

 WARNING: aliasing errors must be expected set NGX to  34 to avoid them
 WARNING: aliasing errors must be expected set NGY to  34 to avoid them
 WARNING: aliasing errors must be expected set NGZ to  36 to avoid them
 aliasing errors are usually negligible using standard VASP settings
 and one can safely disregard these warnings

 serial   3D FFT for wavefunctions
 parallel 3D FFT for charge:
    minimum data exchange during FFTs selected (reduces bandwidth)


 total amount of memory used by VASP on root node   190977. kBytes
========================================================================

   base      :      30000. kBytes
   nonlr-proj:        968. kBytes
   fftplans  :       4548. kBytes
   grid      :       8064. kBytes
   one-center:         27. kBytes
   wavefun   :     147370. kBytes
 
     INWAV:  cpu time    0.0000: real time    0.0002
 Broyden mixing: mesh for mixing (old mesh)
   NGX = 17   NGY = 17   NGZ = 17
  (NGX  = 48   NGY  = 48   NGZ  = 56)
  gives a total of   4913 points

 initial charge density was supplied:
 charge density of overlapping atoms calculated
 number of electron      48.0000000 magnetization 
 keeping initial charge density in first step


--------------------------------------------------------------------------------------------------------


 Maximum index for non-local projection operator         1282
 Maximum index for augmentation-charges         4640 (set IRDMAX)


--------------------------------------------------------------------------------------------------------


 First call to EWALD:  gamma=   0.367
 Maximum number of real-space cells 3x 3x 3
 Maximum number of reciprocal cells 3x 3x 3

 FEWALD executed in parallel
    FEWALD:  cpu time    0.0020: real time    0.0019


----------------------------------------- Iteration    1(   1)  ---------------------------------------


    POTLOK:  cpu time    0.0730: real time    0.0731
    SETDIJ:  cpu time    0.0130: real time    0.0127
     EDDAV:  cpu time   13.8129: real time   13.8097
 BZINTS: Fermi energy: 16.082137; 48.000000 electrons
         Band energy: -59.227332;  BLOECHL correction: -0.172537
       DOS:  cpu time    0.0610: real time    0.0609
    --------------------------------------------
      LOOP:  cpu time   13.9629: real time   13.9971

 eigenvalue-minimisations  :  8688
 total energy-change (2. order) : 0.2733004E+03  (-0.2259926E+04)
 number of electron      48.0000000 magnetization 
 augmentation part       48.0000000 magnetization 

 Free energy of the ion-electron system (eV)
  ---------------------------------------------------
  alpha Z        PSCENC =        69.72802778
  Ewald energy   TEWEN  =     -1886.62880430
  -Hartree energ DENC   =      -937.03789541
  -exchange      EXHF   =         0.00000000
  -V(xc)+E(xc)   XCENC  =       142.00811384
  PAW double counting   =      1574.92322788    -1533.24131965
  entropy T*S    EENTRO =         0.00000000
  eigenvalues    EBANDS =       -59.22733219
  atomic energy  EATOM  =      2902.77641490
  Solvation  Ediel_sol  =         0.00000000
  ---------------------------------------------------
  free energy    TOTEN  =       273.30043285 eV

  energy without entropy =      273.30043285  energy(sigma->0) =      273.30043285


--------------------------------------------------------------------------------------------------------




----------------------------------------- Iteration    1(   2)  ---------------------------------------


     EDDAV:  cpu time   16.3555: real time   16.3515
 BZINTS: Fermi energy: -0.521502; 48.000000 electrons
         Band energy:-395.418642;  BLOECHL correction:  0.000000
       DOS:  cpu time    0.0130: real time    0.0133
    --------------------------------------------
      LOOP:  cpu time   16.3695: real time   16.3692

 eigenvalue-minimisations  : 11220
 total energy-change (2. order) :-0.3361913E+03  (-0.3294116E+03)
 number of electron      48.0000000 magnetization 
 augmentation part       48.0000000 magnetization 

 Free energy of the ion-electron system (eV)
  ---------------------------------------------------
  alpha Z        PSCENC =        69.72802778
  Ewald energy   TEWEN  =     -1886.62880430
  -Hartree energ DENC   =      -937.03789541
  -exchange      EXHF   =         0.00000000
  -V(xc)+E(xc)   XCENC  =       142.00811384
  PAW double counting   =      1574.92322788    -1533.24131965
  entropy T*S    EENTRO =         0.00000000
  eigenvalues    EBANDS =      -395.41864157
  atomic energy  EATOM  =      2902.77641490
  Solvation  Ediel_sol  =         0.00000000
  ---------------------------------------------------
  free energy    TOTEN  =       -62.89087653 eV

  energy without entropy =      -62.89087653  energy(sigma->0) =      -62.89087653


--------------------------------------------------------------------------------------------------------




----------------------------------------- Iteration    1(   3)  ---------------------------------------


     EDDAV:  cpu time   14.7828: real time   14.7797
 BZINTS: Fermi energy: -2.032962; 48.000000 electrons
         Band energy:-412.669490;  BLOECHL correction:  0.000000
       DOS:  cpu time    0.0090: real time    0.0094
    --------------------------------------------
      LOOP:  cpu time   14.7928: real time   14.7945

 eigenvalue-minimisations  : 10039
 total energy-change (2. order) :-0.1725085E+02  (-0.1720440E+02)
 number of electron      48.0000000 magnetization 
 augmentation part       48.0000000 magnetization 

 Free energy of the ion-electron system (eV)
  ---------------------------------------------------
  alpha Z        PSCENC =        69.72802778
  Ewald energy   TEWEN  =     -1886.62880430
  -Hartree energ DENC   =      -937.03789541
  -exchange      EXHF   =         0.00000000
  -V(xc)+E(xc)   XCENC  =       142.00811384
  PAW double counting   =      1574.92322788    -1533.24131965
  entropy T*S    EENTRO =         0.00000000
  eigenvalues    EBANDS =      -412.66948988
  atomic energy  EATOM  =      2902.77641490
  Solvation  Ediel_sol  =         0.00000000
  ---------------------------------------------------
  free energy    TOTEN  =       -80.14172484 eV

  energy without entropy =      -80.14172484  energy(sigma->0) =      -80.14172484


--------------------------------------------------------------------------------------------------------




----------------------------------------- Iteration    1(   4)  ---------------------------------------


     EDDAV:  cpu time   14.9367: real time   14.9340
 BZINTS: Fermi energy: -2.068391; 48.000000 electrons
         Band energy:-412.883510;  BLOECHL correction:  0.000000
       DOS:  cpu time    0.0080: real time    0.0077
    --------------------------------------------
      LOOP:  cpu time   14.9467: real time   14.9494

 eigenvalue-minimisations  : 10171
 total energy-change (2. order) :-0.2140204E+00  (-0.2136903E+00)
 number of electron      48.0000000 magnetization 
 augmentation part       48.0000000 magnetization 

 Free energy of the ion-electron system (eV)
  ---------------------------------------------------
  alpha Z        PSCENC =        69.72802778
  Ewald energy   TEWEN  =     -1886.62880430
  -Hartree energ DENC   =      -937.03789541
  -exchange      EXHF   =         0.00000000
  -V(xc)+E(xc)   XCENC  =       142.00811384
  PAW double counting   =      1574.92322788    -1533.24131965
  entropy T*S    EENTRO =         0.00000000
  eigenvalues    EBANDS =      -412.88351027
  atomic energy  EATOM  =      2902.77641490
  Solvation  Ediel_sol  =         0.00000000
  ---------------------------------------------------
  free energy    TOTEN  =       -80.35574523 eV

  energy without entropy =      -80.35574523  energy(sigma->0) =      -80.35574523


--------------------------------------------------------------------------------------------------------




----------------------------------------- Iteration    1(   5)  ---------------------------------------


     EDDAV:  cpu time   14.6068: real time   14.6040
 BZINTS: Fermi energy: -2.058224; 48.000000 electrons
         Band energy:-412.887677;  BLOECHL correction:  0.000000
       DOS:  cpu time    0.0080: real time    0.0076
    CHARGE:  cpu time    0.7919: real time    0.7924
    MIXING:  cpu time    0.0020: real time    0.0020
    --------------------------------------------
      LOOP:  cpu time   15.4107: real time   15.4123

 eigenvalue-minimisations  :  9924
 total energy-change (2. order) :-0.4166730E-02  (-0.4165107E-02)
 number of electron      48.0000146 magnetization 
 augmentation part        4.4359405 magnetization 

 Broyden mixing:
  rms(total) = 0.18499E+01    rms(broyden)= 0.18488E+01
  rms(prec ) = 0.34606E+01
  weight for this iteration     100.00

 Free energy of the ion-electron system (eV)
  ---------------------------------------------------
  alpha Z        PSCENC =        69.72802778
  Ewald energy   TEWEN  =     -1886.62880430
  -Hartree energ DENC   =      -937.03789541
  -exchange      EXHF   =         0.00000000
  -V(xc)+E(xc)   XCENC  =       142.00811384
  PAW double counting   =      1574.92322788    -1533.24131965
  entropy T*S    EENTRO =         0.00000000
  eigenvalues    EBANDS =      -412.88767699
  atomic energy  EATOM  =      2902.77641490
  Solvation  Ediel_sol  =         0.00000000
  ---------------------------------------------------
  free energy    TOTEN  =       -80.35991196 eV

  energy without entropy =      -80.35991196  energy(sigma->0) =      -80.35991196


--------------------------------------------------------------------------------------------------------




----------------------------------------- Iteration    1(   6)  ---------------------------------------


    POTLOK:  cpu time    0.0700: real time    0.0712
    SETDIJ:  cpu time    0.0140: real time    0.0131
    EDDIAG:  cpu time    2.1647: real time    2.1648
  RMM-DIIS:  cpu time    9.2146: real time    9.2117
    ORTHCH:  cpu time    0.2400: real time    0.2398
 BZINTS: Fermi energy:  0.702148; 48.000000 electrons
         Band energy:-300.936276;  BLOECHL correction:  0.000000
       DOS:  cpu time    0.0080: real time    0.0077
    CHARGE:  cpu time    0.7909: real time    0.7913
    MIXING:  cpu time    0.0020: real time    0.0022
    --------------------------------------------
      LOOP:  cpu time   12.5061: real time   12.5263

 eigenvalue-minimisations  :  9175
 total energy-change (2. order) : 0.9467372E+01  (-0.4023564E+01)
 number of electron      48.0000126 magnetization 
 augmentation part        3.6529053 magnetization 

 Broyden mixing:
  rms(total) = 0.51802E+00    rms(broyden)= 0.51717E+00
  rms(prec ) = 0.83464E+00
  weight for this iteration     100.00

 eigenvalues of (default mixing * dielectric matrix)
  average eigenvalue GAMMA=   1.0114
  1.0114

 Free energy of the ion-electron system (eV)
  ---------------------------------------------------
  alpha Z        PSCENC =        69.72802778
  Ewald energy   TEWEN  =     -1886.62880430
  -Hartree energ DENC   =     -1044.66520860
  -exchange      EXHF   =         0.00000000
  -V(xc)+E(xc)   XCENC  =       149.23308129
  PAW double counting   =      1892.39964609    -1852.79942027
  entropy T*S    EENTRO =         0.00000000
  eigenvalues    EBANDS =      -300.93627648
  atomic energy  EATOM  =      2902.77641490
  Solvation  Ediel_sol  =         0.00000000
  ---------------------------------------------------
  free energy    TOTEN  =       -70.89253959 eV

  energy without entropy =      -70.89253959  energy(sigma->0) =      -70.89253959


--------------------------------------------------------------------------------------------------------




----------------------------------------- Iteration    1(   7)  ---------------------------------------


    POTLOK:  cpu time    0.0700: real time    0.0706
    SETDIJ:  cpu time    0.0130: real time    0.0130
    EDDIAG:  cpu time    2.1597: real time    2.1591
  RMM-DIIS:  cpu time    9.7435: real time    9.7412
    ORTHCH:  cpu time    0.2370: real time    0.2366
 BZINTS: Fermi energy:  1.080508; 48.000000 electrons
         Band energy:-283.591108;  BLOECHL correction:  0.000000
       DOS:  cpu time    0.0080: real time    0.0074
    CHARGE:  cpu time    0.7829: real time    0.7836
    MIXING:  cpu time    0.0030: real time    0.0024
    --------------------------------------------
      LOOP:  cpu time   13.0190: real time   13.0214

 eigenvalue-minimisations  :  9884
 total energy-change (2. order) : 0.2869868E-01  (-0.1802166E+00)
 number of electron      48.0000123 magnetization 
 augmentation part        3.5352812 magnetization 

 Broyden mixing:
  rms(total) = 0.33992E+00    rms(broyden)= 0.33977E+00
  rms(prec ) = 0.48245E+00
  weight for this iteration     100.00

 eigenvalues of (default mixing * dielectric matrix)
  average eigenvalue GAMMA=   1.7529
  1.1695  2.3363

 Free energy of the ion-electron system (eV)
  ---------------------------------------------------
  alpha Z        PSCENC =        69.72802778
  Ewald energy   TEWEN  =     -1886.62880430
  -Hartree energ DENC   =     -1063.01759099
  -exchange      EXHF   =         0.00000000
  -V(xc)+E(xc)   XCENC  =       150.48027205
  PAW double counting   =      1993.37546994    -1953.98652255
  entropy T*S    EENTRO =         0.00000000
  eigenvalues    EBANDS =      -283.59110773
  atomic energy  EATOM  =      2902.77641490
  Solvation  Ediel_sol  =         0.00000000
  ---------------------------------------------------
  free energy    TOTEN  =       -70.86384092 eV

  energy without entropy =      -70.86384092  energy(sigma->0) =      -70.86384092


--------------------------------------------------------------------------------------------------------




----------------------------------------- Iteration    1(   8)  ---------------------------------------


    POTLOK:  cpu time    0.0700: real time    0.0701
    SETDIJ:  cpu time    0.0130: real time    0.0128
    EDDIAG:  cpu time    2.0887: real time    2.0890
  RMM-DIIS:  cpu time    9.2796: real time    9.2770
    ORTHCH:  cpu time    0.2270: real time    0.2277
 BZINTS: Fermi energy:  1.070848; 48.000000 electrons
         Band energy:-281.122181;  BLOECHL correction:  0.000000
       DOS:  cpu time    0.0090: real time    0.0090
    CHARGE:  cpu time    0.7639: real time    0.7634
    MIXING:  cpu time    0.0020: real time    0.0023
    --------------------------------------------
      LOOP:  cpu time   12.4541: real time   12.4576

 eigenvalue-minimisations  :  9709
 total energy-change (2. order) :-0.1375935E-01  (-0.2758377E-01)
 number of electron      48.0000124 magnetization 
 augmentation part        3.5748039 magnetization 

 Broyden mixing:
  rms(total) = 0.63518E-01    rms(broyden)= 0.63513E-01
  rms(prec ) = 0.11954E+00
  weight for this iteration     100.00

 eigenvalues of (default mixing * dielectric matrix)
  average eigenvalue GAMMA=   1.5635
  2.5421  1.0742  1.0742

 Free energy of the ion-electron system (eV)
  ---------------------------------------------------
  alpha Z        PSCENC =        69.72802778
  Ewald energy   TEWEN  =     -1886.62880430
  -Hartree energ DENC   =     -1065.88300871
  -exchange      EXHF   =         0.00000000
  -V(xc)+E(xc)   XCENC  =       150.76192749
  PAW double counting   =      2070.31701731    -2030.82699386
  entropy T*S    EENTRO =         0.00000000
  eigenvalues    EBANDS =      -281.12218087
  atomic energy  EATOM  =      2902.77641490
  Solvation  Ediel_sol  =         0.00000000
  ---------------------------------------------------
  free energy    TOTEN  =       -70.87760027 eV

  energy without entropy =      -70.87760027  energy(sigma->0) =      -70.87760027


--------------------------------------------------------------------------------------------------------




----------------------------------------- Iteration    1(   9)  ---------------------------------------


    POTLOK:  cpu time    0.0670: real time    0.0669
    SETDIJ:  cpu time    0.0120: real time    0.0124
    EDDIAG:  cpu time    2.0507: real time    2.0504
  RMM-DIIS:  cpu time    9.6175: real time    9.6157
    ORTHCH:  cpu time    0.2300: real time    0.2294
 BZINTS: Fermi energy:  1.241431; 48.000000 electrons
         Band energy:-276.639455;  BLOECHL correction:  0.000000
       DOS:  cpu time    0.0090: real time    0.0091
    CHARGE:  cpu time    0.7659: real time    0.7648
    MIXING:  cpu time    0.0020: real time    0.0024
    --------------------------------------------
      LOOP:  cpu time   12.7561: real time   12.7579

 eigenvalue-minimisations  : 10059
 total energy-change (2. order) : 0.8195681E-02  (-0.4694967E-02)
 number of electron      48.0000123 magnetization 
 augmentation part        3.5530903 magnetization 

 Broyden mixing:
  rms(total) = 0.15262E-01    rms(broyden)= 0.15229E-01
  rms(prec ) = 0.25039E-01
  weight for this iteration     100.00

 eigenvalues of (default mixing * dielectric matrix)
  average eigenvalue GAMMA=   1.6577
  2.6178  1.9549  1.0060  1.0522

 Free energy of the ion-electron system (eV)
  ---------------------------------------------------
  alpha Z        PSCENC =        69.72802778
  Ewald energy   TEWEN  =     -1886.62880430
  -Hartree energ DENC   =     -1070.61259472
  -exchange      EXHF   =         0.00000000
  -V(xc)+E(xc)   XCENC  =       151.08812131
  PAW double counting   =      2082.78456477    -2043.36567910
  entropy T*S    EENTRO =         0.00000000
  eigenvalues    EBANDS =      -276.63945522
  atomic energy  EATOM  =      2902.77641490
  Solvation  Ediel_sol  =         0.00000000
  ---------------------------------------------------
  free energy    TOTEN  =       -70.86940459 eV

  energy without entropy =      -70.86940459  energy(sigma->0) =      -70.86940459


--------------------------------------------------------------------------------------------------------




----------------------------------------- Iteration    1(  10)  ---------------------------------------


    POTLOK:  cpu time    0.0670: real time    0.0678
    SETDIJ:  cpu time    0.0130: real time    0.0125
    EDDIAG:  cpu time    2.0767: real time    2.0760
  RMM-DIIS:  cpu time    9.0816: real time    9.0788
    ORTHCH:  cpu time    0.2300: real time    0.2300
 BZINTS: Fermi energy:  1.258142; 48.000000 electrons
         Band energy:-275.199130;  BLOECHL correction:  0.000000
       DOS:  cpu time    0.0090: real time    0.0093
    CHARGE:  cpu time    0.7709: real time    0.7708
    MIXING:  cpu time    0.0020: real time    0.0025
    --------------------------------------------
      LOOP:  cpu time   12.2511: real time   12.2541

 eigenvalue-minimisations  :  9959
 total energy-change (2. order) :-0.2730589E-02  (-0.1740779E-02)
 number of electron      48.0000123 magnetization 
 augmentation part        3.5398699 magnetization 

 Broyden mixing:
  rms(total) = 0.19607E-01    rms(broyden)= 0.19592E-01
  rms(prec ) = 0.33793E-01
  weight for this iteration     100.00

 eigenvalues of (default mixing * dielectric matrix)
  average eigenvalue GAMMA=   1.6590
  2.6183  2.3599  1.0179  1.1494  1.1494

 Free energy of the ion-electron system (eV)
  ---------------------------------------------------
  alpha Z        PSCENC =        69.72802778
  Ewald energy   TEWEN  =     -1886.62880430
  -Hartree energ DENC   =     -1072.13817369
  -exchange      EXHF   =         0.00000000
  -V(xc)+E(xc)   XCENC  =       151.19005942
  PAW double counting   =      2080.88729052    -2041.48781958
  entropy T*S    EENTRO =         0.00000000
  eigenvalues    EBANDS =      -275.19913022
  atomic energy  EATOM  =      2902.77641490
  Solvation  Ediel_sol  =         0.00000000
  ---------------------------------------------------
  free energy    TOTEN  =       -70.87213518 eV

  energy without entropy =      -70.87213518  energy(sigma->0) =      -70.87213518


--------------------------------------------------------------------------------------------------------




----------------------------------------- Iteration    1(  11)  ---------------------------------------


    POTLOK:  cpu time    0.0680: real time    0.0687
    SETDIJ:  cpu time    0.0120: real time    0.0124
    EDDIAG:  cpu time    2.0637: real time    2.0627
  RMM-DIIS:  cpu time    9.2196: real time    9.2173
    ORTHCH:  cpu time    0.2240: real time    0.2238
 BZINTS: Fermi energy:  1.240188; 48.000000 electrons
         Band energy:-276.405361;  BLOECHL correction:  0.000000
       DOS:  cpu time    0.0090: real time    0.0090
    CHARGE:  cpu time    0.7599: real time    0.7602
    MIXING:  cpu time    0.0030: real time    0.0026
    --------------------------------------------
      LOOP:  cpu time   12.3611: real time   12.3635

 eigenvalue-minimisations  :  9951
 total energy-change (2. order) : 0.8673405E-03  (-0.4358335E-03)
 number of electron      48.0000123 magnetization 
 augmentation part        3.5471123 magnetization 

 Broyden mixing:
  rms(total) = 0.18316E-02    rms(broyden)= 0.18181E-02
  rms(prec ) = 0.26765E-02
  weight for this iteration     100.00

 eigenvalues of (default mixing * dielectric matrix)
  average eigenvalue GAMMA=   1.6435
  2.9092  2.4687  0.9551  1.2150  1.1566  1.1566

 Free energy of the ion-electron system (eV)
  ---------------------------------------------------
  alpha Z        PSCENC =        69.72802778
  Ewald energy   TEWEN  =     -1886.62880430
  -Hartree energ DENC   =     -1070.86933326
  -exchange      EXHF   =         0.00000000
  -V(xc)+E(xc)   XCENC  =       151.10303486
  PAW double counting   =      2076.33437457    -2036.90962128
  entropy T*S    EENTRO =         0.00000000
  eigenvalues    EBANDS =      -276.40536109
  atomic energy  EATOM  =      2902.77641490
  Solvation  Ediel_sol  =         0.00000000
  ---------------------------------------------------
  free energy    TOTEN  =       -70.87126784 eV

  energy without entropy =      -70.87126784  energy(sigma->0) =      -70.87126784


--------------------------------------------------------------------------------------------------------




----------------------------------------- Iteration    1(  12)  ---------------------------------------


    POTLOK:  cpu time    0.0670: real time    0.0666
    SETDIJ:  cpu time    0.0120: real time    0.0124
    EDDIAG:  cpu time    2.0437: real time    2.0436
  RMM-DIIS:  cpu time    8.3137: real time    8.3116
    ORTHCH:  cpu time    0.2250: real time    0.2259
 BZINTS: Fermi energy:  1.237352; 48.000000 electrons
         Band energy:-276.236281;  BLOECHL correction:  0.000000
[...]
      8      -6.3683      2.00000
      9      -5.4583      2.00000
     10      -4.2253      2.00000
     11      -4.0076      2.00000
     12      -3.8234      2.00000
     13      -2.2175      2.00000
     14      -1.9991      2.00000
     15      -1.5240      2.00000
     16      -1.0693      2.00000
     17      -0.8923      2.00000
     18      -0.7415      2.00000
     19      -0.0799      2.00000
     20       0.0943      2.00000
     21       0.2481      2.00000
     22       0.4002      2.00000
     23       0.5318      2.00000
     24       0.7480      2.00000
     25      10.0599      0.00000
     26      10.7090      0.00000
     27      10.8734      0.00000
     28      11.0143      0.00000
     29      11.3349      0.00000

 k-point   139 :      -0.4286    0.2857    0.5000
  band No.  band energies     occupation 
      1     -17.9972      2.00000
      2     -17.5488      2.00000
      3     -16.8155      2.00000
      4     -16.4071      2.00000
      5     -16.1145      2.00000
      6     -15.8945      2.00000
      7      -7.4020      2.00000
      8      -6.0442      2.00000
      9      -5.3869      2.00000
     10      -4.2239      2.00000
     11      -4.1252      2.00000
     12      -3.7490      2.00000
     13      -2.1533      2.00000
     14      -2.0767      2.00000
     15      -1.3904      2.00000
     16      -1.1836      2.00000
     17      -0.9521      2.00000
     18      -0.5788      2.00000
     19      -0.2748      2.00000
     20      -0.0397      2.00000
     21       0.2248      2.00000
     22       0.4388      2.00000
     23       0.6121      2.00000
     24       0.9356      2.00000
     25       9.7991      0.00000
     26      10.1769      0.00000
     27      10.6208      0.00000
     28      10.9414      0.00000
     29      11.4703      0.00000

 k-point   140 :      -0.2857    0.2857    0.5000
  band No.  band energies     occupation 
      1     -18.0064      2.00000
      2     -17.7121      2.00000
      3     -16.6824      2.00000
      4     -16.3363      2.00000
      5     -16.0897      2.00000
      6     -15.8826      2.00000
      7      -7.7337      2.00000
      8      -5.8011      2.00000
      9      -5.3161      2.00000
     10      -4.3235      2.00000
     11      -4.1785      2.00000
     12      -3.6813      2.00000
     13      -2.1058      2.00000
     14      -1.9739      2.00000
     15      -1.4237      2.00000
     16      -1.1597      2.00000
     17      -1.0185      2.00000
     18      -0.5616      2.00000
     19      -0.3177      2.00000
     20      -0.2045      2.00000
     21       0.1602      2.00000
     22       0.5664      2.00000
     23       0.7040      2.00000
     24       1.0294      2.00000
     25       9.5243      0.00000
     26       9.7480      0.00000
     27      10.4738      0.00000
     28      10.7815      0.00000
     29      11.4508      0.00000

 k-point   141 :      -0.1429    0.2857    0.5000
  band No.  band energies     occupation 
      1     -18.0021      2.00000
      2     -17.7903      2.00000
      3     -16.6163      2.00000
      4     -16.2560      2.00000
      5     -16.1508      2.00000
      6     -15.8689      2.00000
      7      -7.8617      2.00000
      8      -5.6967      2.00000
      9      -5.2915      2.00000
     10      -4.4250      2.00000
     11      -4.1440      2.00000
     12      -3.6725      2.00000
     13      -2.0611      2.00000
     14      -1.9099      2.00000
     15      -1.4456      2.00000
     16      -1.2402      2.00000
     17      -0.9614      2.00000
     18      -0.5561      2.00000
     19      -0.3972      2.00000
     20      -0.2209      2.00000
     21       0.1049      2.00000
     22       0.6484      2.00000
     23       0.7935      2.00000
     24       0.9829      2.00000
     25       9.4399      0.00000
     26       9.5508      0.00000
     27      10.4238      0.00000
     28      10.9081      0.00000
     29      11.1543      0.00000

 k-point   142 :       0.0000    0.4286    0.5000
  band No.  band energies     occupation 
      1     -17.9379      2.00000
      2     -17.6260      2.00000
      3     -16.7064      2.00000
      4     -16.4386      2.00000
      5     -16.1960      2.00000
      6     -15.8869      2.00000
      7      -7.3118      2.00000
      8      -6.1669      2.00000
      9      -5.3238      2.00000
     10      -4.2796      2.00000
     11      -4.0239      2.00000
     12      -3.7370      2.00000
     13      -2.2265      2.00000
     14      -2.1041      2.00000
     15      -1.4488      2.00000
     16      -1.1579      2.00000
     17      -0.9479      2.00000
     18      -0.4428      2.00000
     19      -0.2370      2.00000
     20      -0.1133      2.00000
     21       0.1894      2.00000
     22       0.4490      2.00000
     23       0.5901      2.00000
     24       0.9356      2.00000
     25       9.9650      0.00000
     26      10.2651      0.00000
     27      10.7168      0.00000
     28      11.0087      0.00000
     29      11.3786      0.00000

 k-point   143 :       0.1429    0.4286    0.5000
  band No.  band energies     occupation 
      1     -17.9361      2.00000
      2     -17.5555      2.00000
      3     -16.7811      2.00000
      4     -16.4453      2.00000
      5     -16.2042      2.00000
      6     -15.8928      2.00000
      7      -7.1128      2.00000
      8      -6.3071      2.00000
      9      -5.3908      2.00000
     10      -4.2377      2.00000
     11      -4.0185      2.00000
     12      -3.7625      2.00000
     13      -2.2394      2.00000
     14      -2.0639      2.00000
     15      -1.5078      2.00000
     16      -1.1083      2.00000
     17      -0.9311      2.00000
     18      -0.5843      2.00000
     19      -0.0803      2.00000
     20      -0.0633      2.00000
     21       0.2307      2.00000
     22       0.4227      2.00000
     23       0.5487      2.00000
     24       0.8393      2.00000
     25      10.0608      0.00000
     26      10.4945      0.00000
     27      10.7866      0.00000
     28      11.1257      0.00000
     29      11.2694      0.00000

 k-point   144 :       0.2857    0.4286    0.5000
  band No.  band energies     occupation 
      1     -17.9378      2.00000
      2     -17.4882      2.00000
      3     -16.8930      2.00000
      4     -16.4111      2.00000
      5     -16.1934      2.00000
      6     -15.9003      2.00000
      7      -6.9372      2.00000
      8      -6.4390      2.00000
      9      -5.4571      2.00000
     10      -4.2267      2.00000
     11      -3.9991      2.00000
     12      -3.7894      2.00000
     13      -2.2379      2.00000
     14      -2.0063      2.00000
     15      -1.5269      2.00000
     16      -1.0773      2.00000
     17      -0.9031      2.00000
     18      -0.7269      2.00000
     19      -0.0623      2.00000
     20       0.0548      2.00000
     21       0.2855      2.00000
     22       0.3981      2.00000
     23       0.5537      2.00000
     24       0.7351      2.00000
     25      10.0578      0.00000
     26      10.6176      0.00000
     27      10.8259      0.00000
     28      11.0949      0.00000
     29      11.4473      0.00000

 k-point   145 :       0.4286    0.4286    0.5000
  band No.  band energies     occupation 
      1     -17.9481      2.00000
      2     -17.4715      2.00000
      3     -16.9470      2.00000
      4     -16.4061      2.00000
      5     -16.1354      2.00000
      6     -15.9060      2.00000
      7      -7.0368      2.00000
      8      -6.3856      2.00000
      9      -5.4141      2.00000
     10      -4.1931      2.00000
     11      -4.0612      2.00000
     12      -3.7641      2.00000
     13      -2.2227      2.00000
     14      -2.0993      2.00000
     15      -1.3985      2.00000
     16      -1.0693      2.00000
     17      -0.9645      2.00000
     18      -0.6781      2.00000
     19      -0.1706      2.00000
     20      -0.0102      2.00000
     21       0.3038      2.00000
     22       0.3702      2.00000
     23       0.5475      2.00000
     24       0.8865      2.00000
     25      10.0082      0.00000
     26      10.6300      0.00000
     27      10.8024      0.00000
     28      10.8928      0.00000
     29      11.2976      0.00000

 k-point   146 :      -0.4286    0.4286    0.5000
  band No.  band energies     occupation 
      1     -17.9542      2.00000
      2     -17.5416      2.00000
      3     -16.8924      2.00000
      4     -16.3935      2.00000
      5     -16.1043      2.00000
      6     -15.9047      2.00000
      7      -7.2513      2.00000
      8      -6.2261      2.00000
      9      -5.3615      2.00000
     10      -4.1971      2.00000
     11      -4.1053      2.00000
     12      -3.7331      2.00000
     13      -2.2269      2.00000
     14      -2.1098      2.00000
     15      -1.3308      2.00000
     16      -1.1055      2.00000
     17      -1.0149      2.00000
     18      -0.5733      2.00000
     19      -0.2654      2.00000
     20      -0.0948      2.00000
     21       0.3012      2.00000
     22       0.3794      2.00000
     23       0.5769      2.00000
     24       0.9886      2.00000
     25       9.9046      0.00000
     26      10.3745      0.00000
     27      10.6653      0.00000
     28      10.8660      0.00000
     29      11.4125      0.00000

 k-point   147 :      -0.2857    0.4286    0.5000
  band No.  band energies     occupation 
      1     -17.9479      2.00000
      2     -17.6313      2.00000
      3     -16.7974      2.00000
      4     -16.3580      2.00000
      5     -16.1460      2.00000
      6     -15.8957      2.00000
      7      -7.3882      2.00000
      8      -6.0817      2.00000
      9      -5.3831      2.00000
     10      -4.2789      2.00000
     11      -4.0533      2.00000
     12      -3.7276      2.00000
     13      -2.2129      2.00000
     14      -2.0441      2.00000
     15      -1.3767      2.00000
     16      -1.1967      2.00000
     17      -0.9654      2.00000
     18      -0.5685      2.00000
     19      -0.2737      2.00000
     20      -0.0710      2.00000
     21       0.2511      2.00000
     22       0.4443      2.00000
     23       0.6469      2.00000
     24       0.9157      2.00000
     25       9.8028      0.00000
     26      10.1321      0.00000
     27      10.6012      0.00000
     28      10.9669      0.00000
     29      11.5154      0.00000

 k-point   148 :      -0.1429    0.4286    0.5000
  band No.  band energies     occupation 
      1     -17.9391      2.00000
      2     -17.6647      2.00000
      3     -16.7261      2.00000
      4     -16.3611      2.00000
      5     -16.1977      2.00000
      6     -15.8881      2.00000
      7      -7.4102      2.00000
      8      -6.0613      2.00000
      9      -5.3636      2.00000
     10      -4.3200      2.00000
     11      -4.0052      2.00000
     12      -3.7386      2.00000
     13      -2.2134      2.00000
     14      -2.0385      2.00000
     15      -1.4331      2.00000
     16      -1.2195      2.00000
     17      -0.9229      2.00000
     18      -0.5364      2.00000
     19      -0.2575      2.00000
     20      -0.0598      2.00000
     21       0.1936      2.00000
     22       0.4954      2.00000
     23       0.6290      2.00000
     24       0.8946      2.00000
     25       9.8315      0.00000
     26      10.0956      0.00000
     27      10.6080      0.00000
     28      11.0510      0.00000
     29      11.6015      0.00000


--------------------------------------------------------------------------------------------------------


 soft charge-density along one line, spin component           1
         0         1         2         3         4         5         6         7         8         9
 total charge-density along one line
 
 pseudopotential strength for first ion, spin component:           1
 18.764   0.002   0.008   0.002  -0.005  -0.000  -0.000   0.000
  0.002   0.006  -0.000  -0.000   0.000   0.000   0.000  -0.000
  0.008  -0.000   4.222   0.002  -0.002  -0.003  -0.000   0.000
  0.002  -0.000   0.002   4.220  -0.003  -0.000  -0.003   0.000
 -0.005   0.000  -0.002  -0.003   4.221   0.000   0.000  -0.003
 -0.000   0.000  -0.003  -0.000   0.000   0.005   0.000  -0.000
 -0.000   0.000  -0.000  -0.003   0.000   0.000   0.005  -0.000
  0.000  -0.000   0.000   0.000  -0.003  -0.000  -0.000   0.005
 total augmentation occupancy for first ion, spin component:           1
  1.174  -1.654   0.068   0.014  -0.041  -0.129  -0.027   0.103
 -1.654   3.644  -0.174  -0.039   0.152   0.385   0.087  -0.318
  0.068  -0.174   1.065   0.072  -0.056  -1.254  -0.125   0.107
  0.014  -0.039   0.072   0.991  -0.090  -0.124  -1.147   0.155
 -0.041   0.152  -0.056  -0.090   0.985   0.108   0.156  -1.194
 -0.129   0.385  -1.254  -0.124   0.108   1.825   0.251  -0.218
 -0.027   0.087  -0.125  -1.147   0.156   0.251   1.620  -0.308
  0.103  -0.318   0.107   0.155  -1.194  -0.218  -0.308   1.724


------------------------ aborting loop because EDIFF is reached ----------------------------------------


    CHARGE:  cpu time    0.7389: real time    0.7394
    FORLOC:  cpu time    0.0090: real time    0.0088
    FORNL :  cpu time    3.5415: real time    3.5404
    STRESS:  cpu time   10.6304: real time   10.6272
    FORCOR:  cpu time    0.0640: real time    0.0644
    FORHAR:  cpu time    0.0170: real time    0.0165
    MIXING:  cpu time    0.0030: real time    0.0029
    OFIELD:  cpu time    0.0000: real time    0.0000

  FORCE on cell =-STRESS in cart. coord.  units (eV):
  Direction    XX          YY          ZZ          XY          YZ          ZX
  --------------------------------------------------------------------------------------
  Alpha Z    69.72803    69.72803    69.72803
  Ewald    -645.37924  -640.18347  -601.06990   -13.30450    14.70397   -23.87549
  Hartree   347.15744   347.52206   376.21524    -1.08166     1.43228    -2.68465
  E(xc)    -225.67738  -225.69785  -225.58135     0.06522    -0.05477     0.09161
  Local    -421.34681  -426.21989  -494.72806    12.62390   -14.10058    23.67709
  n-local   -52.08624   -51.55335   -52.68204    -1.48935     1.34362    -2.22790
  augment    27.06701    27.02030    27.03133     0.10431    -0.11597     0.19771
  Kinetic   903.67443   903.19211   902.49899     1.06932    -1.24306     1.98169
  Fock        0.00000     0.00000     0.00000     0.00000     0.00000     0.00000
  -------------------------------------------------------------------------------------
  Total       3.13725     3.80794     1.41225    -2.01276     1.96548    -2.83995
  in kB      44.47394    53.98175    20.02022   -28.53300    27.86279   -40.25933
  external pressure =       39.49 kB  Pullay stress =        0.00 kB


 VOLUME and BASIS-vectors are now :
 -----------------------------------------------------------------------------
  energy-cutoff  :      400.00
  volume of cell :      113.02
      direct lattice vectors                 reciprocal lattice vectors
     4.913700000  0.000000000  0.000000000     0.203512628  0.117498070  0.000000000
    -2.456850000  4.255389030  0.000000000     0.000000000  0.234996141  0.000000000
     0.000000000  0.000000000  5.405130000     0.000000000  0.000000000  0.185009426

  length of vectors
     4.913700000  4.913700003  5.405130000     0.234996141  0.234996141  0.185009426


 FORCES acting on ions
    electron-ion (+dipol)            ewald-force                    non-local-force                 convergence-correction
 -----------------------------------------------------------------------------------------------
   -.667E+01 0.123E+02 0.338E+01   0.540E+01 -.106E+02 -.301E+01   0.434E+01 -.634E+01 -.138E+01   0.144E-03 -.701E-03 0.934E-04
   -.213E+00 -.132E+01 0.180E+00   0.352E+00 0.129E+01 0.822E-01   -.220E+00 0.704E+00 -.165E+00   0.197E-03 0.533E-04 0.110E-03
   0.943E+00 0.106E+01 0.377E+00   -.130E+01 0.873E+00 0.899E-01   -.206E+00 -.138E+01 -.274E+00   -.669E-04 0.107E-02 0.182E-03
   0.791E+02 0.380E+00 0.244E+02   -.101E+03 0.477E+01 -.304E+02   0.197E+02 -.258E+01 0.743E+01   -.118E-02 -.125E-02 -.170E-02
   -.447E+02 0.624E+02 0.304E+02   0.543E+02 -.811E+02 -.404E+02   -.973E+01 0.183E+02 0.101E+02   0.138E-02 -.137E-02 -.113E-02
   -.301E+02 -.665E+02 0.303E+02   0.403E+02 0.823E+02 -.400E+02   -.977E+01 -.156E+02 0.960E+01   0.126E-02 0.206E-02 -.867E-03
   0.669E+02 -.796E+01 -.321E+02   -.825E+02 0.688E+01 0.433E+02   0.154E+02 0.151E+01 -.109E+02   -.224E-02 -.133E-04 0.783E-03
   -.294E+02 0.655E+02 -.301E+02   0.394E+02 -.805E+02 0.401E+02   -.939E+01 0.145E+02 -.101E+02   0.474E-04 -.180E-02 0.151E-02
   -.387E+02 -.593E+02 -.237E+02   0.452E+02 0.761E+02 0.302E+02   -.729E+01 -.157E+02 -.736E+01   0.154E-02 0.200E-02 0.146E-02
 -----------------------------------------------------------------------------------------------
   -.279E+01 0.658E+01 0.306E+01   -.355E-13 0.284E-13 0.000E+00   0.280E+01 -.659E+01 -.306E+01   0.107E-02 0.488E-04 0.440E-03
 
 
 POSITION                                       TOTAL-FORCE (eV/Angst)
 -----------------------------------------------------------------------------------
      2.25932      0.08511      3.60344         3.071099     -4.707105     -1.007045
     -1.15423      1.99918      1.80169        -0.082029      0.673498      0.096470
      1.30262      2.25621      0.00000        -0.563072      0.559208      0.193146
      1.38272      1.13278      4.24627        -2.451763      2.570088      1.414411
      3.24132      0.63107      2.44458        -0.091665     -0.416435      0.080951
      2.74651      2.49153      0.64283         0.438166      0.196977     -0.074506
     -1.07413      3.12260      2.96055        -0.209814      0.435386      0.242520
      0.28966      1.76386      1.15886         0.600007     -0.466754     -0.114255
      0.78447      3.62431      4.76230        -0.710930      1.155136     -0.831692
 -----------------------------------------------------------------------------------
    total drift:                                0.014499     -0.008158      0.004882


--------------------------------------------------------------------------------------------------------



  FREE ENERGIE OF THE ION-ELECTRON SYSTEM (eV)
  ---------------------------------------------------
  free  energy   TOTEN  =       -70.87130984 eV

  energy  without entropy=      -70.87130984  energy(sigma->0) =      -70.87130984
 


--------------------------------------------------------------------------------------------------------


    POTLOK:  cpu time    0.0750: real time    0.0755


--------------------------------------------------------------------------------------------------------


     LOOP+:  cpu time  185.9007: real time  186.1691
    4ORBIT:  cpu time    0.0000: real time    0.0000
 BZINTS: Fermi energy:  1.233359; 48.000000 electrons
         Band energy:-276.251325;  BLOECHL correction:  0.000000

 total amount of memory used by VASP on root node   190977. kBytes
========================================================================

   base      :      30000. kBytes
   nonlr-proj:        968. kBytes
   fftplans  :       4548. kBytes
   grid      :       8064. kBytes
   one-center:         27. kBytes
   wavefun   :     147370. kBytes
 
  
  
 General timing and accounting informations for this job:
 ========================================================
  
                  Total CPU time used (sec):      188.876
                            User time (sec):      188.693
                          System time (sec):        0.183
                         Elapsed time (sec):      189.706
  
                   Maximum memory used (kb):      198728.
                   Average memory used (kb):           0.
  
                          Minor page faults:        65444
                          Major page faults:           37
                 Voluntary context switches:         1736
