<?xml version="1.0" encoding="ISO-8859-1"?>
<modeling>
 <generator>
  <i name="program" type="string">vasp </i>
  <i name="version" type="string">5.4.1  </i>
  <i name="subversion" type="string">05Feb16 (build Mar 02 2016 14:09:44) complex                          parallel </i>
  <i name="platform" type="string">Abel-impi-ifc-cuda </i>
  <i name="date" type="string">2019 09 13 </i>
  <i name="time" type="string">12:03:40 </i>
 </generator>
 <incar>
  <i type="string" name="PREC">normal    ! low/normal/accurate</i>
  <i type="string" name="ALGO"> Fast      ! Algorithm for electronic re</i>
  <i type="int" name="ISPIN">     1</i>
  <i type="int" name="NELMIN">     4</i>
  <i name="EDIFF">      0.00001000</i>
  <i type="int" name="NSW">     0</i>
  <i name="ENCUT">    400.00000000</i>
  <i type="string" name="LREAL"> Auto      ! Projection in reciprocal sp</i>
  <i type="int" name="ISMEAR">    -5</i>
  <i name="SIGMA">      0.20000000</i>
  <i type="logical" name="LWAVE"> F  </i>
  <v type="int" name="KPOINT_BSE">    -1     0     0     0</v>
 </incar>
 <kpoints>
  <generation param="Gamma">
   <v type="int" name="divisions">       7        7        6 </v>
   <v name="usershift">      0.00000000       0.00000000       0.00000000 </v>
   <v name="genvec1">      0.14285714       0.00000000       0.00000000 </v>
   <v name="genvec2">      0.00000000       0.14285714       0.00000000 </v>
   <v name="genvec3">      0.00000000       0.00000000       0.16666667 </v>
   <v name="shift">      0.00000000       0.00000000       0.00000000 </v>
  </generation>
  <varray name="kpointlist" >
   <v>       0.00000000       0.00000000       0.00000000 </v>
   <v>       0.14285714       0.00000000       0.00000000 </v>
   <v>       0.28571429       0.00000000       0.00000000 </v>
   <v>       0.42857143       0.00000000       0.00000000 </v>
   <v>       0.00000000       0.14285714       0.00000000 </v>
   <v>       0.14285714       0.14285714       0.00000000 </v>
   <v>       0.28571429       0.14285714       0.00000000 </v>
   <v>       0.42857143       0.14285714       0.00000000 </v>
   <v>      -0.42857143       0.14285714       0.00000000 </v>
   <v>      -0.28571429       0.14285714       0.00000000 </v>
   <v>      -0.14285714       0.14285714       0.00000000 </v>
   <v>       0.00000000       0.28571429       0.00000000 </v>
   <v>       0.14285714       0.28571429       0.00000000 </v>
   <v>       0.28571429       0.28571429       0.00000000 </v>
   <v>       0.42857143       0.28571429       0.00000000 </v>
   <v>      -0.42857143       0.28571429       0.00000000 </v>
   <v>      -0.28571429       0.28571429       0.00000000 </v>
   <v>      -0.14285714       0.28571429       0.00000000 </v>
   <v>       0.00000000       0.42857143       0.00000000 </v>
   <v>       0.14285714       0.42857143       0.00000000 </v>
   <v>       0.28571429       0.42857143       0.00000000 </v>
   <v>       0.42857143       0.42857143       0.00000000 </v>
   <v>      -0.42857143       0.42857143       0.00000000 </v>
   <v>      -0.28571429       0.42857143       0.00000000 </v>
   <v>      -0.14285714       0.42857143       0.00000000 </v>
   <v>       0.00000000       0.00000000       0.16666667 </v>
   <v>       0.14285714       0.00000000       0.16666667 </v>
   <v>       0.28571429       0.00000000       0.16666667 </v>
   <v>       0.42857143       0.00000000       0.16666667 </v>
   <v>      -0.42857143       0.00000000       0.16666667 </v>
   <v>      -0.28571429       0.00000000       0.16666667 </v>
   <v>      -0.14285714      -0.00000000       0.16666667 </v>
   <v>       0.00000000       0.14285714       0.16666667 </v>
   <v>       0.14285714       0.14285714       0.16666667 </v>
   <v>       0.28571429       0.14285714       0.16666667 </v>
   <v>       0.42857143       0.14285714       0.16666667 </v>
   <v>      -0.42857143       0.14285714       0.16666667 </v>
   <v>      -0.28571429       0.14285714       0.16666667 </v>
   <v>      -0.14285714       0.14285714       0.16666667 </v>
   <v>       0.00000000       0.28571429       0.16666667 </v>
   <v>       0.14285714       0.28571429       0.16666667 </v>
   <v>       0.28571429       0.28571429       0.16666667 </v>
   <v>       0.42857143       0.28571429       0.16666667 </v>
   <v>      -0.42857143       0.28571429       0.16666667 </v>
   <v>      -0.28571429       0.28571429       0.16666667 </v>
   <v>      -0.14285714       0.28571429       0.16666667 </v>
   <v>       0.00000000       0.42857143       0.16666667 </v>
   <v>       0.14285714       0.42857143       0.16666667 </v>
   <v>       0.28571429       0.42857143       0.16666667 </v>
   <v>       0.42857143       0.42857143       0.16666667 </v>
   <v>      -0.42857143       0.42857143       0.16666667 </v>
   <v>      -0.28571429       0.42857143       0.16666667 </v>
   <v>      -0.14285714       0.42857143       0.16666667 </v>
   <v>       0.00000000      -0.42857143       0.16666667 </v>
   <v>       0.14285714      -0.42857143       0.16666667 </v>
   <v>       0.28571429      -0.42857143       0.16666667 </v>
   <v>       0.42857143      -0.42857143       0.16666667 </v>
   <v>      -0.42857143      -0.42857143       0.16666667 </v>
   <v>      -0.28571429      -0.42857143       0.16666667 </v>
   <v>      -0.14285714      -0.42857143       0.16666667 </v>
   <v>       0.00000000      -0.28571429       0.16666667 </v>
   <v>       0.14285714      -0.28571429       0.16666667 </v>
   <v>       0.28571429      -0.28571429       0.16666667 </v>
   <v>       0.42857143      -0.28571429       0.16666667 </v>
   <v>      -0.42857143      -0.28571429       0.16666667 </v>
   <v>      -0.28571429      -0.28571429       0.16666667 </v>
   <v>      -0.14285714      -0.28571429       0.16666667 </v>
   <v>       0.00000000      -0.14285714       0.16666667 </v>
   <v>       0.14285714      -0.14285714       0.16666667 </v>
   <v>       0.28571429      -0.14285714       0.16666667 </v>
   <v>       0.42857143      -0.14285714       0.16666667 </v>
   <v>      -0.42857143      -0.14285714       0.16666667 </v>
   <v>      -0.28571429      -0.14285714       0.16666667 </v>
   <v>      -0.14285714      -0.14285714       0.16666667 </v>
   <v>       0.00000000       0.00000000       0.33333333 </v>
   <v>       0.14285714       0.00000000       0.33333333 </v>
   <v>       0.28571429       0.00000000       0.33333333 </v>
   <v>       0.42857143       0.00000000       0.33333333 </v>
   <v>      -0.42857143       0.00000000       0.33333333 </v>
   <v>      -0.28571429       0.00000000       0.33333333 </v>
   <v>      -0.14285714      -0.00000000       0.33333333 </v>
   <v>       0.00000000       0.14285714       0.33333333 </v>
   <v>       0.14285714       0.14285714       0.33333333 </v>
   <v>       0.28571429       0.14285714       0.33333333 </v>
   <v>       0.42857143       0.14285714       0.33333333 </v>
   <v>      -0.42857143       0.14285714       0.33333333 </v>
   <v>      -0.28571429       0.14285714       0.33333333 </v>
   <v>      -0.14285714       0.14285714       0.33333333 </v>
   <v>       0.00000000       0.28571429       0.33333333 </v>
   <v>       0.14285714       0.28571429       0.33333333 </v>
   <v>       0.28571429       0.28571429       0.33333333 </v>
   <v>       0.42857143       0.28571429       0.33333333 </v>
   <v>      -0.42857143       0.28571429       0.33333333 </v>
   <v>      -0.28571429       0.28571429       0.33333333 </v>
   <v>      -0.14285714       0.28571429       0.33333333 </v>
   <v>       0.00000000       0.42857143       0.33333333 </v>
   <v>       0.14285714       0.42857143       0.33333333 </v>
   <v>       0.28571429       0.42857143       0.33333333 </v>
   <v>       0.42857143       0.42857143       0.33333333 </v>
   <v>      -0.42857143       0.42857143       0.33333333 </v>
   <v>      -0.28571429       0.42857143       0.33333333 </v>
   <v>      -0.14285714       0.42857143       0.33333333 </v>
   <v>       0.00000000      -0.42857143       0.33333333 </v>
   <v>       0.14285714      -0.42857143       0.33333333 </v>
   <v>       0.28571429      -0.42857143       0.33333333 </v>
   <v>       0.42857143      -0.42857143       0.33333333 </v>
   <v>      -0.42857143      -0.42857143       0.33333333 </v>
   <v>      -0.28571429      -0.42857143       0.33333333 </v>
   <v>      -0.14285714      -0.42857143       0.33333333 </v>
   <v>       0.00000000      -0.28571429       0.33333333 </v>
   <v>       0.14285714      -0.28571429       0.33333333 </v>
   <v>       0.28571429      -0.28571429       0.33333333 </v>
   <v>       0.42857143      -0.28571429       0.33333333 </v>
   <v>      -0.42857143      -0.28571429       0.33333333 </v>
   <v>      -0.28571429      -0.28571429       0.33333333 </v>
   <v>      -0.14285714      -0.28571429       0.33333333 </v>
   <v>       0.00000000      -0.14285714       0.33333333 </v>
   <v>       0.14285714      -0.14285714       0.33333333 </v>
   <v>       0.28571429      -0.14285714       0.33333333 </v>
   <v>       0.42857143      -0.14285714       0.33333333 </v>
   <v>      -0.42857143      -0.14285714       0.33333333 </v>
   <v>      -0.28571429      -0.14285714       0.33333333 </v>
   <v>      -0.14285714      -0.14285714       0.33333333 </v>
   <v>       0.00000000       0.00000000       0.50000000 </v>
   <v>       0.14285714       0.00000000       0.50000000 </v>
   <v>       0.28571429       0.00000000       0.50000000 </v>
   <v>       0.42857143       0.00000000       0.50000000 </v>
   <v>       0.00000000       0.14285714       0.50000000 </v>
   <v>       0.14285714       0.14285714       0.50000000 </v>
   <v>       0.28571429       0.14285714       0.50000000 </v>
   <v>       0.42857143       0.14285714       0.50000000 </v>
   <v>      -0.42857143       0.14285714       0.50000000 </v>
   <v>      -0.28571429       0.14285714       0.50000000 </v>
   <v>      -0.14285714       0.14285714       0.50000000 </v>
   <v>       0.00000000       0.28571429       0.50000000 </v>
   <v>       0.14285714       0.28571429       0.50000000 </v>
   <v>       0.28571429       0.28571429       0.50000000 </v>
   <v>       0.42857143       0.28571429       0.50000000 </v>
   <v>      -0.42857143       0.28571429       0.50000000 </v>
   <v>      -0.28571429       0.28571429       0.50000000 </v>
   <v>      -0.14285714       0.28571429       0.50000000 </v>
   <v>       0.00000000       0.42857143       0.50000000 </v>
   <v>       0.14285714       0.42857143       0.50000000 </v>
   <v>       0.28571429       0.42857143       0.50000000 </v>
   <v>       0.42857143       0.42857143       0.50000000 </v>
   <v>      -0.42857143       0.42857143       0.50000000 </v>
   <v>      -0.28571429       0.42857143       0.50000000 </v>
   <v>      -0.14285714       0.42857143       0.50000000 </v>
  </varray>
  <varray name="weights" >
   <v>       0.00340136 </v>
   <v>       0.00680272 </v>
   <v>       0.00680272 </v>
   <v>       0.00680272 </v>
   <v>       0.00680272 </v>
   <v>       0.00680272 </v>
   <v>       0.00680272 </v>
   <v>       0.00680272 </v>
   <v>       0.00680272 </v>
   <v>       0.00680272 </v>
   <v>       0.00680272 </v>
   <v>       0.00680272 </v>
   <v>       0.00680272 </v>
   <v>       0.00680272 </v>
   <v>       0.00680272 </v>
   <v>       0.00680272 </v>
   <v>       0.00680272 </v>
   <v>       0.00680272 </v>
   <v>       0.00680272 </v>
   <v>       0.00680272 </v>
   <v>       0.00680272 </v>
   <v>       0.00680272 </v>
   <v>       0.00680272 </v>
   <v>       0.00680272 </v>
   <v>       0.00680272 </v>
   <v>       0.00680272 </v>
   <v>       0.00680272 </v>
   <v>       0.00680272 </v>
   <v>       0.00680272 </v>
   <v>       0.00680272 </v>
   <v>       0.00680272 </v>
   <v>       0.00680272 </v>
   <v>       0.00680272 </v>
   <v>       0.00680272 </v>
   <v>       0.00680272 </v>
   <v>       0.00680272 </v>
   <v>       0.00680272 </v>
   <v>       0.00680272 </v>
   <v>       0.00680272 </v>
   <v>       0.00680272 </v>
   <v>       0.00680272 </v>
   <v>       0.00680272 </v>
   <v>       0.00680272 </v>
   <v>       0.00680272 </v>
   <v>       0.00680272 </v>
   <v>       0.00680272 </v>
   <v>       0.00680272 </v>
   <v>       0.00680272 </v>
   <v>       0.00680272 </v>
   <v>       0.00680272 </v>
   <v>       0.00680272 </v>
   <v>       0.00680272 </v>
   <v>       0.00680272 </v>
   <v>       0.00680272 </v>
   <v>       0.00680272 </v>
   <v>       0.00680272 </v>
   <v>       0.00680272 </v>
   <v>       0.00680272 </v>
   <v>       0.00680272 </v>
   <v>       0.00680272 </v>
   <v>       0.00680272 </v>
   <v>       0.00680272 </v>
   <v>       0.00680272 </v>
   <v>       0.00680272 </v>
   <v>       0.00680272 </v>
   <v>       0.00680272 </v>
   <v>       0.00680272 </v>
   <v>       0.00680272 </v>
   <v>       0.00680272 </v>
   <v>       0.00680272 </v>
   <v>       0.00680272 </v>
   <v>       0.00680272 </v>
   <v>       0.00680272 </v>
   <v>       0.00680272 </v>
   <v>       0.00680272 </v>
   <v>       0.00680272 </v>
   <v>       0.00680272 </v>
   <v>       0.00680272 </v>
   <v>       0.00680272 </v>
   <v>       0.00680272 </v>
   <v>       0.00680272 </v>
   <v>       0.00680272 </v>
   <v>       0.00680272 </v>
   <v>       0.00680272 </v>
   <v>       0.00680272 </v>
   <v>       0.00680272 </v>
   <v>       0.00680272 </v>
   <v>       0.00680272 </v>
   <v>       0.00680272 </v>
   <v>       0.00680272 </v>
   <v>       0.00680272 </v>
   <v>       0.00680272 </v>
   <v>       0.00680272 </v>
   <v>       0.00680272 </v>
   <v>       0.00680272 </v>
   <v>       0.00680272 </v>
   <v>       0.00680272 </v>
   <v>       0.00680272 </v>
   <v>       0.00680272 </v>
   <v>       0.00680272 </v>
   <v>       0.00680272 </v>
   <v>       0.00680272 </v>
   <v>       0.00680272 </v>
   <v>       0.00680272 </v>
   <v>       0.00680272 </v>
   <v>       0.00680272 </v>
   <v>       0.00680272 </v>
   <v>       0.00680272 </v>
   <v>       0.00680272 </v>
   <v>       0.00680272 </v>
   <v>       0.00680272 </v>
   <v>       0.00680272 </v>
   <v>       0.00680272 </v>
   <v>       0.00680272 </v>
   <v>       0.00680272 </v>
   <v>       0.00680272 </v>
   <v>       0.00680272 </v>
   <v>       0.00680272 </v>
   <v>       0.00680272 </v>
   <v>       0.00680272 </v>
   <v>       0.00680272 </v>
   <v>       0.00680272 </v>
   <v>       0.00680272 </v>
   <v>       0.00340136 </v>
   <v>       0.00680272 </v>
   <v>       0.00680272 </v>
   <v>       0.00680272 </v>
   <v>       0.00680272 </v>
   <v>       0.00680272 </v>
   <v>       0.00680272 </v>
   <v>       0.00680272 </v>
   <v>       0.00680272 </v>
   <v>       0.00680272 </v>
   <v>       0.00680272 </v>
   <v>       0.00680272 </v>
   <v>       0.00680272 </v>
   <v>       0.00680272 </v>
   <v>       0.00680272 </v>
   <v>       0.00680272 </v>
   <v>       0.00680272 </v>
   <v>       0.00680272 </v>
   <v>       0.00680272 </v>
   <v>       0.00680272 </v>
   <v>       0.00680272 </v>
   <v>       0.00680272 </v>
   <v>       0.00680272 </v>
   <v>       0.00680272 </v>
   <v>       0.00680272 </v>
  </varray>
  <varray name="tetrahedronlist"  type="int" >
   <v type="int" >        2        2        5        6       33 </v>
   <v type="int" >        2        1        2        5       33 </v>
   <v type="int" >        2        1        2       26       33 </v>
   <v type="int" >        2        2        6       33       34 </v>
   <v type="int" >        2        2       27       33       34 </v>
   <v type="int" >        2        2       26       27       33 </v>
   <v type="int" >        2        3        6        7       34 </v>
   <v type="int" >        2        2        3        6       34 </v>
   <v type="int" >        2        2        3       27       34 </v>
   <v type="int" >        2        3        7       34       35 </v>
   <v type="int" >        2        3       28       34       35 </v>
   <v type="int" >        2        3       27       28       34 </v>
   <v type="int" >        2        4        7        8       35 </v>
   <v type="int" >        2        3        4        7       35 </v>
   <v type="int" >        2        3        4       28       35 </v>
   <v type="int" >        2        4        8       35       36 </v>
   <v type="int" >        2        4       29       35       36 </v>
   <v type="int" >        2        4       28       29       35 </v>
   <v type="int" >        2        4        8        9       36 </v>
   <v type="int" >        2        4        4        8       36 </v>
   <v type="int" >        2        4        4       29       36 </v>
   <v type="int" >        2        4        9       36       37 </v>
   <v type="int" >        2        4       30       36       37 </v>
   <v type="int" >        2        4       29       30       36 </v>
   <v type="int" >        2        3        9       10       37 </v>
   <v type="int" >        2        3        4        9       37 </v>
   <v type="int" >        2        3        4       30       37 </v>
   <v type="int" >        2        3       10       37       38 </v>
   <v type="int" >        2        3       31       37       38 </v>
   <v type="int" >        2        3       30       31       37 </v>
   <v type="int" >        2        2       10       11       38 </v>
   <v type="int" >        2        2        3       10       38 </v>
   <v type="int" >        2        2        3       31       38 </v>
   <v type="int" >        2        2       11       38       39 </v>
   <v type="int" >        2        2       32       38       39 </v>
   <v type="int" >        2        2       31       32       38 </v>
   <v type="int" >        2        1        5       11       39 </v>
   <v type="int" >        2        1        2       11       39 </v>
   <v type="int" >        2        1        2       32       39 </v>
   <v type="int" >        2        1        5       33       39 </v>
   <v type="int" >        2        1       26       33       39 </v>
   <v type="int" >        2        1       26       32       39 </v>
   <v type="int" >        2        6       12       13       40 </v>
   <v type="int" >        2        5        6       12       40 </v>
   <v type="int" >        2        5        6       33       40 </v>
   <v type="int" >        2        6       13       40       41 </v>
   <v type="int" >        2        6       34       40       41 </v>
   <v type="int" >        2        6       33       34       40 </v>
   <v type="int" >        2        7       13       14       41 </v>
   <v type="int" >        2        6        7       13       41 </v>
   <v type="int" >        2        6        7       34       41 </v>
   <v type="int" >        2        7       14       41       42 </v>
   <v type="int" >        2        7       35       41       42 </v>
   <v type="int" >        2        7       34       35       41 </v>
   <v type="int" >        2        8       14       15       42 </v>
   <v type="int" >        2        7        8       14       42 </v>
   <v type="int" >        2        7        8       35       42 </v>
   <v type="int" >        2        8       15       42       43 </v>
   <v type="int" >        2        8       36       42       43 </v>
   <v type="int" >        2        8       35       36       42 </v>
   <v type="int" >        2        9       15       16       43 </v>
   <v type="int" >        2        8        9       15       43 </v>
   <v type="int" >        2        8        9       36       43 </v>
   <v type="int" >        2        9       16       43       44 </v>
   <v type="int" >        2        9       37       43       44 </v>
   <v type="int" >        2        9       36       37       43 </v>
   <v type="int" >        2       10       16       17       44 </v>
   <v type="int" >        2        9       10       16       44 </v>
   <v type="int" >        2        9       10       37       44 </v>
   <v type="int" >        2       10       17       44       45 </v>
   <v type="int" >        2       10       38       44       45 </v>
   <v type="int" >        2       10       37       38       44 </v>
   <v type="int" >        2       11       17       18       45 </v>
   <v type="int" >        2       10       11       17       45 </v>
   <v type="int" >        2       10       11       38       45 </v>
   <v type="int" >        2       11       18       45       46 </v>
   <v type="int" >        2       11       39       45       46 </v>
   <v type="int" >        2       11       38       39       45 </v>
   <v type="int" >        2        5       12       18       46 </v>
   <v type="int" >        2        5       11       18       46 </v>
   <v type="int" >        2        5       11       39       46 </v>
   <v type="int" >        2        5       12       40       46 </v>
   <v type="int" >        2        5       33       40       46 </v>
   <v type="int" >        2        5       33       39       46 </v>
   <v type="int" >        2       13       19       20       47 </v>
   <v type="int" >        2       12       13       19       47 </v>
   <v type="int" >        2       12       13       40       47 </v>
   <v type="int" >        2       13       20       47       48 </v>
   <v type="int" >        2       13       41       47       48 </v>
   <v type="int" >        2       13       40       41       47 </v>
   <v type="int" >        2       14       20       21       48 </v>
   <v type="int" >        2       13       14       20       48 </v>
   <v type="int" >        2       13       14       41       48 </v>
   <v type="int" >        2       14       21       48       49 </v>
   <v type="int" >        2       14       42       48       49 </v>
   <v type="int" >        2       14       41       42       48 </v>
   <v type="int" >        2       15       21       22       49 </v>
   <v type="int" >        2       14       15       21       49 </v>
   <v type="int" >        2       14       15       42       49 </v>
   <v type="int" >        2       15       22       49       50 </v>
   <v type="int" >        2       15       43       49       50 </v>
   <v type="int" >        2       15       42       43       49 </v>
   <v type="int" >        2       16       22       23       50 </v>
   <v type="int" >        2       15       16       22       50 </v>
   <v type="int" >        2       15       16       43       50 </v>
   <v type="int" >        2       16       23       50       51 </v>
   <v type="int" >        2       16       44       50       51 </v>
   <v type="int" >        2       16       43       44       50 </v>
   <v type="int" >        2       17       23       24       51 </v>
   <v type="int" >        2       16       17       23       51 </v>
   <v type="int" >        2       16       17       44       51 </v>
   <v type="int" >        2       17       24       51       52 </v>
   <v type="int" >        2       17       45       51       52 </v>
   <v type="int" >        2       17       44       45       51 </v>
   <v type="int" >        2       18       24       25       52 </v>
   <v type="int" >        2       17       18       24       52 </v>
   <v type="int" >        2       17       18       45       52 </v>
   <v type="int" >        2       18       25       52       53 </v>
   <v type="int" >        2       18       46       52       53 </v>
   <v type="int" >        2       18       45       46       52 </v>
   <v type="int" >        2       12       19       25       53 </v>
   <v type="int" >        2       12       18       25       53 </v>
   <v type="int" >        2       12       18       46       53 </v>
   <v type="int" >        2       12       19       47       53 </v>
   <v type="int" >        2       12       40       47       53 </v>
   <v type="int" >        2       12       40       46       53 </v>
   <v type="int" >        2       19       20       25       54 </v>
   <v type="int" >        2       19       19       20       54 </v>
   <v type="int" >        2       19       20       47       54 </v>
   <v type="int" >        2       20       25       54       55 </v>
   <v type="int" >        2       20       48       54       55 </v>
   <v type="int" >        2       20       47       48       54 </v>
   <v type="int" >        2       21       24       25       55 </v>
   <v type="int" >        2       20       21       25       55 </v>
   <v type="int" >        2       20       21       48       55 </v>
   <v type="int" >        2       21       24       55       56 </v>
   <v type="int" >        2       21       49       55       56 </v>
   <v type="int" >        2       21       48       49       55 </v>
   <v type="int" >        2       22       23       24       56 </v>
   <v type="int" >        2       21       22       24       56 </v>
   <v type="int" >        2       21       22       49       56 </v>
   <v type="int" >        2       22       23       56       57 </v>
   <v type="int" >        2       22       50       56       57 </v>
   <v type="int" >        2       22       49       50       56 </v>
   <v type="int" >        4       22       23       23       57 </v>
   <v type="int" >        2       22       23       50       57 </v>
   <v type="int" >        2       22       23       57       58 </v>
   <v type="int" >        2       23       51       57       58 </v>
   <v type="int" >        2       23       50       51       57 </v>
   <v type="int" >        2       21       22       24       58 </v>
   <v type="int" >        2       22       23       24       58 </v>
   <v type="int" >        2       23       24       51       58 </v>
   <v type="int" >        2       21       24       58       59 </v>
   <v type="int" >        2       24       52       58       59 </v>
   <v type="int" >        2       24       51       52       58 </v>
   <v type="int" >        2       20       21       25       59 </v>
   <v type="int" >        2       21       24       25       59 </v>
   <v type="int" >        2       24       25       52       59 </v>
   <v type="int" >        2       20       25       59       60 </v>
   <v type="int" >        2       25       53       59       60 </v>
   <v type="int" >        2       25       52       53       59 </v>
   <v type="int" >        2       19       19       20       60 </v>
   <v type="int" >        2       19       20       25       60 </v>
   <v type="int" >        2       19       25       53       60 </v>
   <v type="int" >        2       19       19       54       60 </v>
   <v type="int" >        2       19       47       54       60 </v>
   <v type="int" >        2       19       47       53       60 </v>
   <v type="int" >        2       12       18       25       61 </v>
   <v type="int" >        2       12       19       25       61 </v>
   <v type="int" >        2       19       25       54       61 </v>
   <v type="int" >        2       18       25       61       62 </v>
   <v type="int" >        2       25       55       61       62 </v>
   <v type="int" >        2       25       54       55       61 </v>
   <v type="int" >        2       17       18       24       62 </v>
   <v type="int" >        2       18       24       25       62 </v>
   <v type="int" >        2       24       25       55       62 </v>
   <v type="int" >        2       17       24       62       63 </v>
   <v type="int" >        2       24       56       62       63 </v>
   <v type="int" >        2       24       55       56       62 </v>
   <v type="int" >        2       16       17       23       63 </v>
   <v type="int" >        2       17       23       24       63 </v>
   <v type="int" >        2       23       24       56       63 </v>
   <v type="int" >        2       16       23       63       64 </v>
   <v type="int" >        2       23       57       63       64 </v>
   <v type="int" >        2       23       56       57       63 </v>
   <v type="int" >        2       15       16       22       64 </v>
   <v type="int" >        2       16       22       23       64 </v>
   <v type="int" >        2       22       23       57       64 </v>
   <v type="int" >        2       15       22       64       65 </v>
   <v type="int" >        2       22       58       64       65 </v>
   <v type="int" >        2       22       57       58       64 </v>
   <v type="int" >        2       14       15       21       65 </v>
   <v type="int" >        2       15       21       22       65 </v>
   <v type="int" >        2       21       22       58       65 </v>
   <v type="int" >        2       14       21       65       66 </v>
   <v type="int" >        2       21       59       65       66 </v>
   <v type="int" >        2       21       58       59       65 </v>
   <v type="int" >        2       13       14       20       66 </v>
   <v type="int" >        2       14       20       21       66 </v>
   <v type="int" >        2       20       21       59       66 </v>
   <v type="int" >        2       13       20       66       67 </v>
   <v type="int" >        2       20       60       66       67 </v>
   <v type="int" >        2       20       59       60       66 </v>
   <v type="int" >        2       12       13       19       67 </v>
   <v type="int" >        2       13       19       20       67 </v>
   <v type="int" >        2       19       20       60       67 </v>
   <v type="int" >        2       12       19       61       67 </v>
   <v type="int" >        2       19       54       61       67 </v>
   <v type="int" >        2       19       54       60       67 </v>
   <v type="int" >        2        5       11       18       68 </v>
   <v type="int" >        2        5       12       18       68 </v>
   <v type="int" >        2       12       18       61       68 </v>
   <v type="int" >        2       11       18       68       69 </v>
   <v type="int" >        2       18       62       68       69 </v>
   <v type="int" >        2       18       61       62       68 </v>
   <v type="int" >        2       10       11       17       69 </v>
   <v type="int" >        2       11       17       18       69 </v>
   <v type="int" >        2       17       18       62       69 </v>
   <v type="int" >        2       10       17       69       70 </v>
   <v type="int" >        2       17       63       69       70 </v>
   <v type="int" >        2       17       62       63       69 </v>
   <v type="int" >        2        9       10       16       70 </v>
   <v type="int" >        2       10       16       17       70 </v>
   <v type="int" >        2       16       17       63       70 </v>
   <v type="int" >        2        9       16       70       71 </v>
   <v type="int" >        2       16       64       70       71 </v>
   <v type="int" >        2       16       63       64       70 </v>
   <v type="int" >        2        8        9       15       71 </v>
   <v type="int" >        2        9       15       16       71 </v>
   <v type="int" >        2       15       16       64       71 </v>
   <v type="int" >        2        8       15       71       72 </v>
   <v type="int" >        2       15       65       71       72 </v>
   <v type="int" >        2       15       64       65       71 </v>
   <v type="int" >        2        7        8       14       72 </v>
   <v type="int" >        2        8       14       15       72 </v>
   <v type="int" >        2       14       15       65       72 </v>
   <v type="int" >        2        7       14       72       73 </v>
   <v type="int" >        2       14       66       72       73 </v>
   <v type="int" >        2       14       65       66       72 </v>
   <v type="int" >        2        6        7       13       73 </v>
   <v type="int" >        2        7       13       14       73 </v>
   <v type="int" >        2       13       14       66       73 </v>
   <v type="int" >        2        6       13       73       74 </v>
   <v type="int" >        2       13       67       73       74 </v>
   <v type="int" >        2       13       66       67       73 </v>
   <v type="int" >        2        5        6       12       74 </v>
   <v type="int" >        2        6       12       13       74 </v>
   <v type="int" >        2       12       13       67       74 </v>
   <v type="int" >        2        5       12       68       74 </v>
   <v type="int" >        2       12       61       68       74 </v>
   <v type="int" >        2       12       61       67       74 </v>
   <v type="int" >        2        1        2       11       26 </v>
   <v type="int" >        2        1        5       11       26 </v>
   <v type="int" >        2        5       11       26       68 </v>
   <v type="int" >        2        2       11       26       27 </v>
   <v type="int" >        2       11       26       27       69 </v>
   <v type="int" >        2       11       26       68       69 </v>
   <v type="int" >        2        2        3       10       27 </v>
   <v type="int" >        2        2       10       11       27 </v>
   <v type="int" >        2       10       11       27       69 </v>
   <v type="int" >        2        3       10       27       28 </v>
   <v type="int" >        2       10       27       28       70 </v>
   <v type="int" >        2       10       27       69       70 </v>
   <v type="int" >        2        3        4        9       28 </v>
   <v type="int" >        2        3        9       10       28 </v>
   <v type="int" >        2        9       10       28       70 </v>
   <v type="int" >        2        4        9       28       29 </v>
   <v type="int" >        2        9       28       29       71 </v>
   <v type="int" >        2        9       28       70       71 </v>
   <v type="int" >        2        4        4        8       29 </v>
   <v type="int" >        2        4        8        9       29 </v>
   <v type="int" >        2        8        9       29       71 </v>
   <v type="int" >        2        4        8       29       30 </v>
   <v type="int" >        2        8       29       30       72 </v>
   <v type="int" >        2        8       29       71       72 </v>
   <v type="int" >        2        3        4        7       30 </v>
   <v type="int" >        2        4        7        8       30 </v>
   <v type="int" >        2        7        8       30       72 </v>
   <v type="int" >        2        3        7       30       31 </v>
   <v type="int" >        2        7       30       31       73 </v>
   <v type="int" >        2        7       30       72       73 </v>
   <v type="int" >        2        2        3        6       31 </v>
   <v type="int" >        2        3        6        7       31 </v>
   <v type="int" >        2        6        7       31       73 </v>
   <v type="int" >        2        2        6       31       32 </v>
   <v type="int" >        2        6       31       32       74 </v>
   <v type="int" >        2        6       31       73       74 </v>
   <v type="int" >        2        1        2        5       32 </v>
   <v type="int" >        2        2        5        6       32 </v>
   <v type="int" >        2        5        6       32       74 </v>
   <v type="int" >        2        1        5       26       32 </v>
   <v type="int" >        2        5       26       32       68 </v>
   <v type="int" >        2        5       32       68       74 </v>
   <v type="int" >        2       27       33       34       82 </v>
   <v type="int" >        2       26       27       33       82 </v>
   <v type="int" >        2       26       27       75       82 </v>
   <v type="int" >        2       27       34       82       83 </v>
   <v type="int" >        2       27       76       82       83 </v>
   <v type="int" >        2       27       75       76       82 </v>
   <v type="int" >        2       28       34       35       83 </v>
   <v type="int" >        2       27       28       34       83 </v>
   <v type="int" >        2       27       28       76       83 </v>
   <v type="int" >        2       28       35       83       84 </v>
   <v type="int" >        2       28       77       83       84 </v>
   <v type="int" >        2       28       76       77       83 </v>
   <v type="int" >        2       29       35       36       84 </v>
   <v type="int" >        2       28       29       35       84 </v>
   <v type="int" >        2       28       29       77       84 </v>
   <v type="int" >        2       29       36       84       85 </v>
   <v type="int" >        2       29       78       84       85 </v>
   <v type="int" >        2       29       77       78       84 </v>
   <v type="int" >        2       30       36       37       85 </v>
   <v type="int" >        2       29       30       36       85 </v>
   <v type="int" >        2       29       30       78       85 </v>
   <v type="int" >        2       30       37       85       86 </v>
   <v type="int" >        2       30       79       85       86 </v>
   <v type="int" >        2       30       78       79       85 </v>
   <v type="int" >        2       31       37       38       86 </v>
   <v type="int" >        2       30       31       37       86 </v>
   <v type="int" >        2       30       31       79       86 </v>
   <v type="int" >        2       31       38       86       87 </v>
   <v type="int" >        2       31       80       86       87 </v>
   <v type="int" >        2       31       79       80       86 </v>
   <v type="int" >        2       32       38       39       87 </v>
   <v type="int" >        2       31       32       38       87 </v>
   <v type="int" >        2       31       32       80       87 </v>
   <v type="int" >        2       32       39       87       88 </v>
   <v type="int" >        2       32       81       87       88 </v>
   <v type="int" >        2       32       80       81       87 </v>
   <v type="int" >        2       26       33       39       88 </v>
   <v type="int" >        2       26       32       39       88 </v>
   <v type="int" >        2       26       32       81       88 </v>
   <v type="int" >        2       26       33       82       88 </v>
   <v type="int" >        2       26       75       82       88 </v>
   <v type="int" >        2       26       75       81       88 </v>
   <v type="int" >        2       34       40       41       89 </v>
   <v type="int" >        2       33       34       40       89 </v>
   <v type="int" >        2       33       34       82       89 </v>
   <v type="int" >        2       34       41       89       90 </v>
   <v type="int" >        2       34       83       89       90 </v>
   <v type="int" >        2       34       82       83       89 </v>
   <v type="int" >        2       35       41       42       90 </v>
   <v type="int" >        2       34       35       41       90 </v>
   <v type="int" >        2       34       35       83       90 </v>
   <v type="int" >        2       35       42       90       91 </v>
   <v type="int" >        2       35       84       90       91 </v>
   <v type="int" >        2       35       83       84       90 </v>
   <v type="int" >        2       36       42       43       91 </v>
   <v type="int" >        2       35       36       42       91 </v>
   <v type="int" >        2       35       36       84       91 </v>
   <v type="int" >        2       36       43       91       92 </v>
   <v type="int" >        2       36       85       91       92 </v>
   <v type="int" >        2       36       84       85       91 </v>
   <v type="int" >        2       37       43       44       92 </v>
   <v type="int" >        2       36       37       43       92 </v>
   <v type="int" >        2       36       37       85       92 </v>
   <v type="int" >        2       37       44       92       93 </v>
   <v type="int" >        2       37       86       92       93 </v>
   <v type="int" >        2       37       85       86       92 </v>
   <v type="int" >        2       38       44       45       93 </v>
   <v type="int" >        2       37       38       44       93 </v>
   <v type="int" >        2       37       38       86       93 </v>
   <v type="int" >        2       38       45       93       94 </v>
   <v type="int" >        2       38       87       93       94 </v>
   <v type="int" >        2       38       86       87       93 </v>
   <v type="int" >        2       39       45       46       94 </v>
   <v type="int" >        2       38       39       45       94 </v>
   <v type="int" >        2       38       39       87       94 </v>
   <v type="int" >        2       39       46       94       95 </v>
   <v type="int" >        2       39       88       94       95 </v>
   <v type="int" >        2       39       87       88       94 </v>
   <v type="int" >        2       33       40       46       95 </v>
   <v type="int" >        2       33       39       46       95 </v>
   <v type="int" >        2       33       39       88       95 </v>
   <v type="int" >        2       33       40       89       95 </v>
   <v type="int" >        2       33       82       89       95 </v>
   <v type="int" >        2       33       82       88       95 </v>
   <v type="int" >        2       41       47       48       96 </v>
   <v type="int" >        2       40       41       47       96 </v>
   <v type="int" >        2       40       41       89       96 </v>
   <v type="int" >        2       41       48       96       97 </v>
   <v type="int" >        2       41       90       96       97 </v>
   <v type="int" >        2       41       89       90       96 </v>
   <v type="int" >        2       42       48       49       97 </v>
   <v type="int" >        2       41       42       48       97 </v>
   <v type="int" >        2       41       42       90       97 </v>
   <v type="int" >        2       42       49       97       98 </v>
   <v type="int" >        2       42       91       97       98 </v>
   <v type="int" >        2       42       90       91       97 </v>
   <v type="int" >        2       43       49       50       98 </v>
   <v type="int" >        2       42       43       49       98 </v>
   <v type="int" >        2       42       43       91       98 </v>
   <v type="int" >        2       43       50       98       99 </v>
   <v type="int" >        2       43       92       98       99 </v>
   <v type="int" >        2       43       91       92       98 </v>
   <v type="int" >        2       44       50       51       99 </v>
   <v type="int" >        2       43       44       50       99 </v>
   <v type="int" >        2       43       44       92       99 </v>
   <v type="int" >        2       44       51       99      100 </v>
   <v type="int" >        2       44       93       99      100 </v>
   <v type="int" >        2       44       92       93       99 </v>
   <v type="int" >        2       45       51       52      100 </v>
   <v type="int" >        2       44       45       51      100 </v>
   <v type="int" >        2       44       45       93      100 </v>
   <v type="int" >        2       45       52      100      101 </v>
   <v type="int" >        2       45       94      100      101 </v>
   <v type="int" >        2       45       93       94      100 </v>
   <v type="int" >        2       46       52       53      101 </v>
   <v type="int" >        2       45       46       52      101 </v>
   <v type="int" >        2       45       46       94      101 </v>
   <v type="int" >        2       46       53      101      102 </v>
   <v type="int" >        2       46       95      101      102 </v>
   <v type="int" >        2       46       94       95      101 </v>
   <v type="int" >        2       40       47       53      102 </v>
   <v type="int" >        2       40       46       53      102 </v>
   <v type="int" >        2       40       46       95      102 </v>
   <v type="int" >        2       40       47       96      102 </v>
   <v type="int" >        2       40       89       96      102 </v>
   <v type="int" >        2       40       89       95      102 </v>
   <v type="int" >        2       48       54       55      103 </v>
   <v type="int" >        2       47       48       54      103 </v>
   <v type="int" >        2       47       48       96      103 </v>
   <v type="int" >        2       48       55      103      104 </v>
   <v type="int" >        2       48       97      103      104 </v>
   <v type="int" >        2       48       96       97      103 </v>
   <v type="int" >        2       49       55       56      104 </v>
   <v type="int" >        2       48       49       55      104 </v>
   <v type="int" >        2       48       49       97      104 </v>
   <v type="int" >        2       49       56      104      105 </v>
   <v type="int" >        2       49       98      104      105 </v>
   <v type="int" >        2       49       97       98      104 </v>
   <v type="int" >        2       50       56       57      105 </v>
   <v type="int" >        2       49       50       56      105 </v>
   <v type="int" >        2       49       50       98      105 </v>
   <v type="int" >        2       50       57      105      106 </v>
   <v type="int" >        2       50       99      105      106 </v>
   <v type="int" >        2       50       98       99      105 </v>
   <v type="int" >        2       51       57       58      106 </v>
   <v type="int" >        2       50       51       57      106 </v>
   <v type="int" >        2       50       51       99      106 </v>
   <v type="int" >        2       51       58      106      107 </v>
   <v type="int" >        2       51      100      106      107 </v>
   <v type="int" >        2       51       99      100      106 </v>
   <v type="int" >        2       52       58       59      107 </v>
   <v type="int" >        2       51       52       58      107 </v>
   <v type="int" >        2       51       52      100      107 </v>
   <v type="int" >        2       52       59      107      108 </v>
   <v type="int" >        2       52      101      107      108 </v>
   <v type="int" >        2       52      100      101      107 </v>
   <v type="int" >        2       53       59       60      108 </v>
   <v type="int" >        2       52       53       59      108 </v>
   <v type="int" >        2       52       53      101      108 </v>
   <v type="int" >        2       53       60      108      109 </v>
   <v type="int" >        2       53      102      108      109 </v>
   <v type="int" >        2       53      101      102      108 </v>
   <v type="int" >        2       47       54       60      109 </v>
   <v type="int" >        2       47       53       60      109 </v>
   <v type="int" >        2       47       53      102      109 </v>
   <v type="int" >        2       47       54      103      109 </v>
   <v type="int" >        2       47       96      103      109 </v>
   <v type="int" >        2       47       96      102      109 </v>
   <v type="int" >        2       55       61       62      110 </v>
   <v type="int" >        2       54       55       61      110 </v>
   <v type="int" >        2       54       55      103      110 </v>
   <v type="int" >        2       55       62      110      111 </v>
   <v type="int" >        2       55      104      110      111 </v>
   <v type="int" >        2       55      103      104      110 </v>
   <v type="int" >        2       56       62       63      111 </v>
   <v type="int" >        2       55       56       62      111 </v>
   <v type="int" >        2       55       56      104      111 </v>
   <v type="int" >        2       56       63      111      112 </v>
   <v type="int" >        2       56      105      111      112 </v>
   <v type="int" >        2       56      104      105      111 </v>
   <v type="int" >        2       57       63       64      112 </v>
   <v type="int" >        2       56       57       63      112 </v>
   <v type="int" >        2       56       57      105      112 </v>
   <v type="int" >        2       57       64      112      113 </v>
   <v type="int" >        2       57      106      112      113 </v>
   <v type="int" >        2       57      105      106      112 </v>
   <v type="int" >        2       58       64       65      113 </v>
   <v type="int" >        2       57       58       64      113 </v>
   <v type="int" >        2       57       58      106      113 </v>
   <v type="int" >        2       58       65      113      114 </v>
   <v type="int" >        2       58      107      113      114 </v>
   <v type="int" >        2       58      106      107      113 </v>
   <v type="int" >        2       59       65       66      114 </v>
   <v type="int" >        2       58       59       65      114 </v>
   <v type="int" >        2       58       59      107      114 </v>
   <v type="int" >        2       59       66      114      115 </v>
   <v type="int" >        2       59      108      114      115 </v>
   <v type="int" >        2       59      107      108      114 </v>
   <v type="int" >        2       60       66       67      115 </v>
   <v type="int" >        2       59       60       66      115 </v>
   <v type="int" >        2       59       60      108      115 </v>
   <v type="int" >        2       60       67      115      116 </v>
   <v type="int" >        2       60      109      115      116 </v>
   <v type="int" >        2       60      108      109      115 </v>
   <v type="int" >        2       54       61       67      116 </v>
   <v type="int" >        2       54       60       67      116 </v>
   <v type="int" >        2       54       60      109      116 </v>
   <v type="int" >        2       54       61      110      116 </v>
   <v type="int" >        2       54      103      110      116 </v>
   <v type="int" >        2       54      103      109      116 </v>
   <v type="int" >        2       62       68       69      117 </v>
   <v type="int" >        2       61       62       68      117 </v>
   <v type="int" >        2       61       62      110      117 </v>
   <v type="int" >        2       62       69      117      118 </v>
   <v type="int" >        2       62      111      117      118 </v>
   <v type="int" >        2       62      110      111      117 </v>
   <v type="int" >        2       63       69       70      118 </v>
   <v type="int" >        2       62       63       69      118 </v>
   <v type="int" >        2       62       63      111      118 </v>
   <v type="int" >        2       63       70      118      119 </v>
   <v type="int" >        2       63      112      118      119 </v>
   <v type="int" >        2       63      111      112      118 </v>
   <v type="int" >        2       64       70       71      119 </v>
   <v type="int" >        2       63       64       70      119 </v>
   <v type="int" >        2       63       64      112      119 </v>
   <v type="int" >        2       64       71      119      120 </v>
   <v type="int" >        2       64      113      119      120 </v>
   <v type="int" >        2       64      112      113      119 </v>
   <v type="int" >        2       65       71       72      120 </v>
   <v type="int" >        2       64       65       71      120 </v>
   <v type="int" >        2       64       65      113      120 </v>
   <v type="int" >        2       65       72      120      121 </v>
   <v type="int" >        2       65      114      120      121 </v>
   <v type="int" >        2       65      113      114      120 </v>
   <v type="int" >        2       66       72       73      121 </v>
   <v type="int" >        2       65       66       72      121 </v>
   <v type="int" >        2       65       66      114      121 </v>
   <v type="int" >        2       66       73      121      122 </v>
   <v type="int" >        2       66      115      121      122 </v>
   <v type="int" >        2       66      114      115      121 </v>
   <v type="int" >        2       67       73       74      122 </v>
   <v type="int" >        2       66       67       73      122 </v>
   <v type="int" >        2       66       67      115      122 </v>
   <v type="int" >        2       67       74      122      123 </v>
   <v type="int" >        2       67      116      122      123 </v>
   <v type="int" >        2       67      115      116      122 </v>
   <v type="int" >        2       61       68       74      123 </v>
   <v type="int" >        2       61       67       74      123 </v>
   <v type="int" >        2       61       67      116      123 </v>
   <v type="int" >        2       61       68      117      123 </v>
   <v type="int" >        2       61      110      117      123 </v>
   <v type="int" >        2       61      110      116      123 </v>
   <v type="int" >        2       26       27       69       75 </v>
   <v type="int" >        2       26       68       69       75 </v>
   <v type="int" >        2       68       69       75      117 </v>
   <v type="int" >        2       27       69       75       76 </v>
   <v type="int" >        2       69       75       76      118 </v>
   <v type="int" >        2       69       75      117      118 </v>
   <v type="int" >        2       27       28       70       76 </v>
   <v type="int" >        2       27       69       70       76 </v>
   <v type="int" >        2       69       70       76      118 </v>
   <v type="int" >        2       28       70       76       77 </v>
   <v type="int" >        2       70       76       77      119 </v>
   <v type="int" >        2       70       76      118      119 </v>
   <v type="int" >        2       28       29       71       77 </v>
   <v type="int" >        2       28       70       71       77 </v>
   <v type="int" >        2       70       71       77      119 </v>
   <v type="int" >        2       29       71       77       78 </v>
   <v type="int" >        2       71       77       78      120 </v>
   <v type="int" >        2       71       77      119      120 </v>
   <v type="int" >        2       29       30       72       78 </v>
   <v type="int" >        2       29       71       72       78 </v>
   <v type="int" >        2       71       72       78      120 </v>
   <v type="int" >        2       30       72       78       79 </v>
   <v type="int" >        2       72       78       79      121 </v>
   <v type="int" >        2       72       78      120      121 </v>
   <v type="int" >        2       30       31       73       79 </v>
   <v type="int" >        2       30       72       73       79 </v>
   <v type="int" >        2       72       73       79      121 </v>
   <v type="int" >        2       31       73       79       80 </v>
   <v type="int" >        2       73       79       80      122 </v>
   <v type="int" >        2       73       79      121      122 </v>
   <v type="int" >        2       31       32       74       80 </v>
   <v type="int" >        2       31       73       74       80 </v>
   <v type="int" >        2       73       74       80      122 </v>
   <v type="int" >        2       32       74       80       81 </v>
   <v type="int" >        2       74       80       81      123 </v>
   <v type="int" >        2       74       80      122      123 </v>
   <v type="int" >        2       26       32       68       81 </v>
   <v type="int" >        2       32       68       74       81 </v>
   <v type="int" >        2       68       74       81      123 </v>
   <v type="int" >        2       26       68       75       81 </v>
   <v type="int" >        2       68       75       81      117 </v>
   <v type="int" >        2       68       81      117      123 </v>
   <v type="int" >        2       76       82       83      128 </v>
   <v type="int" >        2       75       76       82      128 </v>
   <v type="int" >        2       75       76      124      128 </v>
   <v type="int" >        2       76       83      128      129 </v>
   <v type="int" >        2       76      125      128      129 </v>
   <v type="int" >        2       76      124      125      128 </v>
   <v type="int" >        2       77       83       84      129 </v>
   <v type="int" >        2       76       77       83      129 </v>
   <v type="int" >        2       76       77      125      129 </v>
   <v type="int" >        2       77       84      129      130 </v>
   <v type="int" >        2       77      126      129      130 </v>
   <v type="int" >        2       77      125      126      129 </v>
   <v type="int" >        2       78       84       85      130 </v>
   <v type="int" >        2       77       78       84      130 </v>
   <v type="int" >        2       77       78      126      130 </v>
   <v type="int" >        2       78       85      130      131 </v>
   <v type="int" >        2       78      127      130      131 </v>
   <v type="int" >        2       78      126      127      130 </v>
   <v type="int" >        2       79       85       86      131 </v>
   <v type="int" >        2       78       79       85      131 </v>
   <v type="int" >        2       78       79      127      131 </v>
   <v type="int" >        2       79       86      131      132 </v>
   <v type="int" >        2       79      127      131      132 </v>
   <v type="int" >        2       79      127      127      131 </v>
   <v type="int" >        2       80       86       87      132 </v>
   <v type="int" >        2       79       80       86      132 </v>
   <v type="int" >        2       79       80      127      132 </v>
   <v type="int" >        2       80       87      132      133 </v>
   <v type="int" >        2       80      126      132      133 </v>
   <v type="int" >        2       80      126      127      132 </v>
   <v type="int" >        2       81       87       88      133 </v>
   <v type="int" >        2       80       81       87      133 </v>
   <v type="int" >        2       80       81      126      133 </v>
   <v type="int" >        2       81       88      133      134 </v>
   <v type="int" >        2       81      125      133      134 </v>
   <v type="int" >        2       81      125      126      133 </v>
   <v type="int" >        2       75       82       88      134 </v>
   <v type="int" >        2       75       81       88      134 </v>
   <v type="int" >        2       75       81      125      134 </v>
   <v type="int" >        2       75       82      128      134 </v>
   <v type="int" >        2       75      124      128      134 </v>
   <v type="int" >        2       75      124      125      134 </v>
   <v type="int" >        2       83       89       90      135 </v>
   <v type="int" >        2       82       83       89      135 </v>
   <v type="int" >        2       82       83      128      135 </v>
   <v type="int" >        2       83       90      135      136 </v>
   <v type="int" >        2       83      129      135      136 </v>
   <v type="int" >        2       83      128      129      135 </v>
   <v type="int" >        2       84       90       91      136 </v>
   <v type="int" >        2       83       84       90      136 </v>
   <v type="int" >        2       83       84      129      136 </v>
   <v type="int" >        2       84       91      136      137 </v>
   <v type="int" >        2       84      130      136      137 </v>
   <v type="int" >        2       84      129      130      136 </v>
   <v type="int" >        2       85       91       92      137 </v>
   <v type="int" >        2       84       85       91      137 </v>
   <v type="int" >        2       84       85      130      137 </v>
   <v type="int" >        2       85       92      137      138 </v>
   <v type="int" >        2       85      131      137      138 </v>
   <v type="int" >        2       85      130      131      137 </v>
   <v type="int" >        2       86       92       93      138 </v>
   <v type="int" >        2       85       86       92      138 </v>
   <v type="int" >        2       85       86      131      138 </v>
   <v type="int" >        2       86       93      138      139 </v>
   <v type="int" >        2       86      132      138      139 </v>
   <v type="int" >        2       86      131      132      138 </v>
   <v type="int" >        2       87       93       94      139 </v>
   <v type="int" >        2       86       87       93      139 </v>
   <v type="int" >        2       86       87      132      139 </v>
   <v type="int" >        2       87       94      139      140 </v>
   <v type="int" >        2       87      133      139      140 </v>
   <v type="int" >        2       87      132      133      139 </v>
   <v type="int" >        2       88       94       95      140 </v>
   <v type="int" >        2       87       88       94      140 </v>
   <v type="int" >        2       87       88      133      140 </v>
   <v type="int" >        2       88       95      140      141 </v>
   <v type="int" >        2       88      134      140      141 </v>
   <v type="int" >        2       88      133      134      140 </v>
   <v type="int" >        2       82       89       95      141 </v>
   <v type="int" >        2       82       88       95      141 </v>
   <v type="int" >        2       82       88      134      141 </v>
   <v type="int" >        2       82       89      135      141 </v>
   <v type="int" >        2       82      128      135      141 </v>
   <v type="int" >        2       82      128      134      141 </v>
   <v type="int" >        2       90       96       97      142 </v>
   <v type="int" >        2       89       90       96      142 </v>
   <v type="int" >        2       89       90      135      142 </v>
   <v type="int" >        2       90       97      142      143 </v>
   <v type="int" >        2       90      136      142      143 </v>
   <v type="int" >        2       90      135      136      142 </v>
   <v type="int" >        2       91       97       98      143 </v>
   <v type="int" >        2       90       91       97      143 </v>
   <v type="int" >        2       90       91      136      143 </v>
   <v type="int" >        2       91       98      143      144 </v>
   <v type="int" >        2       91      137      143      144 </v>
   <v type="int" >        2       91      136      137      143 </v>
   <v type="int" >        2       92       98       99      144 </v>
   <v type="int" >        2       91       92       98      144 </v>
   <v type="int" >        2       91       92      137      144 </v>
   <v type="int" >        2       92       99      144      145 </v>
   <v type="int" >        2       92      138      144      145 </v>
   <v type="int" >        2       92      137      138      144 </v>
   <v type="int" >        2       93       99      100      145 </v>
   <v type="int" >        2       92       93       99      145 </v>
   <v type="int" >        2       92       93      138      145 </v>
   <v type="int" >        2       93      100      145      146 </v>
   <v type="int" >        2       93      139      145      146 </v>
   <v type="int" >        2       93      138      139      145 </v>
   <v type="int" >        2       94      100      101      146 </v>
   <v type="int" >        2       93       94      100      146 </v>
   <v type="int" >        2       93       94      139      146 </v>
   <v type="int" >        2       94      101      146      147 </v>
   <v type="int" >        2       94      140      146      147 </v>
   <v type="int" >        2       94      139      140      146 </v>
   <v type="int" >        2       95      101      102      147 </v>
   <v type="int" >        2       94       95      101      147 </v>
   <v type="int" >        2       94       95      140      147 </v>
   <v type="int" >        2       95      102      147      148 </v>
   <v type="int" >        2       95      141      147      148 </v>
   <v type="int" >        2       95      140      141      147 </v>
   <v type="int" >        2       89       96      102      148 </v>
   <v type="int" >        2       89       95      102      148 </v>
   <v type="int" >        2       89       95      141      148 </v>
   <v type="int" >        2       89       96      142      148 </v>
   <v type="int" >        2       89      135      142      148 </v>
   <v type="int" >        2       89      135      141      148 </v>
   <v type="int" >        2       97      103      104      142 </v>
   <v type="int" >        2       96       97      103      142 </v>
   <v type="int" >        2       96       97      142      142 </v>
   <v type="int" >        2       97      104      142      148 </v>
   <v type="int" >        2       97      142      143      148 </v>
   <v type="int" >        2       97      142      142      143 </v>
   <v type="int" >        2       98      104      105      148 </v>
   <v type="int" >        2       97       98      104      148 </v>
   <v type="int" >        2       97       98      143      148 </v>
   <v type="int" >        2       98      105      147      148 </v>
   <v type="int" >        2       98      144      147      148 </v>
   <v type="int" >        2       98      143      144      148 </v>
   <v type="int" >        2       99      105      106      147 </v>
   <v type="int" >        2       98       99      105      147 </v>
   <v type="int" >        2       98       99      144      147 </v>
   <v type="int" >        2       99      106      146      147 </v>
   <v type="int" >        2       99      145      146      147 </v>
   <v type="int" >        2       99      144      145      147 </v>
   <v type="int" >        2      100      106      107      146 </v>
   <v type="int" >        2       99      100      106      146 </v>
   <v type="int" >        2       99      100      145      146 </v>
   <v type="int" >        2      100      107      145      146 </v>
   <v type="int" >        4      100      145      146      146 </v>
   <v type="int" >        2      101      107      108      145 </v>
   <v type="int" >        2      100      101      107      145 </v>
   <v type="int" >        2      100      101      145      146 </v>
   <v type="int" >        2      101      108      144      145 </v>
   <v type="int" >        2      101      144      145      147 </v>
   <v type="int" >        2      101      145      146      147 </v>
   <v type="int" >        2      102      108      109      144 </v>
   <v type="int" >        2      101      102      108      144 </v>
   <v type="int" >        2      101      102      144      147 </v>
   <v type="int" >        2      102      109      143      144 </v>
   <v type="int" >        2      102      143      144      148 </v>
   <v type="int" >        2      102      144      147      148 </v>
   <v type="int" >        2       96      103      109      143 </v>
   <v type="int" >        2       96      102      109      143 </v>
   <v type="int" >        2       96      102      143      148 </v>
   <v type="int" >        2       96      103      142      143 </v>
   <v type="int" >        2       96      142      142      143 </v>
   <v type="int" >        2       96      142      143      148 </v>
   <v type="int" >        2      104      110      111      135 </v>
   <v type="int" >        2      103      104      110      135 </v>
   <v type="int" >        2      103      104      135      142 </v>
   <v type="int" >        2      104      111      135      141 </v>
   <v type="int" >        2      104      135      141      148 </v>
   <v type="int" >        2      104      135      142      148 </v>
   <v type="int" >        2      105      111      112      141 </v>
   <v type="int" >        2      104      105      111      141 </v>
   <v type="int" >        2      104      105      141      148 </v>
   <v type="int" >        2      105      112      140      141 </v>
   <v type="int" >        2      105      140      141      147 </v>
   <v type="int" >        2      105      141      147      148 </v>
   <v type="int" >        2      106      112      113      140 </v>
   <v type="int" >        2      105      106      112      140 </v>
   <v type="int" >        2      105      106      140      147 </v>
   <v type="int" >        2      106      113      139      140 </v>
   <v type="int" >        2      106      139      140      146 </v>
   <v type="int" >        2      106      140      146      147 </v>
   <v type="int" >        2      107      113      114      139 </v>
   <v type="int" >        2      106      107      113      139 </v>
   <v type="int" >        2      106      107      139      146 </v>
   <v type="int" >        2      107      114      138      139 </v>
   <v type="int" >        2      107      138      139      145 </v>
   <v type="int" >        2      107      139      145      146 </v>
   <v type="int" >        2      108      114      115      138 </v>
   <v type="int" >        2      107      108      114      138 </v>
   <v type="int" >        2      107      108      138      145 </v>
   <v type="int" >        2      108      115      137      138 </v>
   <v type="int" >        2      108      137      138      144 </v>
   <v type="int" >        2      108      138      144      145 </v>
   <v type="int" >        2      109      115      116      137 </v>
   <v type="int" >        2      108      109      115      137 </v>
   <v type="int" >        2      108      109      137      144 </v>
   <v type="int" >        2      109      116      136      137 </v>
   <v type="int" >        2      109      136      137      143 </v>
   <v type="int" >        2      109      137      143      144 </v>
   <v type="int" >        2      103      110      116      136 </v>
   <v type="int" >        2      103      109      116      136 </v>
   <v type="int" >        2      103      109      136      143 </v>
   <v type="int" >        2      103      110      135      136 </v>
   <v type="int" >        2      103      135      136      142 </v>
   <v type="int" >        2      103      136      142      143 </v>
   <v type="int" >        2      111      117      118      128 </v>
   <v type="int" >        2      110      111      117      128 </v>
   <v type="int" >        2      110      111      128      135 </v>
   <v type="int" >        2      111      118      128      134 </v>
   <v type="int" >        2      111      128      134      141 </v>
   <v type="int" >        2      111      128      135      141 </v>
   <v type="int" >        2      112      118      119      134 </v>
   <v type="int" >        2      111      112      118      134 </v>
   <v type="int" >        2      111      112      134      141 </v>
   <v type="int" >        2      112      119      133      134 </v>
   <v type="int" >        2      112      133      134      140 </v>
   <v type="int" >        2      112      134      140      141 </v>
   <v type="int" >        2      113      119      120      133 </v>
   <v type="int" >        2      112      113      119      133 </v>
   <v type="int" >        2      112      113      133      140 </v>
   <v type="int" >        2      113      120      132      133 </v>
   <v type="int" >        2      113      132      133      139 </v>
   <v type="int" >        2      113      133      139      140 </v>
   <v type="int" >        2      114      120      121      132 </v>
   <v type="int" >        2      113      114      120      132 </v>
   <v type="int" >        2      113      114      132      139 </v>
   <v type="int" >        2      114      121      131      132 </v>
   <v type="int" >        2      114      131      132      138 </v>
   <v type="int" >        2      114      132      138      139 </v>
   <v type="int" >        2      115      121      122      131 </v>
   <v type="int" >        2      114      115      121      131 </v>
   <v type="int" >        2      114      115      131      138 </v>
   <v type="int" >        2      115      122      130      131 </v>
   <v type="int" >        2      115      130      131      137 </v>
   <v type="int" >        2      115      131      137      138 </v>
   <v type="int" >        2      116      122      123      130 </v>
   <v type="int" >        2      115      116      122      130 </v>
   <v type="int" >        2      115      116      130      137 </v>
   <v type="int" >        2      116      123      129      130 </v>
   <v type="int" >        2      116      129      130      136 </v>
   <v type="int" >        2      116      130      136      137 </v>
   <v type="int" >        2      110      117      123      129 </v>
   <v type="int" >        2      110      116      123      129 </v>
   <v type="int" >        2      110      116      129      136 </v>
   <v type="int" >        2      110      117      128      129 </v>
   <v type="int" >        2      110      128      129      135 </v>
   <v type="int" >        2      110      129      135      136 </v>
   <v type="int" >        2       75       76      118      124 </v>
   <v type="int" >        2       75      117      118      124 </v>
   <v type="int" >        2      117      118      124      128 </v>
   <v type="int" >        2       76      118      124      125 </v>
   <v type="int" >        2      118      124      125      134 </v>
   <v type="int" >        2      118      124      128      134 </v>
   <v type="int" >        2       76       77      119      125 </v>
   <v type="int" >        2       76      118      119      125 </v>
   <v type="int" >        2      118      119      125      134 </v>
   <v type="int" >        2       77      119      125      126 </v>
   <v type="int" >        2      119      125      126      133 </v>
   <v type="int" >        2      119      125      133      134 </v>
   <v type="int" >        2       77       78      120      126 </v>
   <v type="int" >        2       77      119      120      126 </v>
   <v type="int" >        2      119      120      126      133 </v>
   <v type="int" >        2       78      120      126      127 </v>
   <v type="int" >        2      120      126      127      132 </v>
   <v type="int" >        2      120      126      132      133 </v>
   <v type="int" >        2       78       79      121      127 </v>
   <v type="int" >        2       78      120      121      127 </v>
   <v type="int" >        2      120      121      127      132 </v>
   <v type="int" >        2       79      121      127      127 </v>
   <v type="int" >        2      121      127      127      131 </v>
   <v type="int" >        2      121      127      131      132 </v>
   <v type="int" >        2       79       80      122      127 </v>
   <v type="int" >        2       79      121      122      127 </v>
   <v type="int" >        2      121      122      127      131 </v>
   <v type="int" >        2       80      122      126      127 </v>
   <v type="int" >        2      122      126      127      130 </v>
   <v type="int" >        2      122      127      130      131 </v>
   <v type="int" >        2       80       81      123      126 </v>
   <v type="int" >        2       80      122      123      126 </v>
   <v type="int" >        2      122      123      126      130 </v>
   <v type="int" >        2       81      123      125      126 </v>
   <v type="int" >        2      123      125      126      129 </v>
   <v type="int" >        2      123      126      129      130 </v>
   <v type="int" >        2       75       81      117      125 </v>
   <v type="int" >        2       81      117      123      125 </v>
   <v type="int" >        2      117      123      125      129 </v>
   <v type="int" >        2       75      117      124      125 </v>
   <v type="int" >        2      117      124      125      128 </v>
   <v type="int" >        2      117      125      128      129 </v>
  </varray>
  <i name="volumeweight">      0.00056689 </i>
 </kpoints>
 <parameters>
  <separator name="general" >
   <i type="string" name="SYSTEM">unknown system</i>
   <i type="logical" name="LCOMPAT"> F  </i>
  </separator>
  <separator name="electronic" >
   <i type="string" name="PREC">normal</i>
   <i name="ENMAX">    400.00000000</i>
   <i name="ENAUG">    605.39200000</i>
   <i name="EDIFF">      0.00001000</i>
   <i type="int" name="IALGO">    68</i>
   <i type="int" name="IWAVPR">    10</i>
   <i type="int" name="NBANDS">    29</i>
   <i name="NELECT">     48.00000000</i>
   <i type="int" name="TURBO">     0</i>
   <i type="int" name="IRESTART">     0</i>
   <i type="int" name="NREBOOT">     0</i>
   <i type="int" name="NMIN">     0</i>
   <i name="EREF">      0.00000000</i>
   <separator name="electronic smearing" >
    <i type="int" name="ISMEAR">    -5</i>
    <i name="SIGMA">      0.20000000</i>
    <i name="KSPACING">      0.50000000</i>
    <i type="logical" name="KGAMMA"> T  </i>
   </separator>
   <separator name="electronic projectors" >
    <i type="logical" name="LREAL"> T  </i>
    <v name="ROPT">     -0.00050000     -0.00050000</v>
    <i type="int" name="LMAXPAW">  -100</i>
    <i type="int" name="LMAXMIX">     2</i>
    <i type="logical" name="NLSPLINE"> F  </i>
   </separator>
   <separator name="electronic startup" >
    <i type="int" name="ISTART">     0</i>
    <i type="int" name="ICHARG">     2</i>
    <i type="int" name="INIWAV">     1</i>
   </separator>
   <separator name="electronic spin" >
    <i type="int" name="ISPIN">     1</i>
    <i type="logical" name="LNONCOLLINEAR"> F  </i>
    <v name="MAGMOM">      1.00000000      1.00000000      1.00000000      1.00000000      1.00000000      1.00000000      1.00000000      1.00000000      1.00000000</v>
    <i name="NUPDOWN">     -1.00000000</i>
    <i type="logical" name="LSORBIT"> F  </i>
    <v name="SAXIS">      0.00000000      0.00000000      1.00000000</v>
    <i type="logical" name="LSPIRAL"> F  </i>
    <v name="QSPIRAL">      0.00000000      0.00000000      0.00000000</v>
    <i type="logical" name="LZEROZ"> F  </i>
   </separator>
   <separator name="electronic exchange-correlation" >
    <i type="logical" name="LASPH"> F  </i>
    <i type="logical" name="LMETAGGA"> F  </i>
   </separator>
   <separator name="electronic convergence" >
    <i type="int" name="NELM">    60</i>
    <i type="int" name="NELMDL">    -5</i>
    <i type="int" name="NELMIN">     4</i>
    <i name="ENINI">    400.00000000</i>
    <separator name="electronic convergence detail" >
     <i type="logical" name="LDIAG"> T  </i>
     <i type="logical" name="LSUBROT"> F  </i>
     <i name="WEIMIN">      0.00000000</i>
     <i name="EBREAK">      0.00000009</i>
     <i name="DEPER">      0.30000000</i>
     <i type="int" name="NRMM">     4</i>
     <i name="TIME">      0.40000000</i>
    </separator>
   </separator>
   <separator name="electronic mixer" >
    <i name="AMIX">      0.40000000</i>
    <i name="BMIX">      1.00000000</i>
    <i name="AMIN">      0.10000000</i>
    <i name="AMIX_MAG">      1.60000000</i>
    <i name="BMIX_MAG">      1.00000000</i>
    <separator name="electronic mixer details" >
     <i type="int" name="IMIX">     4</i>
     <i type="logical" name="MIXFIRST"> F  </i>
     <i type="int" name="MAXMIX">   -45</i>
     <i name="WC">    100.00000000</i>
     <i type="int" name="INIMIX">     1</i>
     <i type="int" name="MIXPRE">     1</i>
     <i type="int" name="MREMOVE">     5</i>
    </separator>
   </separator>
   <separator name="electronic dipolcorrection" >
    <i type="logical" name="LDIPOL"> F  </i>
    <i type="logical" name="LMONO"> F  </i>
    <i type="int" name="IDIPOL">     0</i>
    <i name="EPSILON">      1.00000000</i>
    <v name="DIPOL">   -100.00000000   -100.00000000   -100.00000000</v>
    <i name="EFIELD">      0.00000000</i>
   </separator>
  </separator>
  <separator name="grids" >
[...]
       <r>    0.8865    1.0000 </r>
       <r>   10.0082    0.0000 </r>
       <r>   10.6300    0.0000 </r>
       <r>   10.8024    0.0000 </r>
       <r>   10.8928    0.0000 </r>
       <r>   11.2976    0.0000 </r>
      </set>
      <set comment="kpoint 146">
       <r>  -17.9542    1.0000 </r>
       <r>  -17.5416    1.0000 </r>
       <r>  -16.8924    1.0000 </r>
       <r>  -16.3935    1.0000 </r>
       <r>  -16.1043    1.0000 </r>
       <r>  -15.9047    1.0000 </r>
       <r>   -7.2513    1.0000 </r>
       <r>   -6.2261    1.0000 </r>
       <r>   -5.3615    1.0000 </r>
       <r>   -4.1971    1.0000 </r>
       <r>   -4.1053    1.0000 </r>
       <r>   -3.7331    1.0000 </r>
       <r>   -2.2269    1.0000 </r>
       <r>   -2.1098    1.0000 </r>
       <r>   -1.3308    1.0000 </r>
       <r>   -1.1055    1.0000 </r>
       <r>   -1.0149    1.0000 </r>
       <r>   -0.5733    1.0000 </r>
       <r>   -0.2654    1.0000 </r>
       <r>   -0.0948    1.0000 </r>
       <r>    0.3012    1.0000 </r>
       <r>    0.3794    1.0000 </r>
       <r>    0.5769    1.0000 </r>
       <r>    0.9886    1.0000 </r>
       <r>    9.9046    0.0000 </r>
       <r>   10.3745    0.0000 </r>
       <r>   10.6653    0.0000 </r>
       <r>   10.8660    0.0000 </r>
       <r>   11.4125    0.0000 </r>
      </set>
      <set comment="kpoint 147">
       <r>  -17.9479    1.0000 </r>
       <r>  -17.6313    1.0000 </r>
       <r>  -16.7974    1.0000 </r>
       <r>  -16.3580    1.0000 </r>
       <r>  -16.1460    1.0000 </r>
       <r>  -15.8957    1.0000 </r>
       <r>   -7.3882    1.0000 </r>
       <r>   -6.0817    1.0000 </r>
       <r>   -5.3831    1.0000 </r>
       <r>   -4.2789    1.0000 </r>
       <r>   -4.0533    1.0000 </r>
       <r>   -3.7276    1.0000 </r>
       <r>   -2.2129    1.0000 </r>
       <r>   -2.0441    1.0000 </r>
       <r>   -1.3767    1.0000 </r>
       <r>   -1.1967    1.0000 </r>
       <r>   -0.9654    1.0000 </r>
       <r>   -0.5685    1.0000 </r>
       <r>   -0.2737    1.0000 </r>
       <r>   -0.0710    1.0000 </r>
       <r>    0.2511    1.0000 </r>
       <r>    0.4443    1.0000 </r>
       <r>    0.6469    1.0000 </r>
       <r>    0.9157    1.0000 </r>
       <r>    9.8028    0.0000 </r>
       <r>   10.1321    0.0000 </r>
       <r>   10.6012    0.0000 </r>
       <r>   10.9669    0.0000 </r>
       <r>   11.5154    0.0000 </r>
      </set>
      <set comment="kpoint 148">
       <r>  -17.9391    1.0000 </r>
       <r>  -17.6647    1.0000 </r>
       <r>  -16.7261    1.0000 </r>
       <r>  -16.3611    1.0000 </r>
       <r>  -16.1977    1.0000 </r>
       <r>  -15.8881    1.0000 </r>
       <r>   -7.4102    1.0000 </r>
       <r>   -6.0613    1.0000 </r>
       <r>   -5.3636    1.0000 </r>
       <r>   -4.3200    1.0000 </r>
       <r>   -4.0052    1.0000 </r>
       <r>   -3.7386    1.0000 </r>
       <r>   -2.2134    1.0000 </r>
       <r>   -2.0385    1.0000 </r>
       <r>   -1.4331    1.0000 </r>
       <r>   -1.2195    1.0000 </r>
       <r>   -0.9229    1.0000 </r>
       <r>   -0.5364    1.0000 </r>
       <r>   -0.2575    1.0000 </r>
       <r>   -0.0598    1.0000 </r>
       <r>    0.1936    1.0000 </r>
       <r>    0.4954    1.0000 </r>
       <r>    0.6290    1.0000 </r>
       <r>    0.8946    1.0000 </r>
       <r>    9.8315    0.0000 </r>
       <r>   10.0956    0.0000 </r>
       <r>   10.6080    0.0000 </r>
       <r>   11.0510    0.0000 </r>
       <r>   11.6015    0.0000 </r>
      </set>
     </set>
    </set>
   </array>
  </eigenvalues>
  <separator name="orbital magnetization" >
   <v name="MAGDIPOLOUT">      0.00000000      0.00000000      0.00000000</v>
  </separator>
  <dos>
   <i name="efermi">      1.23335873 </i>
   <total>
    <array>
     <dimension dim="1">gridpoints</dimension>
     <dimension dim="2">spin</dimension>
     <field>energy</field>
     <field>total</field>
     <field>integrated</field>
     <set>
      <set comment="spin 1">
       <r>   -20.4564     0.0000     0.0000 </r>
       <r>   -20.3424     0.0000     0.0000 </r>
       <r>   -20.2284     0.0000     0.0000 </r>
       <r>   -20.1144     0.0000     0.0000 </r>
       <r>   -20.0004     0.0000     0.0000 </r>
       <r>   -19.8864     0.0000     0.0000 </r>
       <r>   -19.7724     0.0000     0.0000 </r>
       <r>   -19.6584     0.0000     0.0000 </r>
       <r>   -19.5443     0.0000     0.0000 </r>
       <r>   -19.4303     0.0000     0.0000 </r>
       <r>   -19.3163     0.0000     0.0000 </r>
       <r>   -19.2023     0.0000     0.0000 </r>
       <r>   -19.0883     0.0000     0.0000 </r>
       <r>   -18.9743     0.0000     0.0000 </r>
       <r>   -18.8603     0.0000     0.0000 </r>
       <r>   -18.7463     0.0000     0.0000 </r>
       <r>   -18.6323     0.0000     0.0000 </r>
       <r>   -18.5183     0.0000     0.0000 </r>
       <r>   -18.4043     0.7398     0.0127 </r>
       <r>   -18.2903     1.8880     0.1637 </r>
       <r>   -18.1763     3.5107     0.4622 </r>
       <r>   -18.0623     7.9887     1.0908 </r>
       <r>   -17.9483     4.3729     1.8978 </r>
       <r>   -17.8342     0.1541     2.0020 </r>
       <r>   -17.7202     1.4436     2.0718 </r>
       <r>   -17.6062     3.1721     2.3234 </r>
       <r>   -17.4922     5.4169     2.8147 </r>
       <r>   -17.3782     6.5560     3.5191 </r>
       <r>   -17.2642     1.8186     3.9357 </r>
       <r>   -17.1502     0.0000     4.0000 </r>
       <r>   -17.0362     0.6203     4.0164 </r>
       <r>   -16.9222     2.7954     4.1926 </r>
       <r>   -16.8082     7.6564     4.8120 </r>
       <r>   -16.6942     3.7062     5.4877 </r>
       <r>   -16.5802     2.5671     5.8234 </r>
       <r>   -16.4662     6.8208     6.2120 </r>
       <r>   -16.3522     6.4673     7.1902 </r>
       <r>   -16.2382     4.5868     7.7814 </r>
       <r>   -16.1241    12.7100     9.2035 </r>
       <r>   -16.0101     0.0000    10.0000 </r>
       <r>   -15.8961    30.3864    11.0762 </r>
       <r>   -15.7821     0.0000    12.0000 </r>
       <r>   -15.6681     0.0000    12.0000 </r>
       <r>   -15.5541     0.0000    12.0000 </r>
       <r>   -15.4401     0.0000    12.0000 </r>
       <r>   -15.3261     0.0000    12.0000 </r>
       <r>   -15.2121     0.0000    12.0000 </r>
       <r>   -15.0981     0.0000    12.0000 </r>
       <r>   -14.9841     0.0000    12.0000 </r>
       <r>   -14.8701     0.0000    12.0000 </r>
       <r>   -14.7561     0.0000    12.0000 </r>
       <r>   -14.6421     0.0000    12.0000 </r>
       <r>   -14.5281     0.0000    12.0000 </r>
       <r>   -14.4140     0.0000    12.0000 </r>
       <r>   -14.3000     0.0000    12.0000 </r>
       <r>   -14.1860     0.0000    12.0000 </r>
       <r>   -14.0720     0.0000    12.0000 </r>
       <r>   -13.9580     0.0000    12.0000 </r>
       <r>   -13.8440     0.0000    12.0000 </r>
       <r>   -13.7300     0.0000    12.0000 </r>
       <r>   -13.6160     0.0000    12.0000 </r>
       <r>   -13.5020     0.0000    12.0000 </r>
       <r>   -13.3880     0.0000    12.0000 </r>
       <r>   -13.2740     0.0000    12.0000 </r>
       <r>   -13.1600     0.0000    12.0000 </r>
       <r>   -13.0460     0.0000    12.0000 </r>
       <r>   -12.9320     0.0000    12.0000 </r>
       <r>   -12.8180     0.0000    12.0000 </r>
       <r>   -12.7039     0.0000    12.0000 </r>
       <r>   -12.5899     0.0000    12.0000 </r>
       <r>   -12.4759     0.0000    12.0000 </r>
       <r>   -12.3619     0.0000    12.0000 </r>
       <r>   -12.2479     0.0000    12.0000 </r>
       <r>   -12.1339     0.0000    12.0000 </r>
       <r>   -12.0199     0.0000    12.0000 </r>
       <r>   -11.9059     0.0000    12.0000 </r>
       <r>   -11.7919     0.0000    12.0000 </r>
       <r>   -11.6779     0.0000    12.0000 </r>
       <r>   -11.5639     0.0000    12.0000 </r>
       <r>   -11.4499     0.0000    12.0000 </r>
       <r>   -11.3359     0.0000    12.0000 </r>
       <r>   -11.2219     0.0000    12.0000 </r>
       <r>   -11.1079     0.0000    12.0000 </r>
       <r>   -10.9938     0.0000    12.0000 </r>
       <r>   -10.8798     0.0000    12.0000 </r>
       <r>   -10.7658     0.0000    12.0000 </r>
       <r>   -10.6518     0.0000    12.0000 </r>
       <r>   -10.5378     0.0000    12.0000 </r>
       <r>   -10.4238     0.0000    12.0000 </r>
       <r>   -10.3098     0.0000    12.0000 </r>
       <r>   -10.1958     0.0000    12.0000 </r>
       <r>   -10.0818     0.0000    12.0000 </r>
       <r>    -9.9678     0.0000    12.0000 </r>
       <r>    -9.8538     0.0000    12.0000 </r>
       <r>    -9.7398     0.0000    12.0000 </r>
       <r>    -9.6258     0.0000    12.0000 </r>
       <r>    -9.5118     0.0000    12.0000 </r>
       <r>    -9.3978     0.0000    12.0000 </r>
       <r>    -9.2838     0.0000    12.0000 </r>
       <r>    -9.1697     0.0000    12.0000 </r>
       <r>    -9.0557     0.0000    12.0000 </r>
       <r>    -8.9417     0.0000    12.0000 </r>
       <r>    -8.8277     0.0000    12.0000 </r>
       <r>    -8.7137     0.0000    12.0000 </r>
       <r>    -8.5997     0.0000    12.0000 </r>
       <r>    -8.4857     0.0000    12.0000 </r>
       <r>    -8.3717     0.0000    12.0000 </r>
       <r>    -8.2577     0.0210    12.0003 </r>
       <r>    -8.1437     0.3285    12.0161 </r>
       <r>    -8.0297     0.4492    12.0630 </r>
       <r>    -7.9157     0.6371    12.1242 </r>
       <r>    -7.8017     0.8506    12.2093 </r>
       <r>    -7.6877     1.1342    12.3208 </r>
       <r>    -7.5737     1.5122    12.4706 </r>
       <r>    -7.4596     2.5406    12.6884 </r>
       <r>    -7.3456     6.8359    13.3190 </r>
       <r>    -7.2316     1.8228    13.8065 </r>
       <r>    -7.1176     0.7279    13.9374 </r>
       <r>    -7.0036     0.3326    13.9991 </r>
       <r>    -6.8896     0.2015    14.0214 </r>
       <r>    -6.7756     0.3582    14.0523 </r>
       <r>    -6.6616     0.6477    14.1085 </r>
       <r>    -6.5476     1.0572    14.2046 </r>
       <r>    -6.4336     1.7335    14.3526 </r>
       <r>    -6.3196     3.3242    14.6498 </r>
       <r>    -6.2056     3.9802    15.0734 </r>
       <r>    -6.0916     2.7950    15.5023 </r>
       <r>    -5.9776     1.2621    15.7286 </r>
       <r>    -5.8636     0.8113    15.8406 </r>
       <r>    -5.7495     0.5287    15.9217 </r>
       <r>    -5.6355     0.2908    15.9662 </r>
       <r>    -5.5215     0.3466    15.9953 </r>
       <r>    -5.4075     1.9957    16.1033 </r>
       <r>    -5.2935     3.5824    16.4392 </r>
       <r>    -5.1795     3.0954    16.8243 </r>
       <r>    -5.0655     2.6026    17.1443 </r>
       <r>    -4.9515     2.2281    17.4242 </r>
       <r>    -4.8375     1.7361    17.6501 </r>
       <r>    -4.7235     1.2673    17.8191 </r>
       <r>    -4.6095     1.0323    17.9520 </r>
       <r>    -4.4955     2.8747    18.0541 </r>
       <r>    -4.3815    11.2258    18.9801 </r>
       <r>    -4.2675     5.5787    19.8348 </r>
       <r>    -4.1535     8.2932    20.5255 </r>
       <r>    -4.0394     6.8953    21.4044 </r>
       <r>    -3.9254     3.2644    22.0378 </r>
       <r>    -3.8114     6.1926    22.3966 </r>
       <r>    -3.6974     6.6928    23.3219 </r>
       <r>    -3.5834     2.9662    23.7985 </r>
       <r>    -3.4694     0.3376    23.9975 </r>
       <r>    -3.3554     0.0000    24.0000 </r>
       <r>    -3.2414     0.0000    24.0000 </r>
       <r>    -3.1274     0.0000    24.0000 </r>
       <r>    -3.0134     0.0000    24.0000 </r>
       <r>    -2.8994     0.0000    24.0000 </r>
       <r>    -2.7854     0.0000    24.0000 </r>
       <r>    -2.6714     0.0000    24.0000 </r>
       <r>    -2.5574     0.0000    24.0000 </r>
       <r>    -2.4434     0.0000    24.0000 </r>
       <r>    -2.3293     0.0000    24.0000 </r>
       <r>    -2.2153     7.6431    24.1562 </r>
       <r>    -2.1013    11.7776    25.4508 </r>
       <r>    -1.9873     8.2138    26.3175 </r>
       <r>    -1.8733     5.3490    27.0698 </r>
       <r>    -1.7593     4.5370    27.7722 </r>
       <r>    -1.6453     3.6588    28.1235 </r>
       <r>    -1.5313    10.0744    29.1150 </r>
       <r>    -1.4173     3.9911    29.8841 </r>
       <r>    -1.3033     3.7464    30.0986 </r>
       <r>    -1.1893    12.0601    31.1322 </r>
       <r>    -1.0753     1.5655    31.9636 </r>
       <r>    -0.9613    18.9129    32.5844 </r>
       <r>    -0.8473     1.2486    33.8722 </r>
       <r>    -0.7333     5.3187    34.0930 </r>
       <r>    -0.6192     7.6108    34.8526 </r>
       <r>    -0.5052     9.4226    35.9608 </r>
       <r>    -0.3912    10.1279    37.0372 </r>
       <r>    -0.2772     5.0069    37.8076 </r>
       <r>    -0.1632     8.2837    38.5490 </r>
       <r>    -0.0492     7.8668    39.5685 </r>
       <r>     0.0648     5.7185    40.1989 </r>
       <r>     0.1788    14.7687    41.2331 </r>
       <r>     0.2928     1.7153    41.9976 </r>
       <r>     0.4068    12.8089    42.6682 </r>
       <r>     0.5208     3.4503    43.7121 </r>
       <r>     0.6348     4.8497    44.1043 </r>
       <r>     0.7488     6.9119    44.6930 </r>
       <r>     0.8628     8.1858    45.9158 </r>
       <r>     0.9768     7.1718    46.6017 </r>
       <r>     1.0909     5.6574    47.7188 </r>
       <r>     1.2049     0.0000    48.0000 </r>
       <r>     1.3189     0.0000    48.0000 </r>
       <r>     1.4329     0.0000    48.0000 </r>
       <r>     1.5469     0.0000    48.0000 </r>
       <r>     1.6609     0.0000    48.0000 </r>
       <r>     1.7749     0.0000    48.0000 </r>
       <r>     1.8889     0.0000    48.0000 </r>
       <r>     2.0029     0.0000    48.0000 </r>
       <r>     2.1169     0.0000    48.0000 </r>
       <r>     2.2309     0.0000    48.0000 </r>
       <r>     2.3449     0.0000    48.0000 </r>
       <r>     2.4589     0.0000    48.0000 </r>
       <r>     2.5729     0.0000    48.0000 </r>
       <r>     2.6869     0.0000    48.0000 </r>
       <r>     2.8009     0.0000    48.0000 </r>
       <r>     2.9150     0.0000    48.0000 </r>
       <r>     3.0290     0.0000    48.0000 </r>
       <r>     3.1430     0.0000    48.0000 </r>
       <r>     3.2570     0.0000    48.0000 </r>
       <r>     3.3710     0.0000    48.0000 </r>
       <r>     3.4850     0.0000    48.0000 </r>
       <r>     3.5990     0.0000    48.0000 </r>
       <r>     3.7130     0.0000    48.0000 </r>
       <r>     3.8270     0.0000    48.0000 </r>
       <r>     3.9410     0.0000    48.0000 </r>
       <r>     4.0550     0.0000    48.0000 </r>
       <r>     4.1690     0.0000    48.0000 </r>
       <r>     4.2830     0.0000    48.0000 </r>
       <r>     4.3970     0.0000    48.0000 </r>
       <r>     4.5110     0.0000    48.0000 </r>
       <r>     4.6251     0.0000    48.0000 </r>
       <r>     4.7391     0.0000    48.0000 </r>
       <r>     4.8531     0.0000    48.0000 </r>
       <r>     4.9671     0.0000    48.0000 </r>
       <r>     5.0811     0.0000    48.0000 </r>
       <r>     5.1951     0.0000    48.0000 </r>
       <r>     5.3091     0.0000    48.0000 </r>
       <r>     5.4231     0.0000    48.0000 </r>
       <r>     5.5371     0.0000    48.0000 </r>
       <r>     5.6511     0.0000    48.0000 </r>
       <r>     5.7651     0.0000    48.0000 </r>
       <r>     5.8791     0.0000    48.0000 </r>
       <r>     5.9931     0.0000    48.0000 </r>
       <r>     6.1071     0.0000    48.0000 </r>
       <r>     6.2211     0.0000    48.0000 </r>
       <r>     6.3352     0.0000    48.0000 </r>
       <r>     6.4492     0.0000    48.0000 </r>
       <r>     6.5632     0.0000    48.0000 </r>
       <r>     6.6772     0.0000    48.0000 </r>
       <r>     6.7912     0.0000    48.0000 </r>
       <r>     6.9052     0.0000    48.0000 </r>
       <r>     7.0192     0.0000    48.0000 </r>
       <r>     7.1332     0.0026    48.0000 </r>
       <r>     7.2472     0.0370    48.0019 </r>
       <r>     7.3612     0.1115    48.0100 </r>
       <r>     7.4752     0.1883    48.0279 </r>
       <r>     7.5892     0.2196    48.0514 </r>
       <r>     7.7032     0.2432    48.0774 </r>
       <r>     7.8172     0.2881    48.1076 </r>
       <r>     7.9312     0.3360    48.1432 </r>
       <r>     8.0453     0.3853    48.1843 </r>
       <r>     8.1593     0.4317    48.2310 </r>
       <r>     8.2733     0.4765    48.2827 </r>
       <r>     8.3873     0.5290    48.3399 </r>
       <r>     8.5013     0.5835    48.4033 </r>
       <r>     8.6153     0.6399    48.4731 </r>
       <r>     8.7293     0.6982    48.5493 </r>
       <r>     8.8433     0.7695    48.6327 </r>
       <r>     8.9573     0.8822    48.7265 </r>
       <r>     9.0713     1.0138    48.8346 </r>
       <r>     9.1853     1.2361    48.9615 </r>
       <r>     9.2993     1.3720    49.1128 </r>
       <r>     9.4133     1.3961    49.2704 </r>
       <r>     9.5273     1.4775    49.4321 </r>
       <r>     9.6413     1.7534    49.6266 </r>
       <r>     9.7554     1.4543    49.8026 </r>
       <r>     9.8694     1.4769    49.9674 </r>
       <r>     9.9834     1.2536    50.1292 </r>
       <r>    10.0974     0.8838    50.2473 </r>
       <r>    10.2114     3.6924    50.4435 </r>
       <r>    10.3254     9.2375    51.2324 </r>
       <r>    10.4394     3.4312    52.0162 </r>
       <r>    10.5534     6.9794    52.5698 </r>
       <r>    10.6674     6.5992    53.3816 </r>
       <r>    10.7814     4.7820    54.0799 </r>
       <r>    10.8954     2.5643    54.4937 </r>
       <r>    11.0094     4.3878    54.8470 </r>
       <r>    11.1234     6.5940    55.5386 </r>
       <r>    11.2374     3.9538    56.1011 </r>
       <r>    11.3514     4.9036    56.5162 </r>
       <r>    11.4655     7.4431    57.3514 </r>
       <r>    11.5795     2.1132    57.9163 </r>
       <r>    11.6935     0.0485    57.9992 </r>
       <r>    11.8075     0.0000    58.0000 </r>
       <r>    11.9215     0.0000    58.0000 </r>
       <r>    12.0355     0.0000    58.0000 </r>
       <r>    12.1495     0.0000    58.0000 </r>
       <r>    12.2635     0.0000    58.0000 </r>
       <r>    12.3775     0.0000    58.0000 </r>
       <r>    12.4915     0.0000    58.0000 </r>
       <r>    12.6055     0.0000    58.0000 </r>
       <r>    12.7195     0.0000    58.0000 </r>
       <r>    12.8335     0.0000    58.0000 </r>
       <r>    12.9475     0.0000    58.0000 </r>
       <r>    13.0615     0.0000    58.0000 </r>
       <r>    13.1756     0.0000    58.0000 </r>
       <r>    13.2896     0.0000    58.0000 </r>
       <r>    13.4036     0.0000    58.0000 </r>
       <r>    13.5176     0.0000    58.0000 </r>
       <r>    13.6316     0.0000    58.0000 </r>
       <r>    13.7456     0.0000    58.0000 </r>
      </set>
     </set>
    </array>
   </total>
  </dos>
 </calculation>
 <structure name="finalpos" >
  <crystal>
   <varray name="basis" >
    <v>       4.91370000       0.00000000       0.00000000 </v>
    <v>      -2.45685000       4.25538903       0.00000000 </v>
    <v>       0.00000000       0.00000000       5.40513000 </v>
   </varray>
   <i name="volume">    113.01967420 </i>
   <varray name="rec_basis" >
    <v>       0.20351263       0.11749807       0.00000000 </v>
    <v>       0.00000000       0.23499614       0.00000000 </v>
    <v>       0.00000000       0.00000000       0.18500943 </v>
   </varray>
  </crystal>
  <varray name="positions" >
   <v>       0.46980000       0.02000000       0.66667000 </v>
   <v>       0.00000000       0.46980000       0.33333000 </v>
   <v>       0.53020000       0.53020000       0.00000000 </v>
   <v>       0.41450000       0.26620000       0.78560000 </v>
   <v>       0.73380000       0.14830000       0.45227000 </v>
   <v>       0.85170000       0.58550000       0.11893000 </v>
   <v>       0.14830000       0.73380000       0.54773000 </v>
   <v>       0.26620000       0.41450000       0.21440000 </v>
   <v>       0.58550000       0.85170000       0.88107000 </v>
  </varray>
 </structure>
</modeling>
