   14   14    1    1
  0.4548897E+02  0.5431010E-09  0.5431010E-09  0.2159101E-08  0.5000000E-15
  1.000000000000000E-004
  CAR 
 unknown system                          
     44      6     30
 
  0.0000000E+00  0.0000000E+00  0.0000000E+00  0.4000000E-01
    1      -12.620562   1.000000
    2      -11.376065   1.000000
    3       -9.308609   1.000000
    4       -8.998750   1.000000
    5       -8.938550   1.000000
    6       -8.938397   1.000000
    7       -8.915595   1.000000
    8       -8.748366   1.000000
    9       -7.358968   1.000000
   10       -5.501959   1.000000
   11       -5.441822   1.000000
   12       -5.081669   1.000000
   13       -4.464598   1.000000
   14       -4.464451   1.000000
   15       -4.416600   1.000000
   16       -3.568366   1.000000
   17       -3.568269   1.000000
   18       -3.119197   1.000000
   19       -2.392077   1.000000
   20       -2.391997   1.000000
   21       -2.065808   1.000000
   22       -2.065514   1.000000
   23       -0.191982   0.000000
   24        0.279634   0.000000
   25        0.329403   0.000000
   26        0.684479   0.000000
   27        0.684691   0.000000
   28        0.704612   0.000000
   29        0.865048   0.000000
   30        1.034483   0.000000
 
  0.2000000E+00  0.0000000E+00  0.0000000E+00  0.1600000E+00
    1      -12.454711   1.000000
    2      -11.241264   1.000000
    3      -10.121706   1.000000
    4       -9.588757   1.000000
    5       -9.242355   1.000000
    6       -8.899690   1.000000
    7       -8.332325   1.000000
    8       -7.640368   1.000000
    9       -7.367521   1.000000
   10       -5.593548   1.000000
   11       -5.487366   1.000000
   12       -5.150085   1.000000
   13       -4.717691   1.000000
   14       -4.266118   1.000000
   15       -4.224602   1.000000
   16       -3.992897   1.000000
   17       -3.906924   1.000000
   18       -3.159961   1.000000
   19       -2.932761   1.000000
   20       -2.659607   1.000000
   21       -2.113755   1.000000
   22       -1.636308   1.000000
   23        0.147565   0.000000
   24        0.286570   0.000000
   25        0.502949   0.000000
   26        0.641174   0.000000
   27        1.116679   0.000000
   28        1.287671   0.000000
   29        1.449933   0.000000
   30        1.611982   0.000000
 
  0.4000000E+00  0.0000000E+00  0.0000000E+00  0.1600000E+00
    1      -11.963831   1.000000
    2      -11.170320   1.000000
    3      -10.853444   1.000000
    4      -10.268677   1.000000
    5       -9.084723   1.000000
    6       -8.945285   1.000000
    7       -7.813343   1.000000
    8       -7.473280   1.000000
    9       -6.596979   1.000000
   10       -5.937908   1.000000
   11       -5.320583   1.000000
   12       -5.220426   1.000000
   13       -4.941168   1.000000
   14       -4.703872   1.000000
   15       -4.502066   1.000000
   16       -3.988333   1.000000
   17       -3.914905   1.000000
   18       -3.663602   1.000000
   19       -3.376068   1.000000
   20       -2.908924   1.000000
   21       -1.754374   1.000000
   22       -0.855920   0.745018
   23       -0.758196   0.234800
   24       -0.182691   0.000000
   25        0.992289   0.000000
   26        1.408448   0.000000
   27        1.840752   0.000000
   28        1.977030   0.000000
   29        2.271495   0.000000
   30        2.297058   0.000000
 
  0.2000000E+00  0.2000000E+00  0.0000000E+00  0.1600000E+00
    1      -12.293375   1.000000
    2      -11.120836   1.000000
    3      -10.211228   1.000000
    4      -10.083215   1.000000
    5       -9.205285   1.000000
    6       -9.146955   1.000000
    7       -7.723140   1.000000
    8       -7.666051   1.000000
    9       -7.423932   1.000000
   10       -5.818795   1.000000
   11       -5.518937   1.000000
   12       -4.961546   1.000000
   13       -4.909193   1.000000
   14       -4.589226   1.000000
   15       -4.073489   1.000000
   16       -3.953308   1.000000
   17       -3.908134   1.000000
   18       -3.336176   1.000000
   19       -3.000346   1.000000
   20       -2.283688   1.000000
   21       -1.913886   1.000000
   22       -1.383887   1.000000
   23       -0.664370   0.020181
   24        0.389413   0.000000
   25        0.756812   0.000000
   26        0.793201   0.000000
   27        1.083964   0.000000
   28        1.383204   0.000000
   29        1.793115   0.000000
   30        1.945642   0.000000
 
  0.4000000E+00  0.2000000E+00  0.0000000E+00  0.3200000E+00
    1      -11.819106   1.000000
    2      -11.069602   1.000000
    3      -10.792169   1.000000
    4      -10.380612   1.000000
    5       -9.191082   1.000000
    6       -9.156855   1.000000
    7       -7.724332   1.000000
    8       -7.599621   1.000000
    9       -6.969010   1.000000
   10       -6.335000   1.000000
   11       -5.582167   1.000000
   12       -5.467651   1.000000
   13       -4.536921   1.000000
   14       -4.319771   1.000000
   15       -4.190046   1.000000
   16       -3.755183   1.000000
   17       -3.731385   1.000000
   18       -3.546990   1.000000
   19       -3.200935   1.000000
   20       -2.746071   1.000000
   21       -1.645466   1.000000
   22       -1.225635   1.000000
   23       -0.465008   0.000001
   24        0.401359   0.000000
   25        1.105218   0.000000
   26        1.280021   0.000000
   27        1.552523   0.000000
   28        1.602198   0.000000
   29        1.970174   0.000000
   30        2.206398   0.000000
 
  0.4000000E+00  0.4000000E+00  0.0000000E+00  0.1600000E+00
    1      -11.409798   1.000000
    2      -10.898249   1.000000
    3      -10.762352   1.000000
    4      -10.705790   1.000000
    5       -9.424969   1.000000
    6       -9.359393   1.000000
    7       -7.690830   1.000000
    8       -7.477616   1.000000
    9       -7.470747   1.000000
   10       -6.986209   1.000000
   11       -5.693187   1.000000
   12       -5.673092   1.000000
   13       -4.332508   1.000000
   14       -4.239073   1.000000
   15       -4.025749   1.000000
   16       -3.752145   1.000000
   17       -3.130012   1.000000
   18       -2.866874   1.000000
   19       -2.787854   1.000000
   20       -2.211326   1.000000
   21       -1.606172   1.000000
   22       -1.568594   1.000000
   23        0.360672   0.000000
   24        0.787014   0.000000
   25        0.899912   0.000000
   26        1.015931   0.000000
   27        1.234532   0.000000
   28        1.543913   0.000000
   29        1.864376   0.000000
   30        2.073885   0.000000
