unknown system                          
   1.00000000000000     
     5.431010    0.000000    0.000000
     0.000000    5.431010    0.000000
     0.000000    0.000000   21.591010
   Si   H 
    10     4
Direct
  0.000000  0.000000  0.002423
  0.499999  0.499999  0.002423
  0.250000  0.250000  0.060698
  0.750000  0.750000  0.060698
  0.000000  0.499999  0.125770
  0.499999  0.000000  0.125770
  0.250000  0.750000  0.190843
  0.750000  0.250000  0.190843
  0.000000  0.000000  0.249117
  0.499999  0.499999  0.249117
  0.000000  0.000000  0.318507
  0.499999  0.499999  0.318507
  0.000000  0.000000  0.933033
  0.499999  0.499999  0.933033
 
   24   24   84
 0.49754E-01 0.95201E-01 0.29424     0.57548     0.72175     0.72928     0.63268     0.46463     0.27725     0.12725    
 0.54408E-01 0.28313E-01 0.22506E-01 0.28464E-01 0.54090E-01 0.12823     0.27570     0.46609     0.63185     0.72964    
 0.72161     0.57552     0.29426     0.95197E-01 0.95201E-01 0.17920     0.42723     0.67485     0.77691     0.76578    
 0.66442     0.49527     0.30605     0.15406     0.73616E-01 0.39810E-01 0.28464E-01 0.29688E-01 0.48332E-01 0.10791    
 0.23807     0.42184     0.59251     0.69953     0.69890     0.56661     0.31965     0.13572     0.29424     0.42723    
 0.64300     0.78425     0.82496     0.78671     0.67205     0.49776     0.31680     0.18401     0.11058     0.73115E-01
 0.54090E-01 0.48332E-01 0.60633E-01 0.10679     0.21296     0.37885     0.55192     0.67703     0.70860     0.63499    
 0.47183     0.31965     0.57548     0.67485     0.78425     0.84017     0.83708     0.77302     0.64489     0.47797    
 0.32959     0.23435     0.18439     0.15476     0.12823     0.10791     0.10679     0.13613     0.21239     0.34423    
 0.50341     0.64076     0.71083     0.70198     0.63494     0.56658     0.72175     0.77691     0.82496     0.83708    
 0.80304     0.71702     0.58909     0.46040     0.37188     0.32949     0.31643     0.30495     0.27570     0.23807    
 0.21296     0.21239     0.24679     0.32697     0.44614     0.57356     0.66942     0.71089     0.70870     0.69905    
 0.72928     0.76578     0.78671     0.77302     0.71702     0.62555     0.53067     0.47215     0.46041     0.47804    
 0.49813     0.49622     0.46609     0.42184     0.37885     0.34423     0.32697     0.34283     0.39830     0.48336    
 0.57350     0.64066     0.67677     0.69916     0.63268     0.66442     0.67205     0.64489     0.58909     0.53067    
 0.50543     0.53067     0.58908     0.64484     0.67183     0.66387     0.63185     0.59251     0.55192     0.50341    
 0.44614     0.39830     0.38032     0.39832     0.44617     0.50359     0.55242     0.59334     0.46463     0.49527    
 0.49776     0.47797     0.46040     0.47215     0.53067     0.62555     0.71702     0.77306     0.78682     0.76602    
 0.72964     0.69953     0.67703     0.64076     0.57356     0.48336     0.39832     0.34281     0.32694     0.34405    
 0.37817     0.42055     0.27725     0.30605     0.31680     0.32959     0.37188     0.46041     0.58908     0.71702    
 0.80303     0.83707     0.82492     0.77682     0.72161     0.69890     0.70860     0.71083     0.66942     0.57350    
 0.44617     0.32694     0.24683     0.21250     0.21347     0.23930     0.12725     0.15406     0.18401     0.23435    
 0.32949     0.47804     0.64484     0.77306     0.83707     0.84019     0.78427     0.67488     0.57552     0.56661    
 0.63499     0.70198     0.71089     0.64066     0.50359     0.34405     0.21250     0.13602     0.10656     0.10731    
 0.54408E-01 0.73616E-01 0.11058     0.18439     0.31643     0.49813     0.67183     0.78682     0.82492     0.78427    
 0.64300     0.42723     0.29426     0.31965     0.47183     0.63494     0.70870     0.67677     0.55242     0.37817    
 0.21347     0.10656     0.60804E-01 0.48545E-01 0.28313E-01 0.39810E-01 0.73115E-01 0.15476     0.30495     0.49622    
 0.66387     0.76602     0.77682     0.67488     0.42723     0.17918     0.95197E-01 0.13572     0.31965     0.56658    
 0.69905     0.69916     0.59334     0.42055     0.23930     0.10731     0.48545E-01 0.29573E-01 0.22506E-01 0.28464E-01
 0.54090E-01 0.12823     0.27570     0.46609     0.63185     0.72964     0.72161     0.57552     0.29426     0.95197E-01
 0.49754E-01 0.95201E-01 0.29424     0.57548     0.72175     0.72928     0.63268     0.46463     0.27725     0.12725    
 0.54408E-01 0.28313E-01 0.28464E-01 0.29688E-01 0.48332E-01 0.10791     0.23807     0.42184     0.59251     0.69953    
 0.69890     0.56661     0.31965     0.13572     0.95201E-01 0.17920     0.42723     0.67485     0.77691     0.76578    
 0.66442     0.49527     0.30605     0.15406     0.73616E-01 0.39810E-01 0.54090E-01 0.48332E-01 0.60633E-01 0.10679    
 0.21296     0.37885     0.55192     0.67703     0.70860     0.63499     0.47183     0.31965     0.29424     0.42723    
 0.64300     0.78425     0.82496     0.78671     0.67205     0.49776     0.31680     0.18401     0.11058     0.73115E-01
 0.12823     0.10791     0.10679     0.13613     0.21239     0.34423     0.50341     0.64076     0.71083     0.70198    
 0.63494     0.56658     0.57548     0.67485     0.78425     0.84017     0.83708     0.77302     0.64489     0.47797    
 0.32959     0.23435     0.18439     0.15476     0.27570     0.23807     0.21296     0.21239     0.24679     0.32697    
 0.44614     0.57356     0.66942     0.71089     0.70870     0.69905     0.72175     0.77691     0.82496     0.83708    
 0.80304     0.71702     0.58909     0.46040     0.37188     0.32949     0.31643     0.30495     0.46609     0.42184    
 0.37885     0.34423     0.32697     0.34283     0.39830     0.48336     0.57350     0.64066     0.67677     0.69916    
 0.72928     0.76578     0.78671     0.77302     0.71702     0.62555     0.53067     0.47215     0.46041     0.47804    
 0.49813     0.49622     0.63185     0.59251     0.55192     0.50341     0.44614     0.39830     0.38032     0.39832    
 0.44617     0.50359     0.55242     0.59334     0.63268     0.66442     0.67205     0.64489     0.58909     0.53067    
 0.50543     0.53067     0.58908     0.64484     0.67183     0.66387     0.72964     0.69953     0.67703     0.64076    
 0.57356     0.48336     0.39832     0.34281     0.32694     0.34405     0.37817     0.42055     0.46463     0.49527    
 0.49776     0.47797     0.46040     0.47215     0.53067     0.62555     0.71702     0.77306     0.78682     0.76602    
 0.72161     0.69890     0.70860     0.71083     0.66942     0.57350     0.44617     0.32694     0.24683     0.21250    
 0.21347     0.23930     0.27725     0.30605     0.31680     0.32959     0.37188     0.46041     0.58908     0.71702    
 0.80303     0.83707     0.82492     0.77682     0.57552     0.56661     0.63499     0.70198     0.71089     0.64066    
 0.50359     0.34405     0.21250     0.13602     0.10656     0.10731     0.12725     0.15406     0.18401     0.23435    
 0.32949     0.47804     0.64484     0.77306     0.83707     0.84019     0.78427     0.67488     0.29426     0.31965    
 0.47183     0.63494     0.70870     0.67677     0.55242     0.37817     0.21347     0.10656     0.60804E-01 0.48545E-01
 0.54408E-01 0.73616E-01 0.11058     0.18439     0.31643     0.49813     0.67183     0.78682     0.82492     0.78427    
 0.64300     0.42723     0.95197E-01 0.13572     0.31965     0.56658     0.69905     0.69916     0.59334     0.42055    
 0.23930     0.10731     0.48545E-01 0.29573E-01 0.28313E-01 0.39810E-01 0.73115E-01 0.15476     0.30495     0.49622    
 0.66387     0.76602     0.77682     0.67488     0.42723     0.17918     0.10359     0.20884     0.53778     0.76979    
 0.83316     0.80665     0.70673     0.53447     0.31708     0.14592     0.63905E-01 0.33527E-01 0.26298E-01 0.33633E-01
 0.63727E-01 0.14654     0.31613     0.53538     0.70625     0.80686     0.83308     0.76983     0.53781     0.20884    
 0.20884     0.43994     0.74306     0.86587     0.88743     0.85211     0.75637     0.58812     0.37169     0.19439    
 0.97280E-01 0.52037E-01 0.33633E-01 0.31507E-01 0.48393E-01 0.10723     0.24903     0.45993     0.63969     0.75046    
 0.77597     0.69534     0.46843     0.23396     0.53778     0.74306     0.87562     0.91773     0.91501     0.87400    
 0.77937     0.61218     0.40832     0.24771     0.15192     0.96889E-01 0.63727E-01 0.48393E-01 0.53710E-01 0.92231E-01
 0.19709     0.38211     0.56883     0.69617     0.74225     0.69835     0.57336     0.46844     0.76979     0.86587    
 0.91773     0.93076     0.91660     0.86992     0.76966     0.60783     0.44167     0.32305     0.24799     0.19483    
 0.14654     0.10723     0.92231E-01 0.11111     0.18110     0.32256     0.49801     0.63806     0.71477     0.72619    
 0.69831     0.69531     0.83316     0.88743     0.91501     0.91660     0.89356     0.83382     0.72125     0.58670    
 0.49205     0.44160     0.40810     0.37101     0.31613     0.24903     0.19709     0.18110     0.21025     0.29562    
 0.42927     0.56310     0.66017     0.71484     0.74233     0.77608     0.80665     0.85211     0.87400     0.86992    
 0.83382     0.75396     0.65025     0.58726     0.58672     0.60787     0.61237     0.58863     0.53538     0.45993    
 0.38211     0.32256     0.29562     0.31238     0.37592     0.46979     0.56303     0.63798     0.69596     0.75022    
 0.70673     0.75637     0.77937     0.76966     0.72125     0.65025     0.61404     0.65025     0.72124     0.76963    
 0.77927     0.75608     0.70625     0.63969     0.56883     0.49801     0.42927     0.37592     0.35589     0.37595    
 0.42930     0.49818     0.56918     0.64025     0.53447     0.58812     0.61218     0.60783     0.58670     0.58726    
 0.65025     0.75396     0.83382     0.86994     0.87404     0.85222     0.80686     0.75046     0.69617     0.63806    
 0.56310     0.46979     0.37595     0.31236     0.29558     0.32243     0.38163     0.45909     0.31708     0.37169    
 0.40832     0.44167     0.49205     0.58672     0.72124     0.83382     0.89356     0.91659     0.91499     0.88738    
 0.83308     0.77597     0.74225     0.71477     0.66017     0.56303     0.42930     0.29558     0.21028     0.18117    
 0.19738     0.24980     0.14592     0.19439     0.24771     0.32305     0.44160     0.60787     0.76963     0.86994    
 0.91659     0.93077     0.91774     0.86589     0.76983     0.69534     0.69835     0.72619     0.71484     0.63798    
 0.49818     0.32243     0.18117     0.11106     0.92114E-01 0.10692     0.63905E-01 0.97280E-01 0.15192     0.24799    
 0.40810     0.61237     0.77927     0.87404     0.91499     0.91774     0.87562     0.74306     0.53781     0.46843    
 0.57336     0.69831     0.74233     0.69596     0.56918     0.38163     0.19738     0.92114E-01 0.53775E-01 0.48512E-01
 0.33527E-01 0.52037E-01 0.96889E-01 0.19483     0.37101     0.58863     0.75608     0.85222     0.88738     0.86589    
 0.74306     0.43989     0.20884     0.23396     0.46844     0.69531     0.77608     0.75022     0.64025     0.45909    
 0.24980     0.10692     0.48512E-01 0.31461E-01 0.26298E-01 0.33633E-01 0.63727E-01 0.14654     0.31613     0.53538    
 0.70625     0.80686     0.83308     0.76983     0.53781     0.20884     0.10359     0.20884     0.53778     0.76979    
 0.83316     0.80665     0.70673     0.53447     0.31708     0.14592     0.63905E-01 0.33527E-01 0.33633E-01 0.31507E-01
 0.48393E-01 0.10723     0.24903     0.45993     0.63969     0.75046     0.77597     0.69534     0.46843     0.23396    
 0.20884     0.43994     0.74306     0.86587     0.88743     0.85211     0.75637     0.58812     0.37169     0.19439    
 0.97280E-01 0.52037E-01 0.63727E-01 0.48393E-01 0.53710E-01 0.92231E-01 0.19709     0.38211     0.56883     0.69617    
 0.74225     0.69835     0.57336     0.46844     0.53778     0.74306     0.87562     0.91773     0.91501     0.87400    
 0.77937     0.61218     0.40832     0.24771     0.15192     0.96889E-01 0.14654     0.10723     0.92231E-01 0.11111    
 0.18110     0.32256     0.49801     0.63806     0.71477     0.72619     0.69831     0.69531     0.76979     0.86587    
 0.91773     0.93076     0.91660     0.86992     0.76966     0.60783     0.44167     0.32305     0.24799     0.19483    
 0.31613     0.24903     0.19709     0.18110     0.21025     0.29562     0.42927     0.56310     0.66017     0.71484    
 0.74233     0.77608     0.83316     0.88743     0.91501     0.91660     0.89356     0.83382     0.72125     0.58670    
 0.49205     0.44160     0.40810     0.37101     0.53538     0.45993     0.38211     0.32256     0.29562     0.31238    
 0.37592     0.46979     0.56303     0.63798     0.69596     0.75022     0.80665     0.85211     0.87400     0.86992    
 0.83382     0.75396     0.65025     0.58726     0.58672     0.60787     0.61237     0.58863     0.70625     0.63969    
 0.56883     0.49801     0.42927     0.37592     0.35589     0.37595     0.42930     0.49818     0.56918     0.64025    
 0.70673     0.75637     0.77937     0.76966     0.72125     0.65025     0.61404     0.65025     0.72124     0.76963    
 0.77927     0.75608     0.80686     0.75046     0.69617     0.63806     0.56310     0.46979     0.37595     0.31236    
 0.29558     0.32243     0.38163     0.45909     0.53447     0.58812     0.61218     0.60783     0.58670     0.58726    
 0.65025     0.75396     0.83382     0.86994     0.87404     0.85222     0.83308     0.77597     0.74225     0.71477    
 0.66017     0.56303     0.42930     0.29558     0.21028     0.18117     0.19738     0.24980     0.31708     0.37169    
 0.40832     0.44167     0.49205     0.58672     0.72124     0.83382     0.89356     0.91659     0.91499     0.88738    
 0.76983     0.69534     0.69835     0.72619     0.71484     0.63798     0.49818     0.32243     0.18117     0.11106    
 0.92114E-01 0.10692     0.14592     0.19439     0.24771     0.32305     0.44160     0.60787     0.76963     0.86994    
 0.91659     0.93077     0.91774     0.86589     0.53781     0.46843     0.57336     0.69831     0.74233     0.69596    
 0.56918     0.38163     0.19738     0.92114E-01 0.53775E-01 0.48512E-01 0.63905E-01 0.97280E-01 0.15192     0.24799    
 0.40810     0.61237     0.77927     0.87404     0.91499     0.91774     0.87562     0.74306     0.20884     0.23396    
 0.46844     0.69531     0.77608     0.75022     0.64025     0.45909     0.24980     0.10692     0.48512E-01 0.31461E-01
 0.33527E-01 0.52037E-01 0.96889E-01 0.19483     0.37101     0.58863     0.75608     0.85222     0.88738     0.86589    
 0.74306     0.43989     0.28887     0.42665     0.69932     0.83843     0.86494     0.82544     0.71851     0.53092    
 0.31358     0.15784     0.79006E-01 0.46294E-01 0.37879E-01 0.46372E-01 0.78921E-01 0.15816     0.31314     0.53141    
 0.71823     0.82558     0.86488     0.83845     0.69933     0.42665     0.42665     0.66479     0.85428     0.91386    
 0.91551     0.87736     0.78455     0.61287     0.40059     0.23123     0.12845     0.72724E-01 0.46372E-01 0.39628E-01
 0.53026E-01 0.10281     0.22466     0.43022     0.62943     0.75092     0.79192     0.74737     0.59332     0.41321    
 0.69932     0.85428     0.92728     0.94558     0.93804     0.90443     0.82100     0.66044     0.46807     0.31285    
 0.20352     0.12819     0.78921E-01 0.53026E-01 0.50372E-01 0.76600E-01 0.15841     0.32769     0.52888     0.66798    
 0.72630     0.70805     0.63258     0.59334     0.83843     0.91386     0.94558     0.95189     0.94235     0.90778    
 0.81561     0.65374     0.50091     0.39775     0.31301     0.23145     0.15816     0.10281     0.76600E-01 0.82750E-01
 0.13224     0.25289     0.43238     0.58504     0.67141     0.70217     0.70801     0.74735     0.86494     0.91551    
 0.93804     0.94235     0.92856     0.87644     0.75226     0.60001     0.52206     0.50087     0.46797     0.40025    
 0.31314     0.22466     0.15841     0.13224     0.14993     0.22138     0.35163     0.49548     0.60168     0.67147    
 0.72636     0.79201     0.82544     0.87736     0.90443     0.90778     0.87644     0.78345     0.64235     0.56836    
 0.60001     0.65376     0.66053     0.61311     0.53141     0.43022     0.32769     0.25289     0.22138     0.23488    
 0.29553     0.39304     0.49540     0.58498     0.66781     0.75075     0.71851     0.78455     0.82100     0.81561    
 0.75226     0.64235     0.58139     0.64235     0.75226     0.81559     0.82095     0.78440     0.71823     0.62943    
 0.52888     0.43238     0.35163     0.29553     0.27521     0.29556     0.35164     0.43250     0.52911     0.62980    
 0.53092     0.61287     0.66044     0.65374     0.60001     0.56836     0.64235     0.78345     0.87644     0.90779    
 0.90445     0.87742     0.82558     0.75092     0.66798     0.58504     0.49548     0.39304     0.29556     0.23487    
 0.22135     0.25283     0.32741     0.42977     0.31358     0.40059     0.46807     0.50091     0.52206     0.60001    
 0.75226     0.87644     0.92856     0.94235     0.93803     0.91548     0.86488     0.79192     0.72630     0.67141    
 0.60168     0.49540     0.35164     0.22135     0.14994     0.13228     0.15853     0.22504     0.15784     0.23123    
 0.31285     0.39775     0.50087     0.65376     0.81559     0.90779     0.94235     0.95189     0.94559     0.91386    
 0.83845     0.74737     0.70805     0.70217     0.67147     0.58498     0.43250     0.25283     0.13228     0.82737E-01
 0.76551E-01 0.10267     0.79006E-01 0.12845     0.20352     0.31301     0.46797     0.66053     0.82095     0.90445    
 0.93803     0.94559     0.92728     0.85428     0.69933     0.59332     0.63258     0.70801     0.72636     0.66781    
 0.52911     0.32741     0.15853     0.76551E-01 0.50388E-01 0.53091E-01 0.46294E-01 0.72724E-01 0.12819     0.23145    
 0.40025     0.61311     0.78440     0.87742     0.91548     0.91386     0.85428     0.66476     0.42665     0.41321    
 0.59334     0.74735     0.79201     0.75075     0.62980     0.42977     0.22504     0.10267     0.53091E-01 0.39616E-01
 0.37879E-01 0.46372E-01 0.78921E-01 0.15816     0.31314     0.53141     0.71823     0.82558     0.86488     0.83845    
 0.69933     0.42665     0.28887     0.42665     0.69932     0.83843     0.86494     0.82544     0.71851     0.53092    
 0.31358     0.15784     0.79006E-01 0.46294E-01 0.46372E-01 0.39628E-01 0.53026E-01 0.10281     0.22466     0.43022    
 0.62943     0.75092     0.79192     0.74737     0.59332     0.41321     0.42665     0.66479     0.85428     0.91386    
 0.91551     0.87736     0.78455     0.61287     0.40059     0.23123     0.12845     0.72724E-01 0.78921E-01 0.53026E-01
 0.50372E-01 0.76600E-01 0.15841     0.32769     0.52888     0.66798     0.72630     0.70805     0.63258     0.59334    
 0.69932     0.85428     0.92728     0.94558     0.93804     0.90443     0.82100     0.66044     0.46807     0.31285    
 0.20352     0.12819     0.15816     0.10281     0.76600E-01 0.82750E-01 0.13224     0.25289     0.43238     0.58504    
 0.67141     0.70217     0.70801     0.74735     0.83843     0.91386     0.94558     0.95189     0.94235     0.90778    
 0.81561     0.65374     0.50091     0.39775     0.31301     0.23145     0.31314     0.22466     0.15841     0.13224    
 0.14993     0.22138     0.35163     0.49548     0.60168     0.67147     0.72636     0.79201     0.86494     0.91551    
 0.93804     0.94235     0.92856     0.87644     0.75226     0.60001     0.52206     0.50087     0.46797     0.40025    
 0.53141     0.43022     0.32769     0.25289     0.22138     0.23488     0.29553     0.39304     0.49540     0.58498    
 0.66781     0.75075     0.82544     0.87736     0.90443     0.90778     0.87644     0.78345     0.64235     0.56836    
 0.60001     0.65376     0.66053     0.61311     0.71823     0.62943     0.52888     0.43238     0.35163     0.29553    
 0.27521     0.29556     0.35164     0.43250     0.52911     0.62980     0.71851     0.78455     0.82100     0.81561    
 0.75226     0.64235     0.58139     0.64235     0.75226     0.81559     0.82095     0.78440     0.82558     0.75092    
 0.66798     0.58504     0.49548     0.39304     0.29556     0.23487     0.22135     0.25283     0.32741     0.42977    
 0.53092     0.61287     0.66044     0.65374     0.60001     0.56836     0.64235     0.78345     0.87644     0.90779    
 0.90445     0.87742     0.86488     0.79192     0.72630     0.67141     0.60168     0.49540     0.35164     0.22135    
 0.14994     0.13228     0.15853     0.22504     0.31358     0.40059     0.46807     0.50091     0.52206     0.60001    
 0.75226     0.87644     0.92856     0.94235     0.93803     0.91548     0.83845     0.74737     0.70805     0.70217    
 0.67147     0.58498     0.43250     0.25283     0.13228     0.82737E-01 0.76551E-01 0.10267     0.15784     0.23123    
 0.31285     0.39775     0.50087     0.65376     0.81559     0.90779     0.94235     0.95189     0.94559     0.91386    
 0.69933     0.59332     0.63258     0.70801     0.72636     0.66781     0.52911     0.32741     0.15853     0.76551E-01
 0.50388E-01 0.53091E-01 0.79006E-01 0.12845     0.20352     0.31301     0.46797     0.66053     0.82095     0.90445    
 0.93803     0.94559     0.92728     0.85428     0.42665     0.41321     0.59334     0.74735     0.79201     0.75075    
 0.62980     0.42977     0.22504     0.10267     0.53091E-01 0.39616E-01 0.46294E-01 0.72724E-01 0.12819     0.23145    
 0.40025     0.61311     0.78440     0.87742     0.91548     0.91386     0.85428     0.66476     0.47378     0.57128    
 0.74328     0.83291     0.84018     0.78382     0.65972     0.48105     0.31153     0.19188     0.11968     0.83671E-01
 0.73451E-01 0.83738E-01 0.11964     0.19204     0.31134     0.48126     0.65956     0.78392     0.84013     0.83293    
 0.74329     0.57129     0.57128     0.73756     0.86427     0.90665     0.90144     0.85669     0.75600     0.59750    
 0.43275     0.29897     0.19678     0.12537     0.83738E-01 0.67102E-01 0.74493E-01 0.11287     0.19919     0.35166    
 0.53878     0.68221     0.74720     0.73279     0.64084     0.53952     0.74328     0.86427     0.92333     0.93925    
 0.93203     0.89601     0.80345     0.65133     0.50734     0.39766     0.29513     0.19660     0.11964     0.74493E-01
 0.59779E-01 0.72668E-01 0.12391     0.23975     0.41380     0.56750     0.64928     0.66234     0.63454     0.64086    
 0.83291     0.90665     0.93925     0.94882     0.94131     0.90021     0.78337     0.60925     0.49984     0.45533    
 0.39774     0.29908     0.19204     0.11287     0.72668E-01 0.65881E-01 0.91530E-01 0.16761     0.30701     0.45764    
 0.56124     0.61980     0.66229     0.73276     0.84018     0.90144     0.93203     0.94131     0.92618     0.85470    
 0.67125     0.48666     0.45397     0.49983     0.50730     0.43261     0.31134     0.19919     0.12391     0.91530E-01
 0.96197E-01 0.14024     0.23421     0.35859     0.46979     0.56128     0.64934     0.74728     0.78382     0.85669    
 0.89601     0.90021     0.85470     0.70585     0.47865     0.39591     0.48666     0.60925     0.65136     0.59761    
 0.48126     0.35166     0.23975     0.16761     0.14024     0.14934     0.19303     0.26798     0.35858     0.45760    
 0.56739     0.68208     0.65972     0.75600     0.80345     0.78337     0.67125     0.47865     0.37806     0.47865    
 0.67125     0.78336     0.80342     0.75593     0.65956     0.53878     0.41380     0.30701     0.23421     0.19303    
 0.17918     0.19304     0.23422     0.30705     0.41394     0.53899     0.48105     0.59750     0.65133     0.60925    
 0.48666     0.39591     0.47865     0.70585     0.85470     0.90021     0.89602     0.85672     0.78392     0.68221    
 0.56750     0.45764     0.35859     0.26798     0.19304     0.14934     0.14023     0.16759     0.23965     0.35145    
 0.31153     0.43275     0.50734     0.49984     0.45397     0.48666     0.67125     0.85470     0.92618     0.94131    
 0.93202     0.90142     0.84013     0.74720     0.64928     0.56124     0.46979     0.35858     0.23422     0.14023    
 0.96197E-01 0.91538E-01 0.12395     0.19933     0.19188     0.29897     0.39766     0.45533     0.49983     0.60925    
 0.78336     0.90021     0.94131     0.94882     0.93925     0.90665     0.83293     0.73279     0.66234     0.61980    
 0.56128     0.45760     0.30705     0.16759     0.91538E-01 0.65881E-01 0.72651E-01 0.11282     0.11968     0.19678    
 0.29513     0.39774     0.50730     0.65136     0.80342     0.89602     0.93202     0.93925     0.92334     0.86426    
 0.74329     0.64084     0.63454     0.66229     0.64934     0.56739     0.41394     0.23965     0.12395     0.72651E-01
 0.59773E-01 0.74533E-01 0.83671E-01 0.12537     0.19660     0.29908     0.43261     0.59761     0.75593     0.85672    
 0.90142     0.90665     0.86426     0.73754     0.57129     0.53952     0.64086     0.73276     0.74728     0.68208    
 0.53899     0.35145     0.19933     0.11282     0.74533E-01 0.67112E-01 0.73451E-01 0.83738E-01 0.11964     0.19204    
 0.31134     0.48126     0.65956     0.78392     0.84013     0.83293     0.74329     0.57129     0.47378     0.57128    
 0.74328     0.83291     0.84018     0.78382     0.65972     0.48105     0.31153     0.19188     0.11968     0.83671E-01
 0.83738E-01 0.67102E-01 0.74493E-01 0.11287     0.19919     0.35166     0.53878     0.68221     0.74720     0.73279    
 0.64084     0.53952     0.57128     0.73756     0.86427     0.90665     0.90144     0.85669     0.75600     0.59750    
 0.43275     0.29897     0.19678     0.12537     0.11964     0.74493E-01 0.59779E-01 0.72668E-01 0.12391     0.23975    
 0.41380     0.56750     0.64928     0.66234     0.63454     0.64086     0.74328     0.86427     0.92333     0.93925    
 0.93203     0.89601     0.80345     0.65133     0.50734     0.39766     0.29513     0.19660     0.19204     0.11287    
 0.72668E-01 0.65881E-01 0.91530E-01 0.16761     0.30701     0.45764     0.56124     0.61980     0.66229     0.73276    
 0.83291     0.90665     0.93925     0.94882     0.94131     0.90021     0.78337     0.60925     0.49984     0.45533    
 0.39774     0.29908     0.31134     0.19919     0.12391     0.91530E-01 0.96197E-01 0.14024     0.23421     0.35859    
 0.46979     0.56128     0.64934     0.74728     0.84018     0.90144     0.93203     0.94131     0.92618     0.85470    
 0.67125     0.48666     0.45397     0.49983     0.50730     0.43261     0.48126     0.35166     0.23975     0.16761    
 0.14024     0.14934     0.19303     0.26798     0.35858     0.45760     0.56739     0.68208     0.78382     0.85669    
 0.89601     0.90021     0.85470     0.70585     0.47865     0.39591     0.48666     0.60925     0.65136     0.59761    
 0.65956     0.53878     0.41380     0.30701     0.23421     0.19303     0.17918     0.19304     0.23422     0.30705    
 0.41394     0.53899     0.65972     0.75600     0.80345     0.78337     0.67125     0.47865     0.37806     0.47865    
 0.67125     0.78336     0.80342     0.75593     0.78392     0.68221     0.56750     0.45764     0.35859     0.26798    
 0.19304     0.14934     0.14023     0.16759     0.23965     0.35145     0.48105     0.59750     0.65133     0.60925    
 0.48666     0.39591     0.47865     0.70585     0.85470     0.90021     0.89602     0.85672     0.84013     0.74720    
 0.64928     0.56124     0.46979     0.35858     0.23422     0.14023     0.96197E-01 0.91538E-01 0.12395     0.19933    
 0.31153     0.43275     0.50734     0.49984     0.45397     0.48666     0.67125     0.85470     0.92618     0.94131    
 0.93202     0.90142     0.83293     0.73279     0.66234     0.61980     0.56128     0.45760     0.30705     0.16759    
 0.91538E-01 0.65881E-01 0.72651E-01 0.11282     0.19188     0.29897     0.39766     0.45533     0.49983     0.60925    
 0.78336     0.90021     0.94131     0.94882     0.93925     0.90665     0.74329     0.64084     0.63454     0.66229    
 0.64934     0.56739     0.41394     0.23965     0.12395     0.72651E-01 0.59773E-01 0.74533E-01 0.11968     0.19678    
 0.29513     0.39774     0.50730     0.65136     0.80342     0.89602     0.93202     0.93925     0.92334     0.86426    
 0.57129     0.53952     0.64086     0.73276     0.74728     0.68208     0.53899     0.35145     0.19933     0.11282    
 0.74533E-01 0.67112E-01 0.83671E-01 0.12537     0.19660     0.29908     0.43261     0.59761     0.75593     0.85672    
 0.90142     0.90665     0.86426     0.73754     0.52935     0.58618     0.69240     0.75171     0.74193     0.67274    
 0.56175     0.44536     0.35322     0.28165     0.22286     0.18326     0.16976     0.18332     0.22285     0.28173    
 0.35314     0.44543     0.56166     0.67279     0.74189     0.75174     0.69241     0.58619     0.58618     0.70658    
 0.80851     0.84773     0.83738     0.78211     0.68554     0.58150     0.50145     0.43023     0.34522     0.25438    
 0.18332     0.14504     0.13868     0.16066     0.20962     0.29212     0.40981     0.53208     0.61229     0.62813    
 0.58699     0.54572     0.69240     0.80851     0.87572     0.89863     0.88804     0.83369     0.72853     0.62397    
 0.57121     0.53593     0.46337     0.34510     0.22285     0.13868     0.99146E-01 0.93584E-01 0.11679     0.17527    
 0.27577     0.39365     0.48169     0.52453     0.54265     0.58703     0.75171     0.84773     0.89863     0.91529    
 0.89807     0.82128     0.66506     0.53737     0.52596     0.55702     0.53596     0.43028     0.28173     0.16066    
 0.93584E-01 0.69016E-01 0.73491E-01 0.10746     0.18031     0.28093     0.37297     0.44781     0.52449     0.62810    
 0.74193     0.83738     0.88804     0.89807     0.85928     0.71563     0.46272     0.34131     0.40560     0.52595    
 0.57119     0.50140     0.35314     0.20962     0.11679     0.73491E-01 0.64137E-01 0.80714E-01 0.12709     0.20118    