PROCAR lm decomposed
# of k-points:    6         # of bands:  30         # of ions:  14

 k-point    1 :    0.00000000 0.00000000 0.00000000     weight = 0.04000000

band   1 # energy  -12.62056225 # occ.  2.00000000
 
ion      s     py     pz     px    dxy    dyz    dz2    dxz    dx2    tot
  1  0.022  0.000  0.001  0.000  0.000  0.000  0.000  0.000  0.000  0.023
  2  0.022  0.000  0.001  0.000  0.000  0.000  0.000  0.000  0.000  0.023
  3  0.053  0.000  0.000  0.000  0.000  0.000  0.000  0.000  0.000  0.054
  4  0.053  0.000  0.000  0.000  0.000  0.000  0.000  0.000  0.000  0.054
  5  0.065  0.000  0.000  0.000  0.000  0.000  0.000  0.000  0.000  0.065
  6  0.065  0.000  0.000  0.000  0.000  0.000  0.000  0.000  0.000  0.065
  7  0.053  0.000  0.000  0.000  0.000  0.000  0.000  0.000  0.000  0.054
  8  0.053  0.000  0.000  0.000  0.000  0.000  0.000  0.000  0.000  0.054
  9  0.022  0.000  0.001  0.000  0.000  0.000  0.000  0.000  0.000  0.023
 10  0.022  0.000  0.001  0.000  0.000  0.000  0.000  0.000  0.000  0.023
 11  0.001  0.000  0.000  0.000  0.000  0.000  0.000  0.000  0.000  0.001
 12  0.001  0.000  0.000  0.000  0.000  0.000  0.000  0.000  0.000  0.001
 13  0.001  0.000  0.000  0.000  0.000  0.000  0.000  0.000  0.000  0.001
 14  0.001  0.000  0.000  0.000  0.000  0.000  0.000  0.000  0.000  0.001
tot  0.434  0.000  0.005  0.000  0.000  0.000  0.000  0.000  0.000  0.440
 
band   2 # energy  -11.37606491 # occ.  2.00000000
 
ion      s     py     pz     px    dxy    dyz    dz2    dxz    dx2    tot
  1  0.056  0.000  0.001  0.000  0.000  0.000  0.000  0.000  0.000  0.057
  2  0.056  0.000  0.001  0.000  0.000  0.000  0.000  0.000  0.000  0.057
  3  0.050  0.000  0.002  0.000  0.000  0.000  0.000  0.000  0.000  0.052
  4  0.050  0.000  0.002  0.000  0.000  0.000  0.000  0.000  0.000  0.052
  5  0.000  0.000  0.006  0.000  0.000  0.000  0.000  0.000  0.000  0.006
  6  0.000  0.000  0.006  0.000  0.000  0.000  0.000  0.000  0.000  0.006
  7  0.050  0.000  0.002  0.000  0.000  0.000  0.000  0.000  0.000  0.052
  8  0.050  0.000  0.002  0.000  0.000  0.000  0.000  0.000  0.000  0.052
  9  0.056  0.000  0.001  0.000  0.000  0.000  0.000  0.000  0.000  0.057
 10  0.056  0.000  0.001  0.000  0.000  0.000  0.000  0.000  0.000  0.057
 11  0.005  0.000  0.000  0.000  0.000  0.000  0.000  0.000  0.000  0.005
 12  0.005  0.000  0.000  0.000  0.000  0.000  0.000  0.000  0.000  0.005
 13  0.005  0.000  0.000  0.000  0.000  0.000  0.000  0.000  0.000  0.005
 14  0.005  0.000  0.000  0.000  0.000  0.000  0.000  0.000  0.000  0.005
tot  0.447  0.000  0.022  0.000  0.000  0.000  0.000  0.000  0.000  0.469
 
band   3 # energy   -9.30860897 # occ.  2.00000000
 
ion      s     py     pz     px    dxy    dyz    dz2    dxz    dx2    tot
  1  0.060  0.000  0.002  0.000  0.000  0.000  0.000  0.000  0.000  0.062
  2  0.059  0.000  0.002  0.000  0.000  0.000  0.000  0.000  0.000  0.062
  3  0.000  0.000  0.012  0.000  0.000  0.000  0.000  0.000  0.000  0.012
  4  0.000  0.000  0.012  0.000  0.000  0.000  0.000  0.000  0.000  0.012
  5  0.059  0.000  0.000  0.000  0.000  0.000  0.000  0.000  0.000  0.059
  6  0.059  0.000  0.000  0.000  0.000  0.000  0.000  0.000  0.000  0.059
  7  0.000  0.000  0.012  0.000  0.000  0.000  0.000  0.000  0.000  0.012
  8  0.000  0.000  0.012  0.000  0.000  0.000  0.000  0.000  0.000  0.012
  9  0.060  0.000  0.002  0.000  0.000  0.000  0.000  0.000  0.000  0.062
 10  0.059  0.000  0.002  0.000  0.000  0.000  0.000  0.000  0.000  0.062
 11  0.018  0.000  0.001  0.000  0.000  0.000  0.000  0.000  0.000  0.019
 12  0.018  0.000  0.001  0.000  0.000  0.000  0.000  0.000  0.000  0.019
 13  0.018  0.000  0.001  0.000  0.000  0.000  0.000  0.000  0.000  0.019
 14  0.018  0.000  0.001  0.000  0.000  0.000  0.000  0.000  0.000  0.019
tot  0.428  0.000  0.061  0.000  0.000  0.000  0.000  0.000  0.000  0.489
 
band   4 # energy   -8.99874996 # occ.  2.00000000
 
ion      s     py     pz     px    dxy    dyz    dz2    dxz    dx2    tot
  1  0.097  0.000  0.000  0.000  0.000  0.000  0.000  0.000  0.000  0.097
  2  0.097  0.000  0.000  0.000  0.000  0.000  0.000  0.000  0.000  0.097
  3  0.000  0.007  0.000  0.007  0.000  0.000  0.000  0.000  0.000  0.013
  4  0.000  0.007  0.000  0.007  0.000  0.000  0.000  0.000  0.000  0.013
  5  0.000  0.000  0.000  0.000  0.000  0.000  0.000  0.000  0.000  0.000
  6  0.000  0.000  0.000  0.000  0.000  0.000  0.000  0.000  0.000  0.000
  7  0.000  0.007  0.000  0.007  0.000  0.000  0.000  0.000  0.000  0.013
  8  0.000  0.007  0.000  0.007  0.000  0.000  0.000  0.000  0.000  0.013
  9  0.098  0.000  0.000  0.000  0.000  0.000  0.000  0.000  0.000  0.098
 10  0.098  0.000  0.000  0.000  0.000  0.000  0.000  0.000  0.000  0.098
 11  0.021  0.000  0.001  0.000  0.000  0.000  0.000  0.000  0.000  0.022
 12  0.021  0.000  0.001  0.000  0.000  0.000  0.000  0.000  0.000  0.022
 13  0.021  0.000  0.001  0.000  0.000  0.000  0.000  0.000  0.000  0.022
 14  0.021  0.000  0.001  0.000  0.000  0.000  0.000  0.000  0.000  0.022
tot  0.475  0.027  0.003  0.027  0.000  0.000  0.000  0.000  0.000  0.532
 
band   5 # energy   -8.93855048 # occ.  2.00000000
 
ion      s     py     pz     px    dxy    dyz    dz2    dxz    dx2    tot
  1  0.000  0.000  0.000  0.000  0.000  0.000  0.000  0.000  0.000  0.000
  2  0.000  0.000  0.000  0.000  0.000  0.000  0.000  0.000  0.000  0.000
  3  0.000  0.000  0.000  0.000  0.000  0.000  0.000  0.000  0.000  0.000
  4  0.000  0.000  0.000  0.000  0.000  0.000  0.000  0.000  0.000  0.000
  5  0.000  0.010  0.000  0.010  0.000  0.000  0.000  0.000  0.000  0.020
  6  0.000  0.010  0.000  0.010  0.000  0.000  0.000  0.000  0.000  0.020
  7  0.203  0.000  0.000  0.000  0.000  0.000  0.000  0.000  0.000  0.203
  8  0.203  0.000  0.000  0.000  0.000  0.000  0.000  0.000  0.000  0.203
  9  0.000  0.013  0.000  0.013  0.000  0.000  0.000  0.000  0.000  0.026
 10  0.000  0.013  0.000  0.013  0.000  0.000  0.000  0.000  0.000  0.026
 11  0.000  0.000  0.000  0.000  0.000  0.000  0.000  0.000  0.000  0.000
 12  0.000  0.000  0.000  0.000  0.000  0.000  0.000  0.000  0.000  0.000
 13  0.000  0.000  0.000  0.000  0.000  0.000  0.000  0.000  0.000  0.000
 14  0.000  0.000  0.000  0.000  0.000  0.000  0.000  0.000  0.000  0.000
tot  0.405  0.046  0.000  0.046  0.000  0.000  0.000  0.000  0.000  0.497
 
band   6 # energy   -8.93839735 # occ.  2.00000000
 
ion      s     py     pz     px    dxy    dyz    dz2    dxz    dx2    tot
  1  0.000  0.013  0.000  0.013  0.000  0.000  0.000  0.000  0.000  0.026
  2  0.000  0.013  0.000  0.013  0.000  0.000  0.000  0.000  0.000  0.026
  3  0.203  0.000  0.000  0.000  0.000  0.000  0.000  0.000  0.000  0.203
  4  0.203  0.000  0.000  0.000  0.000  0.000  0.000  0.000  0.000  0.203
  5  0.000  0.010  0.000  0.010  0.000  0.000  0.000  0.000  0.000  0.020
  6  0.000  0.010  0.000  0.010  0.000  0.000  0.000  0.000  0.000  0.020
  7  0.000  0.000  0.000  0.000  0.000  0.000  0.000  0.000  0.000  0.000
  8  0.000  0.000  0.000  0.000  0.000  0.000  0.000  0.000  0.000  0.000
  9  0.000  0.000  0.000  0.000  0.000  0.000  0.000  0.000  0.000  0.000
 10  0.000  0.000  0.000  0.000  0.000  0.000  0.000  0.000  0.000  0.000
 11  0.000  0.000  0.000  0.000  0.000  0.000  0.000  0.000  0.000  0.000
 12  0.000  0.000  0.000  0.000  0.000  0.000  0.000  0.000  0.000  0.000
 13  0.000  0.000  0.000  0.000  0.000  0.000  0.000  0.000  0.000  0.000
 14  0.000  0.000  0.000  0.000  0.000  0.000  0.000  0.000  0.000  0.000
tot  0.405  0.046  0.000  0.046  0.000  0.000  0.000  0.000  0.000  0.497
 
band   7 # energy   -8.91559469 # occ.  2.00000000
 
ion      s     py     pz     px    dxy    dyz    dz2    dxz    dx2    tot
  1  0.101  0.000  0.000  0.000  0.000  0.000  0.000  0.000  0.000  0.101
  2  0.101  0.000  0.000  0.000  0.000  0.000  0.000  0.000  0.000  0.101
  3  0.000  0.006  0.000  0.006  0.000  0.000  0.000  0.000  0.000  0.012
  4  0.000  0.006  0.000  0.006  0.000  0.000  0.000  0.000  0.000  0.012
  5  0.000  0.000  0.000  0.000  0.000  0.000  0.000  0.000  0.000  0.000
  6  0.000  0.000  0.000  0.000  0.000  0.000  0.000  0.000  0.000  0.000
  7  0.000  0.006  0.000  0.006  0.000  0.000  0.000  0.000  0.000  0.012
  8  0.000  0.006  0.000  0.006  0.000  0.000  0.000  0.000  0.000  0.012
  9  0.100  0.000  0.000  0.000  0.000  0.000  0.000  0.000  0.000  0.100
 10  0.100  0.000  0.000  0.000  0.000  0.000  0.000  0.000  0.000  0.100
 11  0.023  0.000  0.001  0.000  0.000  0.000  0.000  0.000  0.000  0.024
 12  0.023  0.000  0.001  0.000  0.000  0.000  0.000  0.000  0.000  0.024
 13  0.023  0.000  0.001  0.000  0.000  0.000  0.000  0.000  0.000  0.024
 14  0.023  0.000  0.001  0.000  0.000  0.000  0.000  0.000  0.000  0.024
tot  0.494  0.023  0.004  0.023  0.000  0.000  0.000  0.000  0.000  0.544
 
band   8 # energy   -8.74836647 # occ.  2.00000000
 
ion      s     py     pz     px    dxy    dyz    dz2    dxz    dx2    tot
  1  0.000  0.000  0.000  0.000  0.000  0.000  0.000  0.000  0.000  0.000
  2  0.000  0.000  0.000  0.000  0.000  0.000  0.000  0.000  0.000  0.000
  3  0.000  0.011  0.000  0.011  0.000  0.000  0.000  0.000  0.000  0.021
  4  0.000  0.011  0.000  0.011  0.000  0.000  0.000  0.000  0.000  0.021
  5  0.201  0.000  0.000  0.000  0.000  0.000  0.000  0.000  0.000  0.201
  6  0.201  0.000  0.000  0.000  0.000  0.000  0.000  0.000  0.000  0.201
  7  0.000  0.011  0.000  0.011  0.000  0.000  0.000  0.000  0.000  0.021
  8  0.000  0.011  0.000  0.011  0.000  0.000  0.000  0.000  0.000  0.021
  9  0.000  0.000  0.000  0.000  0.000  0.000  0.000  0.000  0.000  0.000
 10  0.000  0.000  0.000  0.000  0.000  0.000  0.000  0.000  0.000  0.000
 11  0.000  0.000  0.000  0.000  0.000  0.000  0.000  0.000  0.000  0.000
 12  0.000  0.000  0.000  0.000  0.000  0.000  0.000  0.000  0.000  0.000
 13  0.000  0.000  0.000  0.000  0.000  0.000  0.000  0.000  0.000  0.000
 14  0.000  0.000  0.000  0.000  0.000  0.000  0.000  0.000  0.000  0.000
tot  0.402  0.042  0.000  0.042  0.000  0.000  0.000  0.000  0.000  0.486
 
band   9 # energy   -7.35896830 # occ.  2.00000000
 
ion      s     py     pz     px    dxy    dyz    dz2    dxz    dx2    tot
  1  0.021  0.000  0.022  0.000  0.000  0.000  0.000  0.000  0.000  0.043
  2  0.021  0.000  0.022  0.000  0.000  0.000  0.000  0.000  0.000  0.043
  3  0.032  0.000  0.002  0.000  0.000  0.000  0.000  0.000  0.000  0.034
  4  0.032  0.000  0.002  0.000  0.000  0.000  0.000  0.000  0.000  0.034
  5  0.000  0.000  0.013  0.000  0.000  0.000  0.000  0.000  0.000  0.013
  6  0.000  0.000  0.013  0.000  0.000  0.000  0.000  0.000  0.000  0.013
  7  0.032  0.000  0.002  0.000  0.000  0.000  0.000  0.000  0.000  0.034
  8  0.032  0.000  0.002  0.000  0.000  0.000  0.000  0.000  0.000  0.034
  9  0.021  0.000  0.022  0.000  0.000  0.000  0.000  0.000  0.000  0.043
 10  0.021  0.000  0.022  0.000  0.000  0.000  0.000  0.000  0.000  0.043
 11  0.040  0.000  0.001  0.000  0.000  0.000  0.000  0.000  0.000  0.041
 12  0.040  0.000  0.001  0.000  0.000  0.000  0.000  0.000  0.000  0.041
 13  0.040  0.000  0.001  0.000  0.000  0.000  0.000  0.000  0.000  0.041
 14  0.040  0.000  0.001  0.000  0.000  0.000  0.000  0.000  0.000  0.041
tot  0.375  0.000  0.125  0.000  0.000  0.000  0.000  0.000  0.000  0.500
 
band  10 # energy   -5.50195873 # occ.  2.00000000
 
ion      s     py     pz     px    dxy    dyz    dz2    dxz    dx2    tot
  1  0.000  0.000  0.036  0.000  0.000  0.000  0.000  0.000  0.000  0.036
  2  0.000  0.000  0.035  0.000  0.000  0.000  0.000  0.000  0.000  0.036
  3  0.013  0.000  0.011  0.000  0.000  0.000  0.000  0.000  0.000  0.024
  4  0.013  0.000  0.011  0.000  0.000  0.000  0.000  0.000  0.000  0.024
  5  0.040  0.000  0.000  0.000  0.000  0.000  0.000  0.000  0.000  0.040
  6  0.040  0.000  0.000  0.000  0.000  0.000  0.000  0.000  0.000  0.040
  7  0.013  0.000  0.011  0.000  0.000  0.000  0.000  0.000  0.000  0.024
  8  0.013  0.000  0.011  0.000  0.000  0.000  0.000  0.000  0.000  0.024
  9  0.000  0.000  0.036  0.000  0.000  0.000  0.000  0.000  0.000  0.036
 10  0.000  0.000  0.035  0.000  0.000  0.000  0.000  0.000  0.000  0.036
 11  0.045  0.000  0.001  0.000  0.000  0.000  0.000  0.000  0.000  0.046
 12  0.045  0.000  0.001  0.000  0.000  0.000  0.000  0.000  0.000  0.046
 13  0.045  0.000  0.001  0.000  0.000  0.000  0.000  0.000  0.000  0.046
 14  0.045  0.000  0.001  0.000  0.000  0.000  0.000  0.000  0.000  0.046
tot  0.311  0.000  0.188  0.000  0.000  0.000  0.000  0.000  0.000  0.499
 
band  11 # energy   -5.44182188 # occ.  2.00000000
 
ion      s     py     pz     px    dxy    dyz    dz2    dxz    dx2    tot
  1  0.000  0.000  0.045  0.000  0.000  0.000  0.000  0.000  0.000  0.045
  2  0.000  0.000  0.045  0.000  0.000  0.000  0.000  0.000  0.000  0.045
  3  0.000  0.011  0.000  0.011  0.000  0.000  0.000  0.000  0.000  0.022
  4  0.000  0.011  0.000  0.011  0.000  0.000  0.000  0.000  0.000  0.022
  5  0.000  0.000  0.000  0.000  0.000  0.000  0.000  0.000  0.000  0.000
  6  0.000  0.000  0.000  0.000  0.000  0.000  0.000  0.000  0.000  0.000
  7  0.000  0.011  0.000  0.011  0.000  0.000  0.000  0.000  0.000  0.022
  8  0.000  0.011  0.000  0.011  0.000  0.000  0.000  0.000  0.000  0.022
  9  0.000  0.000  0.045  0.000  0.000  0.000  0.000  0.000  0.000  0.045
 10  0.000  0.000  0.045  0.000  0.000  0.000  0.000  0.000  0.000  0.045
 11  0.045  0.000  0.001  0.000  0.000  0.000  0.000  0.000  0.000  0.046
 12  0.045  0.000  0.001  0.000  0.000  0.000  0.000  0.000  0.000  0.046
 13  0.045  0.000  0.001  0.000  0.000  0.000  0.000  0.000  0.000  0.046
 14  0.045  0.000  0.001  0.000  0.000  0.000  0.000  0.000  0.000  0.046
tot  0.182  0.044  0.181  0.044  0.000  0.000  0.000  0.000  0.000  0.451
 
band  12 # energy   -5.08166930 # occ.  2.00000000
 
ion      s     py     pz     px    dxy    dyz    dz2    dxz    dx2    tot
  1  0.002  0.000  0.050  0.000  0.000  0.000  0.000  0.000  0.000  0.051
  2  0.002  0.000  0.050  0.000  0.000  0.000  0.000  0.000  0.000  0.051
  3  0.000  0.011  0.000  0.011  0.000  0.000  0.000  0.000  0.000  0.022
  4  0.000  0.011  0.000  0.011  0.000  0.000  0.000  0.000  0.000  0.022
  5  0.000  0.000  0.000  0.000  0.000  0.000  0.000  0.000  0.000  0.000
  6  0.000  0.000  0.000  0.000  0.000  0.000  0.000  0.000  0.000  0.000
  7  0.000  0.011  0.000  0.011  0.000  0.000  0.000  0.000  0.000  0.022
  8  0.000  0.011  0.000  0.011  0.000  0.000  0.000  0.000  0.000  0.022
  9  0.002  0.000  0.049  0.000  0.000  0.000  0.000  0.000  0.000  0.051
 10  0.002  0.000  0.049  0.000  0.000  0.000  0.000  0.000  0.000  0.051
 11  0.048  0.000  0.001  0.000  0.000  0.000  0.000  0.000  0.000  0.048
 12  0.048  0.000  0.001  0.000  0.000  0.000  0.000  0.000  0.000  0.048
 13  0.048  0.000  0.001  0.000  0.000  0.000  0.000  0.000  0.000  0.049
 14  0.048  0.000  0.001  0.000  0.000  0.000  0.000  0.000  0.000  0.049
tot  0.199  0.044  0.200  0.044  0.000  0.000  0.000  0.000  0.000  0.486
 
band  13 # energy   -4.46459779 # occ.  2.00000000
 
ion      s     py     pz     px    dxy    dyz    dz2    dxz    dx2    tot
  1  0.000  0.002  0.000  0.002  0.000  0.000  0.000  0.000  0.000  0.004
  2  0.000  0.002  0.000  0.002  0.000  0.000  0.000  0.000  0.000  0.004
  3  0.000  0.000  0.000  0.000  0.000  0.000  0.000  0.000  0.000  0.000
  4  0.000  0.000  0.000  0.000  0.000  0.000  0.000  0.000  0.000  0.000
  5  0.000  0.025  0.000  0.025  0.000  0.000  0.000  0.000  0.000  0.050
  6  0.000  0.025  0.000  0.025  0.000  0.000  0.000  0.000  0.000  0.050
  7  0.000  0.000  0.082  0.000  0.000  0.000  0.000  0.000  0.000  0.082
  8  0.000  0.000  0.082  0.000  0.000  0.000  0.000  0.000  0.000  0.082
  9  0.000  0.022  0.000  0.022  0.000  0.000  0.000  0.000  0.000  0.044
 10  0.000  0.022  0.000  0.022  0.000  0.000  0.000  0.000  0.000  0.044
 11  0.000  0.000  0.000  0.000  0.000  0.000  0.000  0.000  0.000  0.000
 12  0.000  0.000  0.000  0.000  0.000  0.000  0.000  0.000  0.000  0.000
 13  0.000  0.000  0.000  0.000  0.000  0.000  0.000  0.000  0.000  0.000
 14  0.000  0.000  0.000  0.000  0.000  0.000  0.000  0.000  0.000  0.000
tot  0.001  0.098  0.163  0.098  0.000  0.000  0.000  0.000  0.000  0.360
 
band  14 # energy   -4.46445095 # occ.  2.00000000
 
ion      s     py     pz     px    dxy    dyz    dz2    dxz    dx2    tot
  1  0.000  0.022  0.000  0.022  0.000  0.000  0.000  0.000  0.000  0.044
  2  0.000  0.022  0.000  0.022  0.000  0.000  0.000  0.000  0.000  0.044
  3  0.000  0.000  0.082  0.000  0.000  0.000  0.000  0.000  0.000  0.082
  4  0.000  0.000  0.082  0.000  0.000  0.000  0.000  0.000  0.000  0.082
  5  0.000  0.025  0.000  0.025  0.000  0.000  0.000  0.000  0.000  0.050
  6  0.000  0.025  0.000  0.025  0.000  0.000  0.000  0.000  0.000  0.050
  7  0.000  0.000  0.000  0.000  0.000  0.000  0.000  0.000  0.000  0.000
  8  0.000  0.000  0.000  0.000  0.000  0.000  0.000  0.000  0.000  0.000
  9  0.000  0.002  0.000  0.002  0.000  0.000  0.000  0.000  0.000  0.004
 10  0.000  0.002  0.000  0.002  0.000  0.000  0.000  0.000  0.000  0.004
 11  0.000  0.000  0.000  0.000  0.000  0.000  0.000  0.000  0.000  0.000
 12  0.000  0.000  0.000  0.000  0.000  0.000  0.000  0.000  0.000  0.000
 13  0.000  0.000  0.000  0.000  0.000  0.000  0.000  0.000  0.000  0.000
 14  0.000  0.000  0.000  0.000  0.000  0.000  0.000  0.000  0.000  0.000
tot  0.001  0.098  0.163  0.098  0.000  0.000  0.000  0.000  0.000  0.360
 
band  15 # energy   -4.41660044 # occ.  2.00000000
 
ion      s     py     pz     px    dxy    dyz    dz2    dxz    dx2    tot
  1  0.000  0.000  0.000  0.000  0.000  0.000  0.000  0.000  0.000  0.000
  2  0.000  0.000  0.000  0.000  0.000  0.000  0.000  0.000  0.000  0.000
  3  0.000  0.024  0.000  0.024  0.000  0.000  0.000  0.000  0.000  0.048
  4  0.000  0.024  0.000  0.024  0.000  0.000  0.000  0.000  0.000  0.048
  5  0.000  0.000  0.082  0.000  0.000  0.000  0.000  0.000  0.000  0.082
  6  0.000  0.000  0.082  0.000  0.000  0.000  0.000  0.000  0.000  0.082
  7  0.000  0.024  0.000  0.024  0.000  0.000  0.000  0.000  0.000  0.048
  8  0.000  0.024  0.000  0.024  0.000  0.000  0.000  0.000  0.000  0.048
  9  0.000  0.000  0.000  0.000  0.000  0.000  0.000  0.000  0.000  0.000
 10  0.000  0.000  0.000  0.000  0.000  0.000  0.000  0.000  0.000  0.000
 11  0.000  0.000  0.000  0.000  0.000  0.000  0.000  0.000  0.000  0.000
 12  0.000  0.000  0.000  0.000  0.000  0.000  0.000  0.000  0.000  0.000
 13  0.000  0.000  0.000  0.000  0.000  0.000  0.000  0.000  0.000  0.000
 14  0.000  0.000  0.000  0.000  0.000  0.000  0.000  0.000  0.000  0.000
tot  0.000  0.097  0.164  0.097  0.000  0.000  0.000  0.000  0.000  0.357
 
band  16 # energy   -3.56836604 # occ.  2.00000000
 
ion      s     py     pz     px    dxy    dyz    dz2    dxz    dx2    tot
  1  0.000  0.002  0.000  0.002  0.000  0.000  0.000  0.000  0.000  0.005
  2  0.000  0.002  0.000  0.002  0.000  0.000  0.000  0.000  0.000  0.005
  3  0.000  0.018  0.000  0.018  0.000  0.000  0.000  0.000  0.000  0.036
  4  0.000  0.018  0.000  0.018  0.000  0.000  0.000  0.000  0.000  0.036
  5  0.000  0.026  0.000  0.026  0.000  0.000  0.000  0.000  0.000  0.053
  6  0.000  0.026  0.000  0.026  0.000  0.000  0.000  0.000  0.000  0.053
  7  0.000  0.034  0.000  0.034  0.000  0.000  0.000  0.000  0.000  0.068
  8  0.000  0.034  0.000  0.034  0.000  0.000  0.000  0.000  0.000  0.068
  9  0.000  0.022  0.000  0.022  0.000  0.000  0.000  0.000  0.000  0.044
 10  0.000  0.022  0.000  0.022  0.000  0.000  0.000  0.000  0.000  0.044
 11  0.000  0.000  0.000  0.000  0.000  0.000  0.000  0.000  0.000  0.000
 12  0.000  0.000  0.000  0.000  0.000  0.000  0.000  0.000  0.000  0.000
 13  0.000  0.000  0.000  0.000  0.000  0.000  0.000  0.000  0.000  0.000
 14  0.000  0.000  0.000  0.000  0.000  0.000  0.000  0.000  0.000  0.000
tot  0.000  0.206  0.000  0.206  0.000  0.000  0.000  0.000  0.000  0.411
 
band  17 # energy   -3.56826931 # occ.  2.00000000
 
ion      s     py     pz     px    dxy    dyz    dz2    dxz    dx2    tot
  1  0.000  0.022  0.000  0.022  0.000  0.000  0.000  0.000  0.000  0.044
  2  0.000  0.022  0.000  0.022  0.000  0.000  0.000  0.000  0.000  0.044
  3  0.000  0.034  0.000  0.034  0.000  0.000  0.000  0.000  0.000  0.068
  4  0.000  0.034  0.000  0.034  0.000  0.000  0.000  0.000  0.000  0.068
  5  0.000  0.026  0.000  0.026  0.000  0.000  0.000  0.000  0.000  0.053
  6  0.000  0.026  0.000  0.026  0.000  0.000  0.000  0.000  0.000  0.053
  7  0.000  0.018  0.000  0.018  0.000  0.000  0.000  0.000  0.000  0.036
  8  0.000  0.018  0.000  0.018  0.000  0.000  0.000  0.000  0.000  0.036
  9  0.000  0.002  0.000  0.002  0.000  0.000  0.000  0.000  0.000  0.005
 10  0.000  0.002  0.000  0.002  0.000  0.000  0.000  0.000  0.000  0.005
 11  0.000  0.000  0.000  0.000  0.000  0.000  0.000  0.000  0.000  0.000
 12  0.000  0.000  0.000  0.000  0.000  0.000  0.000  0.000  0.000  0.000
 13  0.000  0.000  0.000  0.000  0.000  0.000  0.000  0.000  0.000  0.000
 14  0.000  0.000  0.000  0.000  0.000  0.000  0.000  0.000  0.000  0.000
tot  0.000  0.206  0.000  0.206  0.000  0.000  0.000  0.000  0.000  0.411
 
band  18 # energy   -3.11919736 # occ.  2.00000000
 
ion      s     py     pz     px    dxy    dyz    dz2    dxz    dx2    tot
  1  0.015  0.000  0.019  0.000  0.000  0.000  0.000  0.000  0.000  0.034
  2  0.015  0.000  0.019  0.000  0.000  0.000  0.000  0.000  0.000  0.034
  3  0.011  0.000  0.029  0.000  0.000  0.000  0.000  0.000  0.000  0.040
  4  0.011  0.000  0.029  0.000  0.000  0.000  0.000  0.000  0.000  0.040
  5  0.000  0.000  0.037  0.000  0.000  0.000  0.000  0.000  0.000  0.037
  6  0.000  0.000  0.037  0.000  0.000  0.000  0.000  0.000  0.000  0.037
  7  0.011  0.000  0.029  0.000  0.000  0.000  0.000  0.000  0.000  0.040
  8  0.011  0.000  0.029  0.000  0.000  0.000  0.000  0.000  0.000  0.040
  9  0.015  0.000  0.019  0.000  0.000  0.000  0.000  0.000  0.000  0.034
 10  0.015  0.000  0.019  0.000  0.000  0.000  0.000  0.000  0.000  0.034
 11  0.025  0.000  0.000  0.000  0.000  0.000  0.000  0.000  0.000  0.025
 12  0.025  0.000  0.000  0.000  0.000  0.000  0.000  0.000  0.000  0.025
 13  0.025  0.000  0.000  0.000  0.000  0.000  0.000  0.000  0.000  0.025
 14  0.025  0.000  0.000  0.000  0.000  0.000  0.000  0.000  0.000  0.025
tot  0.202  0.000  0.267  0.000  0.000  0.000  0.000  0.000  0.000  0.469
 
band  19 # energy   -2.39207718 # occ.  2.00000000
 
ion      s     py     pz     px    dxy    dyz    dz2    dxz    dx2    tot
  1  0.000  0.009  0.000  0.009  0.000  0.000  0.000  0.000  0.000  0.018
  2  0.000  0.009  0.000  0.009  0.000  0.000  0.000  0.000  0.000  0.018
  3  0.000  0.033  0.000  0.033  0.000  0.000  0.000  0.000  0.000  0.066
  4  0.000  0.033  0.000  0.033  0.000  0.000  0.000  0.000  0.000  0.066
  5  0.000  0.013  0.000  0.013  0.000  0.000  0.000  0.000  0.000  0.026
  6  0.000  0.013  0.000  0.013  0.000  0.000  0.000  0.000  0.000  0.026
  7  0.000  0.021  0.000  0.021  0.000  0.000  0.000  0.000  0.000  0.043
  8  0.000  0.021  0.000  0.021  0.000  0.000  0.000  0.000  0.000  0.043
  9  0.000  0.029  0.000  0.029  0.000  0.000  0.000  0.000  0.000  0.059
 10  0.000  0.029  0.000  0.029  0.000  0.000  0.000  0.000  0.000  0.059
 11  0.000  0.000  0.000  0.000  0.000  0.000  0.000  0.000  0.000  0.000
 12  0.000  0.000  0.000  0.000  0.000  0.000  0.000  0.000  0.000  0.000
 13  0.000  0.000  0.000  0.000  0.000  0.000  0.000  0.000  0.000  0.000
 14  0.000  0.000  0.000  0.000  0.000  0.000  0.000  0.000  0.000  0.000
tot  0.000  0.211  0.000  0.211  0.000  0.000  0.000  0.000  0.000  0.421
 
band  20 # energy   -2.39199695 # occ.  2.00000000
 
ion      s     py     pz     px    dxy    dyz    dz2    dxz    dx2    tot
  1  0.000  0.029  0.000  0.029  0.000  0.000  0.000  0.000  0.000  0.059
  2  0.000  0.029  0.000  0.029  0.000  0.000  0.000  0.000  0.000  0.059
  3  0.000  0.021  0.000  0.021  0.000  0.000  0.000  0.000  0.000  0.043
  4  0.000  0.021  0.000  0.021  0.000  0.000  0.000  0.000  0.000  0.043
  5  0.000  0.013  0.000  0.013  0.000  0.000  0.000  0.000  0.000  0.026
  6  0.000  0.013  0.000  0.013  0.000  0.000  0.000  0.000  0.000  0.026
  7  0.000  0.033  0.000  0.033  0.000  0.000  0.000  0.000  0.000  0.066
  8  0.000  0.033  0.000  0.033  0.000  0.000  0.000  0.000  0.000  0.066
  9  0.000  0.009  0.000  0.009  0.000  0.000  0.000  0.000  0.000  0.018
 10  0.000  0.009  0.000  0.009  0.000  0.000  0.000  0.000  0.000  0.018
 11  0.000  0.000  0.000  0.000  0.000  0.000  0.000  0.000  0.000  0.000
 12  0.000  0.000  0.000  0.000  0.000  0.000  0.000  0.000  0.000  0.000
 13  0.000  0.000  0.000  0.000  0.000  0.000  0.000  0.000  0.000  0.000
 14  0.000  0.000  0.000  0.000  0.000  0.000  0.000  0.000  0.000  0.000
tot  0.000  0.211  0.000  0.211  0.000  0.000  0.000  0.000  0.000  0.421
 
band  21 # energy   -2.06580820 # occ.  2.00000000
 
ion      s     py     pz     px    dxy    dyz    dz2    dxz    dx2    tot
  1  0.000  0.003  0.000  0.003  0.000  0.000  0.000  0.000  0.000  0.006
  2  0.000  0.003  0.000  0.003  0.000  0.000  0.000  0.000  0.000  0.006
  3  0.004  0.000  0.012  0.000  0.000  0.000  0.000  0.000  0.000  0.015
  4  0.004  0.000  0.012  0.000  0.000  0.000  0.000  0.000  0.000  0.015
  5  0.000  0.000  0.000  0.000  0.000  0.000  0.000  0.000  0.000  0.001
  6  0.000  0.000  0.000  0.000  0.000  0.000  0.000  0.000  0.000  0.001
  7  0.000  0.000  0.000  0.000  0.000  0.000  0.000  0.000  0.000  0.000
  8  0.000  0.000  0.000  0.000  0.000  0.000  0.000  0.000  0.000  0.000
  9  0.000  0.052  0.000  0.052  0.000  0.000  0.000  0.000  0.000  0.105
 10  0.000  0.052  0.000  0.052  0.000  0.000  0.000  0.000  0.000  0.105
 11  0.000  0.000  0.000  0.000  0.000  0.000  0.000  0.000  0.000  0.001
 12  0.000  0.000  0.000  0.000  0.000  0.000  0.000  0.000  0.000  0.001
 13  0.000  0.000  0.000  0.000  0.000  0.000  0.000  0.000  0.000  0.000
 14  0.000  0.000  0.000  0.000  0.000  0.000  0.000  0.000  0.000  0.000
tot  0.007  0.112  0.023  0.112  0.000  0.000  0.000  0.000  0.000  0.254
 
band  22 # energy   -2.06551431 # occ.  2.00000000
 
ion      s     py     pz     px    dxy    dyz    dz2    dxz    dx2    tot
  1  0.000  0.052  0.000  0.052  0.000  0.000  0.000  0.000  0.000  0.105
  2  0.000  0.052  0.000  0.052  0.000  0.000  0.000  0.000  0.000  0.105
  3  0.000  0.000  0.000  0.000  0.000  0.000  0.000  0.000  0.000  0.000
  4  0.000  0.000  0.000  0.000  0.000  0.000  0.000  0.000  0.000  0.000
  5  0.000  0.000  0.000  0.000  0.000  0.000  0.000  0.000  0.000  0.001
  6  0.000  0.000  0.000  0.000  0.000  0.000  0.000  0.000  0.000  0.001
  7  0.004  0.000  0.012  0.000  0.000  0.000  0.000  0.000  0.000  0.015
  8  0.004  0.000  0.012  0.000  0.000  0.000  0.000  0.000  0.000  0.015
  9  0.000  0.003  0.000  0.003  0.000  0.000  0.000  0.000  0.000  0.006
 10  0.000  0.003  0.000  0.003  0.000  0.000  0.000  0.000  0.000  0.006
 11  0.000  0.000  0.000  0.000  0.000  0.000  0.000  0.000  0.000  0.000
 12  0.000  0.000  0.000  0.000  0.000  0.000  0.000  0.000  0.000  0.000
 13  0.000  0.000  0.000  0.000  0.000  0.000  0.000  0.000  0.000  0.001
 14  0.000  0.000  0.000  0.000  0.000  0.000  0.000  0.000  0.000  0.001
tot  0.007  0.112  0.023  0.112  0.000  0.000  0.000  0.000  0.000  0.254
 
band  23 # energy   -0.19198158 # occ.  0.00000000
 
ion      s     py     pz     px    dxy    dyz    dz2    dxz    dx2    tot
  1  0.007  0.000  0.006  0.000  0.000  0.000  0.000  0.000  0.000  0.014
  2  0.007  0.000  0.006  0.000  0.000  0.000  0.000  0.000  0.000  0.014
  3  0.001  0.000  0.020  0.000  0.000  0.000  0.000  0.000  0.000  0.021
  4  0.001  0.000  0.020  0.000  0.000  0.000  0.000  0.000  0.000  0.021
  5  0.030  0.000  0.000  0.000  0.000  0.000  0.000  0.000  0.000  0.030
  6  0.030  0.000  0.000  0.000  0.000  0.000  0.000  0.000  0.000  0.030
  7  0.001  0.000  0.020  0.000  0.000  0.000  0.000  0.000  0.000  0.021
  8  0.001  0.000  0.020  0.000  0.000  0.000  0.000  0.000  0.000  0.021
  9  0.007  0.000  0.006  0.000  0.000  0.000  0.000  0.000  0.000  0.014
 10  0.007  0.000  0.006  0.000  0.000  0.000  0.000  0.000  0.000  0.014
 11  0.002  0.000  0.000  0.000  0.000  0.000  0.000  0.000  0.000  0.002
 12  0.002  0.000  0.000  0.000  0.000  0.000  0.000  0.000  0.000  0.002
 13  0.002  0.000  0.000  0.000  0.000  0.000  0.000  0.000  0.000  0.002
 14  0.002  0.000  0.000  0.000  0.000  0.000  0.000  0.000  0.000  0.002
tot  0.102  0.000  0.105  0.000  0.000  0.000  0.000  0.000  0.000  0.206
 
band  24 # energy    0.27963374 # occ.  0.00000000
 
ion      s     py     pz     px    dxy    dyz    dz2    dxz    dx2    tot
  1  0.000  0.000  0.000  0.000  0.000  0.000  0.000  0.000  0.000  0.000
  2  0.000  0.000  0.000  0.000  0.000  0.000  0.000  0.000  0.000  0.000
  3  0.023  0.000  0.001  0.000  0.000  0.000  0.000  0.000  0.000  0.025
  4  0.023  0.000  0.001  0.000  0.000  0.000  0.000  0.000  0.000  0.025
  5  0.000  0.000  0.057  0.000  0.000  0.000  0.000  0.000  0.000  0.057
  6  0.000  0.000  0.057  0.000  0.000  0.000  0.000  0.000  0.000  0.057
  7  0.023  0.000  0.001  0.000  0.000  0.000  0.000  0.000  0.000  0.025
  8  0.023  0.000  0.001  0.000  0.000  0.000  0.000  0.000  0.000  0.025
  9  0.000  0.000  0.000  0.000  0.000  0.000  0.000  0.000  0.000  0.000
 10  0.000  0.000  0.000  0.000  0.000  0.000  0.000  0.000  0.000  0.000
 11  0.000  0.000  0.000  0.000  0.000  0.000  0.000  0.000  0.000  0.000
 12  0.000  0.000  0.000  0.000  0.000  0.000  0.000  0.000  0.000  0.000
 13  0.000  0.000  0.000  0.000  0.000  0.000  0.000  0.000  0.000  0.000
 14  0.000  0.000  0.000  0.000  0.000  0.000  0.000  0.000  0.000  0.000
tot  0.093  0.000  0.119  0.000  0.000  0.000  0.000  0.000  0.000  0.213
 
band  25 # energy    0.32940271 # occ.  0.00000000
 