unknown system                          
           1
     5.431010    0.000000    0.000000
     0.000000    5.431010    0.000000
     0.000000    0.000000   21.591010
   Si   H 
  10   4
Direct configuration=     1
   0.00000000  0.00000000  0.00242325
   0.49999908  0.49999908  0.00242325
   0.24999954  0.24999954  0.06069776
   0.75000046  0.75000046  0.06069776
   0.00000000  0.49999908  0.12576994
   0.49999908  0.00000000  0.12576994
   0.24999954  0.75000046  0.19084258
   0.75000046  0.24999954  0.19084258
   0.00000000  0.00000000  0.24911709
   0.49999908  0.49999908  0.24911709
   0.00000000  0.00000000  0.31850661
   0.49999908  0.49999908  0.31850661
   0.00000000  0.00000000  0.93303326
   0.49999908  0.49999908  0.93303326
