  20  20   0   0
  0.2010597E+02  0.3946846E-09  0.3946846E-09  0.2581396E-08  0.5000000E-15
  1.000000000000000E-004
  CAR 
 unknown system                          
      9.69966923    -36.09559209  301      0.46429153      1.00000000
    -36.096  0.0000E+00  0.0000E+00
    -35.943  0.0000E+00  0.0000E+00
    -35.790  0.0000E+00  0.0000E+00
    -35.638  0.0000E+00  0.0000E+00
    -35.485  0.0000E+00  0.0000E+00
    -35.332  0.0000E+00  0.0000E+00
    -35.180  0.0000E+00  0.0000E+00
    -35.027  0.0000E+00  0.0000E+00
    -34.874  0.0000E+00  0.0000E+00
    -34.722  0.0000E+00  0.0000E+00
    -34.569  0.0000E+00  0.0000E+00
    -34.416  0.0000E+00  0.0000E+00
    -34.264  0.0000E+00  0.0000E+00
    -34.111  0.0000E+00  0.0000E+00
    -33.958  0.0000E+00  0.2000E+01
    -33.806  0.0000E+00  0.2000E+01
    -33.653  0.0000E+00  0.2000E+01
    -33.501  0.0000E+00  0.2000E+01
    -33.348  0.0000E+00  0.2000E+01
    -33.195  0.0000E+00  0.2000E+01
    -33.043  0.0000E+00  0.2000E+01
    -32.890  0.5192E+02  0.5714E+01
    -32.737  0.0000E+00  0.8000E+01
    -32.585  0.0000E+00  0.8000E+01
    -32.432  0.0000E+00  0.8000E+01
    -32.279  0.0000E+00  0.8000E+01
    -32.127  0.0000E+00  0.8000E+01
    -31.974  0.0000E+00  0.8000E+01
    -31.821  0.0000E+00  0.8000E+01
    -31.669  0.0000E+00  0.8000E+01
    -31.516  0.0000E+00  0.8000E+01
    -31.363  0.0000E+00  0.8000E+01
    -31.211  0.0000E+00  0.8000E+01
    -31.058  0.0000E+00  0.8000E+01
    -30.905  0.0000E+00  0.8000E+01
    -30.753  0.0000E+00  0.8000E+01
    -30.600  0.0000E+00  0.8000E+01
    -30.448  0.0000E+00  0.8000E+01
    -30.295  0.0000E+00  0.8000E+01
    -30.142  0.0000E+00  0.8000E+01
    -29.990  0.0000E+00  0.8000E+01
    -29.837  0.0000E+00  0.8000E+01
    -29.684  0.0000E+00  0.8000E+01
    -29.532  0.0000E+00  0.8000E+01
    -29.379  0.0000E+00  0.8000E+01
    -29.226  0.0000E+00  0.8000E+01
    -29.074  0.0000E+00  0.8000E+01
    -28.921  0.0000E+00  0.8000E+01
    -28.768  0.0000E+00  0.8000E+01
    -28.616  0.0000E+00  0.8000E+01
    -28.463  0.0000E+00  0.8000E+01
    -28.310  0.0000E+00  0.8000E+01
    -28.158  0.0000E+00  0.8000E+01
    -28.005  0.0000E+00  0.8000E+01
    -27.852  0.0000E+00  0.8000E+01
    -27.700  0.0000E+00  0.8000E+01
    -27.547  0.0000E+00  0.8000E+01
    -27.394  0.0000E+00  0.8000E+01
    -27.242  0.0000E+00  0.8000E+01
    -27.089  0.0000E+00  0.8000E+01
    -26.937  0.0000E+00  0.8000E+01
    -26.784  0.0000E+00  0.8000E+01
    -26.631  0.0000E+00  0.8000E+01
    -26.479  0.0000E+00  0.8000E+01
    -26.326  0.0000E+00  0.8000E+01
    -26.173  0.0000E+00  0.8000E+01
    -26.021  0.0000E+00  0.8000E+01
    -25.868  0.0000E+00  0.8000E+01
    -25.715  0.0000E+00  0.8000E+01
    -25.563  0.0000E+00  0.8000E+01
    -25.410  0.0000E+00  0.8000E+01
    -25.257  0.0000E+00  0.8000E+01
    -25.105  0.0000E+00  0.8000E+01
    -24.952  0.0000E+00  0.8000E+01
    -24.799  0.0000E+00  0.8000E+01
    -24.647  0.0000E+00  0.8000E+01
    -24.494  0.0000E+00  0.8000E+01
    -24.341  0.0000E+00  0.8000E+01
    -24.189  0.0000E+00  0.8000E+01
    -24.036  0.0000E+00  0.8000E+01
    -23.884  0.0000E+00  0.8000E+01
    -23.731  0.0000E+00  0.8000E+01
    -23.578  0.0000E+00  0.8000E+01
    -23.426  0.0000E+00  0.8000E+01
    -23.273  0.0000E+00  0.8000E+01
    -23.120  0.0000E+00  0.8000E+01
    -22.968  0.0000E+00  0.8000E+01
    -22.815  0.0000E+00  0.8000E+01
    -22.662  0.0000E+00  0.8000E+01
    -22.510  0.0000E+00  0.8000E+01
    -22.357  0.0000E+00  0.8000E+01
    -22.204  0.0000E+00  0.8000E+01
    -22.052  0.0000E+00  0.8000E+01
    -21.899  0.0000E+00  0.8000E+01
    -21.746  0.0000E+00  0.8000E+01
    -21.594  0.0000E+00  0.8000E+01
    -21.441  0.0000E+00  0.8000E+01
    -21.288  0.0000E+00  0.8000E+01
    -21.136  0.0000E+00  0.8000E+01
    -20.983  0.0000E+00  0.8000E+01
    -20.831  0.0000E+00  0.8000E+01
    -20.678  0.0000E+00  0.8000E+01
    -20.525  0.0000E+00  0.8000E+01
    -20.373  0.0000E+00  0.8000E+01
    -20.220  0.0000E+00  0.8000E+01
    -20.067  0.0000E+00  0.8000E+01
    -19.915  0.0000E+00  0.8000E+01
    -19.762  0.0000E+00  0.8000E+01
    -19.609  0.0000E+00  0.8000E+01
    -19.457  0.0000E+00  0.8000E+01
    -19.304  0.0000E+00  0.8000E+01
    -19.151  0.0000E+00  0.8000E+01
    -18.999  0.0000E+00  0.8000E+01
    -18.846  0.0000E+00  0.8000E+01
    -18.693  0.0000E+00  0.8000E+01
    -18.541  0.0000E+00  0.8000E+01
    -18.388  0.0000E+00  0.8000E+01
    -18.235  0.0000E+00  0.8000E+01
    -18.083  0.0000E+00  0.8000E+01
    -17.930  0.0000E+00  0.8000E+01
    -17.777  0.0000E+00  0.8000E+01
    -17.625  0.5962E+01  0.8159E+01
    -17.472  0.1021E+02  0.9775E+01
    -17.320  0.7571E+01  0.1151E+02
    -17.167  0.7364E+01  0.1268E+02
    -17.014  0.9874E+01  0.1399E+02
    -16.862  0.4537E+01  0.1521E+02
    -16.709  0.2189E+02  0.1681E+02
    -16.556  0.4749E+02  0.2150E+02
    -16.404  0.5010E+01  0.2639E+02
    -16.251  0.2081E+02  0.2842E+02
    -16.098  0.3323E+01  0.2969E+02
    -15.946  0.2596E+02  0.3299E+02
    -15.793  0.0000E+00  0.3600E+02
    -15.640  0.9750E-01  0.3600E+02
    -15.488  0.1221E+01  0.3611E+02
    -15.335  0.2449E+01  0.3639E+02
    -15.182  0.5950E+01  0.3699E+02
    -15.030  0.3674E+02  0.4004E+02
    -14.877  0.5166E+02  0.4567E+02
    -14.724  0.2636E+02  0.5017E+02
    -14.572  0.1811E+02  0.5528E+02
    -14.419  0.0000E+00  0.5600E+02
    -14.267  0.0000E+00  0.5600E+02
    -14.114  0.0000E+00  0.5600E+02
    -13.961  0.0000E+00  0.5600E+02
    -13.809  0.0000E+00  0.5600E+02
    -13.656  0.0000E+00  0.5600E+02
    -13.503  0.0000E+00  0.5600E+02
    -13.351  0.0000E+00  0.5600E+02
    -13.198  0.0000E+00  0.5600E+02
    -13.045  0.0000E+00  0.5600E+02
    -12.893  0.0000E+00  0.5600E+02
    -12.740  0.0000E+00  0.5600E+02
    -12.587  0.0000E+00  0.5600E+02
    -12.435  0.0000E+00  0.5600E+02
    -12.282  0.0000E+00  0.5600E+02
    -12.129  0.0000E+00  0.5600E+02
    -11.977  0.0000E+00  0.5600E+02
    -11.824  0.0000E+00  0.5600E+02
    -11.671  0.0000E+00  0.5600E+02
    -11.519  0.0000E+00  0.5600E+02
    -11.366  0.0000E+00  0.5600E+02
    -11.214  0.0000E+00  0.5600E+02
    -11.061  0.0000E+00  0.5600E+02
    -10.908  0.0000E+00  0.5600E+02
    -10.756  0.0000E+00  0.5600E+02
    -10.603  0.0000E+00  0.5600E+02
    -10.450  0.0000E+00  0.5600E+02
    -10.298  0.0000E+00  0.5600E+02
    -10.145  0.0000E+00  0.5600E+02
     -9.992  0.0000E+00  0.5600E+02
     -9.840  0.0000E+00  0.5600E+02
     -9.687  0.0000E+00  0.5600E+02
     -9.534  0.0000E+00  0.5600E+02
     -9.382  0.0000E+00  0.5600E+02
     -9.229  0.0000E+00  0.5600E+02
     -9.076  0.0000E+00  0.5600E+02
     -8.924  0.0000E+00  0.5600E+02
     -8.771  0.0000E+00  0.5600E+02
     -8.618  0.0000E+00  0.5600E+02
     -8.466  0.0000E+00  0.5600E+02
     -8.313  0.0000E+00  0.5600E+02
     -8.160  0.0000E+00  0.5600E+02
     -8.008  0.0000E+00  0.5600E+02
     -7.855  0.0000E+00  0.5600E+02
     -7.703  0.0000E+00  0.5600E+02
     -7.550  0.0000E+00  0.5600E+02
     -7.397  0.0000E+00  0.5600E+02
     -7.245  0.0000E+00  0.5600E+02
     -7.092  0.0000E+00  0.5600E+02
     -6.939  0.0000E+00  0.5600E+02
     -6.787  0.0000E+00  0.5600E+02
     -6.634  0.0000E+00  0.5600E+02
     -6.481  0.0000E+00  0.5600E+02
     -6.329  0.0000E+00  0.5600E+02
     -6.176  0.0000E+00  0.5600E+02
     -6.023  0.0000E+00  0.5600E+02
     -5.871  0.0000E+00  0.5600E+02
     -5.718  0.0000E+00  0.5600E+02
     -5.565  0.0000E+00  0.5600E+02
     -5.413  0.0000E+00  0.5600E+02
     -5.260  0.0000E+00  0.5600E+02
     -5.107  0.0000E+00  0.5600E+02
     -4.955  0.0000E+00  0.5600E+02
     -4.802  0.0000E+00  0.5600E+02
     -4.650  0.0000E+00  0.5600E+02
     -4.497  0.6287E+01  0.5681E+02
     -4.344  0.1832E+02  0.5870E+02
     -4.192  0.1333E+02  0.6114E+02
     -4.039  0.2069E+02  0.6376E+02
     -3.886  0.1304E+02  0.6623E+02
     -3.734  0.1486E+02  0.6863E+02
     -3.581  0.1568E+02  0.7117E+02
     -3.428  0.1908E+02  0.7417E+02
     -3.276  0.2200E+02  0.7737E+02
     -3.123  0.2526E+02  0.8116E+02
     -2.970  0.2003E+02  0.8494E+02
     -2.818  0.1263E+02  0.8744E+02
     -2.665  0.1425E+02  0.8964E+02
     -2.512  0.1238E+02  0.9170E+02
     -2.360  0.1314E+02  0.9374E+02
     -2.207  0.1126E+02  0.9573E+02
     -2.054  0.1051E+02  0.9742E+02
     -1.902  0.1014E+02  0.9907E+02
     -1.749  0.9847E+01  0.1009E+03
     -1.596  0.1134E+02  0.1029E+03
     -1.444  0.1309E+02  0.1055E+03
     -1.291  0.1832E+02  0.1090E+03
     -1.139  0.2366E+02  0.1123E+03
     -0.986  0.1428E+02  0.1161E+03
     -0.833  0.1806E+02  0.1185E+03
     -0.681  0.1917E+02  0.1216E+03
     -0.528  0.1226E+02  0.1242E+03
     -0.375  0.8649E+01  0.1261E+03
     -0.223  0.1626E+01  0.1273E+03
     -0.070  0.1182E+01  0.1275E+03
      0.083  0.1235E+01  0.1277E+03
      0.235  0.8226E+00  0.1278E+03
      0.388  0.5527E+00  0.1279E+03
      0.541  0.0000E+00  0.1280E+03
      0.693  0.0000E+00  0.1280E+03
      0.846  0.0000E+00  0.1280E+03
      0.999  0.0000E+00  0.1280E+03
      1.151  0.0000E+00  0.1280E+03
      1.304  0.0000E+00  0.1280E+03
      1.457  0.2971E+00  0.1280E+03
      1.609  0.2730E+01  0.1282E+03
      1.762  0.3874E+01  0.1287E+03
      1.914  0.4417E+01  0.1294E+03
      2.067  0.4325E+01  0.1301E+03
      2.220  0.8424E+01  0.1311E+03
      2.372  0.6866E+01  0.1323E+03
      2.525  0.7764E+01  0.1334E+03
      2.678  0.9988E+01  0.1348E+03
      2.830  0.1176E+02  0.1366E+03
      2.983  0.1340E+02  0.1386E+03
      3.136  0.1613E+02  0.1408E+03
      3.288  0.1633E+02  0.1439E+03
      3.441  0.1254E+02  0.1467E+03
      3.594  0.5752E+01  0.1485E+03
      3.746  0.1283E+01  0.1491E+03
      3.899  0.6140E+00  0.1493E+03
      4.052  0.6138E+00  0.1494E+03
      4.204  0.6137E+00  0.1495E+03
      4.357  0.6135E+00  0.1496E+03
      4.510  0.6134E+00  0.1497E+03
      4.662  0.6132E+00  0.1498E+03
      4.815  0.6131E+00  0.1499E+03
      4.967  0.6129E+00  0.1500E+03
      5.120  0.6127E+00  0.1500E+03
      5.273  0.6278E+00  0.1501E+03
      5.425  0.6616E+00  0.1502E+03
      5.578  0.9366E+00  0.1504E+03
      5.731  0.1066E+01  0.1505E+03
      5.883  0.8326E+00  0.1507E+03
      6.036  0.5751E+00  0.1508E+03
      6.189  0.5250E+00  0.1509E+03
      6.341  0.4749E+00  0.1509E+03
      6.494  0.4248E+00  0.1510E+03
      6.647  0.3747E+00  0.1511E+03
      6.799  0.3745E+00  0.1511E+03
      6.952  0.4159E+00  0.1512E+03
      7.105  0.3644E+00  0.1513E+03
      7.257  0.7798E+00  0.1515E+03
      7.410  0.1299E+01  0.1517E+03
      7.563  0.1284E+01  0.1519E+03
      7.715  0.0000E+00  0.1520E+03
      7.868  0.0000E+00  0.1520E+03
      8.021  0.0000E+00  0.1520E+03
      8.173  0.0000E+00  0.1520E+03
      8.326  0.0000E+00  0.1520E+03
      8.478  0.0000E+00  0.1520E+03
      8.631  0.0000E+00  0.1520E+03
      8.784  0.0000E+00  0.1520E+03
      8.936  0.0000E+00  0.1520E+03
      9.089  0.0000E+00  0.1520E+03
      9.242  0.0000E+00  0.1520E+03
      9.394  0.0000E+00  0.1520E+03
      9.547  0.0000E+00  0.1520E+03
      9.700  0.0000E+00  0.1520E+03
