unknown system                          
           1
     3.946846    0.000000    0.000000
     0.000000    3.946846    0.000000
     0.000000    0.000000   25.813962
   O    Sr   Ti
  12   4   4
Direct configuration=     1
   0.50000000  0.50000000  0.23243235
   0.50000000  0.00000000  0.30888025
   0.00000000  0.50000000  0.30888025
   0.50000000  0.50000000  0.38532815
   0.50000000  0.00000000  0.46177605
   0.00000000  0.50000000  0.46177605
   0.50000000  0.50000000  0.53822395
   0.50000000  0.00000000  0.61467185
   0.00000000  0.50000000  0.61467185
   0.50000000  0.50000000  0.69111975
   0.50000000  0.00000000  0.76756765
   0.00000000  0.50000000  0.76756765
   0.00000000  0.00000000  0.23243235
   0.00000000  0.00000000  0.38532815
   0.00000000  0.00000000  0.53822395
   0.00000000  0.00000000  0.69111975
   0.50000000  0.50000000  0.30888025
   0.50000000  0.50000000  0.46177605
   0.50000000  0.50000000  0.61467185
   0.50000000  0.50000000  0.76756765
