unknown system                          
   1.00000000000000     
     2.573869    0.000000    0.000000
     1.286934    2.229036    0.000000
     0.000000    0.000000   30.304665
   Cu   H 
     4     1
Direct
  0.000000  0.000000  0.395979
  0.333333  0.333333  0.465326
  0.666667  0.666667  0.534674
  0.000000  0.000000  0.604021
  0.689098  0.621804  0.637020
 
   20   20  240
 -.76679E-02 -.71867E-02 -.54923E-02 -.30608E-02 -.70250E-03 0.82609E-03 0.11399E-02 0.31666E-03 -.11602E-02 -.25330E-02
 -.30370E-02 -.23135E-02 -.71312E-03 0.84198E-03 0.14312E-02 0.69633E-03 -.10658E-02 -.32579E-02 -.53513E-02 -.69482E-02
 -.71397E-02 -.60717E-02 -.36915E-02 -.81861E-03 0.12605E-02 0.14850E-02 -.30924E-03 -.31932E-02 -.56174E-02 -.63095E-02
 -.50241E-02 -.26264E-02 -.45796E-03 0.51997E-03 0.17082E-03 -.10326E-02 -.25553E-02 -.41336E-02 -.56558E-02 -.68391E-02
 -.55286E-02 -.40785E-02 -.18231E-02 0.27106E-03 0.87607E-03 -.99405E-03 -.51724E-02 -.10115E-01 -.13651E-01 -.14268E-01
 -.11973E-01 -.80932E-02 -.43066E-02 -.17387E-02 -.70061E-03 -.96176E-03 -.20960E-02 -.36266E-02 -.50369E-02 -.58070E-02
 -.31009E-02 -.20166E-02 -.97554E-03 -.75493E-03 -.24911E-02 -.70169E-02 -.13909E-01 -.21163E-01 -.26020E-01 -.26472E-01
 -.22357E-01 -.15338E-01 -.79409E-02 -.23581E-02 0.33635E-03 0.36094E-03 -.11485E-02 -.28378E-02 -.37970E-02 -.38067E-02
 -.47883E-03 -.24756E-03 -.96369E-03 -.34624E-02 -.87708E-02 -.17239E-01 -.27572E-01 -.36746E-01 -.41250E-01 -.38987E-01
 -.30562E-01 -.19041E-01 -.83512E-02 -.13561E-02 0.12481E-02 0.73046E-03 -.83723E-03 -.18579E-02 -.18387E-02 -.11691E-02
 0.15708E-02 0.10684E-02 -.17220E-02 -.80380E-02 -.18375E-01 -.31567E-01 -.44467E-01 -.52855E-01 -.53399E-01 -.45579E-01
 -.32186E-01 -.17908E-01 -.68898E-02 -.89774E-03 0.84531E-03 0.41297E-03 -.31989E-03 -.43810E-03 0.11574E-03 0.97380E-03
 0.22687E-02 0.11370E-02 -.41689E-02 -.14838E-01 -.29924E-01 -.46037E-01 -.58312E-01 -.62475E-01 -.56999E-01 -.44016E-01
 -.28220E-01 -.14398E-01 -.52228E-02 -.71293E-03 0.68863E-03 0.63818E-03 0.18602E-03 -.62985E-04 0.32136E-03 0.13810E-02
 0.11935E-02 -.75107E-03 -.83650E-02 -.21956E-01 -.38909E-01 -.54312E-01 -.62988E-01 -.61969E-01 -.51954E-01 -.36834E-01
 -.21560E-01 -.97904E-02 -.27694E-02 0.18906E-03 0.47614E-03 -.64239E-03 -.20909E-02 -.28220E-02 -.20929E-02 -.17294E-03
 -.11269E-02 -.37464E-02 -.12263E-01 -.25916E-01 -.41242E-01 -.53244E-01 -.57659E-01 -.53024E-01 -.41268E-01 -.26574E-01
 -.13332E-01 -.44433E-02 -.70637E-03 -.11866E-02 -.40254E-02 -.71958E-02 -.90366E-02 -.86292E-02 -.61008E-02 -.28008E-02
 -.32709E-02 -.58995E-02 -.13697E-01 -.25175E-01 -.36880E-01 -.44633E-01 -.45425E-01 -.38861E-01 -.27311E-01 -.14818E-01
 -.54257E-02 -.16621E-02 -.36948E-02 -.94452E-02 -.15644E-01 -.19361E-01 -.19193E-01 -.15554E-01 -.10156E-01 -.52907E-02
 -.39460E-02 -.61185E-02 -.12492E-01 -.20965E-01 -.28433E-01 -.31886E-01 -.29719E-01 -.22548E-01 -.13101E-01 -.52034E-02
 -.22428E-02 -.56760E-02 -.14235E-01 -.24368E-01 -.31864E-01 -.33839E-01 -.29923E-01 -.22062E-01 -.13320E-01 -.66098E-02
 -.29180E-02 -.47381E-02 -.96082E-02 -.14921E-01 -.18249E-01 -.18082E-01 -.14353E-01 -.85806E-02 -.34672E-02 -.19793E-02
 -.61367E-02 -.15947E-01 -.29004E-01 -.41143E-01 -.48067E-01 -.47262E-01 -.39154E-01 -.26850E-01 -.14626E-01 -.60815E-02
 -.91415E-03 -.24761E-02 -.57207E-02 -.82099E-02 -.86218E-02 -.68459E-02 -.37981E-02 -.11497E-02 -.93964E-03 -.50077E-02
 -.14261E-01 -.27932E-01 -.43186E-01 -.55610E-01 -.60797E-01 -.56484E-01 -.43968E-01 -.27690E-01 -.13053E-01 -.38550E-02
 0.10146E-02 -.70797E-04 -.18401E-02 -.27338E-02 -.23398E-02 -.10504E-02 0.22552E-03 0.16404E-03 -.28463E-02 -.10277E-01
 -.22635E-01 -.38530E-01 -.54306E-01 -.64955E-01 -.66303E-01 -.57351E-01 -.41128E-01 -.23253E-01 -.90532E-02 -.11547E-02
 0.18947E-02 0.12776E-02 0.24134E-03 -.40884E-03 -.39561E-03 0.16975E-03 0.60706E-03 -.54962E-03 -.52892E-02 -.15130E-01
 -.29769E-01 -.46284E-01 -.59762E-01 -.65389E-01 -.60922E-01 -.47959E-01 -.31111E-01 -.15591E-01 -.48205E-02 0.53825E-03
 0.11337E-02 0.55016E-03 -.31801E-03 -.88259E-03 -.71055E-03 0.16764E-03 0.75447E-03 -.99864E-03 -.73165E-02 -.18973E-01
 -.34000E-01 -.47945E-01 -.55882E-01 -.54993E-01 -.45992E-01 -.32491E-01 -.18915E-01 -.84424E-02 -.21357E-02 0.62631E-03
 -.10629E-02 -.18208E-02 -.22810E-02 -.20760E-02 -.10603E-02 0.33653E-03 0.76317E-03 -.17884E-02 -.88164E-02 -.19845E-01
 -.31904E-01 -.40711E-01 -.42967E-01 -.38162E-01 -.28621E-01 -.17953E-01 -.91534E-02 -.35687E-02 -.10176E-02 -.53206E-03
 -.37300E-02 -.43431E-02 -.40403E-02 -.29881E-02 -.15321E-02 -.27945E-03 -.24106E-03 -.26047E-02 -.79749E-02 -.15544E-01
 -.22994E-01 -.27487E-01 -.27202E-01 -.22345E-01 -.14957E-01 -.77417E-02 -.27500E-02 -.67760E-03 -.95694E-03 -.23677E-02
 -.59024E-02 -.61039E-02 -.52689E-02 -.39135E-02 -.24955E-02 -.13653E-02 -.92995E-03 -.17402E-02 -.42266E-02 -.81634E-02
 -.12338E-01 -.14917E-01 -.14463E-01 -.10931E-01 -.58312E-02 -.13907E-02 0.71940E-03 0.19488E-03 -.20005E-02 -.44075E-02
 -.72174E-02 -.70916E-02 -.59743E-02 -.43118E-02 -.25428E-02 -.99105E-03 0.60348E-04 0.24076E-03 -.79504E-03 -.29429E-02
 -.53223E-02 -.65744E-02 -.57666E-02 -.31850E-02 -.25814E-03 0.13894E-02 0.96874E-03 -.11425E-02 -.38587E-02 -.60970E-02
 0.21553E-03 0.35836E-03 0.43487E-03 0.43567E-03 0.39551E-03 0.32479E-03 0.19998E-03 0.33662E-04 -.83011E-04 -.51376E-04
 0.11875E-03 0.29574E-03 0.34768E-03 0.26373E-03 0.13973E-03 0.60223E-04 0.27219E-04 0.74182E-05 0.95856E-05 0.77626E-04
 0.11202E-03 0.14018E-03 0.52639E-03 0.10801E-02 0.13143E-02 0.80746E-03 -.36100E-03 -.15161E-02 -.18386E-02 -.10498E-02
 0.29695E-03 0.12384E-02 0.11822E-02 0.33852E-03 -.55105E-03 -.87181E-03 -.56586E-03 -.32339E-04 0.29276E-03 0.27338E-03
 -.21932E-03 -.19000E-03 0.25776E-03 0.76221E-03 0.80797E-03 0.14498E-03 -.93505E-03 -.17519E-02 -.17592E-02 -.10024E-02
 -.85539E-04 0.34240E-03 0.11627E-03 -.37155E-03 -.57727E-03 -.28352E-03 0.26628E-03 0.63095E-03 0.55208E-03 0.14282E-03
 -.24738E-03 -.36554E-03 -.41207E-03 -.38099E-03 -.29093E-03 -.23515E-03 -.36815E-03 -.79199E-03 -.14218E-02 -.19723E-02
 -.21187E-02 -.17204E-02 -.92109E-03 -.49536E-04 0.58709E-03 0.85127E-03 0.78530E-03 0.52660E-03 0.21595E-03 -.53865E-04
 0.29175E-03 -.16543E-03 -.78588E-03 -.10906E-02 -.83901E-03 -.34107E-03 -.27866E-03 -.10946E-02 -.24864E-02 -.35366E-02
 -.34341E-02 -.21473E-02 -.44358E-03 0.73532E-03 0.95677E-03 0.48655E-03 -.61366E-04 -.23074E-03 0.32489E-05 0.30734E-03
 0.83763E-03 0.30676E-03 -.47988E-03 -.11234E-02 -.14512E-02 -.16630E-02 -.20952E-02 -.27980E-02 -.33697E-02 -.32717E-02
 -.23493E-02 -.10387E-02 -.45727E-04 0.20132E-03 -.16717E-03 -.64116E-03 -.74656E-03 -.34887E-03 0.31606E-03 0.82578E-03
 0.79378E-03 0.66137E-03 -.50305E-04 -.12969E-02 -.27091E-02 -.37577E-02 -.40465E-02 -.35389E-02 -.25647E-02 -.16044E-02
 -.10018E-02 -.80087E-03 -.80220E-03 -.76881E-03 -.60347E-03 -.36613E-03 -.15069E-03 0.36655E-04 0.26930E-03 0.56997E-03
 0.33396E-03 0.59820E-03 -.42721E-04 -.16035E-02 -.33712E-02 -.43724E-02 -.41137E-02 -.29581E-02 -.17870E-02 -.12540E-02
 -.13083E-02 -.13782E-02 -.97475E-03 -.13263E-03 0.66328E-03 0.92182E-03 0.54864E-03 -.89499E-04 -.44887E-03 -.23239E-03
 -.88361E-04 0.14553E-03 -.24498E-03 -.12749E-02 -.24671E-02 -.32235E-02 -.33014E-02 -.29341E-02 -.24997E-02 -.21171E-02
 -.15957E-02 -.74703E-03 0.31708E-03 0.12109E-02 0.15628E-02 0.12717E-02 0.55083E-03 -.20320E-03 -.60811E-03 -.50300E-03
 -.43474E-03 -.46941E-03 -.40283E-03 -.59912E-03 -.12655E-02 -.22511E-02 -.31084E-02 -.33606E-02 -.27943E-02 -.15994E-02
 -.26996E-03 0.68850E-03 0.10608E-02 0.10140E-02 0.89801E-03 0.92087E-03 0.99027E-03 0.86249E-03 0.43972E-03 -.93100E-04
 -.72025E-03 -.99343E-03 -.76313E-03 -.65663E-03 -.11305E-02 -.20049E-02 -.25813E-02 -.22587E-02 -.10873E-02 0.24618E-03
 0.97765E-03 0.86383E-03 0.32408E-03 0.56370E-04 0.47655E-03 0.14096E-02 0.22271E-02 0.23089E-02 0.15034E-02 0.25501E-03
 -.57905E-03 -.11575E-02 -.13004E-02 -.12804E-02 -.12827E-02 -.12023E-02 -.81592E-03 -.12501E-03 0.54675E-03 0.83128E-03
 0.66895E-03 0.36413E-03 0.31413E-03 0.70498E-03 0.14235E-02 0.21640E-02 0.25762E-02 0.23988E-02 0.15991E-02 0.45257E-03
 0.13649E-03 -.78046E-03 -.13200E-02 -.12322E-02 -.63230E-03 0.82563E-04 0.48937E-03 0.42392E-03 0.11198E-03 0.15712E-04
 0.45986E-03 0.13293E-02 0.21306E-02 0.24026E-02 0.21069E-02 0.16261E-02 0.13725E-02 0.13988E-02 0.13831E-02 0.97216E-03
 0.83193E-03 -.29653E-04 -.52748E-03 -.38860E-03 0.86643E-04 0.31467E-03 -.40600E-05 -.56121E-03 -.67517E-03 0.10727E-03
 0.15700E-02 0.29340E-02 0.34222E-02 0.28243E-02 0.16269E-02 0.63710E-03 0.40240E-03 0.85139E-03 0.14026E-02 0.14468E-02
 0.89552E-03 0.59764E-03 0.32379E-03 0.14822E-03 -.36799E-04 -.32103E-03 -.56465E-03 -.46119E-03 0.16428E-03 0.11461E-02
 0.20800E-02 0.26129E-02 0.26314E-02 0.22380E-02 0.16374E-02 0.10660E-02 0.73635E-03 0.73008E-03 0.91419E-03 0.10248E-02
 0.51660E-03 0.73700E-03 0.51859E-03 0.69704E-04 -.23050E-03 -.10709E-03 0.40870E-03 0.98081E-03 0.12203E-02 0.10367E-02
 0.77140E-03 0.91729E-03 0.16240E-02 0.24692E-02 0.27717E-02 0.21903E-02 0.10412E-02 0.35871E-04 -.29880E-03 0.13477E-04
 0.23374E-03 0.50706E-03 0.33904E-03 0.11228E-03 0.24613E-03 0.78160E-03 0.13210E-02 0.13757E-02 0.82651E-03 0.97664E-04
 -.13330E-03 0.51760E-03 0.17753E-02 0.28424E-02 0.29638E-02 0.19906E-02 0.49609E-03 -.65088E-03 -.91270E-03 -.41838E-03
 0.14251E-03 0.28920E-03 0.33308E-03 0.37354E-03 0.45748E-03 0.51329E-03 0.46749E-03 0.37739E-03 0.39660E-03 0.61286E-03
 0.95745E-03 0.12795E-02 0.14686E-02 0.14799E-02 0.12854E-02 0.87913E-03 0.35583E-03 -.74261E-04 -.22243E-03 -.88581E-04
 0.83330E-04 0.27956E-03 0.43125E-03 0.26003E-03 -.24147E-03 -.72803E-03 -.70083E-03 0.76156E-04 0.12647E-02 0.20993E-02
 0.19746E-02 0.98202E-03 -.12926E-03 -.57248E-03 -.15861E-03 0.62599E-03 0.11138E-02 0.10127E-02 0.54463E-03 0.14684E-03
 0.10873E-03 0.37100E-03 0.40975E-03 0.19872E-04 -.57293E-03 -.84670E-03 -.40780E-03 0.62277E-03 0.16100E-02 0.18523E-02
 0.11421E-02 -.36034E-04 -.86297E-03 -.81369E-03 -.33140E-04 0.83564E-03 0.11906E-02 0.91049E-03 0.36254E-03 0.31197E-04
 0.80151E-02 0.78160E-02 0.62672E-02 0.38399E-02 0.14231E-02 -.21023E-03 -.73558E-03 -.21636E-03 0.10443E-02 0.24892E-02
 0.33366E-02 0.29639E-02 0.14566E-02 -.28595E-03 -.11516E-02 -.61057E-03 0.10517E-02 0.31819E-02 0.52744E-02 0.70140E-02
 0.73286E-02 0.62680E-02 0.45998E-02 0.28185E-02 0.12826E-02 0.22539E-03 -.52976E-04 0.81511E-03 0.28488E-02 0.52672E-02
 0.66769E-02 0.60152E-02 0.34789E-02 0.51712E-03 -.11786E-02 -.79728E-03 0.12630E-02 0.39243E-02 0.61569E-02 0.73505E-02
 0.51057E-02 0.36074E-02 0.21682E-02 0.11297E-02 0.85829E-03 0.18470E-02 0.44447E-02 0.83376E-02 0.12293E-01 0.14585E-01
 0.13964E-01 0.10508E-01 0.56866E-02 0.15626E-02 -.33511E-03 0.26884E-03 0.24566E-02 0.47985E-02 0.61586E-02 0.61563E-02
 0.26772E-02 0.12213E-02 0.65489E-04 0.13060E-03 0.25831E-02 0.80303E-02 0.15586E-01 0.22813E-01 0.26891E-01 0.26241E-01
 0.21351E-01 0.14311E-01 0.75841E-02 0.29343E-02 0.97498E-03 0.12544E-02 0.26549E-02 0.39636E-02 0.44125E-02 0.38817E-02
 0.11853E-02 -.52562E-04 -.43554E-03 0.19714E-02 0.87069E-02 0.19376E-01 0.31052E-01 0.39504E-01 0.41561E-01 0.36859E-01
 0.27728E-01 0.17561E-01 0.90758E-02 0.35162E-02 0.83825E-03 0.27383E-03 0.83773E-03 0.16685E-02 0.21842E-02 0.20558E-02
 0.25872E-03 -.25066E-03 0.13761E-02 0.72918E-02 0.18293E-01 0.32577E-01 0.45954E-01 0.53724E-01 0.53125E-01 0.44711E-01
 0.31821E-01 0.18649E-01 0.82984E-02 0.19146E-02 -.97499E-03 -.15410E-02 -.90158E-03 0.12114E-03 0.89733E-03 0.94971E-03
 -.52776E-03 0.62552E-03 0.52459E-02 0.14667E-01 0.28540E-01 0.44193E-01 0.57121E-01 0.62757E-01 0.58773E-01 0.46481E-01
 0.30253E-01 0.15220E-01 0.47975E-02 -.38337E-03 -.17417E-02 -.12266E-02 -.26212E-03 0.40444E-03 0.44389E-03 -.96055E-04
 -.40062E-03 0.26445E-02 0.10022E-01 0.21984E-01 0.37107E-01 0.52022E-01 0.62114E-01 0.63408E-01 0.54840E-01 0.39269E-01
 0.22179E-01 0.87762E-02 0.15181E-02 -.32777E-03 0.75336E-03 0.23477E-02 0.30622E-02 0.25183E-02 0.10588E-02 -.38866E-03
 0.10361E-02 0.49569E-02 0.13935E-01 0.27079E-01 0.41585E-01 0.53252E-01 0.57951E-01 0.53611E-01 0.41546E-01 0.26052E-01
 0.12302E-01 0.38666E-02 0.14248E-02 0.32158E-02 0.65169E-02 0.89956E-02 0.93626E-02 0.74785E-02 0.42498E-02 0.14026E-02
 0.24561E-02 0.60108E-02 0.15212E-01 0.27692E-01 0.39293E-01 0.45800E-01 0.44876E-01 0.37080E-01 0.25435E-01 0.13939E-01
 0.59353E-02 0.30913E-02 0.51582E-02 0.10336E-01 0.15999E-01 0.19609E-01 0.19579E-01 0.15835E-01 0.98980E-02 0.44487E-02
 0.25483E-02 0.51831E-02 0.13133E-01 0.22892E-01 0.30209E-01 0.32209E-01 0.28592E-01 0.21269E-01 0.13093E-01 0.67487E-02
 0.42427E-02 0.65941E-02 0.13376E-01 0.22438E-01 0.30430E-01 0.34151E-01 0.31989E-01 0.24637E-01 0.14818E-01 0.63093E-02
 0.18102E-02 0.33405E-02 0.87492E-02 0.14782E-01 0.18499E-01 0.18493E-01 0.15144E-01 0.10074E-01 0.54797E-02 0.36945E-02
 0.66629E-02 0.15029E-01 0.27240E-01 0.39587E-01 0.47638E-01 0.48314E-01 0.41342E-01 0.29255E-01 0.16177E-01 0.61722E-02
 0.12499E-02 0.15890E-02 0.42362E-02 0.72251E-02 0.89537E-02 0.84915E-02 0.59339E-02 0.26727E-02 0.12271E-02 0.43624E-02
 0.13653E-01 0.28179E-01 0.44256E-01 0.56688E-01 0.61093E-01 0.56009E-01 0.43523E-01 0.28078E-01 0.14292E-01 0.51228E-02
 0.70598E-03 0.38268E-03 0.13361E-02 0.25926E-02 0.31497E-02 0.22319E-02 0.13752E-03 -.12317E-02 0.10383E-02 0.92949E-02
 0.23673E-01 0.41378E-01 0.57389E-01 0.66431E-01 0.65385E-01 0.54864E-01 0.38913E-01 0.22856E-01 0.10664E-01 0.35934E-02
 -.87963E-04 -.73269E-05 0.46582E-03 0.75222E-03 0.38315E-03 -.73643E-03 -.17231E-02 -.60809E-03 0.48582E-02 0.15867E-01
 0.31435E-01 0.48140E-01 0.61044E-01 0.65667E-01 0.60216E-01 0.46721E-01 0.30087E-01 0.15494E-01 0.58907E-02 0.12796E-02
 -.15446E-03 0.77301E-03 0.11188E-02 0.78536E-03 0.98184E-04 -.43621E-03 -.12329E-04 0.26131E-02 0.88273E-02 0.19291E-01
 0.32899E-01 0.46399E-01 0.55337E-01 0.56138E-01 0.48153E-01 0.34225E-01 0.19240E-01 0.75824E-02 0.11899E-02 -.67477E-03
 0.14057E-02 0.25692E-02 0.26320E-02 0.20326E-02 0.14267E-02 0.12174E-02 0.18179E-02 0.41511E-02 0.94725E-02 0.18272E-01
 0.29125E-01 0.38704E-01 0.43284E-01 0.40804E-01 0.32036E-01 0.20167E-01 0.91492E-02 0.18761E-02 -.87262E-03 -.31609E-03
 0.38491E-02 0.46511E-02 0.44352E-02 0.35680E-02 0.24260E-02 0.13625E-02 0.11258E-02 0.29593E-02 0.78140E-02 0.15187E-01
 0.22789E-01 0.27621E-01 0.27715E-01 0.23188E-01 0.15950E-01 0.85497E-02 0.30629E-02 0.47754E-03 0.56651E-03 0.21691E-02
 0.59041E-02 0.64572E-02 0.59667E-02 0.43706E-02 0.20520E-02 -.30823E-04 -.54328E-03 0.15197E-02 0.59663E-02 0.11148E-01
 0.14759E-01 0.15237E-01 0.12677E-01 0.85721E-02 0.47258E-02 0.22720E-02 0.14384E-02 0.18915E-02 0.31295E-02 0.46381E-02
 0.73038E-02 0.77034E-02 0.67003E-02 0.43151E-02 0.14063E-02 -.69923E-03 -.96288E-03 0.74408E-03 0.35361E-02 0.59694E-02
 0.68100E-02 0.57047E-02 0.33593E-02 0.10746E-02 -.71821E-04 0.19472E-03 0.14176E-02 0.29750E-02 0.45475E-02 0.60646E-02
 0.11409E-04 0.68842E-03 0.83994E-03 0.53522E-03 0.29875E-03 0.39367E-03 0.53157E-03 0.36219E-03 0.19077E-04 -.53039E-04
 0.26098E-03 0.54940E-03 0.41125E-03 -.11044E-04 -.24397E-03 -.14297E-03 -.73597E-04 -.35112E-03 -.72163E-03 -.63695E-03
 0.11048E-03 0.23969E-03 0.44906E-03 0.79645E-03 0.10937E-02 0.92813E-03 0.13777E-03 -.76761E-03 -.90583E-03 0.92142E-04
 0.15657E-02 0.23507E-02 0.18601E-02 0.57459E-03 -.52420E-03 -.87995E-03 -.66711E-03 -.34323E-03 -.13696E-03 -.83160E-05
 -.55691E-03 -.70323E-03 -.22984E-03 0.42540E-03 0.72635E-03 0.52041E-03 0.15187E-03 0.14225E-03 0.73734E-03 0.16870E-02
 0.24067E-02 0.23903E-02 0.15863E-02 0.46908E-03 -.27508E-03 -.25087E-03 0.33859E-03 0.85833E-03 0.77796E-03 0.12458E-03
 -.73448E-03 -.75075E-03 -.45394E-03 -.12469E-03 0.33937E-03 0.12100E-02 0.23538E-02 0.31439E-02 0.30744E-02 0.23248E-02
 0.15487E-02 0.11579E-02 0.10067E-02 0.80238E-03 0.59626E-03 0.66028E-03 0.96630E-03 0.10659E-02 0.60762E-03 -.18509E-03
 0.37162E-03 0.15741E-03 -.15564E-03 -.54786E-04 0.10284E-02 0.29611E-02 0.46867E-02 0.50420E-02 0.38705E-02 0.21919E-02
 0.11919E-02 0.11392E-02 0.13717E-02 0.12086E-02 0.64795E-03 0.15741E-03 0.30320E-04 0.15351E-03 0.30165E-03 0.38880E-03
 0.12751E-02 0.73673E-03 0.31644E-03 0.64893E-03 0.19038E-02 0.35768E-02 0.48206E-02 0.50749E-02 0.44464E-02 0.35088E-02
 0.27487E-02 0.22018E-02 0.15838E-02 0.71052E-03 -.24007E-03 -.84665E-03 -.78968E-03 -.11347E-03 0.77370E-03 0.13404E-02
 0.73110E-03 0.68403E-03 0.95568E-03 0.14560E-02 0.20802E-02 0.29514E-02 0.41816E-02 0.54415E-02 0.60051E-02 0.53734E-02
 0.37967E-02 0.20667E-02 0.81111E-03 0.97175E-04 -.29953E-03 -.44420E-03 -.22592E-03 0.29554E-03 0.76706E-03 0.88159E-03
 -.88259E-04 0.90403E-03 0.18517E-02 0.22986E-02 0.25069E-02 0.32303E-02 0.47234E-02 0.61568E-02 0.62828E-02 0.47157E-02
 0.23934E-02 0.69626E-03 0.22671E-03 0.52704E-03 0.81727E-03 0.74102E-03 0.39218E-03 -.56829E-04 -.46541E-03 -.57235E-03
 0.44906E-04 0.13726E-02 0.25340E-02 0.33032E-02 0.38860E-02 0.45396E-02 0.50891E-02 0.49709E-02 0.38435E-02 0.20922E-02
 0.61666E-03 0.84438E-04 0.41759E-03 0.97876E-03 0.11614E-02 0.77499E-03 0.68927E-05 -.78429E-03 -.12023E-02 -.93465E-03
 0.17461E-03 0.10051E-02 0.23651E-02 0.38585E-02 0.47781E-02 0.46543E-02 0.36634E-02 0.24471E-02 0.15397E-02 0.10147E-02
 0.65306E-03 0.31974E-03 0.77703E-04 -.57868E-05 -.13312E-04 -.77236E-04 -.20763E-03 -.30581E-03 -.30572E-03 -.18561E-03
 -.59024E-03 -.11745E-03 0.14528E-02 0.31707E-02 0.38318E-02 0.31618E-02 0.20473E-02 0.15256E-02 0.16968E-02 0.17733E-02
 0.10996E-02 -.11287E-03 -.10958E-02 -.13379E-02 -.92359E-03 -.22363E-03 0.44470E-03 0.80737E-03 0.61098E-03 -.72690E-04
 -.93662E-03 -.56333E-03 0.53608E-03 0.16330E-02 0.20999E-02 0.20069E-02 0.18907E-02 0.20087E-02 0.20122E-02 0.14236E-02
 0.28742E-03 -.80443E-03 -.12930E-02 -.11101E-02 -.56057E-03 0.50609E-04 0.52658E-03 0.65209E-03 0.25548E-03 -.47871E-03
 0.22812E-03 0.72741E-04 0.83543E-04 0.50074E-03 0.11943E-02 0.17172E-02 0.16688E-02 0.10377E-02 0.21009E-03 -.34732E-03
 -.43148E-03 -.19484E-03 0.35191E-04 0.18035E-04 -.25043E-03 -.56567E-03 -.67447E-03 -.46744E-03 -.77198E-04 0.21532E-03
 0.14287E-02 0.62054E-03 0.13572E-04 0.23351E-03 0.87323E-03 0.96427E-03 0.10560E-03 -.10534E-02 -.15040E-02 -.90801E-03
 0.16063E-03 0.87106E-03 0.83300E-03 0.18420E-03 -.71055E-03 -.14298E-02 -.15249E-02 -.75501E-03 0.53674E-03 0.14847E-02
 0.10586E-02 0.46223E-03 0.98471E-04 0.19423E-03 0.29631E-03 -.75498E-04 -.75295E-03 -.10897E-02 -.74014E-03 -.51464E-04
 0.37546E-03 0.32750E-03 0.34010E-04 -.28134E-03 -.62583E-03 -.96264E-03 -.97627E-03 -.38143E-03 0.57734E-03 0.12031E-02
 0.91274E-04 0.26732E-03 0.14321E-03 -.74074E-04 -.11393E-03 0.15081E-03 0.57981E-03 0.81911E-03 0.55737E-03 -.17071E-03
 -.92017E-03 -.11514E-02 -.69721E-03 0.59136E-04 0.50129E-03 0.31210E-03 -.27949E-03 -.74854E-03 -.74613E-03 -.34774E-03
 0.74609E-04 0.35549E-03 -.16171E-04 -.32364E-03 0.10323E-03 0.10803E-02 0.17108E-02 0.13057E-02 0.59494E-04 -.11799E-02
 -.16753E-02 -.12815E-02 -.34969E-03 0.59219E-03 0.10464E-02 0.71415E-03 -.25935E-03 -.12198E-02 -.14375E-02 -.78641E-03
 0.45469E-03 0.23805E-03 -.23870E-03 -.34016E-03 0.11978E-03 0.60978E-03 0.52785E-03 -.73905E-04 -.60075E-03 -.66128E-03
 -.45189E-03 -.34622E-03 -.34737E-03 -.17653E-03 0.19212E-03 0.38907E-03 0.15440E-03 -.22928E-03 -.24864E-03 0.15196E-03
 0.14235E-03 0.21357E-05 -.82174E-04 -.22702E-03 -.52079E-03 -.86928E-03 -.94303E-03 -.45337E-03 0.42945E-03 0.10394E-02
 0.76966E-03 -.28026E-03 -.12910E-02 -.14381E-02 -.62382E-03 0.50586E-03 0.12071E-02 0.12329E-02 0.84644E-03 0.42187E-03
 -.25991E-03 0.27694E-03 0.49817E-03 0.49951E-04 -.67643E-03 -.95034E-03 -.43088E-03 0.52934E-03 0.12289E-02 0.11857E-02
 0.42548E-03 -.60747E-03 -.13198E-02 -.12699E-02 -.44473E-03 0.64303E-03 0.12473E-02 0.97774E-03 0.17208E-03 -.39474E-03
 -.77009E-02 -.61668E-02 -.43636E-02 -.26020E-02 -.70368E-03 0.10851E-02 0.18443E-02 0.91793E-03 -.11203E-02 -.27917E-02
 -.30442E-02 -.20608E-02 -.74722E-03 0.24163E-03 0.70958E-03 0.41263E-03 -.10764E-02 -.37167E-02 -.64946E-02 -.80163E-02
 -.68845E-02 -.55555E-02 -.34615E-02 -.10066E-02 0.10357E-02 0.15669E-02 -.49722E-04 -.31200E-02 -.57990E-02 -.64470E-02
 -.49096E-02 -.24526E-02 -.53034E-03 0.25110E-03 0.64443E-04 -.83171E-03 -.23778E-02 -.43715E-02 -.61997E-02 -.71450E-02
 -.60999E-02 -.48249E-02 -.23928E-02 -.11405E-03 0.47764E-03 -.14654E-02 -.55551E-02 -.10272E-01 -.13660E-01 -.14286E-01
 -.11991E-01 -.79467E-02 -.39304E-02 -.12861E-02 -.33263E-03 -.60481E-03 -.15436E-02 -.28933E-02 -.44841E-02 -.58183E-02
 -.41310E-02 -.25940E-02 -.84388E-03 -.52621E-03 -.27270E-02 -.75093E-02 -.14074E-01 -.20906E-01 -.25834E-01 -.26683E-01
 -.22634E-01 -.15190E-01 -.74696E-02 -.21521E-02 0.72245E-04 0.19739E-03 -.59169E-03 -.18155E-02 -.32742E-02 -.43291E-02
 -.49855E-03 0.39140E-03 -.42162E-04 -.29190E-02 -.87356E-02 -.17236E-01 -.27242E-01 -.36346E-01 -.41257E-01 -.39401E-01
 -.30906E-01 -.19064E-01 -.84159E-02 -.19360E-02 0.29111E-03 0.65087E-04 -.83256E-03 -.15579E-02 -.18406E-02 -.14758E-02
 0.22056E-02 0.15611E-02 -.14481E-02 -.79091E-02 -.18272E-01 -.31432E-01 -.44337E-01 -.52803E-01 -.53462E-01 -.45719E-01
 -.32332E-01 -.18030E-01 -.70452E-02 -.11997E-02 0.32917E-03 -.24030E-03 -.88693E-03 -.67034E-03 0.32789E-03 0.15228E-02
 0.18971E-02 0.29183E-03 -.47793E-02 -.14959E-01 -.29942E-01 -.46311E-01 -.58655E-01 -.62475E-01 -.56662E-01 -.43757E-01
 -.28222E-01 -.14292E-01 -.46212E-02 0.12521E-03 0.10480E-02 0.23842E-03 -.39917E-03 -.76403E-04 0.88137E-03 0.17608E-02
 0.11547E-03 -.16443E-02 -.85507E-02 -.21768E-01 -.39012E-01 -.54782E-01 -.63263E-01 -.61691E-01 -.51495E-01 -.36758E-01
 -.21774E-01 -.96161E-02 -.18723E-02 0.12743E-02 0.96962E-03 -.81403E-03 -.22937E-02 -.26485E-02 -.19398E-02 -.66939E-03
 -.10939E-02 -.33592E-02 -.11710E-01 -.25561E-01 -.41241E-01 -.53391E-01 -.57663E-01 -.52888E-01 -.41288E-01 -.26956E-01
 -.13911E-01 -.48437E-02 -.73475E-03 -.97957E-03 -.38317E-02 -.71215E-02 -.90520E-02 -.87242E-02 -.62943E-02 -.29960E-02
 -.23007E-02 -.53582E-02 -.13556E-01 -.25066E-01 -.36658E-01 -.44510E-01 -.45566E-01 -.39105E-01 -.27446E-01 -.14985E-01
 -.59873E-02 -.26446E-02 -.45872E-02 -.97235E-02 -.15395E-01 -.19168E-01 -.19397E-01 -.15813E-01 -.98847E-02 -.44054E-02
 -.39437E-02 -.67765E-02 -.13073E-01 -.20937E-01 -.28110E-01 -.31893E-01 -.30060E-01 -.22603E-01 -.12546E-01 -.45622E-02
 -.22599E-02 -.63380E-02 -.14780E-01 -.24274E-01 -.31485E-01 -.33835E-01 -.30305E-01 -.22178E-01 -.12806E-01 -.59714E-02
 -.38733E-02 -.56125E-02 -.99090E-02 -.14720E-01 -.18083E-01 -.18264E-01 -.14568E-01 -.82887E-02 -.26000E-02 -.10371E-02
 -.56018E-02 -.15791E-01 -.28879E-01 -.40913E-01 -.47936E-01 -.47391E-01 -.39396E-01 -.27004E-01 -.14817E-01 -.66419E-02
 -.91941E-03 -.22320E-02 -.54960E-02 -.81200E-02 -.86363E-02 -.69561E-02 -.40255E-02 -.13856E-02 -.93085E-03 -.46186E-02
 -.13703E-01 -.27600E-01 -.43241E-01 -.55806E-01 -.60800E-01 -.56298E-01 -.43931E-01 -.28046E-01 -.13634E-01 -.42550E-02
 0.21055E-02 0.46563E-03 -.19600E-02 -.29150E-02 -.21931E-02 -.95509E-03 -.31909E-03 -.92016E-03 -.37056E-02 -.10423E-01
 -.22443E-01 -.38674E-01 -.54835E-01 -.65261E-01 -.66005E-01 -.56837E-01 -.41003E-01 -.23457E-01 -.89044E-02 -.28441E-03
 0.22365E-02 0.88144E-03 -.33570E-03 -.42898E-03 0.14356E-03 0.53625E-03 0.24929E-03 -.13558E-02 -.58550E-02 -.15219E-01
 -.29768E-01 -.46548E-01 -.60102E-01 -.65393E-01 -.60591E-01 -.47706E-01 -.31121E-01 -.15504E-01 -.42517E-02 0.13420E-02
 0.43926E-03 -.51379E-04 -.56816E-03 -.66841E-03 -.13748E-03 0.84038E-03 0.12754E-02 -.72592E-03 -.72064E-02 -.18867E-01
 -.33818E-01 -.47749E-01 -.55799E-01 -.55086E-01 -.46194E-01 -.32677E-01 -.19032E-01 -.85725E-02 -.24316E-02 0.84107E-04
 -.10870E-02 -.15464E-02 -.22902E-02 -.23666E-02 -.10501E-02 0.99206E-03 0.16609E-02 -.13062E-02 -.88387E-02 -.19852E-01
 -.31534E-01 -.40267E-01 -.42975E-01 -.38619E-01 -.29001E-01 -.17961E-01 -.91560E-02 -.40826E-02 -.19431E-02 -.12062E-02
 -.27070E-02 -.38255E-02 -.45631E-02 -.40158E-02 -.21151E-02 -.16696E-03 -.38416E-04 -.28635E-02 -.84848E-02 -.15726E-01
 -.22754E-01 -.27311E-01 -.27409E-01 -.22604E-01 -.14785E-01 -.72435E-02 -.25122E-02 -.90500E-03 -.10877E-02 -.17936E-02
 -.53352E-02 -.61146E-02 -.58491E-02 -.46768E-02 -.30777E-02 -.17344E-02 -.12760E-02 -.21535E-02 -.45929E-02 -.83573E-02
 -.12394E-01 -.14938E-01 -.14436E-01 -.10738E-01 -.54574E-02 -.98505E-03 0.10425E-02 0.54532E-03 -.14222E-02 -.36452E-02
 -.75143E-02 -.68412E-02 -.54711E-02 -.40902E-02 -.27142E-02 -.11617E-02 0.21797E-03 0.55599E-03 -.71652E-03 -.31555E-02
 -.54808E-02 -.64415E-02 -.55560E-02 -.32501E-02 -.57237E-03 0.12106E-02 0.11165E-02 -.97594E-03 -.40783E-02 -.66194E-02
 0.39182E-03 0.15640E-02 0.16901E-02 0.96605E-03 0.44431E-03 0.63808E-03 0.95418E-03 0.64293E-03 -.10916E-03 -.44684E-03
 -.52961E-04 0.41345E-03 0.24668E-03 -.33364E-03 -.53737E-03 -.16957E-03 0.70359E-04 -.37755E-03 -.10099E-02 -.80884E-03
 0.55589E-03 0.80593E-03 0.85120E-03 0.94938E-03 0.11343E-02 0.92110E-03 -.11982E-03 -.15587E-02 -.22495E-02 -.14915E-02
 0.10986E-03 0.11872E-02 0.99429E-03 0.46903E-04 -.63002E-03 -.62680E-03 -.33064E-03 -.17809E-03 -.10693E-03 0.15328E-03
 -.65757E-03 -.83904E-03 -.24715E-03 0.41856E-03 0.41116E-03 -.42231E-03 -.15884E-02 -.23993E-02 -.24452E-02 -.17702E-02
 -.77759E-03 0.31367E-05 0.22512E-03 -.14065E-04 -.20895E-03 0.11318E-03 0.88269E-03 0.14618E-02 0.12383E-02 0.28059E-03
 -.11940E-02 -.87842E-03 -.23604E-03 -.16066E-03 -.67535E-03 -.11410E-02 -.13116E-02 -.16778E-02 -.26092E-02 -.35565E-02
 -.35385E-02 -.23490E-02 -.86139E-03 0.93353E-05 0.31539E-03 0.73401E-03 0.14108E-02 0.16375E-02 0.84171E-03 -.47562E-03
 0.33798E-03 0.52949E-03 0.14270E-03 -.69484E-03 -.12742E-02 -.12992E-02 -.14697E-02 -.26693E-02 -.46453E-02 -.59299E-02
 -.53048E-02 -.31336E-02 -.97786E-03 0.90053E-05 0.75446E-05 -.12142E-03 0.12284E-04 0.14348E-03 0.77106E-04 0.72101E-04
 0.15414E-02 0.84204E-03 -.29550E-03 -.14074E-02 -.23111E-02 -.31970E-02 -.43090E-02 -.55081E-02 -.61958E-02 -.57600E-02
 -.41672E-02 -.21240E-02 -.61274E-03 -.19148E-03 -.64494E-03 -.12301E-02 -.12541E-02 -.52584E-03 0.58444E-03 0.14374E-02
 0.48195E-03 -.19408E-03 -.92540E-03 -.21962E-02 -.42518E-02 -.63792E-02 -.73850E-02 -.67805E-02 -.52201E-02 -.36888E-02
 -.25260E-02 -.14717E-02 -.46559E-03 0.57301E-04 -.18827E-03 -.72626E-03 -.72444E-03 0.24926E-04 0.84476E-03 0.99477E-03
 -.72972E-03 -.40542E-03 -.71495E-03 -.25571E-02 -.54488E-02 -.76054E-02 -.76321E-02 -.59210E-02 -.40865E-02 -.31489E-02
 -.26632E-02 -.16911E-02 -.18693E-03 0.97005E-03 0.11468E-02 0.66309E-03 0.20377E-03 -.58569E-04 -.38472E-03 -.74201E-03
 -.11797E-03 0.30606E-03 -.36857E-03 -.22910E-02 -.46136E-02 -.61316E-02 -.63001E-02 -.55592E-02 -.46673E-02 -.38719E-02
 -.28524E-02 -.13745E-02 0.22844E-03 0.13056E-02 0.14887E-02 0.93210E-03 0.61911E-04 -.71669E-03 -.10761E-02 -.81596E-03
 0.39736E-03 -.23341E-03 -.10124E-02 -.18616E-02 -.30175E-02 -.44727E-02 -.55941E-02 -.55792E-02 -.43034E-02 -.25205E-02
 -.11391E-02 -.43227E-03 -.69583E-04 0.22796E-03 0.34406E-03 0.12221E-03 -.20412E-03 -.19859E-03 0.20426E-03 0.55363E-03
 -.88783E-03 -.19562E-02 -.20187E-02 -.17703E-02 -.23327E-02 -.36829E-02 -.44453E-02 -.34535E-02 -.12070E-02 0.58185E-03
 0.79057E-03 -.12027E-03 -.93166E-03 -.10458E-02 -.73572E-03 -.32742E-03 0.25982E-03 0.10037E-02 0.13098E-02 0.57219E-03
 -.16725E-02 -.22586E-02 -.20883E-02 -.18573E-02 -.20826E-02 -.23515E-02 -.18101E-02 -.31860E-03 0.11916E-02 0.16391E-02
 0.88345E-03 -.26876E-03 -.99771E-03 -.11312E-02 -.89959E-03 -.41956E-03 0.26853E-03 0.80974E-03 0.62196E-03 -.42841E-03
 0.67967E-04 -.65189E-03 -.13657E-02 -.15567E-02 -.11198E-02 -.44588E-03 -.10731E-04 0.74778E-04 0.61859E-04 0.17083E-03
 0.31187E-03 0.22899E-03 -.16318E-03 -.67108E-03 -.10207E-02 -.10726E-02 -.83601E-03 -.39109E-03 0.96100E-04 0.33642E-03
 0.19318E-02 0.48311E-03 -.74764E-03 -.72140E-03 0.81940E-04 0.31003E-03 -.57281E-03 -.16382E-02 -.16510E-02 -.54332E-03
 0.57778E-03 0.73954E-03 0.25464E-04 -.84944E-03 -.14438E-02 -.17205E-02 -.15260E-02 -.53814E-03 0.10487E-02 0.22027E-02
 0.12825E-02 0.22520E-03 -.25934E-03 0.11228E-03 0.49946E-03 0.71351E-04 -.87913E-03 -.12888E-02 -.67619E-03 0.25874E-03
 0.50908E-03 -.79349E-04 -.81162E-03 -.11250E-02 -.11328E-02 -.11063E-02 -.84478E-03 0.19089E-04 0.12116E-02 0.18116E-02
 -.13034E-03 0.17236E-03 0.29858E-03 0.31511E-03 0.38115E-03 0.61301E-03 0.95623E-03 0.11553E-02 0.90991E-03 0.15787E-03
 -.76477E-03 -.13096E-02 -.11508E-02 -.47891E-03 0.15047E-03 0.28790E-03 -.61595E-04 -.51596E-03 -.69215E-03 -.50044E-03
 0.25383E-03 0.82724E-03 0.37753E-03 -.13156E-03 0.30072E-03 0.14744E-02 0.22117E-02 0.17020E-02 0.32622E-03 -.88923E-03
 -.13259E-02 -.10762E-02 -.45223E-03 0.35056E-03 0.10211E-02 0.99873E-03 0.99614E-05 -.13244E-02 -.18459E-02 -.10546E-02
 0.12303E-02 0.88288E-03 -.11437E-03 -.59037E-03 -.76732E-04 0.65466E-03 0.64668E-03 -.40729E-04 -.53382E-03 -.35960E-03
 0.27491E-04 0.41284E-04 -.15215E-03 0.50214E-04 0.66740E-03 0.95663E-03 0.43317E-03 -.32742E-03 -.32647E-03 0.53391E-03
 0.76730E-03 0.39768E-03 -.36615E-04 -.42247E-03 -.77102E-03 -.10667E-02 -.10560E-02 -.44093E-03 0.62351E-03 0.14087E-02
 0.12257E-02 0.18638E-03 -.79882E-03 -.87852E-03 -.54543E-04 0.93573E-03 0.14304E-02 0.13902E-02 0.11729E-02 0.99266E-03
 -.10158E-04 0.79801E-03 0.10483E-02 0.32516E-03 -.69272E-03 -.97519E-03 -.22189E-03 0.91531E-03 0.15691E-02 0.14066E-02
 0.67183E-03 -.21706E-03 -.88921E-03 -.99897E-03 -.36674E-03 0.68930E-03 0.13822E-02 0.11288E-02 0.22778E-03 -.35345E-03
 0.79891E-02 0.88398E-02 0.73887E-02 0.42864E-02 0.14167E-02 0.53248E-04 -.25589E-04 0.38469E-03 0.10825E-02 0.22356E-02
 0.33409E-02 0.32248E-02 0.14208E-02 -.89212E-03 -.18740E-02 -.89005E-03 0.10409E-02 0.27137E-02 0.41201E-02 0.59443E-02
 0.75867E-02 0.67854E-02 0.48254E-02 0.26240E-02 0.10552E-02 0.30994E-03 0.21077E-03 0.89228E-03 0.26741E-02 0.51429E-02
 0.68084E-02 0.62021E-02 0.34114E-02 0.24700E-03 -.12874E-02 -.59942E-03 0.14340E-02 0.36761E-02 0.56041E-02 0.70423E-02