unknown system                          
   1.00000000000000     
     2.573869    0.000000    0.000000
     1.286934    2.229036    0.000000
     0.000000    0.000000   30.304665
   Cu   H 
     4     1
Direct
  0.000000  0.000000  0.395979
  0.333333  0.333333  0.465326
  0.666667  0.666667  0.534674
  0.000000  0.000000  0.604021
  0.689098  0.621804  0.637020
 
   20   20  240
 -.76678588016E-02 -.71867026606E-02 -.54923496798E-02 -.30608168568E-02 -.70250125134E-03
 0.82609349931E-03 0.11398835722E-02 0.31665720500E-03 -.11602420786E-02 -.25329820773E-02
 -.30370276316E-02 -.23135120064E-02 -.71311965598E-03 0.84198295576E-03 0.14312456993E-02
 0.69633296454E-03 -.10658227119E-02 -.32579362165E-02 -.53512964591E-02 -.69482058059E-02
 -.71396847304E-02 -.60716888264E-02 -.36915063959E-02 -.81860603660E-03 0.12605239227E-02
 0.14849596101E-02 -.30924405273E-03 -.31932240439E-02 -.56174374558E-02 -.63094920749E-02
 -.50241434559E-02 -.26263605648E-02 -.45796200692E-03 0.51997293922E-03 0.17082135543E-03
 -.10326135045E-02 -.25553051435E-02 -.41336170617E-02 -.56557928649E-02 -.68390612633E-02
 -.55286489676E-02 -.40785161821E-02 -.18230551988E-02 0.27106487542E-03 0.87606726257E-03
 -.99404914259E-03 -.51723818621E-02 -.10115182937E-01 -.13650930818E-01 -.14268177997E-01
 -.11973161446E-01 -.80932359340E-02 -.43065559276E-02 -.17387044112E-02 -.70061308335E-03
 -.96176252475E-03 -.20960218644E-02 -.36266425823E-02 -.50368787244E-02 -.58069737947E-02
 -.31009081621E-02 -.20165967729E-02 -.97553577686E-03 -.75493034930E-03 -.24911389972E-02
 -.70169092259E-02 -.13908933538E-01 -.21162779360E-01 -.26020269917E-01 -.26472168030E-01
 -.22356556189E-01 -.15338198311E-01 -.79408721493E-02 -.23581253655E-02 0.33634673881E-03
 0.36094060027E-03 -.11484589086E-02 -.28378487393E-02 -.37969693688E-02 -.38066807148E-02
 -.47883246162E-03 -.24755953069E-03 -.96369162897E-03 -.34624132489E-02 -.87708420188E-02
 -.17239215280E-01 -.27571548796E-01 -.36745576095E-01 -.41249659271E-01 -.38987032970E-01
 -.30561916777E-01 -.19041152584E-01 -.83511776470E-02 -.13560648011E-02 0.12480772501E-02
 0.73046135893E-03 -.83723396153E-03 -.18578727791E-02 -.18386654075E-02 -.11690647914E-02
 0.15708120110E-02 0.10684008059E-02 -.17219757902E-02 -.80379975361E-02 -.18375417728E-01
 -.31566983097E-01 -.44466996672E-01 -.52854713292E-01 -.53399339665E-01 -.45579185365E-01
 -.32185685632E-01 -.17907668357E-01 -.68897686941E-02 -.89774213394E-03 0.84531279141E-03
 0.41297355224E-03 -.31989222322E-03 -.43809650944E-03 0.11573900338E-03 0.97379933257E-03
 0.22687119254E-02 0.11369950121E-02 -.41689339992E-02 -.14837602572E-01 -.29924272587E-01
 -.46037066378E-01 -.58312416849E-01 -.62475296907E-01 -.56999376193E-01 -.44015732806E-01
 -.28220351807E-01 -.14397958909E-01 -.52227952274E-02 -.71292556848E-03 0.68863289515E-03
 0.63817947311E-03 0.18601739674E-03 -.62984945146E-04 0.32135507462E-03 0.13809642287E-02
 0.11934965569E-02 -.75106875070E-03 -.83649935499E-02 -.21955941382E-01 -.38909483176E-01
 -.54311998205E-01 -.62988431801E-01 -.61968892045E-01 -.51954320489E-01 -.36834485124E-01
 -.21560380028E-01 -.97903830769E-02 -.27693793588E-02 0.18905644772E-03 0.47613768292E-03
 -.64239345189E-03 -.20908590401E-02 -.28220498751E-02 -.20928778112E-02 -.17293555207E-03
 -.11269124751E-02 -.37464397142E-02 -.12262666191E-01 -.25916091449E-01 -.41241862196E-01
 -.53243689834E-01 -.57659471501E-01 -.53024044336E-01 -.41268373031E-01 -.26574156897E-01
 -.13331721475E-01 -.44433376787E-02 -.70637347724E-03 -.11865573143E-02 -.40254460024E-02
 -.71958162502E-02 -.90365705489E-02 -.86292479690E-02 -.61007865580E-02 -.28008020142E-02
 -.32708732429E-02 -.58995371205E-02 -.13697333174E-01 -.25174660235E-01 -.36879920602E-01
 -.44632913596E-01 -.45425311277E-01 -.38860921756E-01 -.27310514001E-01 -.14817740871E-01
 -.54257391470E-02 -.16620758695E-02 -.36948065334E-02 -.94451504676E-02 -.15644419502E-01
 -.19360883765E-01 -.19193100690E-01 -.15553873014E-01 -.10156411970E-01 -.52906734447E-02
 -.39460301132E-02 -.61185116811E-02 -.12492351097E-01 -.20965159388E-01 -.28432552994E-01
 -.31885892418E-01 -.29718994533E-01 -.22548378189E-01 -.13101403865E-01 -.52034488647E-02
 -.22428357275E-02 -.56759990177E-02 -.14235244736E-01 -.24368214245E-01 -.31864343419E-01
 -.33838873330E-01 -.29922986478E-01 -.22062150978E-01 -.13319693409E-01 -.66098082615E-02
 -.29179683832E-02 -.47381119144E-02 -.96082242208E-02 -.14920855627E-01 -.18248636484E-01
 -.18081597582E-01 -.14353152673E-01 -.85806393939E-02 -.34672333145E-02 -.19792995388E-02
 -.61367305432E-02 -.15946782411E-01 -.29003948164E-01 -.41142591077E-01 -.48067213396E-01
 -.47261916770E-01 -.39153901421E-01 -.26850087655E-01 -.14626366934E-01 -.60814935656E-02
 -.91415225342E-03 -.24760995432E-02 -.57206976100E-02 -.82098782415E-02 -.86218118802E-02
 -.68458515629E-02 -.37981461142E-02 -.11497016686E-02 -.93963542177E-03 -.50076624852E-02
 -.14261313433E-01 -.27931655502E-01 -.43185989522E-01 -.55610377682E-01 -.60797009648E-01
 -.56483617161E-01 -.43968240501E-01 -.27689838305E-01 -.13052662772E-01 -.38549770056E-02
 0.10145601594E-02 -.70797115903E-04 -.18401412397E-02 -.27337978537E-02 -.23397620078E-02
 -.10503647599E-02 0.22551839474E-03 0.16404091546E-03 -.28463069415E-02 -.10276550660E-01
 -.22634956020E-01 -.38530265335E-01 -.54306182234E-01 -.64954658424E-01 -.66302720095E-01
 -.57350715272E-01 -.41127782265E-01 -.23253102330E-01 -.90531743293E-02 -.11547357445E-02
 0.18946908444E-02 0.12775744824E-02 0.24133685272E-03 -.40883731202E-03 -.39561493723E-03
 0.16975424116E-03 0.60705849013E-03 -.54961633520E-03 -.52892056146E-02 -.15130377947E-01
 -.29769277087E-01 -.46284179379E-01 -.59762373521E-01 -.65389488670E-01 -.60921758736E-01
 -.47958783451E-01 -.31110660627E-01 -.15590625962E-01 -.48205233758E-02 0.53825262081E-03
 0.11336770264E-02 0.55015606875E-03 -.31800803964E-03 -.88258922858E-03 -.71054657991E-03
 0.16763854600E-03 0.75447219719E-03 -.99864280767E-03 -.73164624337E-02 -.18972594897E-01
 -.33999552768E-01 -.47944947273E-01 -.55882321652E-01 -.54993464278E-01 -.45991837705E-01
 -.32490770584E-01 -.18914984322E-01 -.84423734020E-02 -.21357116462E-02 0.62631193063E-03
 -.10629026593E-02 -.18208182302E-02 -.22810036184E-02 -.20760314795E-02 -.10602960919E-02
 0.33652996547E-03 0.76317014627E-03 -.17884144770E-02 -.88163918647E-02 -.19845424501E-01
 -.31904292801E-01 -.40710785854E-01 -.42967384942E-01 -.38161964267E-01 -.28620723282E-01
 -.17953117122E-01 -.91534324681E-02 -.35687309940E-02 -.10175584716E-02 -.53205909404E-03
 -.37300107692E-02 -.43431423899E-02 -.40402783170E-02 -.29881122957E-02 -.15320930997E-02
 -.27945374907E-03 -.24106359274E-03 -.26047154871E-02 -.79749332257E-02 -.15543982566E-01
 -.22993764874E-01 -.27487249245E-01 -.27202417545E-01 -.22345279623E-01 -.14957414584E-01
 -.77416957426E-02 -.27500044811E-02 -.67760079278E-03 -.95693775134E-03 -.23676863501E-02
 -.59023927577E-02 -.61039474419E-02 -.52689068980E-02 -.39135211769E-02 -.24955496050E-02
 -.13652846590E-02 -.92994714174E-03 -.17401717537E-02 -.42266438794E-02 -.81633720386E-02
 -.12337868884E-01 -.14916501512E-01 -.14463244251E-01 -.10930712887E-01 -.58311834266E-02
 -.13907155002E-02 0.71939834318E-03 0.19488487627E-03 -.20005257990E-02 -.44075222074E-02
 -.72174281855E-02 -.70916394739E-02 -.59743225643E-02 -.43117963050E-02 -.25427615467E-02
 -.99104950851E-03 0.60348426814E-04 0.24076177561E-03 -.79504459424E-03 -.29428694566E-02
 -.53222584131E-02 -.65743879347E-02 -.57666005696E-02 -.31850449086E-02 -.25813504027E-03
 0.13893633947E-02 0.96873507408E-03 -.11424964750E-02 -.38587322312E-02 -.60970407521E-02
 0.21552821784E-03 0.35835894357E-03 0.43486964535E-03 0.43566953855E-03 0.39550575491E-03
 0.32478941941E-03 0.19998368020E-03 0.33662084739E-04 -.83010544348E-04 -.51375719945E-04
 0.11874908826E-03 0.29574001067E-03 0.34767953122E-03 0.26373068842E-03 0.13973350764E-03
 0.60223396474E-04 0.27218558103E-04 0.74181855894E-05 0.95855954214E-05 0.77626487041E-04
 0.11202026815E-03 0.14017778847E-03 0.52638776287E-03 0.10801248233E-02 0.13142680594E-02
 0.80745762602E-03 -.36099653531E-03 -.15160718549E-02 -.18385752740E-02 -.10497698199E-02
 0.29694753752E-03 0.12384248805E-02 0.11821893839E-02 0.33851876007E-03 -.55105123430E-03
 -.87180839722E-03 -.56585699633E-03 -.32338913229E-04 0.29275791076E-03 0.27337598976E-03
 -.21932159029E-03 -.18999694146E-03 0.25775968629E-03 0.76221003553E-03 0.80797161444E-03
 0.14497748604E-03 -.93505188374E-03 -.17519310565E-02 -.17592245881E-02 -.10024045435E-02
 -.85538703960E-04 0.34240291965E-03 0.11627493042E-03 -.37155187268E-03 -.57727429984E-03
 -.28352371112E-03 0.26627729011E-03 0.63095352789E-03 0.55208285744E-03 0.14281946801E-03
 -.24737741614E-03 -.36554356342E-03 -.41207351131E-03 -.38099199114E-03 -.29093128539E-03
 -.23514917819E-03 -.36814772517E-03 -.79198921601E-03 -.14218294253E-02 -.19723005811E-02
 -.21187409890E-02 -.17203534748E-02 -.92108687093E-03 -.49536019368E-04 0.58708790596E-03
 0.85127388047E-03 0.78529960246E-03 0.52660394613E-03 0.21594892394E-03 -.53864594520E-04
 0.29174853512E-03 -.16543381130E-03 -.78587654245E-03 -.10905651799E-02 -.83900963807E-03
 -.34106647540E-03 -.27865851597E-03 -.10946146053E-02 -.24863688799E-02 -.35366436532E-02
 -.34340533017E-02 -.21472822805E-02 -.44357619650E-03 0.73531635574E-03 0.95676780094E-03
 0.48655048991E-03 -.61365513943E-04 -.23074410956E-03 0.32488658803E-05 0.30733988217E-03
 0.83762501086E-03 0.30675645650E-03 -.47988006892E-03 -.11234114773E-02 -.14511957105E-02
 -.16629982173E-02 -.20951811747E-02 -.27980055233E-02 -.33696572497E-02 -.32717335966E-02
 -.23493470217E-02 -.10387194299E-02 -.45726579380E-04 0.20132187365E-03 -.16716633237E-03
 -.64115973100E-03 -.74656488414E-03 -.34886592903E-03 0.31605518495E-03 0.82577674846E-03
 0.79378139483E-03 0.66137071308E-03 -.50305123661E-04 -.12968790282E-02 -.27090519522E-02
 -.37576843531E-02 -.40465293425E-02 -.35389178587E-02 -.25646765275E-02 -.16043611389E-02
 -.10018301867E-02 -.80086856718E-03 -.80219598501E-03 -.76881297499E-03 -.60346913149E-03
 -.36613331278E-03 -.15068944202E-03 0.36655241558E-04 0.26930127213E-03 0.56996625442E-03
 0.33396180093E-03 0.59820296443E-03 -.42721127947E-04 -.16034639316E-02 -.33712084331E-02
 -.43723946779E-02 -.41137069616E-02 -.29581151323E-02 -.17869753551E-02 -.12540133137E-02
 -.13083131404E-02 -.13781816220E-02 -.97474738879E-03 -.13262548355E-03 0.66328207960E-03
 0.92182141094E-03 0.54864020923E-03 -.89498656315E-04 -.44887001684E-03 -.23238989257E-03
 -.88360709881E-04 0.14552563878E-03 -.24497593190E-03 -.12748605579E-02 -.24671316108E-02
 -.32234985827E-02 -.33013564671E-02 -.29341161179E-02 -.24997314041E-02 -.21170869772E-02
 -.15956734071E-02 -.74703213305E-03 0.31707681040E-03 0.12109461468E-02 0.15628034749E-02
 0.12716983501E-02 0.55083179086E-03 -.20320134912E-03 -.60811279214E-03 -.50300466507E-03
 -.43473634339E-03 -.46941284621E-03 -.40283456406E-03 -.59912018650E-03 -.12655322623E-02
 -.22511390531E-02 -.31084022353E-02 -.33606213401E-02 -.27943054737E-02 -.15994493855E-02
 -.26996267117E-03 0.68850253687E-03 0.10608306481E-02 0.10140409147E-02 0.89800520774E-03
 0.92086746157E-03 0.99027235075E-03 0.86248928938E-03 0.43972318207E-03 -.93099552647E-04
 -.72024726870E-03 -.99343450903E-03 -.76313169847E-03 -.65662615715E-03 -.11305014866E-02
 -.20049352869E-02 -.25813216817E-02 -.22586867266E-02 -.10873102334E-02 0.24618468041E-03
 0.97764516190E-03 0.86382901948E-03 0.32407940951E-03 0.56369931091E-04 0.47655163242E-03
 0.14095939435E-02 0.22270976773E-02 0.23089332822E-02 0.15033746837E-02 0.25500801829E-03
 -.57905312440E-03 -.11575444925E-02 -.13004256378E-02 -.12804062018E-02 -.12827394051E-02
 -.12022687236E-02 -.81591731102E-03 -.12501020172E-03 0.54675025827E-03 0.83127635131E-03
 0.66894679763E-03 0.36413445088E-03 0.31412654915E-03 0.70498038382E-03 0.14235457003E-02
 0.21639895947E-02 0.25761922473E-02 0.23988330061E-02 0.15991269758E-02 0.45256888320E-03
 0.13648662389E-03 -.78045501079E-03 -.13200259727E-02 -.12322196648E-02 -.63229901258E-03
 0.82562602007E-04 0.48937103562E-03 0.42391530605E-03 0.11198328052E-03 0.15711814591E-04
 0.45986465667E-03 0.13292512339E-02 0.21305999511E-02 0.24025545495E-02 0.21069299156E-02
 0.16261200776E-02 0.13724513586E-02 0.13988482465E-02 0.13830825664E-02 0.97215524885E-03
 0.83193027915E-03 -.29653105834E-04 -.52748045977E-03 -.38859771753E-03 0.86642542662E-04
 0.31467368254E-03 -.40600434730E-05 -.56121178665E-03 -.67516910999E-03 0.10726775593E-03
 0.15700408094E-02 0.29339723852E-02 0.34222098151E-02 0.28243405905E-02 0.16268842407E-02
 0.63709636188E-03 0.40240345844E-03 0.85138806160E-03 0.14026324385E-02 0.14467577418E-02
 0.89551935595E-03 0.59763759194E-03 0.32379146843E-03 0.14821881649E-03 -.36798578719E-04
 -.32103376883E-03 -.56465116697E-03 -.46119226145E-03 0.16427586190E-03 0.11460881649E-02
 0.20800437615E-02 0.26128744451E-02 0.26314063997E-02 0.22379904708E-02 0.16373804048E-02
 0.10660161732E-02 0.73635450993E-03 0.73007509004E-03 0.91419308079E-03 0.10248403749E-02
 0.51659756892E-03 0.73700083726E-03 0.51858846200E-03 0.69703784618E-04 -.23050038570E-03
 -.10709384114E-03 0.40869888522E-03 0.98080888433E-03 0.12202785995E-02 0.10366506616E-02
 0.77140220450E-03 0.91728909010E-03 0.16240125674E-02 0.24691703091E-02 0.27717121335E-02
 0.21903202139E-02 0.10412105021E-02 0.35870885096E-04 -.29880283319E-03 0.13476878962E-04
 0.23374479792E-03 0.50705562501E-03 0.33903654946E-03 0.11227662532E-03 0.24613085441E-03
 0.78159743373E-03 0.13210193323E-02 0.13756712713E-02 0.82651095003E-03 0.97664488528E-04
 -.13330184634E-03 0.51760347758E-03 0.17753348977E-02 0.28423723291E-02 0.29637536171E-02
 0.19906332109E-02 0.49608633476E-03 -.65088204155E-03 -.91269981817E-03 -.41837675093E-03
 0.14250894071E-03 0.28919965803E-03 0.33308124671E-03 0.37354050374E-03 0.45747691729E-03
 0.51328894304E-03 0.46748917370E-03 0.37739142005E-03 0.39659772034E-03 0.61285594773E-03
 0.95744608561E-03 0.12795071358E-02 0.14685770217E-02 0.14799090276E-02 0.12854076944E-02
 0.87913476550E-03 0.35583220377E-03 -.74260773033E-04 -.22243139631E-03 -.88581021544E-04
 0.83330169900E-04 0.27955649830E-03 0.43124815681E-03 0.26002551874E-03 -.24146824700E-03
 -.72803293250E-03 -.70083268830E-03 0.76155586406E-04 0.12646875835E-02 0.20993452951E-02
 0.19746126610E-02 0.98202355375E-03 -.12926364206E-03 -.57248258108E-03 -.15860983714E-03
 0.62599494335E-03 0.11137580824E-02 0.10126576664E-02 0.54462565424E-03 0.14684434370E-03
 0.10873254109E-03 0.37100104089E-03 0.40974813578E-03 0.19872341454E-04 -.57293233942E-03
 -.84670101887E-03 -.40780377046E-03 0.62277037242E-03 0.16100208082E-02 0.18523383912E-02
 0.11420982715E-02 -.36034272807E-04 -.86296903980E-03 -.81368731420E-03 -.33140310975E-04
 0.83563800050E-03 0.11905919523E-02 0.91049282321E-03 0.36254159625E-03 0.31197480666E-04
 0.80151227265E-02 0.78160271748E-02 0.62671719007E-02 0.38398770463E-02 0.14231279630E-02
 -.21023239384E-03 -.73558194379E-03 -.21636281754E-03 0.10443002495E-02 0.24891733474E-02
 0.33365552948E-02 0.29639129068E-02 0.14565972089E-02 -.28594518154E-03 -.11516305500E-02
 -.61057312730E-03 0.10517476026E-02 0.31818728031E-02 0.52743810481E-02 0.70140417413E-02
 0.73286323243E-02 0.62679767948E-02 0.45997563792E-02 0.28184606021E-02 0.12825597419E-02
 0.22538899019E-03 -.52976310670E-04 0.81511161828E-03 0.28488024997E-02 0.52671687077E-02
 0.66768894107E-02 0.60152050838E-02 0.34789315583E-02 0.51712056107E-03 -.11785549033E-02
 -.79728257106E-03 0.12630416610E-02 0.39243127314E-02 0.61568532087E-02 0.73504730519E-02
 0.51056539901E-02 0.36074491476E-02 0.21681850038E-02 0.11297465805E-02 0.85828905316E-03
 0.18469827190E-02 0.44446672576E-02 0.83376482967E-02 0.12293102350E-01 0.14584740093E-01
 0.13963921854E-01 0.10507767145E-01 0.56865919741E-02 0.15625655748E-02 -.33511491397E-03
 0.26883750652E-03 0.24566489695E-02 0.47985488026E-02 0.61586271356E-02 0.61562868079E-02
 0.26772059791E-02 0.12212582007E-02 0.65489410474E-04 0.13059736187E-03 0.25831006984E-02
 0.80302696990E-02 0.15586397170E-01 0.22812817696E-01 0.26891335510E-01 0.26241171600E-01
 0.21351214146E-01 0.14311082653E-01 0.75840908327E-02 0.29342816861E-02 0.97497611839E-03
 0.12544251380E-02 0.26548686157E-02 0.39636204496E-02 0.44125247898E-02 0.38816787867E-02
 0.11853186854E-02 -.52561696094E-04 -.43554123894E-03 0.19714199123E-02 0.87068522254E-02
 0.19375575549E-01 0.31052003165E-01 0.39504034063E-01 0.41560775128E-01 0.36858788282E-01
 0.27727559456E-01 0.17561388013E-01 0.90758287991E-02 0.35161798216E-02 0.83824659987E-03
 0.27382684408E-03 0.83772606456E-03 0.16685189457E-02 0.21842329211E-02 0.20558320695E-02
 0.25871795013E-03 -.25065868655E-03 0.13761433929E-02 0.72918038965E-02 0.18293227525E-01
 0.32577282324E-01 0.45953765244E-01 0.53724080600E-01 0.53124778439E-01 0.44711223137E-01
 0.31821331149E-01 0.18648953640E-01 0.82984315909E-02 0.19145955120E-02 -.97498904589E-03
 -.15409702588E-02 -.90157777018E-03 0.12113544790E-03 0.89732699524E-03 0.94970985725E-03
 -.52775514270E-03 0.62551657130E-03 0.52459052013E-02 0.14666888891E-01 0.28540396292E-01
 0.44193427467E-01 0.57120598141E-01 0.62756638394E-01 0.58773393569E-01 0.46481380695E-01
 0.30252736998E-01 0.15220495891E-01 0.47974793866E-02 -.38336982274E-03 -.17417395095E-02
 -.12265764359E-02 -.26212202994E-03 0.40443716344E-03 0.44389124403E-03 -.96054666329E-04
 -.40062084933E-03 0.26444944771E-02 0.10021907118E-01 0.21983824975E-01 0.37106859997E-01
 0.52022478853E-01 0.62113709537E-01 0.63407520694E-01 0.54840032056E-01 0.39269105091E-01
 0.22178800343E-01 0.87761697625E-02 0.15181234292E-02 -.32777453474E-03 0.75335816114E-03
 0.23477265957E-02 0.30621884849E-02 0.25182792299E-02 0.10588079578E-02 -.38865891057E-03
 0.10361130570E-02 0.49569310171E-02 0.13935447590E-01 0.27078807739E-01 0.41584804957E-01
 0.53251595118E-01 0.57950877219E-01 0.53610999934E-01 0.41546236179E-01 0.26051789245E-01
 0.12301500435E-01 0.38665981248E-02 0.14247871952E-02 0.32157922348E-02 0.65169158971E-02
 0.89955654562E-02 0.93626356227E-02 0.74784693958E-02 0.42498358695E-02 0.14026057551E-02
 0.24560673553E-02 0.60108442530E-02 0.15211749862E-01 0.27691663608E-01 0.39292790308E-01
 0.45800480005E-01 0.44876382883E-01 0.37079732613E-01 0.25434800151E-01 0.13938683842E-01
 0.59353325480E-02 0.30912619490E-02 0.51582339786E-02 0.10335734809E-01 0.15999295085E-01
 0.19609409414E-01 0.19578844852E-01 0.15834993736E-01 0.98979762663E-02 0.44486690608E-02
 0.25483435315E-02 0.51831111325E-02 0.13132752419E-01 0.22892083299E-01 0.30208843127E-01
 0.32209234862E-01 0.28591704221E-01 0.21269218716E-01 0.13093230620E-01 0.67487409513E-02
 0.42426581471E-02 0.65941272341E-02 0.13375803553E-01 0.22438051151E-01 0.30430241144E-01
 0.34150957311E-01 0.31989435983E-01 0.24636518717E-01 0.14818300883E-01 0.63092702541E-02
 0.18101795445E-02 0.33404537944E-02 0.87491767678E-02 0.14782063463E-01 0.18499136885E-01
 0.18493414847E-01 0.15144224352E-01 0.10073524084E-01 0.54796894900E-02 0.36944784392E-02
 0.66628991533E-02 0.15029487800E-01 0.27239736613E-01 0.39587497466E-01 0.47637572224E-01
 0.48313850559E-01 0.41342411580E-01 0.29255309564E-01 0.16177281615E-01 0.61722282066E-02
 0.12498979342E-02 0.15889879859E-02 0.42362216889E-02 0.72251076102E-02 0.89536654145E-02
 0.84915007991E-02 0.59338753711E-02 0.26727259708E-02 0.12271076864E-02 0.43623507815E-02
 0.13653404679E-01 0.28179393410E-01 0.44255651634E-01 0.56688040881E-01 0.61093241453E-01
 0.56009003188E-01 0.43522747270E-01 0.28078189491E-01 0.14292326748E-01 0.51228397601E-02
 0.70598463208E-03 0.38268302369E-03 0.13361017590E-02 0.25925828051E-02 0.31497472607E-02
 0.22318500287E-02 0.13752171378E-03 -.12316777835E-02 0.10383373898E-02 0.92948700409E-02
 0.23673313159E-01 0.41377940690E-01 0.57388936454E-01 0.66431439843E-01 0.65385029595E-01
 0.54864244768E-01 0.38913454600E-01 0.22855617400E-01 0.10664494110E-01 0.35933698568E-02
 -.87962965679E-04 -.73268848269E-05 0.46581867046E-03 0.75221650208E-03 0.38315343022E-03
 -.73642894299E-03 -.17230851815E-02 -.60809290775E-03 0.48582103651E-02 0.15867372466E-01
 0.31435152672E-01 0.48140375093E-01 0.61044275258E-01 0.65666969695E-01 0.60216034668E-01
 0.46720553926E-01 0.30086948138E-01 0.15494037893E-01 0.58907033969E-02 0.12795716128E-02
 -.15446453982E-03 0.77301172121E-03 0.11187878218E-02 0.78536473472E-03 0.98183755341E-04
 -.43621007218E-03 -.12328630433E-04 0.26130721220E-02 0.88272516356E-02 0.19290758287E-01
 0.32898691330E-01 0.46399492115E-01 0.55337489013E-01 0.56138116942E-01 0.48153045761E-01
 0.34224950179E-01 0.19239644567E-01 0.75824275524E-02 0.11899081492E-02 -.67477471973E-03
 0.14057269503E-02 0.25691861049E-02 0.26319914920E-02 0.20326368832E-02 0.14266998784E-02
 0.12173534136E-02 0.18178921938E-02 0.41510572613E-02 0.94724627405E-02 0.18272322806E-01
 0.29125400988E-01 0.38703721832E-01 0.43284414551E-01 0.40803548877E-01 0.32035861609E-01
 0.20167205269E-01 0.91492239643E-02 0.18761168829E-02 -.87261819816E-03 -.31609316164E-03
 0.38490656269E-02 0.46510981718E-02 0.44351697431E-02 0.35679750736E-02 0.24259769320E-02
 0.13624609640E-02 0.11258471004E-02 0.29592997715E-02 0.78140107602E-02 0.15187362142E-01
 0.22789331304E-01 0.27620773904E-01 0.27714889781E-01 0.23188362973E-01 0.15949972363E-01
 0.85496775499E-02 0.30628860861E-02 0.47754493589E-03 0.56650867509E-03 0.21691028873E-02
 0.59041194427E-02 0.64572430913E-02 0.59666740672E-02 0.43706136176E-02 0.20520414560E-02
 -.30823045989E-04 -.54328328336E-03 0.15196914703E-02 0.59662838364E-02 0.11147573909E-01
 0.14758869856E-01 0.15237251611E-01 0.12676775660E-01 0.85721162507E-02 0.47258277192E-02
 0.22719548434E-02 0.14383918404E-02 0.18915020298E-02 0.31295238769E-02 0.46381006928E-02
 0.73038101859E-02 0.77034018950E-02 0.67003445386E-02 0.43150615642E-02 0.14062906945E-02
 -.69923009360E-03 -.96287589859E-03 0.74407696606E-03 0.35360647918E-02 0.59694112888E-02
 0.68099578358E-02 0.57046636641E-02 0.33593419687E-02 0.10745742238E-02 -.71821242521E-04
 0.19472340773E-03 0.14176207500E-02 0.29749710772E-02 0.45475231580E-02 0.60646027896E-02
 0.11409317381E-04 0.68842313829E-03 0.83994410483E-03 0.53522131498E-03 0.29874695977E-03
 0.39367449612E-03 0.53157286080E-03 0.36218855784E-03 0.19076814805E-04 -.53039104600E-04
 0.26097831258E-03 0.54939813268E-03 0.41125480701E-03 -.11043838967E-04 -.24397127071E-03
 -.14296913024E-03 -.73597049607E-04 -.35112384199E-03 -.72163315843E-03 -.63694802657E-03
 0.11047687929E-03 0.23968656501E-03 0.44905550931E-03 0.79644819331E-03 0.10937253946E-02
 0.92813073634E-03 0.13776893504E-03 -.76761251024E-03 -.90583293684E-03 0.92142197552E-04
 0.15656543378E-02 0.23507497220E-02 0.18600615400E-02 0.57458870055E-03 -.52419851228E-03
 -.87994826757E-03 -.66710973738E-03 -.34322705983E-03 -.13695913009E-03 -.83159977748E-05
 -.55690596662E-03 -.70323125067E-03 -.22983534748E-03 0.42539786284E-03 0.72635324614E-03
 0.52041034378E-03 0.15187170734E-03 0.14224545247E-03 0.73734314579E-03 0.16870464686E-02
 0.24067256099E-02 0.23902846085E-02 0.15862602505E-02 0.46908009137E-03 -.27507983005E-03
 -.25087297269E-03 0.33858880468E-03 0.85833382673E-03 0.77795734109E-03 0.12458452909E-03
 -.73448341010E-03 -.75075358416E-03 -.45394387828E-03 -.12468611848E-03 0.33937329812E-03
 0.12099840021E-02 0.23537529119E-02 0.31439250152E-02 0.30744358071E-02 0.23248258067E-02
 0.15486599515E-02 0.11579201294E-02 0.10067206433E-02 0.80237789204E-03 0.59625903836E-03
 0.66028028698E-03 0.96629850003E-03 0.10659107220E-02 0.60761681505E-03 -.18509447455E-03
 0.37162206280E-03 0.15741355433E-03 -.15563652073E-03 -.54785603020E-04 0.10284054358E-02
 0.29611485343E-02 0.46867454955E-02 0.50420068900E-02 0.38705286544E-02 0.21919380388E-02
 0.11919097090E-02 0.11391784288E-02 0.13717341659E-02 0.12086036762E-02 0.64794571085E-03
 0.15740977678E-03 0.30319835787E-04 0.15350635084E-03 0.30164576052E-03 0.38880066205E-03
 0.12750551489E-02 0.73672973850E-03 0.31643668146E-03 0.64893243499E-03 0.19037902277E-02
 0.35767948679E-02 0.48205862840E-02 0.50748599243E-02 0.44463676553E-02 0.35087850990E-02
 0.27487025382E-02 0.22017940731E-02 0.15838326410E-02 0.71052430263E-03 -.24006794087E-03
 -.84665011562E-03 -.78968426661E-03 -.11347260195E-03 0.77370384358E-03 0.13404250894E-02
 0.73109573997E-03 0.68403011631E-03 0.95568177603E-03 0.14559549724E-02 0.20801565942E-02
 0.29514491649E-02 0.41816265398E-02 0.54415128024E-02 0.60051135840E-02 0.53733633912E-02
 0.37967217334E-02 0.20667005472E-02 0.81111033552E-03 0.97174565070E-04 -.29952901722E-03
 -.44419946564E-03 -.22591998439E-03 0.29553903111E-03 0.76705523706E-03 0.88158741192E-03
 -.88258943656E-04 0.90403025959E-03 0.18517147206E-02 0.22985516827E-02 0.25068637679E-02
 0.32303234803E-02 0.47233606875E-02 0.61568358993E-02 0.62828143502E-02 0.47157395964E-02
 0.23933800616E-02 0.69625594255E-03 0.22670668849E-03 0.52704437094E-03 0.81726676696E-03
 0.74101784988E-03 0.39218262343E-03 -.56829221236E-04 -.46541375097E-03 -.57235288891E-03
 0.44905757260E-04 0.13725599095E-02 0.25340496904E-02 0.33031978340E-02 0.38859886974E-02
 0.45396455394E-02 0.50891387754E-02 0.49709397515E-02 0.38435338455E-02 0.20922368007E-02
 0.61665881964E-03 0.84438256216E-04 0.41758999485E-03 0.97875954247E-03 0.11613865084E-02
 0.77498934025E-03 0.68926853309E-05 -.78429081163E-03 -.12023228135E-02 -.93465420190E-03
 0.17461481648E-03 0.10051339096E-02 0.23651050520E-02 0.38585274756E-02 0.47781172574E-02
 0.46542723768E-02 0.36633734702E-02 0.24470951514E-02 0.15397028810E-02 0.10147060410E-02
 0.65306407090E-03 0.31973673161E-03 0.77702646866E-04 -.57867608021E-05 -.13311835744E-04
 -.77235817482E-04 -.20762596051E-03 -.30581392551E-03 -.30571911642E-03 -.18561190029E-03
 -.59023989042E-03 -.11744867790E-03 0.14528360935E-02 0.31706998653E-02 0.38317663450E-02
 0.31618292621E-02 0.20473320961E-02 0.15256437514E-02 0.16967533324E-02 0.17732616743E-02
 0.10995932141E-02 -.11286606777E-03 -.10958237213E-02 -.13378609496E-02 -.92359010525E-03
 -.22363386948E-03 0.44469754991E-03 0.80737230619E-03 0.61098231694E-03 -.72690064478E-04
 -.93661535234E-03 -.56332972964E-03 0.53607770746E-03 0.16330012767E-02 0.20999418398E-02
 0.20068799269E-02 0.18907258935E-02 0.20086683917E-02 0.20122410580E-02 0.14236465952E-02
 0.28742406655E-03 -.80443456350E-03 -.12930056545E-02 -.11101484354E-02 -.56056720653E-03
 0.50608769271E-04 0.52657618576E-03 0.65208971917E-03 0.25547761520E-03 -.47870579780E-03
 0.22811644947E-03 0.72740516156E-04 0.83542799231E-04 0.50074221139E-03 0.11943045404E-02
 0.17172175935E-02 0.16687979767E-02 0.10376764344E-02 0.21009035547E-03 -.34732169324E-03
 -.43148334358E-03 -.19484233801E-03 0.35191477942E-04 0.18035011792E-04 -.25043152871E-03
 -.56566952325E-03 -.67447460111E-03 -.46744320591E-03 -.77197681367E-04 0.21532143781E-03
 0.14286930825E-02 0.62053565004E-03 0.13572116863E-04 0.23350697965E-03 0.87323491769E-03
 0.96426867256E-03 0.10559911615E-03 -.10534377888E-02 -.15040468092E-02 -.90800591536E-03
 0.16063134771E-03 0.87106466693E-03 0.83299837030E-03 0.18420044601E-03 -.71054953525E-03
 -.14298471642E-02 -.15248893352E-02 -.75500862730E-03 0.53673718073E-03 0.14847035322E-02
 0.10585743472E-02 0.46222979136E-03 0.98471428956E-04 0.19423321179E-03 0.29631148796E-03
 -.75497604790E-04 -.75295114819E-03 -.10896621032E-02 -.74013840171E-03 -.51464114605E-04
 0.37545982001E-03 0.32750414859E-03 0.34010200178E-04 -.28134216236E-03 -.62582522946E-03
 -.96263860566E-03 -.97626585329E-03 -.38143412937E-03 0.57733690865E-03 0.12030551284E-02
 0.91274042305E-04 0.26732160111E-03 0.14321408872E-03 -.74073986752E-04 -.11393149056E-03
 0.15081461878E-03 0.57981326391E-03 0.81910557266E-03 0.55736892809E-03 -.17071424620E-03
 -.92016701142E-03 -.11513758025E-02 -.69721096244E-03 0.59136459210E-04 0.50128516516E-03
 0.31210334579E-03 -.27948600250E-03 -.74854391815E-03 -.74613099181E-03 -.34774461486E-03
 0.74608567843E-04 0.35549134893E-03 -.16170961942E-04 -.32364045677E-03 0.10322720831E-03
 0.10803134564E-02 0.17108372563E-02 0.13056959001E-02 0.59494433188E-04 -.11798925586E-02
 -.16752842755E-02 -.12815082470E-02 -.34969368805E-03 0.59218958120E-03 0.10464133180E-02
 0.71414571222E-03 -.25935389974E-03 -.12198192063E-02 -.14375127153E-02 -.78641028695E-03
 0.45468674608E-03 0.23804882994E-03 -.23869643917E-03 -.34015732030E-03 0.11977565578E-03
 0.60978067404E-03 0.52784752624E-03 -.73904788053E-04 -.60075133040E-03 -.66128255229E-03
 -.45188772551E-03 -.34622253189E-03 -.34737343055E-03 -.17652634466E-03 0.19211526089E-03
 0.38906512274E-03 0.15440077456E-03 -.22928219218E-03 -.24864020756E-03 0.15195793253E-03
 0.14234638638E-03 0.21357489572E-05 -.82174329748E-04 -.22701949479E-03 -.52079476544E-03
 -.86928383720E-03 -.94302777337E-03 -.45336977362E-03 0.42944674098E-03 0.10394301316E-02
 0.76966489177E-03 -.28026486048E-03 -.12910386410E-02 -.14381237989E-02 -.62381735617E-03
 0.50586420966E-03 0.12071219627E-02 0.12329234385E-02 0.84643625095E-03 0.42187160273E-03
 -.25991023790E-03 0.27694095536E-03 0.49817317415E-03 0.49951100550E-04 -.67642511851E-03
 -.95034240745E-03 -.43088430238E-03 0.52934279583E-03 0.12289429017E-02 0.11857164125E-02
 0.42548285431E-03 -.60746575857E-03 -.13198373010E-02 -.12699389120E-02 -.44473000127E-03
 0.64303146176E-03 0.12473466685E-02 0.97774086399E-03 0.17207518800E-03 -.39474268715E-03
 -.77009472300E-02 -.61668408333E-02 -.43635766644E-02 -.26020275523E-02 -.70368217249E-03
 0.10850651852E-02 0.18442741124E-02 0.91793173764E-03 -.11202520469E-02 -.27917167085E-02
 -.30442212851E-02 -.20607521869E-02 -.74721932128E-03 0.24163297382E-03 0.70958496099E-03
 0.41262969545E-03 -.10764353282E-02 -.37166767162E-02 -.64945972225E-02 -.80163177925E-02
 -.68845168887E-02 -.55554561984E-02 -.34615120796E-02 -.10066298342E-02 0.10356764896E-02