    5    5    1    1
  0.3477306E+02  0.2573869E-09  0.2573869E-09  0.3030466E-08  0.5000000E-15
  1.000000000000000E-004
  CAR 
 unknown system                          
     45     31     28
 
  0.0000000E+00  0.0000000E+00  0.0000000E+00  0.1000000E-01
    1      -11.612311   1.000000
    2      -10.597173   1.000000
    3       -8.988621   1.000000
    4       -7.530283   1.000000
    5       -6.084429   1.000000
    6       -5.561849   1.000000
    7       -5.543046   1.000000
    8       -5.513185   1.000000
    9       -5.319947   1.000000
   10       -5.282078   1.000000
   11       -5.280219   1.000000
   12       -5.227259   1.000000
   13       -5.226156   1.000000
   14       -4.971249   1.000000
   15       -4.970750   1.000000
   16       -4.880620   1.000000
   17       -4.762897   1.000000
   18       -4.732793   1.000000
   19       -4.477738   1.000000
   20       -4.477269   1.000000
   21       -4.259369   1.000000
   22       -4.258456   1.000000
   23       -3.987484   1.000000
   24       -3.986906   1.000000
   25       -2.920754   1.000000
   26        1.605751   0.000000
   27        1.918143   0.000000
   28        2.350714   0.000000
 
  0.1000000E+00  0.6938894E-17  0.0000000E+00  0.4000000E-01
    1      -11.309690   1.000000
    2      -10.299411   1.000000
    3       -8.724200   1.000000
    4       -7.308669   1.000000
    5       -6.095618   1.000000
    6       -5.668275   1.000000
    7       -5.612952   1.000000
    8       -5.434513   1.000000
    9       -5.370670   1.000000
   10       -5.330402   1.000000
   11       -5.288493   1.000000
   12       -5.205075   1.000000
   13       -5.128245   1.000000
   14       -5.114473   1.000000
   15       -4.994427   1.000000
   16       -4.888634   1.000000
   17       -4.775787   1.000000
   18       -4.697636   1.000000
   19       -4.488649   1.000000
   20       -4.452703   1.000000
   21       -4.288524   1.000000
   22       -4.255502   1.000000
   23       -3.983006   1.000000
   24       -3.769588   1.000000
   25       -2.235947   0.114347
   26        1.850813   0.000000
   27        2.221960   0.000000
   28        2.653414   0.000000
 
  0.2000000E+00 -0.1387779E-16  0.0000000E+00  0.4000000E-01
    1      -10.445511   1.000000
    2       -9.456351   1.000000
    3       -8.033031   1.000000
    4       -6.786969   1.000000
    5       -6.203276   1.000000
    6       -5.933956   1.000000
    7       -5.734728   1.000000
    8       -5.632218   1.000000
    9       -5.476730   1.000000
   10       -5.259882   1.000000
   11       -5.206282   1.000000
   12       -5.171056   1.000000
   13       -5.093108   1.000000
   14       -5.008819   1.000000
   15       -4.871624   1.000000
   16       -4.823299   1.000000
   17       -4.789245   1.000000
   18       -4.607008   1.000000
   19       -4.567675   1.000000
   20       -4.435300   1.000000
   21       -4.256347   1.000000
   22       -4.087120   1.000000
   23       -3.978122   1.000000
   24       -2.927369   1.000000
   25       -0.917297   0.000000
   26        2.577620   0.000000
   27        3.131780   0.000000
   28        3.561090   0.000000
 
  0.3000000E+00 -0.2775558E-16  0.0000000E+00  0.4000000E-01
    1       -9.214122   1.000000
    2       -8.291012   1.000000
    3       -7.334003   1.000000
    4       -6.530739   1.000000
    5       -6.336427   1.000000
    6       -6.141520   1.000000
    7       -5.851527   1.000000
    8       -5.640130   1.000000
    9       -5.513661   1.000000
   10       -5.277933   1.000000
   11       -5.182011   1.000000
   12       -5.054349   1.000000
   13       -4.892117   1.000000
   14       -4.825625   1.000000
   15       -4.733579   1.000000
   16       -4.611910   1.000000
   17       -4.506177   1.000000
   18       -4.369977   1.000000
   19       -4.334189   1.000000
   20       -4.244784   1.000000
   21       -4.127355   1.000000
   22       -3.965051   1.000000
   23       -3.624669   1.000000
   24       -1.791386   0.000000
   25        0.726567   0.000000
   26        3.730914   0.000000
   27        4.617121   0.000000
   28        5.002571   0.000000
 
  0.4000000E+00 -0.2775558E-16  0.0000000E+00  0.4000000E-01
    1       -8.244757   1.000000
    2       -7.364095   1.000000
    3       -7.006141   1.000000
    4       -6.545747   1.000000
    5       -6.509304   1.000000
    6       -6.269480   1.000000
    7       -5.976412   1.000000
    8       -5.430052   1.000000
    9       -5.313912   1.000000
   10       -5.264135   1.000000
   11       -5.177555   1.000000
   12       -4.927268   1.000000
   13       -4.840518   1.000000
   14       -4.486427   1.000000
   15       -4.348429   1.000000
   16       -4.310383   1.000000
   17       -4.102558   1.000000
   18       -4.097552   1.000000
   19       -4.047558   1.000000
   20       -3.966067   1.000000
   21       -3.810758   1.000000
   22       -3.519946   1.000000
   23       -2.560157   0.999639
   24       -0.427363   0.000000
   25        1.903577   0.000000
   26        2.475905   0.000000
   27        3.320399   0.000000
   28        4.626125   0.000000
 
  0.5000000E+00 -0.2775558E-16  0.0000000E+00  0.2000000E-01
    1       -8.007228   1.000000
    2       -7.102853   1.000000
    3       -6.908726   1.000000
    4       -6.590191   1.000000
    5       -6.531166   1.000000
    6       -6.314468   1.000000
    7       -6.002390   1.000000
    8       -5.406914   1.000000
    9       -5.311712   1.000000
   10       -5.238305   1.000000
   11       -4.967140   1.000000
   12       -4.933706   1.000000
   13       -4.609516   1.000000
   14       -4.446907   1.000000
   15       -4.254673   1.000000
   16       -4.119780   1.000000
   17       -4.044199   1.000000
   18       -3.949399   1.000000
   19       -3.890974   1.000000
   20       -3.693739   1.000000
   21       -3.638980   1.000000
   22       -2.188444   0.030361
   23       -1.369387   0.000000
   24       -0.821165   0.000000
   25        0.747667   0.000000
   26        1.721233   0.000000
   27        2.823281   0.000000
   28        4.042493   0.000000
 
  0.0000000E+00  0.1000000E+00  0.0000000E+00  0.2000000E-01
    1      -11.307496   1.000000
    2      -10.299457   1.000000
    3       -8.726450   1.000000
    4       -7.309950   1.000000
    5       -6.120112   1.000000
    6       -5.667996   1.000000
    7       -5.614008   1.000000
    8       -5.436436   1.000000
    9       -5.369332   1.000000
   10       -5.334604   1.000000
   11       -5.287462   1.000000
   12       -5.200709   1.000000
   13       -5.127777   1.000000
   14       -5.112288   1.000000
   15       -4.994760   1.000000
   16       -4.886725   1.000000
   17       -4.751522   1.000000
   18       -4.700276   1.000000
   19       -4.486256   1.000000
   20       -4.453481   1.000000
   21       -4.289403   1.000000
   22       -4.254920   1.000000
   23       -3.982631   1.000000
   24       -3.767938   1.000000
   25       -2.234741   0.111085
   26        1.850571   0.000000
   27        2.222076   0.000000
   28        2.653365   0.000000
 
  0.2000000E+00  0.1000000E+00  0.0000000E+00  0.2000000E-01
    1      -10.726099   1.000000
    2       -9.726226   1.000000
    3       -8.237612   1.000000
    4       -6.922960   1.000000
    5       -6.140304   1.000000
    6       -5.843618   1.000000
    7       -5.749639   1.000000
    8       -5.551901   1.000000
    9       -5.462812   1.000000
   10       -5.314769   1.000000
   11       -5.217775   1.000000
   12       -5.165932   1.000000
   13       -5.127963   1.000000
   14       -5.089214   1.000000
   15       -4.922851   1.000000
   16       -4.840406   1.000000
   17       -4.710016   1.000000
   18       -4.637847   1.000000
   19       -4.591695   1.000000
   20       -4.439926   1.000000
   21       -4.344370   1.000000
   22       -4.084517   1.000000
   23       -4.021981   1.000000
   24       -3.170147   1.000000
   25       -1.304192   0.000000
   26        2.338034   0.000000
   27        2.828964   0.000000
   28        3.258329   0.000000
 
  0.3000000E+00  0.1000000E+00  0.0000000E+00  0.4000000E-01
    1       -9.659124   1.000000
    2       -8.696232   1.000000
    3       -7.504316   1.000000
    4       -6.510259   1.000000
    5       -6.208003   1.000000
    6       -6.039576   1.000000
    7       -5.862615   1.000000
    8       -5.743278   1.000000
    9       -5.596748   1.000000
   10       -5.302189   1.000000
   11       -5.258619   1.000000
   12       -5.190882   1.000000
   13       -5.037315   1.000000
   14       -4.910881   1.000000
   15       -4.834160   1.000000
   16       -4.748048   1.000000
   17       -4.569418   1.000000
   18       -4.484549   1.000000
   19       -4.367231   1.000000
   20       -4.293465   1.000000
   21       -4.139796   1.000000
   22       -4.042158   1.000000
   23       -3.739823   1.000000
   24       -2.206284   0.052271
   25        0.128288   0.000000
   26        3.308468   0.000000
   27        4.037532   0.000000
   28        4.475619   0.000000
 
  0.4000000E+00  0.1000000E+00  0.0000000E+00  0.4000000E-01
    1       -8.485267   1.000000
    2       -7.592340   1.000000
    3       -7.017701   1.000000
    4       -6.487635   1.000000
    5       -6.359721   1.000000
    6       -6.147424   1.000000
    7       -5.934733   1.000000
    8       -5.627588   1.000000
    9       -5.536877   1.000000
   10       -5.331168   1.000000
   11       -5.241138   1.000000
   12       -5.081097   1.000000
   13       -4.914735   1.000000
   14       -4.733138   1.000000
   15       -4.609843   1.000000
   16       -4.497933   1.000000
   17       -4.365747   1.000000
   18       -4.221094   1.000000
   19       -4.156289   1.000000
   20       -3.982434   1.000000
   21       -3.928326   1.000000
   22       -3.619893   1.000000
   23       -2.872325   1.000000
   24       -0.835959   0.000000
   25        1.832103   0.000000
   26        3.855346   0.000000
   27        4.415551   0.000000
   28        5.266418   0.000000
 
  0.5000000E+00  0.1000000E+00  0.0000000E+00  0.4000000E-01
    1       -7.946617   1.000000
    2       -7.023895   1.000000
    3       -6.822479   1.000000
    4       -6.497099   1.000000
    5       -6.440152   1.000000
    6       -6.224366   1.000000
    7       -6.010490   1.000000
    8       -5.538285   1.000000
    9       -5.369290   1.000000
   10       -5.236251   1.000000
   11       -5.203521   1.000000
   12       -5.017394   1.000000
   13       -4.784514   1.000000
   14       -4.513858   1.000000
   15       -4.397292   1.000000
   16       -4.247327   1.000000
   17       -4.126513   1.000000
   18       -4.065660   1.000000
   19       -4.017408   1.000000
   20       -3.863253   1.000000
   21       -3.350817   1.000000
   22       -2.327150   0.534299
   23       -1.386641   0.000000
   24        0.038655   0.000000
   25        1.350705   0.000000
   26        1.997008   0.000000
   27        3.117278   0.000000
   28        4.448956   0.000000
 
 -0.4000000E+00  0.1000000E+00  0.0000000E+00  0.4000000E-01
    1       -7.956764   1.000000
    2       -7.026210   1.000000
    3       -6.824533   1.000000
    4       -6.499291   1.000000
    5       -6.444984   1.000000
    6       -6.220336   1.000000
    7       -6.003884   1.000000
    8       -5.524274   1.000000
    9       -5.374740   1.000000
   10       -5.239549   1.000000
   11       -5.182603   1.000000
   12       -5.016388   1.000000
   13       -4.779889   1.000000
   14       -4.524949   1.000000
   15       -4.392222   1.000000
   16       -4.247694   1.000000
   17       -4.126336   1.000000
   18       -4.067904   1.000000
   19       -4.017614   1.000000
   20       -3.864054   1.000000
   21       -3.371241   1.000000
   22       -2.324604   0.519968
   23       -1.375475   0.000000
   24        0.044367   0.000000
   25        1.350123   0.000000
   26        1.997667   0.000000
   27        3.116165   0.000000
   28        4.452103   0.000000
 
 -0.3000000E+00  0.1000000E+00  0.0000000E+00  0.4000000E-01
    1       -8.490862   1.000000
    2       -7.601486   1.000000
    3       -7.030002   1.000000
    4       -6.495085   1.000000
    5       -6.359350   1.000000
    6       -6.142258   1.000000
    7       -5.922844   1.000000
    8       -5.617528   1.000000
    9       -5.528255   1.000000
   10       -5.325778   1.000000
   11       -5.227659   1.000000
   12       -5.085457   1.000000
   13       -4.905820   1.000000
   14       -4.729718   1.000000
   15       -4.638642   1.000000
   16       -4.490906   1.000000
   17       -4.367165   1.000000
   18       -4.229943   1.000000
   19       -4.160295   1.000000
   20       -3.987153   1.000000
   21       -3.934170   1.000000
   22       -3.617859   1.000000
   23       -2.855819   1.000000
   24       -0.816834   0.000000
   25        1.844244   0.000000
   26        3.848890   0.000000
   27        4.416089   0.000000
   28        5.264090   0.000000
 
 -0.2000000E+00  0.1000000E+00  0.0000000E+00  0.4000000E-01
    1       -9.652068   1.000000
    2       -8.701409   1.000000
    3       -7.523995   1.000000
    4       -6.522682   1.000000
    5       -6.223090   1.000000
    6       -6.033857   1.000000
    7       -5.851043   1.000000
    8       -5.741012   1.000000
    9       -5.596128   1.000000
   10       -5.299454   1.000000
   11       -5.256009   1.000000
   12       -5.176384   1.000000
   13       -5.041244   1.000000
   14       -4.931151   1.000000
   15       -4.834798   1.000000
   16       -4.746931   1.000000
   17       -4.575056   1.000000
   18       -4.476931   1.000000
   19       -4.357221   1.000000
   20       -4.293525   1.000000
   21       -4.139861   1.000000
   22       -4.042734   1.000000
   23       -3.725769   1.000000
   24       -2.188603   0.030516
   25        0.137121   0.000000
   26        3.308924   0.000000
   27        4.037989   0.000000
   28        4.481601   0.000000
 
 -0.1000000E+00  0.1000000E+00  0.0000000E+00  0.4000000E-01
    1      -10.719949   1.000000
    2       -9.727212   1.000000
    3       -8.246404   1.000000
    4       -6.927853   1.000000
    5       -6.187485   1.000000
    6       -5.839215   1.000000
    7       -5.742650   1.000000
    8       -5.549721   1.000000
    9       -5.463792   1.000000
   10       -5.318261   1.000000
   11       -5.236538   1.000000
   12       -5.162822   1.000000
   13       -5.104561   1.000000
   14       -5.089307   1.000000
   15       -4.923002   1.000000
   16       -4.841892   1.000000
   17       -4.705016   1.000000
   18       -4.608416   1.000000
   19       -4.591738   1.000000
   20       -4.442496   1.000000
   21       -4.343567   1.000000
   22       -4.079025   1.000000
   23       -4.021307   1.000000
   24       -3.159543   1.000000
   25       -1.299716   0.000000
   26        2.337533   0.000000
   27        2.829288   0.000000
   28        3.259391   0.000000
 
  0.0000000E+00  0.2000000E+00  0.0000000E+00  0.2000000E-01
    1      -10.434293   1.000000
    2       -9.457368   1.000000
    3       -8.046507   1.000000
    4       -6.796775   1.000000
    5       -6.256769   1.000000
    6       -5.937758   1.000000
    7       -5.739904   1.000000
    8       -5.629613   1.000000
    9       -5.480307   1.000000
   10       -5.257613   1.000000
   11       -5.203949   1.000000
   12       -5.175186   1.000000
   13       -5.071573   1.000000
   14       -5.002283   1.000000
   15       -4.872378   1.000000
   16       -4.816714   1.000000
   17       -4.783441   1.000000
   18       -4.601199   1.000000
   19       -4.561479   1.000000
   20       -4.432928   1.000000
   21       -4.255493   1.000000
   22       -4.075436   1.000000
   23       -3.977781   1.000000
   24       -2.907859   1.000000
   25       -0.908989   0.000000
   26        2.577638   0.000000
   27        3.132220   0.000000
   28        3.561026   0.000000
 
  0.4000000E+00  0.2000000E+00  0.0000000E+00  0.2000000E-01
    1       -8.585715   1.000000
    2       -7.665784   1.000000
    3       -6.975081   1.000000
    4       -6.461632   1.000000
    5       -6.137780   1.000000
    6       -6.046067   1.000000
    7       -5.902538   1.000000
    8       -5.838627   1.000000
    9       -5.570649   1.000000
   10       -5.411678   1.000000
   11       -5.383946   1.000000
   12       -5.294755   1.000000
   13       -4.973453   1.000000
   14       -4.894503   1.000000
   15       -4.778560   1.000000
   16       -4.609314   1.000000
   17       -4.407839   1.000000
   18       -4.265012   1.000000
   19       -4.175719   1.000000
   20       -3.977173   1.000000
   21       -3.909624   1.000000
   22       -3.574180   1.000000
   23       -2.876590   1.000000
   24       -0.958883   0.000000
   25        1.654176   0.000000
   26        4.500806   0.000000
   27        5.351329   0.000000
   28        5.622648   0.000000
 
  0.5000000E+00  0.2000000E+00  0.0000000E+00  0.4000000E-01
    1       -7.830901   1.000000
    2       -6.858258   1.000000
    3       -6.647735   1.000000
    4       -6.386318   1.000000
    5       -6.255524   1.000000
    6       -6.059299   1.000000
    7       -5.962914   1.000000
    8       -5.755178   1.000000
    9       -5.584040   1.000000
   10       -5.515299   1.000000
   11       -5.337142   1.000000
   12       -5.057259   1.000000
   13       -4.963828   1.000000
   14       -4.813737   1.000000
   15       -4.627214   1.000000
   16       -4.534249   1.000000
   17       -4.370566   1.000000
   18       -4.195823   1.000000
   19       -4.025748   1.000000
   20       -3.883534   1.000000
   21       -3.141796   1.000000
   22       -2.363091   0.723867
   23       -1.285722   0.000000
   24        0.700815   0.000000
   25        2.910571   0.000000
   26        3.079682   0.000000
   27        3.996887   0.000000
   28        5.159007   0.000000
 
 -0.4000000E+00  0.2000000E+00  0.0000000E+00  0.4000000E-01
    1       -7.677184   1.000000
    2       -6.665105   1.000000
    3       -6.549063   1.000000
    4       -6.322416   1.000000
    5       -6.198346   1.000000
    6       -6.121559   1.000000
    7       -5.966165   1.000000
    8       -5.817999   1.000000
    9       -5.533574   1.000000
   10       -5.449305   1.000000
   11       -5.248977   1.000000
   12       -5.097564   1.000000
   13       -4.895160   1.000000
   14       -4.693082   1.000000
   15       -4.561933   1.000000
   16       -4.446748   1.000000
   17       -4.277796   1.000000
   18       -4.104342   1.000000
   19       -4.059127   1.000000
   20       -3.954234   1.000000
   21       -2.341862   0.615675
   22       -0.743220   0.000000
   23       -0.203719   0.000000
   24        0.553916   0.000000
   25        1.818244   0.000000
   26        2.160101   0.000000
   27        3.479920   0.000000
   28        4.642027   0.000000
 
 -0.3000000E+00  0.2000000E+00  0.0000000E+00  0.4000000E-01
    1       -7.855845   1.000000
    2       -6.871084   1.000000
    3       -6.649962   1.000000
    4       -6.388411   1.000000
    5       -6.254560   1.000000
    6       -6.047285   1.000000
    7       -5.957015   1.000000
    8       -5.742948   1.000000
    9       -5.578849   1.000000
   10       -5.507635   1.000000
   11       -5.329503   1.000000
   12       -5.058088   1.000000
   13       -4.961595   1.000000
   14       -4.812068   1.000000
   15       -4.630254   1.000000
   16       -4.527451   1.000000
   17       -4.372973   1.000000
   18       -4.193031   1.000000
   19       -4.029900   1.000000
   20       -3.883554   1.000000
   21       -3.183327   1.000000
   22       -2.355146   0.685097
   23       -1.256065   0.000000
   24        0.737532   0.000000
   25        2.903791   0.000000
   26        3.087512   0.000000
   27        4.008978   0.000000
   28        5.194987   0.000000
 
 -0.2000000E+00  0.2000000E+00  0.0000000E+00  0.4000000E-01
    1       -8.573936   1.000000
    2       -7.687019   1.000000
    3       -7.014298   1.000000
    4       -6.466604   1.000000
    5       -6.137620   1.000000
    6       -6.044084   1.000000
    7       -5.900256   1.000000
    8       -5.835075   1.000000
    9       -5.571332   1.000000
   10       -5.412364   1.000000
   11       -5.355563   1.000000
   12       -5.293317   1.000000
   13       -4.976164   1.000000
   14       -4.903968   1.000000
   15       -4.749550   1.000000
   16       -4.621991   1.000000
   17       -4.408325   1.000000
   18       -4.262605   1.000000
   19       -4.193259   1.000000
   20       -3.978760   1.000000
   21       -3.920687   1.000000
   22       -3.568651   1.000000
   23       -2.848190   1.000000
   24       -0.916401   0.000000
   25        1.686054   0.000000
   26        4.522515   0.000000
   27        5.350746   0.000000
   28        5.643819   0.000000
 
 -0.1000000E+00  0.2000000E+00  0.0000000E+00  0.4000000E-01
    1       -9.638861   1.000000
    2       -8.703053   1.000000
    3       -7.539143   1.000000
    4       -6.542896   1.000000
    5       -6.228485   1.000000
    6       -6.041077   1.000000
    7       -5.864052   1.000000
    8       -5.741317   1.000000
    9       -5.599233   1.000000
   10       -5.304160   1.000000
   11       -5.259374   1.000000
   12       -5.173928   1.000000
   13       -5.028508   1.000000
   14       -4.915889   1.000000
   15       -4.829535   1.000000
   16       -4.747323   1.000000
   17       -4.575310   1.000000
   18       -4.475830   1.000000
   19       -4.352651   1.000000
   20       -4.293225   1.000000
   21       -4.139819   1.000000
   22       -4.042146   1.000000
   23       -3.716567   1.000000
   24       -2.170745   0.016759
   25        0.147044   0.000000
   26        3.311613   0.000000
   27        4.038090   0.000000
   28        4.485097   0.000000
 
  0.0000000E+00  0.3000000E+00  0.0000000E+00  0.2000000E-01
    1       -9.175843   1.000000
    2       -8.300588   1.000000
    3       -7.376705   1.000000
    4       -6.576444   1.000000
    5       -6.339074   1.000000
    6       -6.164178   1.000000
    7       -5.867768   1.000000
    8       -5.643534   1.000000
    9       -5.519741   1.000000
   10       -5.280113   1.000000
   11       -5.168864   1.000000
   12       -5.052097   1.000000
   13       -4.873607   1.000000
   14       -4.825307   1.000000
   15       -4.733928   1.000000
   16       -4.598802   1.000000
   17       -4.506692   1.000000
   18       -4.366086   1.000000
   19       -4.331803   1.000000
   20       -4.244337   1.000000
   21       -4.127299   1.000000
   22       -3.964745   1.000000
   23       -3.592532   1.000000
   24       -1.740841   0.000000
   25        0.761306   0.000000
   26        3.752668   0.000000
   27        4.613922   0.000000
   28        5.036849   0.000000
 
 -0.4000000E+00  0.3000000E+00  0.0000000E+00  0.2000000E-01
    1       -7.535069   1.000000
    2       -6.439279   1.000000
    3       -6.369278   1.000000
    4       -6.227558   1.000000
    5       -6.133094   1.000000
    6       -6.046886   1.000000
    7       -5.952294   1.000000
    8       -5.888511   1.000000
    9       -5.691698   1.000000
   10       -5.537627   1.000000
   11       -5.418696   1.000000
   12       -5.038200   1.000000
   13       -4.986995   1.000000
   14       -4.802957   1.000000
   15       -4.657727   1.000000
   16       -4.496568   1.000000
   17       -4.444664   1.000000
   18       -4.146349   1.000000
   19       -4.070042   1.000000
   20       -3.978112   1.000000
   21       -1.935774   0.000000
   22       -0.411536   0.000000
   23        0.661501   0.000000
   24        1.948097   0.000000
   25        2.389077   0.000000
   26        2.997165   0.000000
   27        3.190281   0.000000
   28        3.774502   0.000000
 
 -0.3000000E+00  0.3000000E+00  0.0000000E+00  0.4000000E-01
    1       -7.554487   1.000000
    2       -6.450784   1.000000
    3       -6.354910   1.000000
    4       -6.227079   1.000000
    5       -6.125143   1.000000
    6       -6.047693   1.000000
    7       -5.951775   1.000000
    8       -5.887823   1.000000
    9       -5.691395   1.000000
   10       -5.537467   1.000000
   11       -5.417075   1.000000
   12       -5.037866   1.000000
   13       -4.987021   1.000000
   14       -4.803672   1.000000
   15       -4.650642   1.000000
   16       -4.494338   1.000000
   17       -4.443936   1.000000
   18       -4.148375   1.000000
   19       -4.070113   1.000000
   20       -3.978080   1.000000
   21       -1.974571   0.000000
   22       -0.394931   0.000000
   23        0.709103   0.000000
   24        2.008189   0.000000
   25        2.383453   0.000000
   26        2.916005   0.000000
   27        3.193679   0.000000
   28        3.965174   0.000000
 
 -0.2000000E+00  0.3000000E+00  0.0000000E+00  0.4000000E-01
    1       -7.835349   1.000000
    2       -6.882536   1.000000
    3       -6.654723   1.000000
    4       -6.396235   1.000000
    5       -6.251726   1.000000
    6       -6.072102   1.000000
    7       -5.957882   1.000000
    8       -5.751785   1.000000
    9       -5.575988   1.000000
   10       -5.507559   1.000000
   11       -5.339594   1.000000
   12       -5.057304   1.000000
   13       -4.957924   1.000000
   14       -4.807833   1.000000
   15       -4.623583   1.000000
   16       -4.526497   1.000000
   17       -4.370802   1.000000
   18       -4.192205   1.000000
   19       -4.032308   1.000000
   20       -3.883434   1.000000
   21       -3.195777   1.000000
   22       -2.352471   0.671541
   23       -1.240235   0.000000
   24        0.783277   0.000000
   25        2.964000   0.000000
   26        3.286462   0.000000
   27        3.881454   0.000000
   28        5.045211   0.000000
 
 -0.1000000E+00  0.3000000E+00  0.0000000E+00  0.4000000E-01
    1       -8.440721   1.000000
    2       -7.619405   1.000000
    3       -7.064998   1.000000
    4       -6.528498   1.000000
    5       -6.356639   1.000000
    6       -6.163293   1.000000
    7       -5.943688   1.000000
    8       -5.628412   1.000000
    9       -5.535378   1.000000
   10       -5.320451   1.000000
   11       -5.235007   1.000000
   12       -5.081134   1.000000
   13       -4.900658   1.000000
   14       -4.730353   1.000000
   15       -4.610659   1.000000
   16       -4.490840   1.000000
   17       -4.366204   1.000000
   18       -4.235701   1.000000
   19       -4.157415   1.000000
   20       -3.984296   1.000000
   21       -3.933147   1.000000
   22       -3.615876   1.000000
   23       -2.831369   1.000000
   24       -0.764371   0.000000
   25        1.915159   0.000000
   26        3.971679   0.000000
   27        4.391596   0.000000
   28        5.208588   0.000000
 
  0.0000000E+00  0.4000000E+00  0.0000000E+00  0.2000000E-01
    1       -8.179049   1.000000
    2       -7.388905   1.000000
    3       -7.030511   1.000000
    4       -6.593050   1.000000
    5       -6.506975   1.000000
    6       -6.305514   1.000000
    7       -6.008650   1.000000
    8       -5.436113   1.000000
    9       -5.305645   1.000000
   10       -5.254734   1.000000
   11       -5.217376   1.000000
   12       -4.912520   1.000000
   13       -4.827793   1.000000
   14       -4.475503   1.000000
   15       -4.351466   1.000000
   16       -4.314174   1.000000
   17       -4.103915   1.000000
   18       -4.100781   1.000000
   19       -4.047682   1.000000
   20       -3.966077   1.000000
   21       -3.810684   1.000000
   22       -3.523690   1.000000
   23       -2.519007   0.997440
   24       -0.336537   0.000000
   25        2.235486   0.000000
   26        2.466816   0.000000
   27        3.237585   0.000000
   28        4.511937   0.000000
 
 -0.2000000E+00  0.4000000E+00  0.0000000E+00  0.2000000E-01
    1       -7.675263   1.000000
    2       -6.670295   1.000000
    3       -6.550421   1.000000
    4       -6.320888   1.000000
    5       -6.201957   1.000000
    6       -6.149130   1.000000
    7       -5.962510   1.000000
    8       -5.805361   1.000000
    9       -5.549697   1.000000
   10       -5.449325   1.000000
   11       -5.259458   1.000000
   12       -5.095418   1.000000
   13       -4.884878   1.000000
   14       -4.692765   1.000000
   15       -4.557703   1.000000
   16       -4.436828   1.000000
   17       -4.277027   1.000000
   18       -4.108912   1.000000
   19       -4.059063   1.000000
   20       -3.954435   1.000000
   21       -2.417668   0.914062
   22       -0.721045   0.000000
   23       -0.167666   0.000000
   24        0.595186   0.000000
   25        2.024745   0.000000
   26        2.302041   0.000000
   27        3.382903   0.000000
   28        4.490207   0.000000
 
 -0.1000000E+00  0.4000000E+00  0.0000000E+00  0.4000000E-01
    1       -7.912402   1.000000
    2       -7.041183   1.000000
    3       -6.823287   1.000000
    4       -6.506528   1.000000
    5       -6.468302   1.000000
    6       -6.257118   1.000000
    7       -6.033201   1.000000
    8       -5.515766   1.000000
    9       -5.371186   1.000000
   10       -5.258260   1.000000
   11       -5.204111   1.000000
   12       -5.004196   1.000000
   13       -4.782434   1.000000
   14       -4.512738   1.000000
   15       -4.387329   1.000000
   16       -4.243201   1.000000
   17       -4.126890   1.000000
   18       -4.072120   1.000000
   19       -4.020615   1.000000
   20       -3.863363   1.000000
   21       -3.408379   1.000000
   22       -2.321433   0.502087
   23       -1.348298   0.000000
   24        0.086367   0.000000
   25        1.818664   0.000000
   26        1.955038   0.000000
   27        3.020425   0.000000
   28        4.309466   0.000000
 
  0.0000000E+00  0.5000000E+00  0.0000000E+00  0.1000000E-01
    1       -7.957495   1.000000
    2       -7.117802   1.000000
    3       -6.902100   1.000000
    4       -6.600625   1.000000