unknown system                          
   1.00000000000000     
     2.573869    0.000000    0.000000
     1.286934    2.229036    0.000000
     0.000000    0.000000   30.304665
   Cu   H 
     4     1
Direct
  0.000000  0.000000  0.395979
  0.333333  0.333333  0.465326
  0.666667  0.666667  0.534674
  0.000000  0.000000  0.604021
  0.689098  0.621804  0.637020
 
   10   10  120
 0.22676E-10 0.34060E-10 0.98581E-13 0.30568E-10 0.72789E-13 0.30499E-11 0.62172E-14 0.71362E-12 0.18850E-12 0.23018E-10
 0.28597E-10 0.14655E-10 0.36819E-12 0.60422E-11 0.18097E-13 0.11466E-09 0.44131E-13 0.80989E-12 0.90310E-14 0.34558E-07
 0.47344E-13 0.15669E-12 0.28334E-12 0.26128E-12 0.63283E-14 0.14266E-13 0.20012E-13 0.22116E-11 0.40926E-13 0.14860E-12
 0.26694E-10 0.13939E-10 0.76689E-13 0.36360E-13 0.18985E-13 0.82448E-12 0.17195E-13 0.42434E-12 0.12165E-12 0.16657E-10
 0.29185E-13 0.17153E-13 0.38303E-14 0.97145E-14 0.19817E-13 0.33445E-13 0.17347E-14 0.53707E-14 0.36318E-13 0.47976E-13
 0.37393E-11 0.13918E-10 0.12211E-12 0.31815E-12 0.10728E-13 0.19956E-11 0.34542E-13 0.42678E-12 0.13156E-13 0.39317E-11
 0.37470E-14 0.91593E-15 0.12879E-13 0.23953E-13 0.26645E-14 0.18041E-14 0.72164E-15 0.70499E-14 0.51348E-14 0.14086E-13
 0.95487E-11 0.13713E-10 0.31431E-12 0.23686E-11 0.61229E-13 0.10982E-11 0.14710E-13 0.19401E-13 0.70360E-14 0.23906E-11
 0.74604E-13 0.92185E-13 0.20615E-13 0.14187E-12 0.20983E-13 0.30989E-13 0.31641E-14 0.28477E-13 0.10933E-12 0.14466E-12
 0.25738E-10 0.16655E-10 0.36278E-12 0.44879E-10 0.29643E-13 0.14700E-08 0.17875E-13 0.59769E-12 0.11117E-12 0.43413E-10
 0.11077E-11 0.30510E-12 0.32485E-12 0.40032E-11 0.15599E-13 0.17443E-12 0.41842E-13 0.60471E-12 0.39864E-13 0.52261E-12
 0.11587E-11 0.45727E-08 0.41384E-12 0.21430E-11 0.84099E-14 0.19617E-10 0.12747E-12 0.13021E-11 0.32731E-13 0.14180E-09
 0.16713E-12 0.33404E-12 0.31129E-12 0.20942E-12 0.34417E-14 0.97838E-14 0.38233E-13 0.19296E-11 0.41776E-13 0.17808E-12
 0.19517E-11 0.42007E-11 0.42355E-13 0.61895E-14 0.71054E-14 0.28806E-12 0.63644E-13 0.60223E-12 0.11673E-12 0.30749E-10
 0.78965E-14 0.11505E-13 0.24980E-14 0.34278E-14 0.69944E-14 0.14058E-13 0.24564E-14 0.45519E-14 0.26298E-13 0.26340E-13
 0.24399E-12 0.45333E-09 0.89317E-13 0.91538E-13 0.72858E-14 0.18243E-11 0.64893E-13 0.34873E-11 0.29879E-13 0.10220E-10
 0.21053E-13 0.40246E-14 0.30975E-13 0.59799E-13 0.37470E-14 0.45380E-14 0.40107E-14 0.25951E-13 0.97145E-14 0.23037E-13
 0.45799E-11 0.11071E-10 0.38143E-12 0.25330E-11 0.28422E-13 0.67082E-10 0.59314E-13 0.19004E-12 0.24744E-13 0.14172E-10
 0.18804E-13 0.11054E-12 0.30153E-13 0.20334E-12 0.21289E-13 0.68015E-13 0.69528E-14 0.42938E-13 0.13395E-12 0.79721E-13
 0.39578E-12 0.18251E-10 0.32169E-12 0.13418E-09 0.15640E-13 0.54702E-11 0.38802E-13 0.18349E-11 0.12916E-12 0.56673E-11
 0.26618E-13 0.20782E-13 0.52118E-13 0.10929E-12 0.38303E-14 0.18999E-13 0.20595E-13 0.65364E-14 0.69805E-14 0.31433E-13
 0.54456E-13 0.21032E-10 0.29544E-12 0.31491E-12 0.36915E-14 0.15574E-11 0.31763E-12 0.16106E-11 0.38865E-13 0.91770E-10
 0.27513E-13 0.62156E-12 0.22597E-12 0.86625E-13 0.17625E-14 0.17625E-14 0.32321E-13 0.10624E-11 0.33959E-13 0.19517E-12
 0.38081E-13 0.12901E-11 0.98255E-14 0.14710E-14 0.29005E-14 0.74205E-13 0.16258E-12 0.62585E-12 0.10185E-12 0.70871E-10
 0.19706E-14 0.72720E-14 0.14849E-14 0.13600E-14 0.26645E-14 0.56205E-14 0.19984E-14 0.26090E-14 0.13781E-13 0.13142E-13
 0.21191E-13 0.22383E-11 0.35805E-13 0.18596E-13 0.41078E-14 0.18882E-11 0.11677E-12 0.64989E-11 0.23759E-13 0.26784E-11
 0.19665E-13 0.49127E-14 0.45033E-13 0.11692E-12 0.36221E-14 0.12407E-13 0.15404E-13 0.65004E-13 0.14294E-13 0.38941E-13
 0.10361E-12 0.88289E-11 0.37514E-12 0.27636E-11 0.10283E-13 0.67336E-07 0.13947E-12 0.52380E-12 0.27964E-13 0.75832E-09
 0.35250E-14 0.88797E-13 0.32724E-13 0.26651E-12 0.13864E-13 0.72414E-13 0.11213E-13 0.33099E-13 0.10972E-12 0.39330E-13
 0.28644E-13 0.16598E-10 0.25224E-12 0.13260E-08 0.52458E-14 0.27155E-11 0.78756E-13 0.72460E-11 0.13238E-12 0.21897E-11
 0.61201E-14 0.75495E-14 0.13059E-13 0.25244E-13 0.14988E-14 0.43576E-14 0.50793E-14 0.97145E-15 0.16792E-14 0.58148E-14
 0.10533E-13 0.44637E-11 0.23227E-12 0.27513E-12 0.25258E-14 0.71171E-12 0.15204E-11 0.21063E-11 0.74080E-13 0.68313E-10
 0.65364E-14 0.17881E-11 0.21527E-12 0.72164E-13 0.12212E-14 0.22621E-14 0.46366E-13 0.83016E-12 0.30406E-13 0.21404E-12
 0.74662E-14 0.78304E-12 0.82989E-14 0.68001E-15 0.18319E-14 0.52180E-13 0.10465E-11 0.79761E-12 0.85792E-13 0.25049E-09
 0.95757E-15 0.62728E-14 0.12906E-14 0.90206E-15 0.13878E-14 0.33029E-14 0.23731E-14 0.27200E-14 0.92426E-14 0.88540E-14
 0.44686E-14 0.73579E-12 0.27714E-13 0.16473E-13 0.36776E-14 0.18098E-11 0.31125E-12 0.21292E-10 0.41106E-13 0.13439E-11
 0.66891E-14 0.33473E-13 0.95784E-13 0.45583E-12 0.41495E-14 0.50654E-13 0.65253E-13 0.71027E-13 0.22538E-13 0.90372E-13
 0.21719E-13 0.72143E-11 0.48037E-12 0.28522E-11 0.60507E-14 0.77917E-10 0.11879E-12 0.17958E-12 0.63366E-13 0.16358E-10
 0.91593E-15 0.10091E-12 0.39829E-13 0.31398E-12 0.11699E-13 0.10425E-12 0.21039E-13 0.43493E-13 0.10308E-12 0.16154E-13
 0.89095E-14 0.20473E-10 0.19193E-12 0.10873E-08 0.33168E-14 0.14525E-11 0.23431E-12 0.71807E-09 0.12856E-12 0.11863E-11
 0.18596E-14 0.30809E-14 0.46491E-14 0.86042E-14 0.62450E-15 0.15266E-14 0.95757E-15 0.41633E-16 0.40246E-15 0.12906E-14
 0.26368E-14 0.19612E-11 0.10063E-12 0.22565E-13 0.14155E-14 0.28430E-12 0.85687E-11 0.23823E-11 0.91011E-13 0.54559E-10
 0.22066E-14 0.75384E-11 0.16735E-12 0.32918E-13 0.58287E-15 0.12490E-15 0.20192E-13 0.43344E-12 0.25785E-13 0.26040E-12
 0.19290E-14 0.34188E-12 0.16515E-14 0.12490E-15 0.90206E-15 0.21455E-13 0.70122E-11 0.90866E-12 0.95882E-13 0.18345E-07
 0.36082E-15 0.44964E-14 0.73552E-15 0.40246E-15 0.44409E-15 0.15821E-14 0.18319E-14 0.15266E-14 0.50515E-14 0.46074E-14
 0.15543E-14 0.22204E-12 0.11810E-13 0.48017E-14 0.28172E-14 0.20082E-11 0.57801E-12 0.10313E-11 0.19429E-13 0.16462E-11
 0.14710E-14 0.72414E-13 0.11519E-12 0.17175E-11 0.34972E-14 0.13495E-12 0.46102E-13 0.19484E-13 0.21066E-13 0.15191E-12
 0.70499E-14 0.58682E-11 0.49366E-12 0.29847E-11 0.23315E-14 0.21898E-11 0.22704E-13 0.26590E-13 0.33001E-13 0.53614E-11
 0.30531E-15 0.88943E-13 0.46393E-13 0.43715E-12 0.79381E-14 0.54262E-13 0.18568E-13 0.20400E-13 0.72636E-13 0.78826E-14
 0.32474E-14 0.20781E-10 0.16270E-12 0.11886E-09 0.12768E-14 0.17665E-11 0.42866E-12 0.12087E-10 0.13820E-12 0.73282E-12
 0.55511E-15 0.15959E-14 0.25119E-14 0.38164E-14 0.36082E-15 0.58287E-15 0.37470E-15 0.69389E-16 0.12490E-15 0.31919E-15
 0.72164E-15 0.10253E-11 0.43049E-13 0.87014E-14 0.94369E-15 0.16258E-12 0.47440E-09 0.25972E-11 0.14942E-12 0.81223E-10
 0.11519E-14 0.15218E-08 0.14798E-12 0.24106E-13 0.39552E-15 0.55511E-16 0.12393E-13 0.24963E-12 0.24536E-13 0.26139E-12
 0.61062E-15 0.21223E-12 0.10963E-14 0.13878E-16 0.58287E-15 0.14877E-13 0.24528E-08 0.10051E-11 0.81352E-13 0.56275E-09
 0.16653E-15 0.34417E-14 0.56899E-15 0.25674E-15 0.36082E-15 0.77716E-15 0.16098E-14 0.12768E-14 0.36915E-14 0.29976E-14
 0.55511E-15 0.10725E-12 0.85071E-14 0.35527E-14 0.21649E-14 0.20518E-11 0.10073E-11 0.38816E-12 0.14544E-13 0.15918E-11
 0.52736E-15 0.38686E-12 0.13503E-12 0.31441E-10 0.33584E-14 0.51575E-12 0.29310E-13 0.62728E-14 0.18624E-13 0.32341E-12
 0.29560E-14 0.48675E-11 0.70387E-12 0.27277E-11 0.11102E-14 0.42957E-12 0.57176E-14 0.91316E-14 0.29476E-13 0.22822E-11
 0.12490E-15 0.10504E-12 0.59674E-13 0.51355E-12 0.66891E-14 0.44742E-13 0.16737E-13 0.14932E-13 0.64004E-13 0.20817E-15
 0.14017E-14 0.43572E-10 0.73067E-13 0.46148E-10 0.66613E-15 0.17672E-11 0.64132E-12 0.28813E-11 0.12662E-12 0.50676E-12
 0.43021E-15 0.10408E-14 0.12768E-14 0.21788E-14 0.15266E-15 0.36082E-15 0.18041E-15 0.69389E-16  0.0000     0.12490E-15
 0.36082E-15 0.62651E-12 0.65226E-15 0.55511E-15 0.56899E-15 0.92225E-13 0.63231E-09 0.25792E-11 0.15279E-12 0.86191E-10
 0.55511E-15 0.84191E-11 0.12267E-12 0.14898E-13 0.29837E-15 0.69389E-17 0.42605E-14 0.87180E-13 0.16376E-13 0.26706E-12
 0.24980E-15 0.11448E-12 0.34694E-15 0.41633E-16 0.29143E-15 0.93814E-14 0.69244E-09 0.10958E-11 0.87458E-13 0.12309E-09
 0.13878E-15 0.28311E-14 0.43021E-15 0.11449E-15 0.12490E-15 0.36082E-15 0.12490E-14 0.97145E-15 0.23870E-14 0.21094E-14
 0.30531E-15 0.48669E-13 0.48017E-14 0.18666E-14 0.17625E-14 0.23919E-11 0.46285E-12 0.88901E-13 0.65503E-14 0.36509E-11
 0.19429E-15 0.74729E-12 0.96277E-13 0.19676E-08 0.26645E-14 0.61226E-12 0.93814E-14 0.20539E-14 0.81324E-14 0.27242E-12
 0.15266E-14 0.40145E-11 0.69267E-12 0.20345E-11 0.55511E-15 0.71831E-13 0.14433E-14 0.33862E-14 0.13822E-13 0.14634E-11
 0.13878E-15 0.82379E-13 0.61895E-13 0.66848E-12 0.49405E-14 0.22704E-13 0.71887E-14 0.63560E-14 0.45686E-13 0.66613E-15
 0.88818E-15 0.73466E-10 0.13059E-13 0.30496E-10 0.33307E-15 0.57467E-11 0.34142E-12 0.15750E-11 0.12397E-12 0.36512E-12
 0.16653E-15 0.68001E-15 0.86042E-15 0.18041E-14 0.97145E-16 0.19429E-15 0.13878E-15 0.12490E-15 0.55511E-16 0.34694E-16
 0.13878E-15 0.38839E-12 0.55650E-14 0.11047E-13 0.38858E-15 0.59720E-13 0.35995E-10 0.24430E-11 0.20807E-12 0.20870E-09
 0.36082E-15 0.23319E-11 0.10292E-12 0.10512E-13 0.13010E-15 -.27756E-16 0.58287E-15 0.20872E-13 0.15141E-13 0.29494E-12
 0.13878E-15 0.62873E-13 0.13184E-15 -.76328E-16 0.23592E-15 0.63144E-14 0.18875E-10 0.11790E-11 0.84655E-13 0.58457E-10
 0.13878E-15 0.21094E-14 0.29490E-15 0.48572E-16 0.62450E-16 0.15266E-15 0.10547E-14 0.80491E-15 0.16376E-14 0.13878E-14
 0.22204E-15 0.25271E-13 0.32682E-14 0.11553E-14 0.13045E-14 0.25837E-11 0.17922E-12 0.38886E-13 0.40523E-14 0.68923E-11
 0.13878E-15 0.46158E-12 0.54366E-13 0.68670E-10 0.23592E-14 0.44267E-12 0.43854E-14 0.11102E-14 0.39413E-14 0.14877E-12
 0.90206E-15 0.33573E-11 0.10961E-11 0.19373E-12 0.30531E-15 0.23120E-13 0.66613E-15 0.17208E-14 0.10159E-13 0.93484E-12
 0.41633E-16 0.89692E-13 0.76633E-13 0.93968E-12 0.38303E-14 0.15488E-13 0.38303E-14 0.34139E-14 0.27034E-13 0.10408E-13
 0.49266E-15 0.73650E-08 0.56205E-15 0.85212E-11 0.16653E-15 0.37304E-10 0.16354E-12 0.92459E-12 0.11355E-12 0.27880E-12
 0.18041E-15 0.41633E-15 0.53429E-15 0.12490E-14 0.10408E-15 0.55511E-16 0.62450E-16 -.20817E-16 0.83267E-16 -.20817E-16
 0.55511E-16 0.21926E-12 0.37526E-13 0.29306E-13 0.27756E-15 0.39229E-13 0.44892E-11 0.25987E-11 0.23197E-12 0.40243E-09
 0.23592E-15 0.11400E-11 0.85876E-13 0.79103E-14 0.60282E-16 -.13878E-16 0.18041E-15 0.43507E-14 0.10519E-13 0.30733E-12
 0.83267E-16 0.34146E-13 0.83267E-16 -.29924E-16 0.18041E-15 0.47193E-14 0.22865E-11 0.12201E-11 0.57704E-13 0.34661E-10
 0.27756E-16 0.17764E-14 0.22291E-15 0.17347E-16 -.60715E-17 0.97145E-16 0.91593E-15 0.52736E-15 0.10270E-14 0.76328E-15
 0.13878E-15 0.12636E-13 0.23731E-14 0.85175E-15 0.11657E-14 0.34900E-11 0.47545E-13 0.17986E-13 0.27478E-14 0.32348E-09
 0.97145E-16 0.14519E-12 0.32436E-13 0.26824E-11 0.19290E-14 0.18099E-12 0.24147E-14 0.36082E-15 0.16931E-14 0.42771E-13
 0.57593E-15 0.28353E-11 0.11743E-11 0.13782E-10 0.41633E-16 0.89928E-14 0.16653E-15 0.94369E-15 0.72303E-14 0.72059E-12
 0.27756E-16 0.74926E-13 0.80810E-13 0.11344E-11 0.31641E-14 0.10297E-13 0.20817E-14 0.17486E-14 0.16154E-13 0.53957E-13
 0.35388E-15 0.16075E-10 0.59980E-13 0.80731E-11 0.69389E-16 0.69386E-11 0.63283E-13 0.68920E-12 0.10227E-12 0.21710E-12
 0.13878E-16 0.38164E-15 0.42327E-15 0.13878E-14 0.20817E-16 0.19429E-15 0.69389E-16 0.76328E-16 0.13878E-16 -.69389E-16
 0.62450E-16 0.13881E-12 0.60001E-13 0.73924E-13 0.27062E-15 0.32332E-13 0.14021E-11 0.31182E-11 0.31841E-12 0.19640E-07
 0.15266E-15 0.79754E-12 0.74538E-13 0.71020E-14 0.11059E-15 0.24286E-16 -.34694E-17 0.35014E-13 0.10783E-13 0.40426E-12
 0.27756E-16 0.15009E-13 -.34694E-17 -.15613E-16 0.11449E-15 0.36854E-14 0.64020E-12 0.13196E-11 0.67599E-13 0.23162E-10
 0.34694E-16 0.16549E-14 0.25674E-15 -.24286E-16 0.86736E-17 0.27756E-16 0.73552E-15 0.58287E-15 0.86042E-15 0.68695E-15
 0.27756E-15 0.93432E-14 0.16202E-14 0.55338E-15 0.11102E-14 0.36977E-11 0.19179E-13 0.98255E-14 0.17070E-14 0.25263E-09
 0.55511E-16 0.42383E-13 0.17861E-13 0.49777E-12 0.17486E-14 0.94189E-13 0.15821E-14 0.26368E-15 0.92981E-15 0.18173E-13
 0.41633E-15 0.23845E-11 0.16593E-11 0.11110E-09 0.97145E-16 0.39413E-14 0.12490E-15 0.54123E-15 0.49197E-14 0.52546E-12
 0.69389E-16 0.96034E-13 0.10142E-12 0.20518E-11 0.26645E-14 0.71887E-14 0.13323E-14 0.10061E-14 0.86597E-14 0.74094E-13
 0.26368E-15 0.43183E-11 0.92593E-13 0.55381E-11 -.27756E-16 0.21734E-11 0.32828E-13 0.49771E-12 0.14683E-12 0.28366E-12
 0.27756E-16 0.35388E-15 0.38858E-15 0.11310E-14 0.34694E-16 0.13184E-15 -.27756E-16 0.41633E-16 0.13878E-16 -.55511E-16
 -.41633E-16 0.51095E-12 0.84273E-13 0.89352E-13 0.11796E-15 0.20026E-13 0.60559E-12 0.33700E-11 0.29964E-12 0.95529E-09
 0.20817E-15 0.69359E-12 0.58252E-13 0.55962E-14 0.11449E-15 0.13878E-16 0.13878E-15 0.14645E-12 0.58842E-14 0.33173E-12
 0.41633E-16 0.37470E-14 0.24286E-16 -.34694E-16 0.69389E-16 0.26229E-14 0.26529E-12 0.13344E-11 0.51126E-13 0.17563E-10
 0.76328E-16 0.13392E-14 0.16653E-15 0.13878E-16 -.69389E-16 0.20817E-16 0.52736E-15 0.41633E-15 0.51348E-15 0.61062E-15
 0.90206E-16 0.34694E-14 0.11380E-14 0.37123E-15 0.84655E-15 0.71579E-11 0.56066E-14 0.50515E-14 0.10478E-14 0.35573E-11
 0.27756E-16 0.19852E-13 0.91385E-14 0.15343E-12 0.13045E-14 0.43680E-13 0.80491E-15 0.13878E-16 0.36082E-15 0.43854E-14
 0.38164E-15 0.20140E-11 0.17487E-11 0.24341E-10 -.27756E-16 0.15543E-14 0.27756E-16 0.33307E-15 0.34694E-14 0.43385E-12
 0.20817E-16 0.60452E-13 0.10273E-12 0.24499E-11 0.20400E-14 0.49474E-14 0.61062E-15 0.30531E-15 0.26715E-14 0.23906E-12
 0.16653E-15 0.34368E-12 0.16502E-11 0.42808E-11 -.48572E-16 0.34860E-12 0.15377E-13 0.41377E-12 0.15096E-12 0.23000E-12
 0.83267E-16 0.47878E-15 0.44409E-15 0.10061E-14 -.27756E-16 0.69389E-16 0.69389E-17 0.12490E-15 0.69389E-16  0.0000    
 0.20817E-16 0.31437E-12 0.93023E-13 0.13910E-12 0.15959E-15 0.17597E-13 0.35272E-12 0.34479E-11 0.56342E-12 0.88793E-10
 0.11102E-15 0.64875E-12 0.60785E-13 0.68834E-14 0.11796E-15 -.69389E-16 0.11102E-15 0.24648E-12 0.58425E-14 0.37845E-12
 0.20817E-16 0.41633E-15 -.27756E-16 -.13878E-16 0.13184E-15 0.28866E-14 0.13604E-12 0.13469E-11 0.57607E-13 0.13649E-10
  0.0000     0.11796E-14 0.13878E-15  0.0000      0.0000     -.41633E-16 0.41633E-15 0.31919E-15 0.56899E-15 0.41633E-15
 0.13184E-15 0.28033E-14 0.99920E-15 0.41633E-15 0.78410E-15 0.83242E-11 0.29490E-14 0.37331E-14 0.11380E-14 0.22273E-11
 0.76328E-16 0.92426E-14 0.60021E-14 0.63227E-13 0.12351E-14 0.26992E-13 0.77022E-15 0.10408E-15 0.34694E-15 0.22413E-14
 0.29837E-15 0.17015E-11 0.22585E-11 0.23980E-10 0.34694E-16 0.10894E-14 0.13878E-15 0.25674E-15 0.31086E-14 0.34108E-12
 0.41633E-16 0.69854E-13 0.12507E-12 0.38497E-11 0.19221E-14 0.41425E-14 0.56205E-15 0.38858E-15 0.17208E-14 0.43011E-12
 0.23592E-15 0.58953E-13 0.43837E-11 0.32378E-11 0.13878E-16 0.22655E-12 0.96867E-14 0.33028E-12 0.19812E-12 0.26888E-12
 0.34694E-16 0.42327E-15 0.36776E-15 0.10686E-14 0.13878E-16 0.13878E-16 -.69389E-17 -.20817E-16 0.34694E-16 -.27756E-16
 0.13878E-16 0.21621E-12 0.95965E-13 0.14252E-12 0.27756E-16 0.12705E-13 0.22572E-12 0.36999E-11 0.83105E-12 0.46437E-10
 0.12490E-15 0.60137E-12 0.60764E-13 0.55164E-14 0.13878E-16 0.69389E-17 0.13878E-15 0.37824E-12 0.40246E-14 0.39806E-12
 0.69389E-16 0.12490E-15 0.20817E-16 0.62450E-16 0.12490E-15 0.24841E-14 0.89123E-13 0.14025E-11 0.45214E-13 0.10635E-10
 -.20817E-16 0.10547E-14 0.12490E-15 -.34694E-16 -.20817E-16 -.69389E-17 0.40246E-15 0.31225E-15 0.36082E-15 0.31225E-15
 -.13878E-16 0.14017E-14 0.67307E-15 0.30531E-15 0.68695E-15 0.19440E-10 0.96451E-15 0.21996E-14 0.52042E-15 0.90733E-12
 0.55511E-16 0.56344E-14 0.38164E-14 0.29685E-13 0.10200E-14 0.16175E-13 0.41633E-15  0.0000     0.16653E-15 0.90206E-15
 0.27062E-15 0.14406E-11 0.24388E-11 0.14378E-08 -.97145E-16 0.48572E-15 -.48572E-16 0.14572E-15 0.21858E-14 0.34805E-12
 0.13878E-16 0.66121E-13 0.15661E-12 0.45915E-11 0.15543E-14 0.29282E-14 0.38164E-15 0.16653E-15 0.56899E-15 0.14171E-11
 0.83267E-16 0.20747E-13 0.99332E-10 0.25719E-11 0.13878E-16 0.11195E-12 0.56413E-14 0.31869E-12 0.20013E-12 0.28719E-12
 0.41633E-16 0.49960E-15 0.39552E-15 0.83267E-15 0.55511E-16 -.34694E-16 -.97145E-16 0.90206E-16 0.62450E-16 -.69389E-17
 0.34694E-16 0.16426E-12 0.95271E-13 0.23298E-12 0.55511E-16 0.10082E-13 0.14412E-12 0.38466E-11 0.10448E-11 0.13538E-10
 0.97145E-16 0.57454E-12 0.65656E-13 0.51903E-14 0.20817E-16 0.69389E-17 0.20123E-15 0.50156E-12 0.21788E-14 0.42603E-12
  0.0000     0.48295E-14  0.0000     0.69389E-16 0.97145E-16 0.25951E-14 0.63560E-13 0.13025E-11 0.38407E-13 0.95198E-11
 -.34694E-16 0.11796E-14 0.13184E-15 0.69389E-17 -.27756E-16 0.27756E-16 0.20817E-15 0.14572E-15 0.24980E-15 0.18735E-15
 0.69389E-17 0.72858E-15 0.61062E-15 0.29143E-15 0.58287E-15 0.43984E-10 0.39552E-15 0.15474E-14 0.51348E-15 0.56179E-12
 0.55511E-16 0.29976E-14 0.25674E-14 0.15377E-13 0.77716E-15 0.10818E-13 0.31919E-15 -.69389E-16 0.76328E-16 0.17347E-15
 0.18735E-15 0.12236E-11 0.26655E-11 0.33542E-10 0.13878E-16 0.26368E-15 -.10408E-15 0.76328E-16 0.17208E-14 0.31612E-12
 0.69389E-16 0.59536E-13 0.17660E-12 0.59696E-11 0.14364E-14 0.23245E-14 0.22898E-15 0.13878E-16 0.36082E-15 0.15944E-10
 0.11796E-15 0.58703E-14 0.11655E-09 0.20623E-11 0.27756E-16 0.65087E-13 0.36152E-14 0.28139E-12 0.22286E-12 0.34034E-12
 -.27756E-16 0.52042E-15 0.44409E-15 0.94369E-15  0.0000     0.48572E-16 -.13878E-16 -.27756E-16 0.13878E-16 0.13878E-16
 0.34694E-16 0.13230E-12 0.85626E-13 0.35152E-12 0.41633E-16 0.83544E-14 0.12067E-12 0.43134E-11 0.16313E-11 0.86229E-11
 0.83267E-16 0.61415E-12 0.68404E-13 0.53707E-14 0.13878E-16 0.41633E-16 0.22204E-15 0.57274E-12 0.21094E-14 0.44137E-12
 0.55511E-16 0.17604E-13 -.69389E-17 0.20817E-16 0.55511E-16 0.24425E-14 0.55053E-13 0.13252E-11 0.44680E-13 0.76313E-11
 -.20817E-16 0.15057E-14 0.11102E-15 0.13878E-16  0.0000     0.34694E-16 0.19429E-15 0.11796E-15 0.27756E-15 0.21511E-15
 0.27756E-16 0.47878E-15 0.43715E-15 0.18041E-15 0.49960E-15 0.25059E-09 0.21511E-15 0.12074E-14 0.41980E-15 0.36320E-12
 0.41633E-16 0.20053E-14 0.18249E-14 0.92149E-14 0.54817E-15 0.75842E-14 0.29143E-15 -.76328E-16 0.12490E-15 0.27062E-15
 0.28449E-15 0.10514E-11 0.53379E-11 0.92105E-10 -.55511E-16 0.16306E-15  0.0000     0.34694E-16 0.14849E-14 0.34037E-12
 0.76328E-16 0.58245E-13 0.27360E-12 0.81712E-11 0.12074E-14 0.19706E-14 0.19776E-15 0.24286E-16 0.11102E-15 0.20750E-09
 0.13184E-15 0.11782E-13 0.17905E-10 0.16759E-11 0.41633E-16 0.44360E-13 0.26437E-14 0.30848E-12 0.26561E-12 0.35960E-12
 -.55511E-16 0.58287E-15 0.36776E-15 0.77022E-15 0.20817E-16 -.69389E-16 -.69389E-16 0.83267E-16 -.34694E-16 0.13878E-16
 0.27756E-16 0.10685E-12 0.79138E-13 0.31158E-12 0.55511E-16 0.59189E-14 0.88568E-13 0.47003E-11 0.16756E-11 0.39793E-11
 0.55511E-16 0.65566E-12 0.62776E-13 0.39205E-14 0.13878E-16 0.41633E-16 0.27062E-15 0.65824E-12 0.52736E-15 0.37214E-12
 -.83267E-16 0.23523E-13 0.27756E-16 -.55511E-16 0.55511E-16 0.18735E-14 0.43465E-13 0.12447E-11 0.33890E-13 0.70518E-11
 -.13878E-16 0.92287E-15 0.69389E-16 0.20817E-16 -.62450E-16 0.13878E-16 0.62450E-16 0.13878E-15 0.97145E-16 0.93675E-16
 -.97145E-16 0.34694E-16 0.33307E-15 0.12490E-15 0.31919E-15 0.20467E-09 -.93675E-16 0.64705E-15 0.40246E-15 0.22332E-12
 0.48572E-16 0.14017E-14 0.11033E-14 0.56691E-14 0.46491E-15 0.51972E-14 -.53776E-16 -.12490E-15 -.11970E-15 0.13184E-15
 0.15266E-15 0.92677E-12 0.76613E-11 0.52163E-10 -.41633E-16 -.69389E-16 -.90206E-16 0.14138E-15 0.10825E-14 0.34397E-12
 0.83267E-16 0.42050E-13 0.26509E-12 0.92539E-11 0.11761E-14 0.12837E-14 0.27756E-16 -.41633E-16 0.21858E-15 0.52183E-11
 0.10408E-15 0.25854E-13 0.60005E-11 0.13776E-11 -.55511E-16 0.24383E-13 0.14294E-14 0.31150E-12 0.27620E-12 0.36057E-12
 0.83267E-16 0.60368E-15 0.48572E-15 0.81879E-15 0.11102E-15 -.27756E-16 -.20817E-16  0.0000     -.69389E-17 0.69389E-17
 0.41633E-16 0.94272E-13 0.72636E-13 0.58296E-12 0.13878E-16 0.56552E-14 0.60507E-13 0.46212E-11 0.26526E-11 0.39129E-11
 0.13878E-15 0.62873E-12 0.61846E-13 0.50515E-14 -.41633E-16 0.48572E-16 0.24980E-15 0.79271E-12 0.65226E-15 0.38980E-12
 0.27756E-16 0.68334E-13 0.83267E-16 0.55511E-16 0.62450E-16 0.23315E-14 0.30760E-13 0.14277E-11 0.31135E-13 0.58371E-11
 0.11102E-15 0.14919E-14 0.13878E-15 0.48572E-16 0.41633E-16 0.83267E-16 0.12490E-15 0.19429E-15 0.18735E-15 0.20123E-15
 -.27756E-16 0.48572E-16 0.36776E-15 0.22204E-15 0.54817E-15 0.54778E-10  0.0000     0.61583E-15 0.34694E-15 0.26863E-12
 0.48572E-16 0.86042E-15 0.88818E-15 0.33723E-14 0.35388E-15 0.61340E-14 0.14398E-15  0.0000     0.60715E-16 0.85001E-16
 0.13878E-15 0.77036E-12 0.73854E-11 0.11221E-09 0.55511E-16 0.25153E-16  0.0000     0.16393E-15 0.10061E-14 0.39712E-12
 0.11796E-15 0.47629E-13 0.40849E-12 0.11488E-10 0.12455E-14 0.14294E-14 0.19906E-15 0.11796E-15 0.45450E-15 0.18843E-11
 0.62450E-16 0.20442E-13 0.44880E-11 0.11544E-11 0.52042E-16 0.26193E-13 0.13080E-14 0.36065E-12 0.30155E-12 0.41651E-12
 0.27756E-16 0.59674E-15 0.48572E-15 0.86042E-15 -.41633E-16 -.13878E-16 -.76328E-16 0.97145E-16 -.62450E-16 0.55511E-16
 0.20817E-16 0.79367E-13 0.65149E-13 0.52177E-12 -.69389E-17 0.43160E-14 0.64733E-13 0.49741E-11 0.35415E-11 0.20311E-11
 0.41633E-16 0.69156E-12 0.82129E-13 0.50099E-14 -.13878E-16  0.0000     0.12490E-15 0.81860E-12 0.97145E-16 0.36562E-12
 -.55511E-16 0.69993E-13 0.27756E-16 -.27756E-16 0.83267E-16 0.24980E-14 0.35250E-13 0.15862E-11 0.30649E-13 0.52223E-11
  0.0000     0.13878E-14 0.11102E-15 0.69389E-16  0.0000     -.41633E-16 0.27756E-16 0.11102E-15 0.79797E-16 0.19429E-15
 -.27756E-16 0.27756E-16 0.23592E-15 0.19429E-15 0.44409E-15 0.18998E-10 0.55511E-16 0.47531E-15 0.27756E-15 0.17819E-12
 0.34694E-16 0.71471E-15 0.83267E-15 0.25535E-14 0.27062E-15 0.45519E-14 -.10061E-15 0.55511E-16 -.14919E-15 0.76328E-16
 0.18041E-15 0.67454E-12 0.16662E-10 0.16871E-09 -.90206E-16 -.22551E-16 -.19429E-15 -.17347E-16 0.74940E-15 0.39348E-12
 -.69389E-17 0.42313E-13 0.44775E-12 0.13349E-10 0.16653E-14 0.11935E-14 -.22204E-15 0.97145E-16 0.23245E-15 0.93915E-12
 0.11102E-15 0.29005E-13 0.32025E-11 0.97347E-12 -.11102E-15 0.14003E-13 0.73205E-15 0.36114E-12 0.34663E-12 0.45926E-12
 0.27756E-16 0.68001E-15 0.55511E-15 0.91593E-15 -.27756E-16 0.41633E-16 -.11102E-15  0.0000     -.11102E-15  0.0000    
 0.83267E-16 0.69944E-13 0.58099E-13 0.63022E-12 0.69389E-17 0.35250E-14 0.55109E-13 0.50454E-11 0.43866E-11 0.18955E-11
 0.97145E-16 0.68350E-12 0.67557E-13 0.43784E-14 -.27756E-16 0.41633E-16 0.16653E-15 0.87448E-12 0.19429E-15 0.35436E-12
 0.12490E-15 0.87375E-13 0.55511E-16 0.55511E-16 -.41633E-16 0.22343E-14 0.30947E-13 0.19379E-11 0.31114E-13 0.43939E-11
 -.27756E-16 0.16029E-14 0.27756E-16 0.13878E-16 -.27756E-16 0.11102E-15 0.69389E-16 0.19429E-15 0.16653E-15 0.11102E-15
 0.27756E-16 -.55511E-16 0.16653E-15 0.12490E-15 0.52736E-15 0.60931E-11 0.55511E-16 0.50654E-15 0.16653E-15 0.21488E-12
 0.55511E-16 0.49266E-15 0.52736E-15 0.18596E-14 0.29143E-15 0.51070E-14 0.32960E-15 0.11102E-15 -.13878E-16 0.83267E-16
 0.19429E-15 0.57382E-12 0.28280E-10 0.10853E-07 0.41633E-16 -.27756E-16 0.97145E-16  0.0000     0.86042E-15 0.41760E-12
 0.55511E-16 0.38136E-13 0.68257E-12 0.17144E-10 0.16168E-14 0.15127E-14 0.72858E-16 -.27756E-16 0.54123E-15 0.64310E-12
 0.11102E-15 0.18888E-13 0.28524E-11 0.81232E-12  0.0000     0.12393E-13 0.72164E-15 0.37892E-12 0.38930E-12 0.51822E-12
 -.27756E-16 0.83267E-15 0.48572E-15 0.80491E-15 -.11102E-15 -.27756E-16 -.83267E-16 0.13878E-16 -.55511E-16 -.55511E-16
 0.55511E-16 0.60743E-13 0.52292E-13 0.75762E-12 0.34694E-16 0.30254E-14 0.49807E-13 0.54625E-11 0.46280E-11 0.17649E-11
  0.0000     0.73785E-12 0.81712E-13 0.44409E-14  0.0000     0.41633E-16 0.16653E-15 0.90379E-12 -.97145E-16 0.28076E-12
 -.55511E-16 0.11119E-12 0.27756E-16  0.0000     0.83267E-16 0.23315E-14 0.29240E-13 0.20289E-11 0.23453E-13 0.40060E-11
 0.27756E-16 0.14572E-14 0.97145E-16 0.41633E-16 0.13878E-16 0.13878E-16  0.0000     0.16653E-15 0.97145E-16 0.11102E-15
 -.12490E-15 0.55511E-16 0.15266E-15 0.11102E-15 0.43021E-15 0.46382E-11 0.27756E-16 0.30531E-15 0.69389E-16 0.19883E-12
 0.27756E-16 0.44409E-15 0.45797E-15 0.12490E-14 0.16653E-15 0.43299E-14 0.69389E-16 -.83267E-16 -.11102E-15 0.55511E-16
 0.97145E-16 0.50530E-12 0.70835E-10 0.20023E-08 -.11102E-15 -.11102E-15 -.69389E-16 -.41633E-16 0.88818E-15 0.45303E-12
 -.27756E-16 0.31600E-13 0.63929E-12 0.18642E-10 0.15404E-14 0.99920E-15 -.24980E-15 -.27756E-16 0.59674E-15 0.39810E-12
 0.11102E-15 0.85348E-14 0.21789E-11 0.69009E-12 -.83267E-16 0.90067E-14 0.41633E-15 0.41370E-12 0.39381E-12 0.55929E-12
 0.13878E-16 0.98532E-15 0.65226E-15 0.97145E-15 -.13878E-16 0.13878E-16 -.27756E-16 -.41633E-16 -.55511E-16 0.55511E-16
 0.83267E-16 0.54720E-13 0.46338E-13 0.53410E-12 0.13878E-16 0.26923E-14 0.52000E-13 0.58795E-11 0.57885E-11 0.13706E-11
 0.83267E-16 0.81167E-12 0.77355E-13 0.48572E-14 0.13878E-16 0.27756E-16 0.18041E-15 0.90088E-12 0.11102E-15 0.25004E-12
 0.27756E-16 0.79575E-13 0.27756E-16 0.13878E-16 0.27756E-16 0.25951E-14 0.31655E-13 0.27477E-11 0.24952E-13 0.33038E-11
 0.55511E-16 0.18319E-14 0.12490E-15 0.69389E-16 -.27756E-16 0.41633E-16  0.0000     0.55511E-16 0.12490E-15 0.97145E-16
  0.0000     0.27756E-16 0.16653E-15 0.16653E-15 0.65226E-15 0.19633E-11 -.27756E-16 0.19429E-15 0.19429E-15 0.22447E-12
 0.13878E-16 0.37470E-15 0.36082E-15 0.10963E-14 0.11102E-15 0.50931E-14 0.13878E-15 0.27756E-16 -.13878E-15  0.0000    
 0.19429E-15 0.43979E-12 0.78444E-09 0.79095E-10 0.13878E-16 -.55511E-16 0.41633E-16 -.41633E-16 0.98532E-15 0.47899E-12
 0.13878E-16 0.28172E-13 0.10605E-11 0.22305E-10 0.20539E-14 0.13739E-14 0.27756E-16 0.27756E-16 0.58287E-15 0.34160E-12
 0.83267E-16 0.82850E-14 0.22932E-11 0.59026E-12 0.55511E-16 0.82157E-14 0.52736E-15 0.43751E-12 0.46396E-12 0.59272E-12
 -.20817E-16 0.10686E-14 0.65226E-15 0.91593E-15  0.0000      0.0000     -.55511E-16 0.13878E-16 0.27756E-16 -.27756E-16
 0.41633E-16 0.49113E-13 0.41370E-13 0.10658E-11  0.0000     0.21927E-14 0.46962E-13 0.58017E-11 0.69127E-11 0.10712E-11
 0.41633E-16 0.82964E-12 0.91677E-13 0.45935E-14 -.83267E-16 0.97145E-16 0.83267E-16 0.92712E-12 0.13878E-16 0.20926E-12
 0.41633E-16 0.18203E-12 0.27756E-16 -.13878E-16 0.55511E-16 0.22482E-14 0.29560E-13 0.26702E-11 0.19595E-13 0.29172E-11
 -.13878E-16 0.18457E-14  0.0000     0.27756E-16 0.27756E-16 -.13878E-16 0.41633E-16 0.11102E-15 0.12490E-15 0.11102E-15
 -.69389E-16 0.83267E-16 0.13878E-15 0.55511E-16 0.55511E-15 0.20108E-11 -.13878E-16 0.24980E-15 0.15266E-15 0.21852E-12
 0.41633E-16 0.31919E-15 0.27756E-15 0.80491E-15 0.16653E-15 0.47740E-14 0.13878E-15 -.27756E-16 0.41633E-16 0.83267E-16
 0.15266E-15 0.37738E-12 0.19196E-08 0.28528E-09 0.13878E-16 0.55511E-16 0.27756E-16 0.11102E-15 0.10825E-14 0.49431E-12
 0.13878E-16 0.26604E-13 0.10728E-11 0.22496E-10 0.21927E-14 0.13600E-14  0.0000      0.0000     0.59674E-15 0.26328E-12
 0.11102E-15 0.49197E-14 0.21445E-11 0.50659E-12 -.27756E-16 0.64532E-14 0.30531E-15 0.46708E-12 0.47931E-12 0.68079E-12
 -.41633E-16 0.10859E-14 0.60368E-15 0.97145E-15 -.69389E-16 0.27756E-16 -.97145E-16 -.27756E-16 -.20817E-16 0.48572E-16
 0.52042E-16 0.45262E-13 0.36832E-13 0.55729E-12 -.27756E-16 0.21927E-14 0.47892E-13 0.63219E-11 0.71767E-11 0.85275E-12
 0.55511E-16 0.90455E-12 0.10002E-12 0.65503E-14 -.41633E-16 0.13878E-16 0.97145E-16 0.92011E-12 -.13878E-16 0.16737E-12
 0.55511E-16 0.99129E-13 0.41633E-16 0.55511E-16  0.0000     0.37609E-14 0.31586E-13 0.32553E-11 0.15044E-13 0.24998E-11
  0.0000     0.22066E-14 0.12490E-15 0.55511E-16  0.0000     0.13878E-16 0.13878E-16 0.55511E-16 0.41633E-16 0.55511E-16
 -.13878E-16 0.11102E-15 0.41633E-16 0.97145E-16 0.86042E-15 0.10432E-11 -.13878E-15 0.24980E-15 0.83267E-16 0.24963E-12
 -.27756E-16 0.36082E-15 0.26368E-15 0.68001E-15 0.97145E-16 0.54817E-14 0.18041E-15  0.0000     -.41633E-16 0.13878E-15
 0.15266E-15 0.33162E-12 0.23220E-09 0.76293E-10 -.83267E-16  0.0000     -.12490E-15 0.55511E-16 0.13461E-14 0.54386E-12
 0.55511E-16 0.21740E-13 0.11664E-11 0.23879E-10 0.27062E-14 0.18180E-14 0.27756E-16 -.16653E-15 0.54123E-15 0.21308E-12
 0.10755E-15 0.46282E-14 0.24738E-11 0.43542E-12 0.27756E-16 0.58703E-14 0.33307E-15 0.51667E-12 0.51049E-12 0.72444E-12
 -.76328E-16 0.10651E-14 0.90553E-15 0.11102E-14  0.0000      0.0000     -.97145E-16 0.27756E-16 0.13878E-16 -.22551E-16
 -.69389E-17 0.42022E-13 0.32641E-13 0.21251E-12 0.27756E-16 0.27756E-14 0.52208E-13 0.72364E-11 0.85250E-11 0.63281E-12
 0.97145E-16 0.10166E-11 0.11435E-12 0.59119E-14  0.0000     0.41633E-16 0.69389E-16 0.86588E-12 0.65919E-16 0.14409E-12
 0.13878E-16 0.52042E-13 0.27756E-16 -.41633E-16 0.11102E-15 0.32474E-14 0.34958E-13 0.40800E-11 0.22690E-13 0.22138E-11
 0.13878E-16 0.27200E-14 0.11102E-15 0.27756E-16 0.41633E-16 0.83267E-16 0.27756E-16 0.97145E-16 0.27756E-16 0.55511E-16
 0.13878E-16 -.13878E-16 0.97145E-16 0.97145E-16 0.10825E-14 0.20917E-11 0.97145E-16 0.20817E-15 0.97145E-16 0.34582E-12
 0.41633E-16 0.27756E-15 0.24980E-15 0.62450E-15 0.20817E-15 0.68001E-14 0.23592E-15 0.27756E-16 -.97145E-16 0.55511E-16
 0.20817E-15 0.29560E-12 0.38912E-10 0.18627E-10 -.11102E-15 0.41633E-16 0.27756E-16 0.12490E-15 0.14988E-14 0.64472E-12
 0.38164E-16 0.21119E-13 0.17281E-11 0.30547E-10 0.33307E-14 0.17070E-14 0.27756E-16 -.13878E-16 0.38858E-15 0.21470E-12
 0.15959E-15 0.27547E-14 0.29503E-11 0.36913E-12  0.0000     0.64393E-14 0.29143E-15 0.60750E-12 0.62772E-12 0.89170E-12
 0.12143E-16 0.13459E-14 0.90433E-15 0.12221E-14 0.65919E-16 -.86736E-18 -.12251E-16 -.75027E-16 -.41986E-16 0.24456E-16
 0.33583E-16 0.40185E-13 0.28793E-13 0.12689E-12 -.19082E-16 0.31789E-14 0.67536E-13 0.77407E-11 0.96692E-11 0.57151E-12
 0.92970E-16 0.11486E-11 0.14259E-12 0.84179E-14 -.33827E-16 0.19949E-16 0.23419E-16 0.84342E-12 0.65079E-16 0.10444E-12
 0.63317E-16 0.38463E-13 0.10706E-16 0.10408E-16 0.98012E-16 0.48208E-14 0.47812E-13 0.49390E-11 0.20046E-13 0.24428E-11