 vasp.5.4.4.18Apr17-6-g9f103f2a35 (build Jun 30 2017 11:15:00) complex          
  
 executed on    STALLO_VASP_5.4.4 date 2019.10.11  10:35:31
 running on    4 total cores
 distrk:  each k-point on    4 cores,    1 groups
 distr:  one band on NCORES_PER_BAND=   2 cores,    2 groups


--------------------------------------------------------------------------------------------------------


 INCAR:
 POTCAR:   PAW_PBE Cu 05Jan2001                   
 POTCAR:   PAW_PBE H 15Jun2001                    
 POTCAR:   PAW_PBE Cu 05Jan2001                   
   VRHFIN =Cu: d10 p1                                                           
   LEXCH  = PE                                                                  
   EATOM  =  1390.9800 eV,  102.2341 Ry                                         
                                                                                
   TITEL  = PAW_PBE Cu 05Jan2001                                                
   LULTRA =        F    use ultrasoft PP ?                                      
   IUNSCR =        1    unscreen: 0-lin 1-nonlin 2-no                           
   RPACOR =    2.000    partial core radius                                     
   POMASS =   63.546; ZVAL   =   11.000    mass and valenz                      
   RCORE  =    2.300    outmost cutoff radius                                   
   RWIGS  =    2.480; RWIGS  =    1.312    wigner-seitz radius (au A)           
   ENMAX  =  273.214; ENMIN  =  204.910 eV                                      
   RCLOC  =    1.712    cutoff for local pot                                    
   LCOR   =        T    correct aug charges                                     
   LPAW   =        T    paw PP                                                  
   EAUG   =  516.456                                                            
   DEXC   =    -.008                                                            
   RMAX   =    2.789    core radius for proj-oper                               
   RAUG   =    1.300    factor for augmentation sphere                          
   RDEP   =    2.302    radius for radial grids                                 
   QCUT   =   -4.481; QGAM   =    8.962    optimization parameters              
                                                                                
   Description                                                                  
     l     E      TYP  RCUT    TYP  RCUT                                        
     2   .000     23  2.300                                                     
     2   .000     23  2.300                                                     
     0   .000     23  2.300                                                     
     0   .000     23  2.300                                                     
     1  -.200     23  2.300                                                     
     1   .000     23  2.300                                                     
     3   .000      7   .000                                                     
  local pseudopotential read in
  partial core-charges read in
  atomic valenz-charges read in
  non local Contribution for L=           2  read in
    real space projection operators read in
  non local Contribution for L=           2  read in
    real space projection operators read in
  non local Contribution for L=           0  read in
    real space projection operators read in
  non local Contribution for L=           0  read in
    real space projection operators read in
  non local Contribution for L=           1  read in
    real space projection operators read in
  non local Contribution for L=           1  read in
    real space projection operators read in
    PAW grid and wavefunctions read in
 
   number of l-projection  operators is LMAX  =           6
   number of lm-projection operators is LMMAX =          18
 
 POTCAR:   PAW_PBE H 15Jun2001                    
   VRHFIN =H: ultrasoft test                                                    
   LEXCH  = PE                                                                  
   EATOM  =    12.4884 eV,     .9179 Ry                                         
                                                                                
   TITEL  = PAW_PBE H 15Jun2001                                                 
   LULTRA =        F    use ultrasoft PP ?                                      
   IUNSCR =        0    unscreen: 0-lin 1-nonlin 2-no                           
   RPACOR =     .000    partial core radius                                     
   POMASS =    1.000; ZVAL   =    1.000    mass and valenz                      
   RCORE  =    1.100    outmost cutoff radius                                   
   RWIGS  =     .700; RWIGS  =     .370    wigner-seitz radius (au A)           
   ENMAX  =  250.000; ENMIN  =  200.000 eV                                      
   RCLOC  =     .701    cutoff for local pot                                    
   LCOR   =        T    correct aug charges                                     
   LPAW   =        T    paw PP                                                  
   EAUG   =  400.000                                                            
   RMAX   =    2.174    core radius for proj-oper                               
   RAUG   =    1.200    factor for augmentation sphere                          
   RDEP   =    1.112    radius for radial grids                                 
   QCUT   =   -5.749; QGAM   =   11.498    optimization parameters              
                                                                                
   Description                                                                  
     l     E      TYP  RCUT    TYP  RCUT                                        
     0   .000     23  1.100                                                     
     0   .500     23  1.100                                                     
     1  -.300     23  1.100                                                     
  local pseudopotential read in
  atomic valenz-charges read in
  non local Contribution for L=           0  read in
    real space projection operators read in
  non local Contribution for L=           0  read in
    real space projection operators read in
  non local Contribution for L=           1  read in
    real space projection operators read in
    PAW grid and wavefunctions read in
 
   number of l-projection  operators is LMAX  =           3
   number of lm-projection operators is LMMAX =           5
 

 ----------------------------------------------------------------------------- 
|                                                                             |
|  ADVICE TO THIS USER RUNNING 'VASP/VAMP'   (HEAR YOUR MASTER'S VOICE ...):  |
|                                                                             |
|      You have a (more or less) 'small supercell' and for smaller cells      |
|      it is recommended  to use the reciprocal-space projection scheme!      |
|      The real space optimization is not  efficient for small cells and it   |
|      is also less accurate ...                                              |
|      Therefore set LREAL=.FALSE. in the  INCAR file                         |
|                                                                             |
 ----------------------------------------------------------------------------- 

 Optimization of the real space projectors (new method)

 maximal supplied QI-value         = 16.25
 optimisation between [QCUT,QGAM] = [  7.96, 16.09] = [ 17.76, 72.49] Ry 
 Optimized for a Real-space Cutoff    1.70 Angstroem

   l    n(q)    QCUT    max X(q) W(low)/X(q) W(high)/X(q)  e(spline) 
   2      7     7.963     4.977    0.65E-04    0.90E-04    0.59E-07
   2      7     7.963    13.467    0.48E-03    0.73E-03    0.12E-06
   0      8     7.963    13.303    0.22E-04    0.12E-04    0.51E-08
   0      8     7.963    44.613    0.10E-03    0.16E-03    0.47E-07
   1      8     7.963     5.276    0.66E-04    0.10E-04    0.22E-07
   1      8     7.963     7.322    0.38E-03    0.18E-03    0.17E-06
 Optimization of the real space projectors (new method)

 maximal supplied QI-value         = 34.20
 optimisation between [QCUT,QGAM] = [  7.87, 16.08] = [ 17.33, 72.37] Ry 
 Optimized for a Real-space Cutoff    1.85 Angstroem

   l    n(q)    QCUT    max X(q) W(low)/X(q) W(high)/X(q)  e(spline) 
   0      9     7.867     4.436    0.44E-04    0.71E-04    0.23E-06
   0      9     7.867    15.341    0.29E-03    0.73E-03    0.99E-06
   1      8     7.867     4.196    0.27E-03    0.13E-02    0.91E-06
 PAW_PBE Cu 05Jan2001                   :
 energy of atom  1       EATOM=-1390.9800
 kinetic energy error for atom=    0.0930 (will be added to EATOM!!)
 PAW_PBE H 15Jun2001                    :
 energy of atom  2       EATOM=  -12.4884
 kinetic energy error for atom=    0.0868 (will be added to EATOM!!)
 
 
 POSCAR: Cu  H                                   
  positions in cartesian coordinates
  velocities in cartesian coordinates
 exchange correlation table for  LEXCH =        8
   RHO(1)=    0.500       N(1)  =     2000
   RHO(2)=  100.500       N(2)  =     4000
 


--------------------------------------------------------------------------------------------------------


 ion  position               nearest neighbor table
   1  0.000  0.000  0.396-   2 2.57   2 2.57   2 2.57
   2  0.333  0.333  0.465-   3 2.57   1 2.57   3 2.57   1 2.57   3 2.57   1 2.57
   3  0.667  0.667  0.535-   4 2.57   2 2.57   2 2.57   4 2.57   2 2.57   4 2.57
   4  0.000  0.000  0.604-   5 1.71   5 1.83   5 1.83   3 2.57   3 2.57   3 2.57
   5  0.689  0.622  0.637-   4 1.71   4 1.83   4 1.83
 
  LATTYP: Found a hexagonal cell.
 ALAT       =     2.5738686835
 C/A-ratio  =    11.7739747694
  
  Lattice vectors:
  
 A1 = (   1.2869343418,  -2.2290356659,   0.0000000000)
 A2 = (  -2.5738686835,   0.0000000000,   0.0000000000)
 A3 = (   0.0000000000,   0.0000000000, -30.3046649396)


Analysis of symmetry for initial positions (statically):
=====================================================================
 Subroutine PRICEL returns:
 Original cell was already a primitive cell.
 

 Routine SETGRP: Setting up the symmetry group for a 
 hexagonal supercell.


 Subroutine GETGRP returns: Found  2 space group operations
 (whereof  2 operations were pure point group operations)
 out of a pool of 24 trial point group operations.


The static configuration has the point symmetry C_1h.


Analysis of symmetry for dynamics (positions and initial velocities):
=====================================================================
 Subroutine PRICEL returns:
 Original cell was already a primitive cell.
 

 Routine SETGRP: Setting up the symmetry group for a 
 hexagonal supercell.


 Subroutine GETGRP returns: Found  2 space group operations
 (whereof  2 operations were pure point group operations)
 out of a pool of 24 trial point group operations.


The dynamic configuration has the point symmetry C_1h.


 Subroutine INISYM returns: Found  2 space group operations
 (whereof  2 operations are pure point group operations),
 and found     1 'primitive' translations

 
 
 KPOINTS: k-density: 4.0                          

Automatic generation of k-mesh.
Space group operators:
 irot       det(A)        alpha          n_x          n_y          n_z        tau_x        tau_y        tau_z
    1     1.000000     0.000001     1.000000     0.000000     0.000000     0.000000     0.000000     0.000000
    2    -1.000000   180.000000     1.000000     0.000000     0.000000     0.000000     0.000000     0.000000
 
 Subroutine IBZKPT returns following result:
 ===========================================
 
 Found     31 irreducible k-points:
 
 Following reciprocal coordinates:
            Coordinates               Weight
  0.000000  0.000000  0.000000      1.000000
  0.100000  0.000000  0.000000      4.000000
  0.200000 -0.000000  0.000000      4.000000
  0.300000 -0.000000  0.000000      4.000000
  0.400000 -0.000000  0.000000      4.000000
  0.500000 -0.000000  0.000000      2.000000
  0.000000  0.100000  0.000000      2.000000
  0.200000  0.100000  0.000000      2.000000
  0.300000  0.100000  0.000000      4.000000
  0.400000  0.100000  0.000000      4.000000
  0.500000  0.100000  0.000000      4.000000
 -0.400000  0.100000  0.000000      4.000000
 -0.300000  0.100000  0.000000      4.000000
 -0.200000  0.100000  0.000000      4.000000
 -0.100000  0.100000  0.000000      4.000000
  0.000000  0.200000  0.000000      2.000000
  0.400000  0.200000  0.000000      2.000000
  0.500000  0.200000  0.000000      4.000000
 -0.400000  0.200000  0.000000      4.000000
 -0.300000  0.200000  0.000000      4.000000
 -0.200000  0.200000  0.000000      4.000000
 -0.100000  0.200000  0.000000      4.000000
  0.000000  0.300000  0.000000      2.000000
 -0.400000  0.300000  0.000000      2.000000
 -0.300000  0.300000  0.000000      4.000000
 -0.200000  0.300000  0.000000      4.000000
 -0.100000  0.300000  0.000000      4.000000
  0.000000  0.400000  0.000000      2.000000
 -0.200000  0.400000  0.000000      2.000000
 -0.100000  0.400000  0.000000      4.000000
  0.000000  0.500000  0.000000      1.000000
 
 Following cartesian coordinates:
            Coordinates               Weight
  0.000000  0.000000  0.000000      1.000000
  0.038852 -0.022431  0.000000      4.000000
  0.077704 -0.044862  0.000000      4.000000
  0.116556 -0.067294  0.000000      4.000000
  0.155408 -0.089725  0.000000      4.000000
  0.194260 -0.112156  0.000000      2.000000
  0.000000  0.044862  0.000000      2.000000
  0.077704 -0.000000  0.000000      2.000000
  0.116556 -0.022431  0.000000      4.000000
  0.155408 -0.044862  0.000000      4.000000
  0.194260 -0.067294  0.000000      4.000000
 -0.155408  0.134587  0.000000      4.000000
 -0.116556  0.112156  0.000000      4.000000
 -0.077704  0.089725  0.000000      4.000000
 -0.038852  0.067294  0.000000      4.000000
  0.000000  0.089725  0.000000      2.000000
  0.155408  0.000000  0.000000      2.000000
  0.194260 -0.022431  0.000000      4.000000
 -0.155408  0.179450  0.000000      4.000000
 -0.116556  0.157019  0.000000      4.000000
 -0.077704  0.134587  0.000000      4.000000
 -0.038852  0.112156  0.000000      4.000000
  0.000000  0.134587  0.000000      2.000000
 -0.155408  0.224312  0.000000      2.000000
 -0.116556  0.201881  0.000000      4.000000
 -0.077704  0.179450  0.000000      4.000000
 -0.038852  0.157019  0.000000      4.000000
  0.000000  0.179450  0.000000      2.000000
 -0.077704  0.224312  0.000000      2.000000
 -0.038852  0.201881  0.000000      4.000000
  0.000000  0.224312  0.000000      1.000000
 


--------------------------------------------------------------------------------------------------------




 Dimension of arrays:
   k-points           NKPTS =     31   k-points in BZ     NKDIM =     31   number of bands    NBANDS=     28
   number of dos      NEDOS =   2401   number of ions     NIONS =      5
   non local maximal  LDIM  =      6   non local SUM 2l+1 LMDIM =     18
   total plane-waves  NPLWV =  12000
   max r-space proj   IRMAX =   1888   max aug-charges    IRDMAX=   2622
   dimension x,y,z NGX =    10 NGY =   10 NGZ =  120
   dimension x,y,z NGXF=    20 NGYF=   20 NGZF=  240
   support grid    NGXF=    20 NGYF=   20 NGZF=  240
   ions per type =               4   1
   NGX,Y,Z   is equivalent  to a cutoff of   6.46,  6.46,  6.58 a.u.
   NGXF,Y,Z  is equivalent  to a cutoff of  12.92, 12.92, 13.17 a.u.

 SYSTEM =  unknown system                          
 POSCAR =  Cu  H                                   

 Startparameter for this run:
   NWRITE =      2    write-flag & timer
   PREC   = normal    normal or accurate (medium, high low for compatibility)
   ISTART =      0    job   : 0-new  1-cont  2-samecut
   ICHARG =      2    charge: 1-file 2-atom 10-const
   ISPIN  =      1    spin polarized calculation?
   LNONCOLLINEAR =      F non collinear calculations
   LSORBIT =      F    spin-orbit coupling
   INIWAV =      1    electr: 0-lowe 1-rand  2-diag
   LASPH  =      F    aspherical Exc in radial PAW
   METAGGA=      F    non-selfconsistent MetaGGA calc.

 Electronic Relaxation 1
   ENCUT  =  250.0 eV  18.37 Ry    4.29 a.u.   3.32  3.32 39.07*2*pi/ulx,y,z
   ENINI  =  250.0     initial cutoff
   ENAUG  =  516.5 eV  augmentation charge cutoff
   NELM   =     60;   NELMIN=  4; NELMDL= -5     # of ELM steps 
   EDIFF  = 0.1E-05   stopping-criterion for ELM
   LREAL  =      T    real-space projection
   NLSPLINE    = F    spline interpolate recip. space projectors
   LCOMPAT=      F    compatible to vasp.4.4
   GGA_COMPAT  = T    GGA compatible to vasp.4.4-vasp.4.6
   LMAXPAW     = -100 max onsite density
   LMAXMIX     =    2 max onsite mixed and CHGCAR
   VOSKOWN=      0    Vosko Wilk Nusair interpolation
   ROPT   =   -0.00050  -0.00050
 Ionic relaxation
   EDIFFG = 0.1E-04   stopping-criterion for IOM
   NSW    =      0    number of steps for IOM
   NBLOCK =      1;   KBLOCK =      1    inner block; outer block 
   IBRION =     -1    ionic relax: 0-MD 1-quasi-New 2-CG
   NFREE  =      0    steps in history (QN), initial steepest desc. (CG)
   ISIF   =      2    stress and relaxation
   IWAVPR =     10    prediction:  0-non 1-charg 2-wave 3-comb
   ISYM   =      2    0-nonsym 1-usesym 2-fastsym
   LCORR  =      T    Harris-Foulkes like correction to forces

   POTIM  = 0.5000    time-step for ionic-motion
   TEIN   =    0.0    initial temperature
   TEBEG  =    0.0;   TEEND  =   0.0 temperature during run
   SMASS  =  -3.00    Nose mass-parameter (am)
   estimated Nose-frequenzy (Omega)   =  0.10E-29 period in steps =****** mass=  -0.151E-27a.u.
   SCALEE = 1.0000    scale energy and forces
   NPACO  =    256;   APACO  = 16.0  distance and # of slots for P.C.
   PSTRESS=    0.0 pullay stress

  Mass of Ions in am
   POMASS =  63.55  1.00
  Ionic Valenz
   ZVAL   =  11.00  1.00
  Atomic Wigner-Seitz radii
   RWIGS  =  -1.00 -1.00
  virtual crystal weights 
   VCA    =   1.00  1.00
   NELECT =      45.0000    total number of electrons
   NUPDOWN=      -1.0000    fix difference up-down

 DOS related values:
   EMIN   = -17.00;   EMAX   =  7.00  energy-range for DOS
   EFERMI =   0.00
   ISMEAR =     0;   SIGMA  =   0.10  broadening in eV -4-tet -1-fermi 0-gaus

 Electronic relaxation 2 (details)
   IALGO  =     68    algorithm
   LDIAG  =      T    sub-space diagonalisation (order eigenvalues)
   LSUBROT=      F    optimize rotation matrix (better conditioning)
   TURBO    =      0    0=normal 1=particle mesh
   IRESTART =      0    0=no restart 2=restart with 2 vectors
   NREBOOT  =      0    no. of reboots
   NMIN     =      0    reboot dimension
   EREF     =   0.00    reference energy to select bands
   IMIX   =      4    mixing-type and parameters
     AMIX     =   0.40;   BMIX     =  1.00
     AMIX_MAG =   1.60;   BMIX_MAG =  1.00
     AMIN     =   0.10
     WC   =   100.;   INIMIX=   1;  MIXPRE=   1;  MAXMIX= -45

 Intra band minimization:
   WEIMIN = 0.0000     energy-eigenvalue tresh-hold
   EBREAK =  0.89E-08  absolut break condition
   DEPER  =   0.30     relativ break condition  

   TIME   =   0.40     timestep for ELM

  volume/ion in A,a.u.               =      34.77       234.66
  Fermi-wavevector in a.u.,A,eV,Ry     =   1.043297  1.971546 14.809520  1.088469
  Thomas-Fermi vector in A             =   2.178000
 
 Write flags
   LWAVE        =      F    write WAVECAR
   LDOWNSAMPLE  =      F    k-point downsampling of WAVECAR
   LCHARG       =      T    write CHGCAR
   LVTOT        =      F    write LOCPOT, total local potential
   LVHAR        =      F    write LOCPOT, Hartree potential only
   LELF         =      T    write electronic localiz. function (ELF)
   LORBIT       =     11    0 simple, 1 ext, 2 COOP (PROOUT), +10 PAW based schemes


 Dipole corrections
   LMONO  =      F    monopole corrections only (constant potential shift)
   LDIPOL =      F    correct potential (dipole corrections)
   IDIPOL =      0    1-x, 2-y, 3-z, 4-all directions 
   EPSILON=  1.0000000 bulk dielectric constant

 Exchange correlation treatment:
   GGA     =    --    GGA type
   LEXCH   =     8    internal setting for exchange type
   VOSKOWN=      0    Vosko Wilk Nusair interpolation
   LHFCALC =     F    Hartree Fock is set to
   LHFONE  =     F    Hartree Fock one center treatment
   AEXX    =    0.0000 exact exchange contribution

 Linear response parameters
   LEPSILON=     F    determine dielectric tensor
   LRPA    =     F    only Hartree local field effects (RPA)
   LNABLA  =     F    use nabla operator in PAW spheres
   LVEL    =     F    velocity operator in full k-point grid
   LINTERFAST=   F  fast interpolation
   KINTER  =     0    interpolate to denser k-point grid
   CSHIFT  =0.1000    complex shift for real part using Kramers Kronig
   OMEGAMAX=  -1.0    maximum frequency
   DEG_THRESHOLD= 0.2000000E-02 threshold for treating states as degnerate
   RTIME   =   -0.100 relaxation time in fs
  (WPLASMAI=    0.000 imaginary part of plasma frequency in eV, 0.658/RTIME)
   DFIELD  = 0.0000000 0.0000000 0.0000000 field for delta impulse in time
 
 Orbital magnetization related:
   ORBITALMAG=     F  switch on orbital magnetization
   LCHIMAG   =     F  perturbation theory with respect to B field
   DQ        =  0.001000  dq finite difference perturbation B field
   LLRAUG    =     F  two centre corrections for induced B field



--------------------------------------------------------------------------------------------------------


 Static calculation
 charge density and potential will be updated during run
 non-spin polarized calculation
 RMM-DIIS sequential band-by-band and
  variant of blocked Davidson during initial phase
 perform sub-space diagonalisation
    before iterative eigenvector-optimisation
 modified Broyden-mixing scheme, WC =      100.0
 initial mixing is a Kerker type mixing with AMIX =  0.4000 and BMIX =      1.0000
 Hartree-type preconditioning will be used
 using additional bands            5
 real space projection scheme for non local part
 use partial core corrections
 calculate Harris-corrections to forces 
   (improved forces if not selfconsistent)
 use gradient corrections 
 use of overlap-Matrix (Vanderbilt PP)
 Gauss-broadening in eV      SIGMA  =   0.10


--------------------------------------------------------------------------------------------------------


  energy-cutoff  :      250.00
  volume of cell :      173.87
      direct lattice vectors                 reciprocal lattice vectors
     2.573868684  0.000000000  0.000000000     0.388520209 -0.224312248  0.000000000
     1.286934342  2.229035666  0.000000000     0.000000000  0.448624495  0.000000000
     0.000000000  0.000000000 30.304664940     0.000000000  0.000000000  0.032998220

  length of vectors
     2.573868684  2.573868684 30.304664940     0.448624495  0.448624495  0.032998220


 
 k-points in units of 2pi/SCALE and weight: k-density: 4.0                          
   0.00000000  0.00000000  0.00000000       0.010
   0.03885202 -0.02243122  0.00000000       0.040
   0.07770404 -0.04486245  0.00000000       0.040
   0.11655606 -0.06729367  0.00000000       0.040
   0.15540808 -0.08972490  0.00000000       0.040
   0.19426010 -0.11215612  0.00000000       0.020
   0.00000000  0.04486245  0.00000000       0.020
   0.07770404 -0.00000000  0.00000000       0.020
   0.11655606 -0.02243122  0.00000000       0.040
   0.15540808 -0.04486245  0.00000000       0.040
   0.19426010 -0.06729367  0.00000000       0.040
  -0.15540808  0.13458735  0.00000000       0.040
  -0.11655606  0.11215612  0.00000000       0.040
  -0.07770404  0.08972490  0.00000000       0.040
  -0.03885202  0.06729367  0.00000000       0.040
   0.00000000  0.08972490  0.00000000       0.020
   0.15540808  0.00000000  0.00000000       0.020
   0.19426010 -0.02243122  0.00000000       0.040
  -0.15540808  0.17944980  0.00000000       0.040
  -0.11655606  0.15701857  0.00000000       0.040
  -0.07770404  0.13458735  0.00000000       0.040
  -0.03885202  0.11215612  0.00000000       0.040
   0.00000000  0.13458735  0.00000000       0.020
  -0.15540808  0.22431225  0.00000000       0.020
  -0.11655606  0.20188102  0.00000000       0.040
  -0.07770404  0.17944980  0.00000000       0.040
  -0.03885202  0.15701857  0.00000000       0.040
   0.00000000  0.17944980  0.00000000       0.020
  -0.07770404  0.22431225  0.00000000       0.020
  -0.03885202  0.20188102  0.00000000       0.040
   0.00000000  0.22431225  0.00000000       0.010
 
 k-points in reciprocal lattice and weights: k-density: 4.0                          
   0.00000000  0.00000000  0.00000000       0.010
   0.10000000  0.00000000  0.00000000       0.040
   0.20000000 -0.00000000  0.00000000       0.040
   0.30000000 -0.00000000  0.00000000       0.040
   0.40000000 -0.00000000  0.00000000       0.040
   0.50000000 -0.00000000  0.00000000       0.020
   0.00000000  0.10000000  0.00000000       0.020
   0.20000000  0.10000000  0.00000000       0.020
   0.30000000  0.10000000  0.00000000       0.040
   0.40000000  0.10000000  0.00000000       0.040
   0.50000000  0.10000000  0.00000000       0.040
  -0.40000000  0.10000000  0.00000000       0.040
  -0.30000000  0.10000000  0.00000000       0.040
  -0.20000000  0.10000000  0.00000000       0.040
  -0.10000000  0.10000000  0.00000000       0.040
   0.00000000  0.20000000  0.00000000       0.020
   0.40000000  0.20000000  0.00000000       0.020
   0.50000000  0.20000000  0.00000000       0.040
  -0.40000000  0.20000000  0.00000000       0.040
  -0.30000000  0.20000000  0.00000000       0.040
  -0.20000000  0.20000000  0.00000000       0.040
  -0.10000000  0.20000000  0.00000000       0.040
   0.00000000  0.30000000  0.00000000       0.020
  -0.40000000  0.30000000  0.00000000       0.020
  -0.30000000  0.30000000  0.00000000       0.040
  -0.20000000  0.30000000  0.00000000       0.040
  -0.10000000  0.30000000  0.00000000       0.040
   0.00000000  0.40000000  0.00000000       0.020
  -0.20000000  0.40000000  0.00000000       0.020
  -0.10000000  0.40000000  0.00000000       0.040
   0.00000000  0.50000000  0.00000000       0.010
 
 position of ions in fractional coordinates (direct lattice) 
   0.00000000  0.00000000  0.39597864
   0.33333333  0.33333333  0.46532621
   0.66666666  0.66666667  0.53467379
   0.00000000  0.00000000  0.60402136
   0.68909789  0.62180422  0.63701958
 
 position of ions in cartesian coordinates  (Angst):
   0.00000000  0.00000000 12.00000000
   1.28693434  0.74301189 14.10155498
   2.57386868  1.48602378 16.20310996
   0.00000000  0.00000000 18.30466494
   2.57386868  1.38602378 19.30466494
 


--------------------------------------------------------------------------------------------------------


 k-point  1 :   0.0000 0.0000 0.0000  plane waves:    1609
 k-point  2 :   0.1000 0.0000 0.0000  plane waves:    1589
 k-point  3 :   0.2000-0.0000 0.0000  plane waves:    1586
 k-point  4 :   0.3000-0.0000 0.0000  plane waves:    1542
 k-point  5 :   0.4000-0.0000 0.0000  plane waves:    1568
 k-point  6 :   0.5000-0.0000 0.0000  plane waves:    1570
 k-point  7 :   0.0000 0.1000 0.0000  plane waves:    1589
 k-point  8 :   0.2000 0.1000 0.0000  plane waves:    1579
 k-point  9 :   0.3000 0.1000 0.0000  plane waves:    1569
 k-point 10 :   0.4000 0.1000 0.0000  plane waves:    1552
 k-point 11 :   0.5000 0.1000 0.0000  plane waves:    1549
 k-point 12 :  -0.4000 0.1000 0.0000  plane waves:    1549
 k-point 13 :  -0.3000 0.1000 0.0000  plane waves:    1552
 k-point 14 :  -0.2000 0.1000 0.0000  plane waves:    1569
 k-point 15 :  -0.1000 0.1000 0.0000  plane waves:    1579
 k-point 16 :   0.0000 0.2000 0.0000  plane waves:    1586
 k-point 17 :   0.4000 0.2000 0.0000  plane waves:    1545
 k-point 18 :   0.5000 0.2000 0.0000  plane waves:    1549
 k-point 19 :  -0.4000 0.2000 0.0000  plane waves:    1546
 k-point 20 :  -0.3000 0.2000 0.0000  plane waves:    1549
 k-point 21 :  -0.2000 0.2000 0.0000  plane waves:    1545
 k-point 22 :  -0.1000 0.2000 0.0000  plane waves:    1569
 k-point 23 :   0.0000 0.3000 0.0000  plane waves:    1542
 k-point 24 :  -0.4000 0.3000 0.0000  plane waves:    1547
 k-point 25 :  -0.3000 0.3000 0.0000  plane waves:    1547
 k-point 26 :  -0.2000 0.3000 0.0000  plane waves:    1549
 k-point 27 :  -0.1000 0.3000 0.0000  plane waves:    1552
 k-point 28 :   0.0000 0.4000 0.0000  plane waves:    1568
 k-point 29 :  -0.2000 0.4000 0.0000  plane waves:    1546
 k-point 30 :  -0.1000 0.4000 0.0000  plane waves:    1549
 k-point 31 :   0.0000 0.5000 0.0000  plane waves:    1570

 maximum and minimum number of plane-waves per node :       808      767

 maximum number of plane-waves:      1609
 maximum index in each direction: 
   IXMAX=    3   IYMAX=    3   IZMAX=   39
   IXMIN=   -3   IYMIN=   -3   IZMIN=  -39


 real space projection operators:
  total allocation   :        839.95 KBytes
  max/ min on nodes  :        423.36        416.59


 parallel 3D FFT for wavefunctions:
    minimum data exchange during FFTs selected (reduces bandwidth)
 parallel 3D FFT for charge:
    minimum data exchange during FFTs selected (reduces bandwidth)


 total amount of memory used by VASP MPI-rank0    39170. kBytes
=======================================================================

   base      :      30000. kBytes
   nonlr-proj:        677. kBytes
   fftplans  :        995. kBytes
   grid      :       1592. kBytes
   one-center:         46. kBytes
   wavefun   :       5860. kBytes
 
     INWAV:  cpu time    0.0000: real time    0.0000
 Broyden mixing: mesh for mixing (old mesh)
   NGX =  7   NGY =  7   NGZ = 79
  (NGX  = 20   NGY  = 20   NGZ  =240)
  gives a total of   3871 points

 initial charge density was supplied:
 charge density of overlapping atoms calculated
 number of electron      45.0000000 magnetization 
 keeping initial charge density in first step


--------------------------------------------------------------------------------------------------------


 Maximum index for non-local projection operator          902
 Maximum index for augmentation-charges          593 (set IRDMAX)


--------------------------------------------------------------------------------------------------------


 First call to EWALD:  gamma=   0.318
 Maximum number of real-space cells 6x 6x 1
 Maximum number of reciprocal cells 2x 2x13

    FEWALD:  cpu time    0.0020: real time    0.0016


--------------------------------------- Iteration      1(   1)  ---------------------------------------


    POTLOK:  cpu time    0.0160: real time    0.0728
    SETDIJ:  cpu time    0.0040: real time    0.0046
     EDDAV:  cpu time    0.6889: real time    0.6933
       DOS:  cpu time    0.0050: real time    0.0052
    --------------------------------------------
      LOOP:  cpu time    0.7139: real time    0.7759

 eigenvalue-minimisations  :  1808
 total energy-change (2. order) : 0.1960538E+03  (-0.1393318E+04)
 number of electron      45.0000000 magnetization 
 augmentation part       45.0000000 magnetization 

 Free energy of the ion-electron system (eV)
  ---------------------------------------------------
  alpha Z        PSCENC =       120.87645803
  Ewald energy   TEWEN  =     38005.07754730
  -Hartree energ DENC   =    -43126.78163583
  -exchange      EXHF   =         0.00000000
  -V(xc)+E(xc)   XCENC  =       177.39145239
  PAW double counting   =      4328.99049516    -4905.09836044
  entropy T*S    EENTRO =        -0.00717443
  eigenvalues    EBANDS =        19.65538912
  atomic energy  EATOM  =      5575.94961827
  Solvation  Ediel_sol  =         0.00000000
  ---------------------------------------------------
  free energy    TOTEN  =       196.05378957 eV

  energy without entropy =      196.06096401  energy(sigma->0) =      196.05737679


--------------------------------------------------------------------------------------------------------




--------------------------------------- Iteration      1(   2)  ---------------------------------------


     EDDAV:  cpu time    0.6839: real time    0.6852
       DOS:  cpu time    0.0060: real time    0.0058
    --------------------------------------------
      LOOP:  cpu time    0.6899: real time    0.6910

 eigenvalue-minimisations  :  1848
 total energy-change (2. order) :-0.2068790E+03  (-0.2009597E+03)
 number of electron      45.0000000 magnetization 
 augmentation part       45.0000000 magnetization 

 Free energy of the ion-electron system (eV)
  ---------------------------------------------------
  alpha Z        PSCENC =       120.87645803
  Ewald energy   TEWEN  =     38005.07754730
  -Hartree energ DENC   =    -43126.78163583
  -exchange      EXHF   =         0.00000000
  -V(xc)+E(xc)   XCENC  =       177.39145239
  PAW double counting   =      4328.99049516    -4905.09836044
  entropy T*S    EENTRO =        -0.02092585
  eigenvalues    EBANDS =      -187.20989536
  atomic energy  EATOM  =      5575.94961827
  Solvation  Ediel_sol  =         0.00000000
  ---------------------------------------------------
  free energy    TOTEN  =       -10.82524633 eV

  energy without entropy =      -10.80432048  energy(sigma->0) =      -10.81478340


--------------------------------------------------------------------------------------------------------




--------------------------------------- Iteration      1(   3)  ---------------------------------------


     EDDAV:  cpu time    0.7029: real time    0.7036
       DOS:  cpu time    0.0060: real time    0.0058
    --------------------------------------------
      LOOP:  cpu time    0.7089: real time    0.7094

 eigenvalue-minimisations  :  1900
 total energy-change (2. order) :-0.1012539E+02  (-0.9916022E+01)
 number of electron      45.0000000 magnetization 
 augmentation part       45.0000000 magnetization 

 Free energy of the ion-electron system (eV)
  ---------------------------------------------------
  alpha Z        PSCENC =       120.87645803
  Ewald energy   TEWEN  =     38005.07754730
  -Hartree energ DENC   =    -43126.78163583
  -exchange      EXHF   =         0.00000000
  -V(xc)+E(xc)   XCENC  =       177.39145239
  PAW double counting   =      4328.99049516    -4905.09836044
  entropy T*S    EENTRO =        -0.01418818
  eigenvalues    EBANDS =      -197.34202288
  atomic energy  EATOM  =      5575.94961827
  Solvation  Ediel_sol  =         0.00000000
  ---------------------------------------------------
  free energy    TOTEN  =       -20.95063618 eV

  energy without entropy =      -20.93644800  energy(sigma->0) =      -20.94354209


--------------------------------------------------------------------------------------------------------




--------------------------------------- Iteration      1(   4)  ---------------------------------------


     EDDAV:  cpu time    0.7159: real time    0.7163
       DOS:  cpu time    0.0050: real time    0.0058
    --------------------------------------------
      LOOP:  cpu time    0.7209: real time    0.7220

 eigenvalue-minimisations  :  1936
 total energy-change (2. order) :-0.1255177E+00  (-0.1251251E+00)
 number of electron      45.0000000 magnetization 
 augmentation part       45.0000000 magnetization 

 Free energy of the ion-electron system (eV)
  ---------------------------------------------------
  alpha Z        PSCENC =       120.87645803
  Ewald energy   TEWEN  =     38005.07754730
  -Hartree energ DENC   =    -43126.78163583
  -exchange      EXHF   =         0.00000000
  -V(xc)+E(xc)   XCENC  =       177.39145239
  PAW double counting   =      4328.99049516    -4905.09836044
  entropy T*S    EENTRO =        -0.01398904
  eigenvalues    EBANDS =      -197.46773972
  atomic energy  EATOM  =      5575.94961827
  Solvation  Ediel_sol  =         0.00000000
  ---------------------------------------------------
  free energy    TOTEN  =       -21.07615387 eV

  energy without entropy =      -21.06216483  energy(sigma->0) =      -21.06915935


--------------------------------------------------------------------------------------------------------




--------------------------------------- Iteration      1(   5)  ---------------------------------------


     EDDAV:  cpu time    0.7259: real time    0.7263
       DOS:  cpu time    0.0060: real time    0.0058
    CHARGE:  cpu time    0.0350: real time    0.0349
    MIXING:  cpu time    0.0010: real time    0.0009
    --------------------------------------------
      LOOP:  cpu time    0.7679: real time    0.7678

 eigenvalue-minimisations  :  1976
 total energy-change (2. order) :-0.1118234E-02  (-0.1118186E-02)
 number of electron      45.0000036 magnetization 
 augmentation part       26.7105306 magnetization 

 Broyden mixing:
  rms(total) = 0.14540E+01    rms(broyden)= 0.14538E+01
  rms(prec ) = 0.15047E+01
  weight for this iteration     100.00

 Free energy of the ion-electron system (eV)
  ---------------------------------------------------
  alpha Z        PSCENC =       120.87645803
  Ewald energy   TEWEN  =     38005.07754730
  -Hartree energ DENC   =    -43126.78163583
  -exchange      EXHF   =         0.00000000
  -V(xc)+E(xc)   XCENC  =       177.39145239
  PAW double counting   =      4328.99049516    -4905.09836044
  entropy T*S    EENTRO =        -0.01398826
  eigenvalues    EBANDS =      -197.46885873
  atomic energy  EATOM  =      5575.94961827
  Solvation  Ediel_sol  =         0.00000000
  ---------------------------------------------------
  free energy    TOTEN  =       -21.07727211 eV

  energy without entropy =      -21.06328385  energy(sigma->0) =      -21.07027798


--------------------------------------------------------------------------------------------------------




--------------------------------------- Iteration      1(   6)  ---------------------------------------


    POTLOK:  cpu time    0.0120: real time    0.0147
    SETDIJ:  cpu time    0.0040: real time    0.0034
    EDDIAG:  cpu time    0.1300: real time    0.1316
  RMM-DIIS:  cpu time    0.4089: real time    0.4086
    ORTHCH:  cpu time    0.0150: real time    0.0150
       DOS:  cpu time    0.0060: real time    0.0059
    CHARGE:  cpu time    0.0350: real time    0.0348
    MIXING:  cpu time    0.0010: real time    0.0010
    --------------------------------------------
      LOOP:  cpu time    0.6119: real time    0.6151

 eigenvalue-minimisations  :  1901
 total energy-change (2. order) : 0.2068976E+01  (-0.4285152E+01)
 number of electron      45.0000038 magnetization 
 augmentation part       30.0305888 magnetization 

 Broyden mixing:
  rms(total) = 0.73274E+00    rms(broyden)= 0.73250E+00
  rms(prec ) = 0.76074E+00
  weight for this iteration     100.00

 eigenvalues of (default mixing * dielectric matrix)
  average eigenvalue GAMMA=   0.6680
  0.6680

 Free energy of the ion-electron system (eV)
  ---------------------------------------------------
  alpha Z        PSCENC =       120.87645803
  Ewald energy   TEWEN  =     38005.07754730
  -Hartree energ DENC   =    -43009.77855777
  -exchange      EXHF   =         0.00000000
  -V(xc)+E(xc)   XCENC  =       172.26112890
  PAW double counting   =      4215.00267665    -4756.08027686
  entropy T*S    EENTRO =        -0.00997238
  eigenvalues    EBANDS =      -342.30691841
  atomic energy  EATOM  =      5575.94961827
  Solvation  Ediel_sol  =         0.00000000
  ---------------------------------------------------
  free energy    TOTEN  =       -19.00829626 eV

  energy without entropy =      -18.99832388  energy(sigma->0) =      -19.00331007


--------------------------------------------------------------------------------------------------------




--------------------------------------- Iteration      1(   7)  ---------------------------------------


    POTLOK:  cpu time    0.0110: real time    0.0121
    SETDIJ:  cpu time    0.0040: real time    0.0035
    EDDIAG:  cpu time    0.1310: real time    0.1309
  RMM-DIIS:  cpu time    0.4059: real time    0.4062
    ORTHCH:  cpu time    0.0150: real time    0.0150
       DOS:  cpu time    0.0050: real time    0.0058
    CHARGE:  cpu time    0.0350: real time    0.0348
    MIXING:  cpu time    0.0010: real time    0.0006
    --------------------------------------------
      LOOP:  cpu time    0.6079: real time    0.6087

 eigenvalue-minimisations  :  1867
 total energy-change (2. order) : 0.1725077E+01  (-0.7014624E+00)
 number of electron      45.0000036 magnetization 
 augmentation part       28.7308542 magnetization 

 Broyden mixing:
  rms(total) = 0.15138E+00    rms(broyden)= 0.15118E+00
  rms(prec ) = 0.19486E+00
  weight for this iteration     100.00

 eigenvalues of (default mixing * dielectric matrix)
  average eigenvalue GAMMA=   0.7824
  0.9751  0.5897

 Free energy of the ion-electron system (eV)
  ---------------------------------------------------
  alpha Z        PSCENC =       120.87645803
  Ewald energy   TEWEN  =     38005.07754730
  -Hartree energ DENC   =    -43058.95838911
  -exchange      EXHF   =         0.00000000
  -V(xc)+E(xc)   XCENC  =       173.92268707
  PAW double counting   =      4313.41955245    -4878.96865391
  entropy T*S    EENTRO =        -0.01155649
  eigenvalues    EBANDS =      -268.59048264
  atomic energy  EATOM  =      5575.94961827
  Solvation  Ediel_sol  =         0.00000000
  ---------------------------------------------------
  free energy    TOTEN  =       -17.28321904 eV

  energy without entropy =      -17.27166255  energy(sigma->0) =      -17.27744079


--------------------------------------------------------------------------------------------------------




--------------------------------------- Iteration      1(   8)  ---------------------------------------


    POTLOK:  cpu time    0.0130: real time    0.0147
    SETDIJ:  cpu time    0.0030: real time    0.0034
    EDDIAG:  cpu time    0.1310: real time    0.1311
  RMM-DIIS:  cpu time    0.4149: real time    0.4140
    ORTHCH:  cpu time    0.0140: real time    0.0151
       DOS:  cpu time    0.0060: real time    0.0058
    CHARGE:  cpu time    0.0350: real time    0.0348
    MIXING:  cpu time    0.0010: real time    0.0006
    --------------------------------------------
      LOOP:  cpu time    0.6179: real time    0.6195

 eigenvalue-minimisations  :  1911
 total energy-change (2. order) :-0.2952995E-01  (-0.1183355E-01)
 number of electron      45.0000038 magnetization 
 augmentation part       28.7337778 magnetization 

 Broyden mixing:
  rms(total) = 0.21191E+00    rms(broyden)= 0.21177E+00
  rms(prec ) = 0.27744E+00
  weight for this iteration     100.00

 eigenvalues of (default mixing * dielectric matrix)
  average eigenvalue GAMMA=   0.8352
  1.7153  0.6222  0.1681

 Free energy of the ion-electron system (eV)
  ---------------------------------------------------
  alpha Z        PSCENC =       120.87645803
  Ewald energy   TEWEN  =     38005.07754730
  -Hartree energ DENC   =    -43061.35262139
  -exchange      EXHF   =         0.00000000
  -V(xc)+E(xc)   XCENC  =       173.81233458
  PAW double counting   =      4332.11183308    -4900.49269094
  entropy T*S    EENTRO =        -0.01601983
  eigenvalues    EBANDS =      -263.27920809
  atomic energy  EATOM  =      5575.94961827
  Solvation  Ediel_sol  =         0.00000000
  ---------------------------------------------------
  free energy    TOTEN  =       -17.31274899 eV

  energy without entropy =      -17.29672916  energy(sigma->0) =      -17.30473908


--------------------------------------------------------------------------------------------------------




--------------------------------------- Iteration      1(   9)  ---------------------------------------


    POTLOK:  cpu time    0.0110: real time    0.0120
    SETDIJ:  cpu time    0.0040: real time    0.0033
    EDDIAG:  cpu time    0.1250: real time    0.1255
  RMM-DIIS:  cpu time    0.4019: real time    0.4017
    ORTHCH:  cpu time    0.0150: real time    0.0149
       DOS:  cpu time    0.0050: real time    0.0058
    CHARGE:  cpu time    0.0360: real time    0.0352
    MIXING:  cpu time    0.0010: real time    0.0006
    --------------------------------------------
      LOOP:  cpu time    0.5989: real time    0.5990

 eigenvalue-minimisations  :  1907
 total energy-change (2. order) : 0.1158706E+00  (-0.7073443E-02)
 number of electron      45.0000037 magnetization 
 augmentation part       28.7285443 magnetization 

 Broyden mixing:
  rms(total) = 0.73853E-01    rms(broyden)= 0.73752E-01
  rms(prec ) = 0.80282E-01
  weight for this iteration     100.00

 eigenvalues of (default mixing * dielectric matrix)
  average eigenvalue GAMMA=   0.7743
  1.8063  0.5613  0.5222  0.2075

 Free energy of the ion-electron system (eV)
  ---------------------------------------------------
  alpha Z        PSCENC =       120.87645803
  Ewald energy   TEWEN  =     38005.07754730
  -Hartree energ DENC   =    -43062.18512508
  -exchange      EXHF   =         0.00000000
  -V(xc)+E(xc)   XCENC  =       173.59956278
  PAW double counting   =      4364.90558607    -4938.10257317
  entropy T*S    EENTRO =        -0.01689935
  eigenvalues    EBANDS =      -257.30105326
  atomic energy  EATOM  =      5575.94961827
  Solvation  Ediel_sol  =         0.00000000
  ---------------------------------------------------
  free energy    TOTEN  =       -17.19687840 eV

  energy without entropy =      -17.17997906  energy(sigma->0) =      -17.18842873


--------------------------------------------------------------------------------------------------------




--------------------------------------- Iteration      1(  10)  ---------------------------------------


    POTLOK:  cpu time    0.0120: real time    0.0140
    SETDIJ:  cpu time    0.0030: real time    0.0033
    EDDIAG:  cpu time    0.1300: real time    0.1304
  RMM-DIIS:  cpu time    0.4159: real time    0.4154
    ORTHCH:  cpu time    0.0150: real time    0.0151
       DOS:  cpu time    0.0060: real time    0.0058
    CHARGE:  cpu time    0.0350: real time    0.0350
    MIXING:  cpu time    0.0010: real time    0.0006
    --------------------------------------------
      LOOP:  cpu time    0.6179: real time    0.6195

 eigenvalue-minimisations  :  1931
 total energy-change (2. order) : 0.1027682E-01  (-0.2020348E-02)
 number of electron      45.0000037 magnetization 
 augmentation part       28.7485215 magnetization 

 Broyden mixing:
  rms(total) = 0.45823E-01    rms(broyden)= 0.45806E-01
  rms(prec ) = 0.49010E-01
  weight for this iteration     100.00

 eigenvalues of (default mixing * dielectric matrix)
  average eigenvalue GAMMA=   0.8785
  2.2432  0.8985  0.6654  0.2019  0.3838

 Free energy of the ion-electron system (eV)
  ---------------------------------------------------
  alpha Z        PSCENC =       120.87645803
  Ewald energy   TEWEN  =     38005.07754730
  -Hartree energ DENC   =    -43063.83563829
  -exchange      EXHF   =         0.00000000
  -V(xc)+E(xc)   XCENC  =       173.48365869
  PAW double counting   =      4376.12050673    -4950.60314017
  entropy T*S    EENTRO =        -0.01909708
  eigenvalues    EBANDS =      -254.23651507
  atomic energy  EATOM  =      5575.94961827
  Solvation  Ediel_sol  =         0.00000000
  ---------------------------------------------------
  free energy    TOTEN  =       -17.18660159 eV

  energy without entropy =      -17.16750451  energy(sigma->0) =      -17.17705305


--------------------------------------------------------------------------------------------------------




--------------------------------------- Iteration      1(  11)  ---------------------------------------


    POTLOK:  cpu time    0.0120: real time    0.0121
    SETDIJ:  cpu time    0.0030: real time    0.0034
    EDDIAG:  cpu time    0.1310: real time    0.1311
  RMM-DIIS:  cpu time    0.4179: real time    0.4181
    ORTHCH:  cpu time    0.0160: real time    0.0155
       DOS:  cpu time    0.0060: real time    0.0059
    CHARGE:  cpu time    0.0350: real time    0.0355
    MIXING:  cpu time    0.0010: real time    0.0007
    --------------------------------------------
      LOOP:  cpu time    0.6219: real time    0.6223

 eigenvalue-minimisations  :  1909
 total energy-change (2. order) : 0.5428594E-02  (-0.8435023E-03)
 number of electron      45.0000037 magnetization 
 augmentation part       28.7797849 magnetization 

 Broyden mixing:
  rms(total) = 0.18475E-01    rms(broyden)= 0.18446E-01
  rms(prec ) = 0.23933E-01
  weight for this iteration     100.00

 eigenvalues of (default mixing * dielectric matrix)
  average eigenvalue GAMMA=   0.9258
  2.3298  1.3355  0.6533  0.6533  0.2001  0.3831

 Free energy of the ion-electron system (eV)
  ---------------------------------------------------
  alpha Z        PSCENC =       120.87645803
  Ewald energy   TEWEN  =     38005.07754730
  -Hartree energ DENC   =    -43064.03325438
  -exchange      EXHF   =         0.00000000
  -V(xc)+E(xc)   XCENC  =       173.37115366
  PAW double counting   =      4386.25747882    -4961.78967236
  entropy T*S    EENTRO =        -0.01814257
  eigenvalues    EBANDS =      -252.87235976
  atomic energy  EATOM  =      5575.94961827
  Solvation  Ediel_sol  =         0.00000000
  ---------------------------------------------------
  free energy    TOTEN  =       -17.18117299 eV

  energy without entropy =      -17.16303043  energy(sigma->0) =      -17.17210171


--------------------------------------------------------------------------------------------------------




--------------------------------------- Iteration      1(  12)  ---------------------------------------


    POTLOK:  cpu time    0.0120: real time    0.0133
    SETDIJ:  cpu time    0.0040: real time    0.0034
    EDDIAG:  cpu time    0.1350: real time    0.1354
  RMM-DIIS:  cpu time    0.4419: real time    0.4422
    ORTHCH:  cpu time    0.0160: real time    0.0155
       DOS:  cpu time    0.0060: real time    0.0058
    CHARGE:  cpu time    0.0350: real time    0.0353
    MIXING:  cpu time    0.0010: real time    0.0009
    --------------------------------------------
      LOOP:  cpu time    0.6509: real time    0.6519

 eigenvalue-minimisations  :  1900
 total energy-change (2. order) : 0.1153463E-02  (-0.1896865E-03)
 number of electron      45.0000037 magnetization 
 augmentation part       28.7934339 magnetization 

 Broyden mixing:
  rms(total) = 0.95809E-02    rms(broyden)= 0.95517E-02
  rms(prec ) = 0.11447E-01
  weight for this iteration     100.00

 eigenvalues of (default mixing * dielectric matrix)
  average eigenvalue GAMMA=   0.9810
  2.1284  2.1284  0.9430  0.6536  0.2001  0.4470  0.3667

 Free energy of the ion-electron system (eV)
  ---------------------------------------------------
  alpha Z        PSCENC =       120.87645803
  Ewald energy   TEWEN  =     38005.07754730
  -Hartree energ DENC   =    -43066.02478746
  -exchange      EXHF   =         0.00000000
  -V(xc)+E(xc)   XCENC  =       173.33988362
  PAW double counting   =      4389.32284630    -4965.02149902
  entropy T*S    EENTRO =        -0.01782936
  eigenvalues    EBANDS =      -250.68225719
  atomic energy  EATOM  =      5575.94961827
  Solvation  Ediel_sol  =         0.00000000
  ---------------------------------------------------
  free energy    TOTEN  =       -17.18001953 eV

  energy without entropy =      -17.16219017  energy(sigma->0) =      -17.17110485


--------------------------------------------------------------------------------------------------------




--------------------------------------- Iteration      1(  13)  ---------------------------------------


    POTLOK:  cpu time    0.0120: real time    0.0123
    SETDIJ:  cpu time    0.0030: real time    0.0033
    EDDIAG:  cpu time    0.1350: real time    0.1352
  RMM-DIIS:  cpu time    0.4379: real time    0.4368
    ORTHCH:  cpu time    0.0150: real time    0.0158
       DOS:  cpu time    0.0060: real time    0.0058
    CHARGE:  cpu time    0.0360: real time    0.0354
    MIXING:  cpu time    0.0000: real time    0.0007
    --------------------------------------------
      LOOP:  cpu time    0.6449: real time    0.6454

 eigenvalue-minimisations  :  1870
 total energy-change (2. order) : 0.3869282E-03  (-0.5757717E-04)
 number of electron      45.0000037 magnetization 
 augmentation part       28.7921191 magnetization 

 Broyden mixing:
  rms(total) = 0.61518E-02    rms(broyden)= 0.61267E-02
  rms(prec ) = 0.91162E-02
  weight for this iteration     100.00

 eigenvalues of (default mixing * dielectric matrix)
  average eigenvalue GAMMA=   1.0012
  2.2889  2.2889  1.1179  0.6969  0.6689  0.2002  0.3939  0.3537

 Free energy of the ion-electron system (eV)
  ---------------------------------------------------
  alpha Z        PSCENC =       120.87645803
  Ewald energy   TEWEN  =     38005.07754730
  -Hartree energ DENC   =    -43067.62602541
  -exchange      EXHF   =         0.00000000
  -V(xc)+E(xc)   XCENC  =       173.34028631
  PAW double counting   =      4390.71776479    -4966.51076766
  entropy T*S    EENTRO =        -0.01799698
  eigenvalues    EBANDS =      -248.98651725
  atomic energy  EATOM  =      5575.94961827
  Solvation  Ediel_sol  =         0.00000000
  ---------------------------------------------------
  free energy    TOTEN  =       -17.17963260 eV

  energy without entropy =      -17.16163562  energy(sigma->0) =      -17.17063411


--------------------------------------------------------------------------------------------------------




--------------------------------------- Iteration      1(  14)  ---------------------------------------


    POTLOK:  cpu time    0.0130: real time    0.0134
    SETDIJ:  cpu time    0.0030: real time    0.0034
    EDDIAG:  cpu time    0.1340: real time    0.1347
  RMM-DIIS:  cpu time    0.4339: real time    0.4328
    ORTHCH:  cpu time    0.0150: real time    0.0155
       DOS:  cpu time    0.0060: real time    0.0059
    CHARGE:  cpu time    0.0350: real time    0.0352
    MIXING:  cpu time    0.0010: real time    0.0010
    --------------------------------------------
      LOOP:  cpu time    0.6409: real time    0.6418

 eigenvalue-minimisations  :  1853
 total energy-change (2. order) : 0.1156404E-03  (-0.3113015E-04)
 number of electron      45.0000037 magnetization 
 augmentation part       28.7848515 magnetization 

 Broyden mixing:
  rms(total) = 0.43354E-02    rms(broyden)= 0.42928E-02
  rms(prec ) = 0.67579E-02
  weight for this iteration     100.00

 eigenvalues of (default mixing * dielectric matrix)
  average eigenvalue GAMMA=   1.0880
  2.6858  2.6858  1.2879  0.8899  0.6833  0.5934  0.2002  0.4040  0.3615

 Free energy of the ion-electron system (eV)
  ---------------------------------------------------
  alpha Z        PSCENC =       120.87645803
  Ewald energy   TEWEN  =     38005.07754730
  -Hartree energ DENC   =    -43069.91939261
  -exchange      EXHF   =         0.00000000
  -V(xc)+E(xc)   XCENC  =       173.35241763
  PAW double counting   =      4391.41570303    -4967.25711579
  entropy T*S    EENTRO =        -0.01848601
  eigenvalues    EBANDS =      -246.65626681
  atomic energy  EATOM  =      5575.94961827
  Solvation  Ediel_sol  =         0.00000000
  ---------------------------------------------------
  free energy    TOTEN  =       -17.17951696 eV

  energy without entropy =      -17.16103095  energy(sigma->0) =      -17.17027396


--------------------------------------------------------------------------------------------------------




--------------------------------------- Iteration      1(  15)  ---------------------------------------


    POTLOK:  cpu time    0.0130: real time    0.0125
    SETDIJ:  cpu time    0.0030: real time    0.0033
    EDDIAG:  cpu time    0.1350: real time    0.1354
  RMM-DIIS:  cpu time    0.4159: real time    0.4151
    ORTHCH:  cpu time    0.0150: real time    0.0155
       DOS:  cpu time    0.0060: real time    0.0058
    CHARGE:  cpu time    0.0350: real time    0.0352
    MIXING:  cpu time    0.0010: real time    0.0009
    --------------------------------------------
      LOOP:  cpu time    0.6239: real time    0.6238

 eigenvalue-minimisations  :  1794
 total energy-change (2. order) :-0.1424300E-03  (-0.1641640E-04)
 number of electron      45.0000037 magnetization 
 augmentation part       28.7888998 magnetization 

 Broyden mixing:
  rms(total) = 0.15529E-02    rms(broyden)= 0.14523E-02
  rms(prec ) = 0.21679E-02
  weight for this iteration     100.00

 eigenvalues of (default mixing * dielectric matrix)
  average eigenvalue GAMMA=   1.2793
  3.4797  2.7894  2.1916  1.1480  0.9807  0.2002  0.6637  0.5732  0.3589  0.4073

 Free energy of the ion-electron system (eV)
  ---------------------------------------------------
  alpha Z        PSCENC =       120.87645803
  Ewald energy   TEWEN  =     38005.07754730
  -Hartree energ DENC   =    -43071.90195348
  -exchange      EXHF   =         0.00000000
  -V(xc)+E(xc)   XCENC  =       173.35240801
  PAW double counting   =      4391.14762976    -4966.89896651
  entropy T*S    EENTRO =        -0.01838642
  eigenvalues    EBANDS =      -244.76401435
  atomic energy  EATOM  =      5575.94961827
  Solvation  Ediel_sol  =         0.00000000
  ---------------------------------------------------
  free energy    TOTEN  =       -17.17965939 eV

  energy without entropy =      -17.16127297  energy(sigma->0) =      -17.17046618


--------------------------------------------------------------------------------------------------------




--------------------------------------- Iteration      1(  16)  ---------------------------------------


    POTLOK:  cpu time    0.0120: real time    0.0138
    SETDIJ:  cpu time    0.0040: real time    0.0034
    EDDIAG:  cpu time    0.1360: real time    0.1362
  RMM-DIIS:  cpu time    0.4009: real time    0.4005
    ORTHCH:  cpu time    0.0140: real time    0.0155
       DOS:  cpu time    0.0070: real time    0.0059
    CHARGE:  cpu time    0.0340: real time    0.0352
    MIXING:  cpu time    0.0020: real time    0.0012
    --------------------------------------------
      LOOP:  cpu time    0.6099: real time    0.6118

 eigenvalue-minimisations  :  1729
 total energy-change (2. order) :-0.3587971E-03  (-0.1174962E-04)
 number of electron      45.0000037 magnetization 
 augmentation part       28.7884845 magnetization 

 Broyden mixing:
  rms(total) = 0.14817E-02    rms(broyden)= 0.13787E-02
  rms(prec ) = 0.20335E-02
  weight for this iteration     100.00

 eigenvalues of (default mixing * dielectric matrix)
  average eigenvalue GAMMA=   1.3671
  4.5532  2.7854  2.2922  1.2941  0.9842  0.9278  0.2002  0.6641  0.5709  0.3589
  0.4072

 Free energy of the ion-electron system (eV)
  ---------------------------------------------------
  alpha Z        PSCENC =       120.87645803
  Ewald energy   TEWEN  =     38005.07754730
  -Hartree energ DENC   =    -43073.90387177
  -exchange      EXHF   =         0.00000000
  -V(xc)+E(xc)   XCENC  =       173.35678214
  PAW double counting   =      4390.54758817    -4966.29399198
  entropy T*S    EENTRO =        -0.01844809
  eigenvalues    EBANDS =      -242.77170026
  atomic energy  EATOM  =      5575.94961827
  Solvation  Ediel_sol  =         0.00000000
  ---------------------------------------------------
  free energy    TOTEN  =       -17.18001819 eV

  energy without entropy =      -17.16157010  energy(sigma->0) =      -17.17079414


--------------------------------------------------------------------------------------------------------




--------------------------------------- Iteration      1(  17)  ---------------------------------------


    POTLOK:  cpu time    0.0120: real time    0.0119
    SETDIJ:  cpu time    0.0040: real time    0.0038
    EDDIAG:  cpu time    0.1350: real time    0.1356
  RMM-DIIS:  cpu time    0.3949: real time    0.3947
    ORTHCH:  cpu time    0.0150: real time    0.0155
       DOS:  cpu time    0.0060: real time    0.0058
    CHARGE:  cpu time    0.0350: real time    0.0352
    MIXING:  cpu time    0.0010: real time    0.0009
    --------------------------------------------
      LOOP:  cpu time    0.6029: real time    0.6034

 eigenvalue-minimisations  :  1697
 total energy-change (2. order) :-0.7485700E-04  (-0.2393431E-05)
 number of electron      45.0000037 magnetization 
 augmentation part       28.7883093 magnetization 

 Broyden mixing:
  rms(total) = 0.90193E-03    rms(broyden)= 0.72069E-03
  rms(prec ) = 0.10218E-02
  weight for this iteration     100.00
  WARNING: grid for Broyden might be to small

 eigenvalues of (default mixing * dielectric matrix)
  average eigenvalue GAMMA=   1.4904
  4.0021  4.0021  2.2848  2.2848  1.2638  0.9209  0.9209  0.2002  0.6644  0.5750
  0.3589  0.4070

 Free energy of the ion-electron system (eV)
  ---------------------------------------------------
  alpha Z        PSCENC =       120.87645803
  Ewald energy   TEWEN  =     38005.07754730
  -Hartree energ DENC   =    -43074.54594020
  -exchange      EXHF   =         0.00000000
  -V(xc)+E(xc)   XCENC  =       173.35794608
  PAW double counting   =      4390.35097143    -4966.09150731
  entropy T*S    EENTRO =        -0.01848491
  eigenvalues    EBANDS =      -242.13670172
  atomic energy  EATOM  =      5575.94961827
  Solvation  Ediel_sol  =         0.00000000
  ---------------------------------------------------
  free energy    TOTEN  =       -17.18009304 eV

  energy without entropy =      -17.16160813  energy(sigma->0) =      -17.17085059


--------------------------------------------------------------------------------------------------------




--------------------------------------- Iteration      1(  18)  ---------------------------------------


    POTLOK:  cpu time    0.0120: real time    0.0134
    SETDIJ:  cpu time    0.0040: real time    0.0035
    EDDIAG:  cpu time    0.1360: real time    0.1374
  RMM-DIIS:  cpu time    0.3130: real time    0.3121
    ORTHCH:  cpu time    0.0150: real time    0.0155
       DOS:  cpu time    0.0060: real time    0.0058
    CHARGE:  cpu time    0.0350: real time    0.0353
    MIXING:  cpu time    0.0010: real time    0.0010
    --------------------------------------------
      LOOP:  cpu time    0.5219: real time    0.5241

 eigenvalue-minimisations  :  1313
 total energy-change (2. order) :-0.6877396E-04  (-0.7031295E-06)
 number of electron      45.0000037 magnetization 
 augmentation part       28.7878767 magnetization 

 Broyden mixing:
  rms(total) = 0.71762E-03    rms(broyden)= 0.47266E-03
  rms(prec ) = 0.60016E-03
  weight for this iteration     100.00
  WARNING: grid for Broyden might be to small

 eigenvalues of (default mixing * dielectric matrix)
  average eigenvalue GAMMA=   1.5610
  5.9682  3.4428  2.3567  2.3567  1.2654  0.9532  0.9532  0.2002  0.7904  0.6656
  0.5751  0.4070  0.3589

 Free energy of the ion-electron system (eV)
  ---------------------------------------------------
  alpha Z        PSCENC =       120.87645803
  Ewald energy   TEWEN  =     38005.07754730
  -Hartree energ DENC   =    -43075.03185387
  -exchange      EXHF   =         0.00000000
  -V(xc)+E(xc)   XCENC  =       173.35819137
  PAW double counting   =      4390.45008498    -4966.19970891
  entropy T*S    EENTRO =        -0.01849803
  eigenvalues    EBANDS =      -241.64200096
  atomic energy  EATOM  =      5575.94961827
  Solvation  Ediel_sol  =         0.00000000
  ---------------------------------------------------
  free energy    TOTEN  =       -17.18016182 eV

  energy without entropy =      -17.16166379  energy(sigma->0) =      -17.17091280


--------------------------------------------------------------------------------------------------------




--------------------------------------- Iteration      1(  19)  ---------------------------------------


    POTLOK:  cpu time    0.0130: real time    0.0124
    SETDIJ:  cpu time    0.0030: real time    0.0034
    EDDIAG:  cpu time    0.1350: real time    0.1346
  RMM-DIIS:  cpu time    0.2930: real time    0.2930
    ORTHCH:  cpu time    0.0150: real time    0.0155
       DOS:  cpu time    0.0060: real time    0.0060
    CHARGE:  cpu time    0.0350: real time    0.0352
    MIXING:  cpu time    0.0020: real time    0.0013
    --------------------------------------------
      LOOP:  cpu time    0.5019: real time    0.5013

 eigenvalue-minimisations  :  1176
 total energy-change (2. order) :-0.2972764E-04  (-0.2686517E-06)
 number of electron      45.0000037 magnetization 
 augmentation part       28.7885772 magnetization 

 Broyden mixing:
  rms(total) = 0.67682E-03    rms(broyden)= 0.40780E-03
  rms(prec ) = 0.59717E-03
  weight for this iteration     100.00
  WARNING: grid for Broyden might be to small

 eigenvalues of (default mixing * dielectric matrix)
  average eigenvalue GAMMA=   1.6560
  5.9461  4.2921  2.4719  2.2742  2.0042  1.2268  0.9606  0.9606  0.2002  0.8411
  0.6651  0.5746  0.4070  0.3589

 Free energy of the ion-electron system (eV)
  ---------------------------------------------------
  alpha Z        PSCENC =       120.87645803
  Ewald energy   TEWEN  =     38005.07754730
  -Hartree energ DENC   =    -43075.25359658
  -exchange      EXHF   =         0.00000000
  -V(xc)+E(xc)   XCENC  =       173.35706250
  PAW double counting   =      4390.46645035    -4966.21529483
  entropy T*S    EENTRO =        -0.01846979
  eigenvalues    EBANDS =      -241.41996679
  atomic energy  EATOM  =      5575.94961827
  Solvation  Ediel_sol  =         0.00000000
  ---------------------------------------------------
  free energy    TOTEN  =       -17.18019155 eV

  energy without entropy =      -17.16172175  energy(sigma->0) =      -17.17095665


--------------------------------------------------------------------------------------------------------




--------------------------------------- Iteration      1(  20)  ---------------------------------------


    POTLOK:  cpu time    0.0120: real time    0.0140
    SETDIJ:  cpu time    0.0030: real time    0.0034
    EDDIAG:  cpu time    0.1360: real time    0.1363
  RMM-DIIS:  cpu time    0.2860: real time    0.2852
    ORTHCH:  cpu time    0.0150: real time    0.0155
       DOS:  cpu time    0.0060: real time    0.0058
    CHARGE:  cpu time    0.0350: real time    0.0349
    MIXING:  cpu time    0.0010: real time    0.0013
    --------------------------------------------
      LOOP:  cpu time    0.4939: real time    0.4964

 eigenvalue-minimisations  :  1133
 total energy-change (2. order) :-0.3089073E-04  (-0.1625975E-06)
 number of electron      45.0000037 magnetization 
 augmentation part       28.7882722 magnetization 

 Broyden mixing:
  rms(total) = 0.59888E-03    rms(broyden)= 0.25843E-03
  rms(prec ) = 0.39596E-03
  weight for this iteration     100.00
  WARNING: grid for Broyden might be to small

 eigenvalues of (default mixing * dielectric matrix)
  average eigenvalue GAMMA=   1.7588
  6.7499  4.9013  2.6449  2.6449  2.0435  1.3254  1.0874  0.9771  0.9771  0.2002
  0.8251  0.6650  0.5744  0.4070  0.3589

 Free energy of the ion-electron system (eV)
  ---------------------------------------------------
  alpha Z        PSCENC =       120.87645803
  Ewald energy   TEWEN  =     38005.07754730
  -Hartree energ DENC   =    -43075.38477662
  -exchange      EXHF   =         0.00000000
  -V(xc)+E(xc)   XCENC  =       173.35724960
  PAW double counting   =      4390.51435422    -4966.26757782
  entropy T*S    EENTRO =        -0.01849654
  eigenvalues    EBANDS =      -241.28459888
  atomic energy  EATOM  =      5575.94961827
  Solvation  Ediel_sol  =         0.00000000
  ---------------------------------------------------
  free energy    TOTEN  =       -17.18022244 eV

  energy without entropy =      -17.16172590  energy(sigma->0) =      -17.17097417


--------------------------------------------------------------------------------------------------------




--------------------------------------- Iteration      1(  21)  ---------------------------------------


    POTLOK:  cpu time    0.0120: real time    0.0118
    SETDIJ:  cpu time    0.0040: real time    0.0035
    EDDIAG:  cpu time    0.1340: real time    0.1344
  RMM-DIIS:  cpu time    0.2780: real time    0.2780
    ORTHCH:  cpu time    0.0150: real time    0.0158
       DOS:  cpu time    0.0060: real time    0.0059
    CHARGE:  cpu time    0.0350: real time    0.0350
    MIXING:  cpu time    0.0020: real time    0.0013
    --------------------------------------------
      LOOP:  cpu time    0.4859: real time    0.4857

 eigenvalue-minimisations  :  1082
 total energy-change (2. order) :-0.1640677E-04  (-0.6756146E-07)
 number of electron      45.0000037 magnetization 
 augmentation part       28.7884570 magnetization 

 Broyden mixing:
  rms(total) = 0.56619E-03    rms(broyden)= 0.17034E-03
  rms(prec ) = 0.18121E-03
  weight for this iteration     100.00
  WARNING: grid for Broyden might be to small

 eigenvalues of (default mixing * dielectric matrix)
  average eigenvalue GAMMA=   1.8766
  7.6693  5.1637  3.3118  2.3076  2.3076  1.9509  1.2835  0.2002  1.0151  1.0151
  0.9570  0.8386  0.6650  0.5744  0.3589  0.4070

 Free energy of the ion-electron system (eV)
  ---------------------------------------------------
  alpha Z        PSCENC =       120.87645803
  Ewald energy   TEWEN  =     38005.07754730
  -Hartree energ DENC   =    -43075.46511690
  -exchange      EXHF   =         0.00000000
  -V(xc)+E(xc)   XCENC  =       173.35731296
  PAW double counting   =      4390.48405498    -4966.23019034
  entropy T*S    EENTRO =        -0.01848602
  eigenvalues    EBANDS =      -241.21143711
  atomic energy  EATOM  =      5575.94961827
  Solvation  Ediel_sol  =         0.00000000
  ---------------------------------------------------
  free energy    TOTEN  =       -17.18023884 eV

  energy without entropy =      -17.16175282  energy(sigma->0) =      -17.17099583


--------------------------------------------------------------------------------------------------------




--------------------------------------- Iteration      1(  22)  ---------------------------------------


    POTLOK:  cpu time    0.0120: real time    0.0119
    SETDIJ:  cpu time    0.0040: real time    0.0037
    EDDIAG:  cpu time    0.1340: real time    0.1345
  RMM-DIIS:  cpu time    0.2790: real time    0.2784
    ORTHCH:  cpu time    0.0150: real time    0.0155
       DOS:  cpu time    0.0050: real time    0.0058
    CHARGE:  cpu time    0.0360: real time    0.0352
    MIXING:  cpu time    0.0010: real time    0.0012
    --------------------------------------------
      LOOP:  cpu time    0.4859: real time    0.4862

 eigenvalue-minimisations  :  1070
 total energy-change (2. order) :-0.6696411E-05  (-0.2449425E-07)
 number of electron      45.0000037 magnetization 
 augmentation part       28.7882814 magnetization 

 Broyden mixing:
  rms(total) = 0.56768E-03    rms(broyden)= 0.17538E-03
  rms(prec ) = 0.17883E-03
  weight for this iteration     100.00
  WARNING: grid for Broyden might be to small

 eigenvalues of (default mixing * dielectric matrix)
  average eigenvalue GAMMA=   1.9288
  8.1249  5.6996  3.3965  2.5746  2.5746  1.9504  1.4025  0.2002  0.3589  0.4070
  0.5744  0.6650  1.1336  0.9699  0.9699  0.9600  0.8279

 Free energy of the ion-electron system (eV)
  ---------------------------------------------------
  alpha Z        PSCENC =       120.87645803
  Ewald energy   TEWEN  =     38005.07754730
  -Hartree energ DENC   =    -43075.50484639
  -exchange      EXHF   =         0.00000000
  -V(xc)+E(xc)   XCENC  =       173.35744597
  PAW double counting   =      4390.49950863    -4966.24970478
  entropy T*S    EENTRO =        -0.01849172
  eigenvalues    EBANDS =      -241.16778085
  atomic energy  EATOM  =      5575.94961827
  Solvation  Ediel_sol  =         0.00000000
  ---------------------------------------------------
  free energy    TOTEN  =       -17.18024554 eV

  energy without entropy =      -17.16175382  energy(sigma->0) =      -17.17099968


--------------------------------------------------------------------------------------------------------




--------------------------------------- Iteration      1(  23)  ---------------------------------------


    POTLOK:  cpu time    0.0120: real time    0.0142
    SETDIJ:  cpu time    0.0040: real time    0.0037
    EDDIAG:  cpu time    0.1360: real time    0.1360
  RMM-DIIS:  cpu time    0.2720: real time    0.2712
    ORTHCH:  cpu time    0.0140: real time    0.0155
       DOS:  cpu time    0.0060: real time    0.0058
    CHARGE:  cpu time    0.0350: real time    0.0350
    MIXING:  cpu time    0.0020: real time    0.0015
    --------------------------------------------
      LOOP:  cpu time    0.4809: real time    0.4830

 eigenvalue-minimisations  :  1023
 total energy-change (2. order) :-0.1780487E-05  (-0.9645424E-08)
 number of electron      45.0000037 magnetization 
 augmentation part       28.7884213 magnetization 

 Broyden mixing:
  rms(total) = 0.56307E-03    rms(broyden)= 0.15979E-03
  rms(prec ) = 0.16140E-03
  weight for this iteration     100.00
  WARNING: grid for Broyden might be to small

 eigenvalues of (default mixing * dielectric matrix)
  average eigenvalue GAMMA=   2.0093
  8.6080  5.9666  3.8833  2.7884  2.3357  2.3357  1.9435  0.2002  1.3005  0.3589
  0.4070  0.5744  0.6651  0.9876  0.9876  1.0028  1.0028  0.8187

 Free energy of the ion-electron system (eV)
  ---------------------------------------------------
  alpha Z        PSCENC =       120.87645803
  Ewald energy   TEWEN  =     38005.07754730
  -Hartree energ DENC   =    -43075.50750639
  -exchange      EXHF   =         0.00000000
  -V(xc)+E(xc)   XCENC  =       173.35726607
  PAW double counting   =      4390.48323470    -4966.23195160
  entropy T*S    EENTRO =        -0.01848804
  eigenvalues    EBANDS =      -241.16642565
  atomic energy  EATOM  =      5575.94961827
  Solvation  Ediel_sol  =         0.00000000
  ---------------------------------------------------
  free energy    TOTEN  =       -17.18024732 eV

  energy without entropy =      -17.16175928  energy(sigma->0) =      -17.17100330


--------------------------------------------------------------------------------------------------------




--------------------------------------- Iteration      1(  24)  ---------------------------------------


    POTLOK:  cpu time    0.0120: real time    0.0124
    SETDIJ:  cpu time    0.0040: real time    0.0035
    EDDIAG:  cpu time    0.1350: real time    0.1347
  RMM-DIIS:  cpu time    0.2090: real time    0.2094
    ORTHCH:  cpu time    0.0150: real time    0.0156
       DOS:  cpu time    0.0060: real time    0.0058
    --------------------------------------------
      LOOP:  cpu time    0.3809: real time    0.3815

 eigenvalue-minimisations  :   315
 total energy-change (2. order) :-0.1093213E-08  (-0.4479225E-09)
 number of electron      45.0000037 magnetization 
 augmentation part       28.7884213 magnetization 

 Free energy of the ion-electron system (eV)
  ---------------------------------------------------
  alpha Z        PSCENC =       120.87645803
  Ewald energy   TEWEN  =     38005.07754730
  -Hartree energ DENC   =    -43075.51568546
  -exchange      EXHF   =         0.00000000
  -V(xc)+E(xc)   XCENC  =       173.35732954
  PAW double counting   =      4390.48465006    -4966.23354217
  entropy T*S    EENTRO =        -0.01848904
  eigenvalues    EBANDS =      -241.15813385
  atomic energy  EATOM  =      5575.94961827
  Solvation  Ediel_sol  =         0.00000000
  ---------------------------------------------------
  free energy    TOTEN  =       -17.18024732 eV

  energy without entropy =      -17.16175828  energy(sigma->0) =      -17.17100280


--------------------------------------------------------------------------------------------------------




 average (electrostatic) potential at core
  the test charge radii are     1.0053  0.5201
  (the norm of the test charge is              1.0000)
       1 -45.7654       2 -45.9925       3 -46.0159       4 -46.3167       5 -38.9124
 
 
 
 E-fermi :  -2.3211     XC(G=0):  -4.4086     alpha+bet : -2.7756


 k-point     1 :       0.0000    0.0000    0.0000
  band No.  band energies     occupation 
      1     -11.6123      2.00000
      2     -10.5972      2.00000
      3      -8.9886      2.00000
      4      -7.5303      2.00000
      5      -6.0844      2.00000
      6      -5.5618      2.00000
      7      -5.5430      2.00000
      8      -5.5132      2.00000
      9      -5.3199      2.00000
     10      -5.2821      2.00000
     11      -5.2802      2.00000
     12      -5.2273      2.00000
     13      -5.2262      2.00000
     14      -4.9712      2.00000
     15      -4.9708      2.00000
     16      -4.8806      2.00000
     17      -4.7629      2.00000
     18      -4.7328      2.00000
     19      -4.4777      2.00000
     20      -4.4773      2.00000
     21      -4.2594      2.00000
     22      -4.2585      2.00000
     23      -3.9875      2.00000
     24      -3.9869      2.00000
     25      -2.9208      2.00000
     26       1.6058      0.00000
     27       1.9181      0.00000
     28       2.3507      0.00000

 k-point     2 :       0.1000    0.0000    0.0000
  band No.  band energies     occupation 
      1     -11.3097      2.00000
      2     -10.2994      2.00000
      3      -8.7242      2.00000
      4      -7.3087      2.00000
      5      -6.0956      2.00000
      6      -5.6683      2.00000
      7      -5.6130      2.00000
      8      -5.4345      2.00000
      9      -5.3707      2.00000
     10      -5.3304      2.00000
     11      -5.2885      2.00000
     12      -5.2051      2.00000
     13      -5.1282      2.00000
     14      -5.1145      2.00000
     15      -4.9944      2.00000
     16      -4.8886      2.00000
     17      -4.7758      2.00000
     18      -4.6976      2.00000
     19      -4.4886      2.00000
     20      -4.4527      2.00000
     21      -4.2885      2.00000
     22      -4.2555      2.00000
     23      -3.9830      2.00000
     24      -3.7696      2.00000
     25      -2.2359      0.22869
     26       1.8508      0.00000
     27       2.2220      0.00000
     28       2.6534      0.00000

 k-point     3 :       0.2000   -0.0000    0.0000
  band No.  band energies     occupation 
      1     -10.4455      2.00000
      2      -9.4564      2.00000
      3      -8.0330      2.00000
      4      -6.7870      2.00000
      5      -6.2033      2.00000
      6      -5.9340      2.00000
      7      -5.7347      2.00000
      8      -5.6322      2.00000
      9      -5.4767      2.00000
     10      -5.2599      2.00000
     11      -5.2063      2.00000
     12      -5.1711      2.00000
     13      -5.0931      2.00000
     14      -5.0088      2.00000
     15      -4.8716      2.00000
     16      -4.8233      2.00000
     17      -4.7892      2.00000
     18      -4.6070      2.00000
     19      -4.5677      2.00000
     20      -4.4353      2.00000
     21      -4.2563      2.00000
     22      -4.0871      2.00000
     23      -3.9781      2.00000
     24      -2.9274      2.00000
     25      -0.9173      0.00000
     26       2.5776      0.00000
     27       3.1318      0.00000
     28       3.5611      0.00000

 k-point     4 :       0.3000   -0.0000    0.0000
  band No.  band energies     occupation 
      1      -9.2141      2.00000
      2      -8.2910      2.00000
      3      -7.3340      2.00000
      4      -6.5307      2.00000
      5      -6.3364      2.00000
      6      -6.1415      2.00000
      7      -5.8515      2.00000
      8      -5.6401      2.00000
      9      -5.5137      2.00000
     10      -5.2779      2.00000
     11      -5.1820      2.00000
     12      -5.0543      2.00000
     13      -4.8921      2.00000
     14      -4.8256      2.00000
     15      -4.7336      2.00000
[...]
      3      -7.3767      2.00000
      4      -6.5764      2.00000
      5      -6.3391      2.00000
      6      -6.1642      2.00000
      7      -5.8678      2.00000
      8      -5.6435      2.00000
      9      -5.5197      2.00000
     10      -5.2801      2.00000
     11      -5.1689      2.00000
     12      -5.0521      2.00000
     13      -4.8736      2.00000
     14      -4.8253      2.00000
     15      -4.7339      2.00000
     16      -4.5988      2.00000
     17      -4.5067      2.00000
     18      -4.3661      2.00000
     19      -4.3318      2.00000
     20      -4.2443      2.00000
     21      -4.1273      2.00000
     22      -3.9647      2.00000
     23      -3.5925      2.00000
     24      -1.7408      0.00000
     25       0.7613      0.00000
     26       3.7527      0.00000
     27       4.6139      0.00000
     28       5.0368      0.00000

 k-point    24 :      -0.4000    0.3000    0.0000
  band No.  band energies     occupation 
      1      -7.5351      2.00000
      2      -6.4393      2.00000
      3      -6.3693      2.00000
      4      -6.2276      2.00000
      5      -6.1331      2.00000
      6      -6.0469      2.00000
      7      -5.9523      2.00000
      8      -5.8885      2.00000
      9      -5.6917      2.00000
     10      -5.5376      2.00000
     11      -5.4187      2.00000
     12      -5.0382      2.00000
     13      -4.9870      2.00000
     14      -4.8030      2.00000
     15      -4.6577      2.00000
     16      -4.4966      2.00000
     17      -4.4447      2.00000
     18      -4.1463      2.00000
     19      -4.0700      2.00000
     20      -3.9781      2.00000
     21      -1.9358      0.00000
     22      -0.4115      0.00000
     23       0.6615      0.00000
     24       1.9481      0.00000
     25       2.3891      0.00000
     26       2.9972      0.00000
     27       3.1903      0.00000
     28       3.7745      0.00000

 k-point    25 :      -0.3000    0.3000    0.0000
  band No.  band energies     occupation 
      1      -7.5545      2.00000
      2      -6.4508      2.00000
      3      -6.3549      2.00000
      4      -6.2271      2.00000
      5      -6.1251      2.00000
      6      -6.0477      2.00000
      7      -5.9518      2.00000
      8      -5.8878      2.00000
      9      -5.6914      2.00000
     10      -5.5375      2.00000
     11      -5.4171      2.00000
     12      -5.0379      2.00000
     13      -4.9870      2.00000
     14      -4.8037      2.00000
     15      -4.6506      2.00000
     16      -4.4943      2.00000
     17      -4.4439      2.00000
     18      -4.1484      2.00000
     19      -4.0701      2.00000
     20      -3.9781      2.00000
     21      -1.9746      0.00000
     22      -0.3949      0.00000
     23       0.7091      0.00000
     24       2.0082      0.00000
     25       2.3835      0.00000
     26       2.9160      0.00000
     27       3.1937      0.00000
     28       3.9652      0.00000

 k-point    26 :      -0.2000    0.3000    0.0000
  band No.  band energies     occupation 
      1      -7.8353      2.00000
      2      -6.8825      2.00000
      3      -6.6547      2.00000
      4      -6.3962      2.00000
      5      -6.2517      2.00000
      6      -6.0721      2.00000
      7      -5.9579      2.00000
      8      -5.7518      2.00000
      9      -5.5760      2.00000
     10      -5.5076      2.00000
     11      -5.3396      2.00000
     12      -5.0573      2.00000
     13      -4.9579      2.00000
     14      -4.8078      2.00000
     15      -4.6236      2.00000
     16      -4.5265      2.00000
     17      -4.3708      2.00000
     18      -4.1922      2.00000
     19      -4.0323      2.00000
     20      -3.8834      2.00000
     21      -3.1958      2.00000
     22      -2.3525      1.34308
     23      -1.2402      0.00000
     24       0.7833      0.00000
     25       2.9640      0.00000
     26       3.2865      0.00000
     27       3.8815      0.00000
     28       5.0452      0.00000

 k-point    27 :      -0.1000    0.3000    0.0000
  band No.  band energies     occupation 
      1      -8.4407      2.00000
      2      -7.6194      2.00000
      3      -7.0650      2.00000
      4      -6.5285      2.00000
      5      -6.3566      2.00000
      6      -6.1633      2.00000
      7      -5.9437      2.00000
      8      -5.6284      2.00000
      9      -5.5354      2.00000
     10      -5.3205      2.00000
     11      -5.2350      2.00000
     12      -5.0811      2.00000
     13      -4.9007      2.00000
     14      -4.7304      2.00000
     15      -4.6107      2.00000
     16      -4.4908      2.00000
     17      -4.3662      2.00000
     18      -4.2357      2.00000
     19      -4.1574      2.00000
     20      -3.9843      2.00000
     21      -3.9331      2.00000
     22      -3.6159      2.00000
     23      -2.8314      2.00000
     24      -0.7644      0.00000
     25       1.9152      0.00000
     26       3.9717      0.00000
     27       4.3916      0.00000
     28       5.2086      0.00000

 k-point    28 :       0.0000    0.4000    0.0000
  band No.  band energies     occupation 
      1      -8.1790      2.00000
      2      -7.3889      2.00000
      3      -7.0305      2.00000
      4      -6.5931      2.00000
      5      -6.5070      2.00000
      6      -6.3055      2.00000
      7      -6.0086      2.00000
      8      -5.4361      2.00000
      9      -5.3056      2.00000
     10      -5.2547      2.00000
     11      -5.2174      2.00000
     12      -4.9125      2.00000
     13      -4.8278      2.00000
     14      -4.4755      2.00000
     15      -4.3515      2.00000
     16      -4.3142      2.00000
     17      -4.1039      2.00000
     18      -4.1008      2.00000
     19      -4.0477      2.00000
     20      -3.9661      2.00000
     21      -3.8107      2.00000
     22      -3.5237      2.00000
     23      -2.5190      1.99488
     24      -0.3365      0.00000
     25       2.2355      0.00000
     26       2.4668      0.00000
     27       3.2376      0.00000
     28       4.5119      0.00000

 k-point    29 :      -0.2000    0.4000    0.0000
  band No.  band energies     occupation 
      1      -7.6753      2.00000
      2      -6.6703      2.00000
      3      -6.5504      2.00000
      4      -6.3209      2.00000
      5      -6.2020      2.00000
      6      -6.1491      2.00000
      7      -5.9625      2.00000
      8      -5.8054      2.00000
      9      -5.5497      2.00000
     10      -5.4493      2.00000
     11      -5.2595      2.00000
     12      -5.0954      2.00000
     13      -4.8849      2.00000
     14      -4.6928      2.00000
     15      -4.5577      2.00000
     16      -4.4368      2.00000
     17      -4.2770      2.00000
     18      -4.1089      2.00000
     19      -4.0591      2.00000
     20      -3.9544      2.00000
     21      -2.4177      1.82812
     22      -0.7210      0.00000
     23      -0.1677      0.00000
     24       0.5952      0.00000
     25       2.0247      0.00000
     26       2.3020      0.00000
     27       3.3829      0.00000
     28       4.4902      0.00000

 k-point    30 :      -0.1000    0.4000    0.0000
  band No.  band energies     occupation 
      1      -7.9124      2.00000
      2      -7.0412      2.00000
      3      -6.8233      2.00000
      4      -6.5065      2.00000
      5      -6.4683      2.00000
      6      -6.2571      2.00000
      7      -6.0332      2.00000
      8      -5.5158      2.00000
      9      -5.3712      2.00000
     10      -5.2583      2.00000
     11      -5.2041      2.00000
     12      -5.0042      2.00000
     13      -4.7824      2.00000
     14      -4.5127      2.00000
     15      -4.3873      2.00000
     16      -4.2432      2.00000
     17      -4.1269      2.00000
     18      -4.0721      2.00000
     19      -4.0206      2.00000
     20      -3.8634      2.00000
     21      -3.4084      2.00000
     22      -2.3214      1.00417
     23      -1.3483      0.00000
     24       0.0864      0.00000
     25       1.8187      0.00000
     26       1.9550      0.00000
     27       3.0204      0.00000
     28       4.3095      0.00000

 k-point    31 :       0.0000    0.5000    0.0000
  band No.  band energies     occupation 
      1      -7.9575      2.00000
      2      -7.1178      2.00000
      3      -6.9021      2.00000
      4      -6.6006      2.00000
      5      -6.5543      2.00000
      6      -6.3554      2.00000
      7      -6.0468      2.00000
      8      -5.4070      2.00000
      9      -5.2892      2.00000
     10      -5.2277      2.00000
     11      -5.0231      2.00000
     12      -4.9325      2.00000
     13      -4.5891      2.00000
     14      -4.4398      2.00000
     15      -4.2547      2.00000
     16      -4.1467      2.00000
     17      -4.0440      2.00000
     18      -3.9495      2.00000
     19      -3.8911      2.00000
     20      -3.6937      2.00000
     21      -3.6753      2.00000
     22      -2.1879      0.05968
     23      -1.3578      0.00000
     24      -0.8170      0.00000
     25       1.3649      0.00000
     26       1.6536      0.00000
     27       2.7374      0.00000
     28       3.8831      0.00000


--------------------------------------------------------------------------------------------------------


 soft charge-density along one line, spin component           1
         0         1         2         3         4         5         6         7         8         9
 total charge-density along one line
 
 pseudopotential strength for first ion, spin component:           1
-10.809   0.000   0.000  -0.004   0.000   1.726  -0.000  -0.000
  0.000 -10.787   0.000   0.000  -0.004  -0.000   1.715  -0.000
  0.000   0.000 -10.787  -0.000  -0.000  -0.000  -0.000   1.715
 -0.004   0.000  -0.000 -10.786  -0.000   0.002  -0.000   0.000
  0.000  -0.004  -0.000  -0.000 -10.809  -0.000   0.002   0.000
  1.726  -0.000  -0.000   0.002  -0.000   0.782   0.000   0.000
 -0.000   1.715  -0.000  -0.000   0.002   0.000   0.787   0.000
 -0.000  -0.000   1.715   0.000   0.000   0.000   0.000   0.788
  0.002  -0.000   0.000   1.715   0.000  -0.001   0.000  -0.000
 -0.000   0.002   0.000   0.000   1.726   0.000  -0.001  -0.000
 -0.000  -0.000  -0.005   0.000  -0.000  -0.000   0.000   0.002
  0.000   0.000   0.000  -0.000   0.000  -0.000  -0.000  -0.000
  0.000  -0.011  -0.000  -0.000   0.000   0.000   0.006   0.000
 -0.000   0.000  -0.011   0.000  -0.000  -0.000  -0.000   0.006
  0.000  -0.000  -0.000  -0.011   0.000  -0.000  -0.000  -0.000
 -0.000   0.006  -0.000   0.000  -0.000   0.000  -0.003   0.000
  0.000   0.000   0.006   0.000   0.000  -0.000  -0.000  -0.003
 -0.000   0.000   0.000   0.006  -0.000   0.000  -0.000  -0.000
 total augmentation occupancy for first ion, spin component:           1
  1.927   0.000   0.000  -0.002   0.000  -0.003   0.000   0.000   0.010   0.000   0.000   0.000   0.000   0.000   0.005   0.000
  0.000   1.932   0.000   0.000  -0.002   0.000  -0.036  -0.000   0.000   0.010  -0.000  -0.000  -0.003  -0.000   0.000  -0.005
  0.000   0.000   1.933   0.000  -0.000   0.000  -0.000  -0.026   0.000   0.000   0.014   0.040  -0.000   0.036   0.000   0.000
 -0.002   0.000   0.000   1.932   0.000   0.010   0.000   0.000  -0.036   0.000   0.000   0.000   0.000   0.000  -0.003   0.000
  0.000  -0.002  -0.000   0.000   1.927   0.000   0.010   0.000   0.000  -0.003   0.000   0.000   0.005   0.000   0.000  -0.001
 -0.003   0.000   0.000   0.010   0.000   0.059   0.000   0.000   0.001   0.000   0.000   0.000   0.000   0.000   0.005   0.000
  0.000  -0.036  -0.000   0.000   0.010   0.000   0.038  -0.000   0.000   0.001   0.000   0.000   0.030  -0.000   0.000  -0.002
  0.000  -0.000  -0.026   0.000   0.000   0.000  -0.000   0.054   0.000  -0.000  -0.076   0.014   0.000   0.041   0.000  -0.000
  0.010   0.000   0.000  -0.036   0.000   0.001   0.000   0.000   0.038   0.000   0.000   0.000   0.000   0.000   0.030   0.000
  0.000   0.010   0.000   0.000  -0.003   0.000   0.001  -0.000   0.000   0.059  -0.000   0.000   0.005  -0.000   0.000  -0.000
  0.000  -0.000   0.014   0.000   0.000   0.000   0.000  -0.076   0.000  -0.000   1.238  -0.278   0.000   0.069   0.000  -0.000
  0.000  -0.000   0.040   0.000   0.000   0.000   0.000   0.014   0.000   0.000  -0.278   0.108   0.000  -0.044   0.000   0.000
  0.000  -0.003  -0.000   0.000   0.005   0.000   0.030   0.000   0.000   0.005   0.000   0.000   0.169   0.000   0.000  -0.010
  0.000  -0.000   0.036   0.000   0.000   0.000  -0.000   0.041   0.000  -0.000   0.069  -0.044   0.000   0.090   0.000  -0.000
  0.005   0.000   0.000  -0.003   0.000   0.005   0.000   0.000   0.030   0.000   0.000   0.000   0.000   0.000   0.168   0.000
  0.000  -0.005   0.000   0.000  -0.001   0.000  -0.002  -0.000   0.000  -0.000  -0.000   0.000  -0.010  -0.000   0.000   0.001
  0.000  -0.000  -0.008   0.000   0.000   0.000   0.000  -0.002   0.000   0.000  -0.013   0.006   0.000  -0.006   0.000   0.000
 -0.001   0.000   0.000  -0.005   0.000  -0.000   0.000   0.000  -0.002   0.000   0.000   0.000   0.000   0.000  -0.010   0.000


------------------------ aborting loop because EDIFF is reached ----------------------------------------


 


 total charge     
 
# of ion       s       p       d       tot
------------------------------------------
    1        0.454   0.283   9.218   9.956
    2        0.441   0.363   9.220  10.024
    3        0.452   0.369   9.211  10.032
    4        0.422   0.445   9.201  10.068
    5        0.496   0.014   0.000   0.510
--------------------------------------------------
tot          2.265   1.474  36.850  40.590
 
    CHARGE:  cpu time    0.0360: real time    0.0353
    FORLOC:  cpu time    0.0010: real time    0.0014
    FORNL :  cpu time    0.1850: real time    0.1852
    STRESS:  cpu time    0.5589: real time    0.5596
    FORCOR:  cpu time    0.0130: real time    0.0121
    FORHAR:  cpu time    0.0030: real time    0.0032
    MIXING:  cpu time    0.0010: real time    0.0012
    OFIELD:  cpu time    0.0000: real time    0.0000

  FORCE on cell =-STRESS in cart. coord.  units (eV):
  Direction    XX          YY          ZZ          XY          YZ          ZX
  --------------------------------------------------------------------------------------
  Alpha Z   120.87646   120.87646   120.87646
  Ewald   40931.07811 40940.18933-43866.19359    -0.00000     3.45251     0.00000
  Hartree 42246.36145 42249.83387-41420.67856     0.00004     1.00634    -0.00001
  E(xc)    -253.03720  -252.99883  -253.53488    -0.00255     0.00941     0.00023
  Local  -83445.05812-83456.72125 85017.70443     0.00516    -3.93395    -0.00098
  n-local  -156.09634  -156.05486  -156.78118     2.09412     0.07863     0.29987
  augment   225.83823   225.55150   226.44619    -0.01289    -0.18561     0.00326
  Kinetic   324.71594   324.11749   326.56859   -10.78185    -0.16655    -0.11529
  Fock        0.00000     0.00000     0.00000     0.00000     0.00000     0.00000
  -------------------------------------------------------------------------------------
  Total      -5.32147    -5.20629    -5.59255     0.00000     0.26079     0.00000
  in kB     -49.03757   -47.97621   -51.53559     0.00000     2.40321     0.00000
  external pressure =      -49.52 kB  Pullay stress =        0.00 kB


 VOLUME and BASIS-vectors are now :
 -----------------------------------------------------------------------------
  energy-cutoff  :      250.00
  volume of cell :      173.87
      direct lattice vectors                 reciprocal lattice vectors
     2.573868684  0.000000000  0.000000000     0.388520209 -0.224312248  0.000000000
     1.286934342  2.229035666  0.000000000     0.000000000  0.448624495  0.000000000
     0.000000000  0.000000000 30.304664940     0.000000000  0.000000000  0.032998220

  length of vectors
     2.573868684  2.573868684 30.304664940     0.448624495  0.448624495  0.032998220


 FORCES acting on ions
    electron-ion (+dipol)            ewald-force                    non-local-force                 convergence-correction
 -----------------------------------------------------------------------------------------------
   -.253E-03 0.741E-02 0.421E+04   -.367E-07 0.357E-06 -.421E+04   0.434E-18 -.840E-02 -.154E+01   -.688E-09 -.227E-06 0.794E-03
   -.454E-04 0.215E-02 0.149E+04   0.102E-09 -.268E-04 -.149E+04   -.325E-18 -.155E-02 -.734E+00   0.211E-09 0.803E-07 -.935E-03
   0.225E-04 -.441E-01 -.124E+04   0.110E-06 0.233E-01 0.124E+04   -.867E-18 0.132E-01 0.293E+00   0.149E-09 -.221E-05 -.112E-02
   0.178E-03 0.374E+01 -.398E+04   -.151E-06 -.352E+01 0.398E+04   0.278E-16 -.445E+00 0.193E+00   0.175E-08 -.632E-05 -.570E-03
   0.213E-05 -.311E+01 -.478E+03   0.776E-07 0.350E+01 0.479E+03   0.694E-17 -.150E+00 -.136E+01   0.467E-09 0.518E-06 0.451E-05
 -----------------------------------------------------------------------------------------------
   -.965E-04 0.592E+00 0.315E+01   -.150E-12 0.333E-13 0.114E-12   0.339E-16 -.592E+00 -.315E+01   0.189E-08 -.816E-05 -.182E-02
 
 
 POSITION                                       TOTAL-FORCE (eV/Angst)
 -----------------------------------------------------------------------------------
      0.00000      0.00000     12.00000         0.000000     -0.001117      0.151534
      1.28693      0.74301     14.10155         0.000000      0.000452     -0.022637
      2.57387      1.48602     16.20311         0.000000     -0.007734     -0.295232
      0.00000      0.00000     18.30466         0.000000     -0.229449      0.743499
      2.57387      1.38602     19.30466        -0.000000      0.237848     -0.577164
 -----------------------------------------------------------------------------------
    total drift:                               -0.000096      0.000614     -0.000718


--------------------------------------------------------------------------------------------------------



  FREE ENERGIE OF THE ION-ELECTRON SYSTEM (eV)
  ---------------------------------------------------
  free  energy   TOTEN  =       -17.18024732 eV

  energy  without entropy=      -17.16175828  energy(sigma->0) =      -17.17100280
 


--------------------------------------------------------------------------------------------------------


    POTLOK:  cpu time    0.0150: real time    0.0150


--------------------------------------------------------------------------------------------------------


     LOOP+:  cpu time   15.3267: real time   15.4254
    4ORBIT:  cpu time    0.0000: real time    0.0000
 


 total charge     
 
# of ion       s       p       d       tot
------------------------------------------
    1        0.454   0.283   9.218   9.956
    2        0.441   0.363   9.220  10.024
    3        0.452   0.369   9.211  10.032
    4        0.422   0.445   9.201  10.068
    5        0.496   0.014   0.000   0.510
--------------------------------------------------
tot          2.265   1.474  36.850  40.590
 

 total amount of memory used by VASP MPI-rank0    39170. kBytes
=======================================================================

   base      :      30000. kBytes
   nonlr-proj:        677. kBytes
   fftplans  :        995. kBytes
   grid      :       1592. kBytes
   one-center:         46. kBytes
   wavefun   :       5860. kBytes
 
  
  
 General timing and accounting informations for this job:
 ========================================================
  
                  Total CPU time used (sec):       16.695
                            User time (sec):       16.375
                          System time (sec):        0.321
                         Elapsed time (sec):       17.102
  
                   Maximum memory used (kb):       39396.
                   Average memory used (kb):           0.
  
                          Minor page faults:        16882
                          Major page faults:          119
                 Voluntary context switches:         3211
