PROCAR lm decomposed
# of k-points:   31         # of bands:   28         # of ions:    5

 k-point     1 :    0.00000000 0.00000000 0.00000000     weight = 0.01000000

band     1 # energy  -11.61231121 # occ.  2.00000000
 
ion      s     py     pz     px    dxy    dyz    dz2    dxz  x2-y2    tot
    1  0.007  0.000  0.001  0.000  0.000  0.000  0.000  0.000  0.000  0.008
    2  0.043  0.000  0.002  0.000  0.000  0.000  0.000  0.000  0.000  0.045
    3  0.134  0.000  0.003  0.000  0.000  0.000  0.000  0.000  0.000  0.137
    4  0.304  0.000  0.000  0.000  0.000  0.000  0.009  0.000  0.000  0.314
    5  0.088  0.000  0.001  0.000  0.000  0.000  0.000  0.000  0.000  0.089
tot    0.576  0.000  0.007  0.000  0.000  0.000  0.009  0.000  0.000  0.592
 
band     2 # energy  -10.59717345 # occ.  2.00000000
 
ion      s     py     pz     px    dxy    dyz    dz2    dxz  x2-y2    tot
    1  0.117  0.000  0.010  0.000  0.000  0.000  0.000  0.000  0.000  0.128
    2  0.263  0.000  0.000  0.000  0.000  0.000  0.002  0.000  0.000  0.266
    3  0.050  0.000  0.018  0.000  0.000  0.000  0.001  0.000  0.000  0.068
    4  0.067  0.000  0.008  0.000  0.000  0.000  0.011  0.000  0.000  0.087
    5  0.039  0.000  0.000  0.000  0.000  0.000  0.000  0.000  0.000  0.040
tot    0.537  0.000  0.037  0.000  0.000  0.000  0.015  0.000  0.000  0.588
 
band     3 # energy   -8.98862111 # occ.  2.00000000
 
ion      s     py     pz     px    dxy    dyz    dz2    dxz  x2-y2    tot
    1  0.190  0.000  0.002  0.000  0.000  0.000  0.020  0.000  0.000  0.212
    2  0.004  0.000  0.045  0.000  0.000  0.000  0.001  0.000  0.000  0.050
    3  0.203  0.000  0.000  0.000  0.000  0.000  0.040  0.000  0.000  0.243
    4  0.009  0.000  0.031  0.000  0.000  0.000  0.025  0.000  0.000  0.066
    5  0.032  0.000  0.000  0.000  0.000  0.000  0.000  0.000  0.000  0.032
tot    0.437  0.000  0.079  0.000  0.000  0.000  0.086  0.000  0.000  0.603
 
band     4 # energy   -7.53028269 # occ.  2.00000000
 
ion      s     py     pz     px    dxy    dyz    dz2    dxz  x2-y2    tot
    1  0.109  0.000  0.005  0.000  0.000  0.000  0.131  0.000  0.000  0.245
    2  0.101  0.000  0.003  0.000  0.000  0.000  0.226  0.000  0.000  0.329
    3  0.032  0.000  0.014  0.000  0.000  0.000  0.091  0.000  0.000  0.137
    4  0.000  0.000  0.011  0.000  0.000  0.000  0.014  0.000  0.000  0.026
    5  0.006  0.000  0.000  0.000  0.000  0.000  0.000  0.000  0.000  0.006
tot    0.247  0.000  0.034  0.000  0.000  0.000  0.462  0.000  0.000  0.743
 
band     5 # energy   -6.08442864 # occ.  2.00000000
 
ion      s     py     pz     px    dxy    dyz    dz2    dxz  x2-y2    tot
    1  0.000  0.000  0.000  0.000  0.000  0.000  0.004  0.000  0.000  0.004
    2  0.001  0.000  0.001  0.000  0.000  0.000  0.005  0.000  0.000  0.007
    3  0.002  0.000  0.002  0.000  0.000  0.000  0.077  0.000  0.000  0.081
    4  0.005  0.000  0.042  0.000  0.000  0.003  0.593  0.000  0.009  0.651
    5  0.049  0.000  0.001  0.000  0.000  0.000  0.000  0.000  0.000  0.050
tot    0.056  0.000  0.045  0.000  0.000  0.003  0.680  0.000  0.009  0.793
 
band     6 # energy   -5.56184919 # occ.  2.00000000
 
ion      s     py     pz     px    dxy    dyz    dz2    dxz  x2-y2    tot
    1  0.000  0.000  0.001  0.000  0.000  0.000  0.028  0.000  0.000  0.029
    2  0.001  0.000  0.001  0.000  0.000  0.000  0.002  0.000  0.003  0.007
    3  0.001  0.000  0.007  0.000  0.000  0.011  0.273  0.000  0.011  0.303
    4  0.003  0.000  0.009  0.000  0.000  0.003  0.140  0.000  0.449  0.604
    5  0.002  0.000  0.000  0.000  0.000  0.000  0.000  0.000  0.000  0.003
tot    0.007  0.001  0.017  0.000  0.000  0.014  0.443  0.000  0.463  0.946
 
band     7 # energy   -5.54304631 # occ.  2.00000000
 
ion      s     py     pz     px    dxy    dyz    dz2    dxz  x2-y2    tot
    1  0.000  0.000  0.000  0.000  0.000  0.000  0.000  0.000  0.000  0.000
    2  0.000  0.000  0.000  0.000  0.008  0.000  0.000  0.000  0.000  0.008
    3  0.000  0.000  0.000  0.000  0.015  0.000  0.000  0.028  0.000  0.043
    4  0.000  0.000  0.000  0.000  0.914  0.000  0.000  0.000  0.000  0.914
    5  0.000  0.000  0.000  0.001  0.000  0.000  0.000  0.000  0.000  0.001
tot    0.000  0.000  0.000  0.001  0.937  0.000  0.000  0.029  0.000  0.967
 
band     8 # energy   -5.51318539 # occ.  2.00000000
 
ion      s     py     pz     px    dxy    dyz    dz2    dxz  x2-y2    tot
    1  0.000  0.000  0.001  0.000  0.000  0.000  0.033  0.000  0.000  0.034
    2  0.001  0.000  0.003  0.000  0.000  0.000  0.003  0.000  0.005  0.012
    3  0.001  0.000  0.003  0.000  0.000  0.013  0.339  0.000  0.011  0.368
    4  0.001  0.000  0.012  0.000  0.000  0.001  0.070  0.000  0.441  0.524
    5  0.003  0.001  0.000  0.000  0.000  0.000  0.000  0.000  0.000  0.004
tot    0.006  0.001  0.018  0.000  0.000  0.014  0.446  0.000  0.457  0.942
 
band     9 # energy   -5.31994745 # occ.  2.00000000
 
ion      s     py     pz     px    dxy    dyz    dz2    dxz  x2-y2    tot
    1  0.001  0.000  0.005  0.000  0.000  0.000  0.255  0.000  0.000  0.261
    2  0.004  0.000  0.000  0.000  0.000  0.000  0.583  0.000  0.001  0.589
    3  0.001  0.000  0.013  0.000  0.000  0.001  0.053  0.000  0.001  0.068
    4  0.002  0.000  0.006  0.000  0.000  0.001  0.000  0.000  0.004  0.013
    5  0.003  0.000  0.000  0.000  0.000  0.000  0.000  0.000  0.000  0.003
tot    0.010  0.000  0.025  0.000  0.000  0.002  0.891  0.000  0.006  0.933
 
band    10 # energy   -5.28207777 # occ.  2.00000000
 
ion      s     py     pz     px    dxy    dyz    dz2    dxz  x2-y2    tot
    1  0.000  0.000  0.000  0.000  0.000  0.001  0.001  0.000  0.014  0.016
    2  0.000  0.000  0.000  0.000  0.000  0.054  0.001  0.000  0.008  0.064
    3  0.000  0.000  0.000  0.000  0.005  0.025  0.000  0.000  0.720  0.749
    4  0.000  0.000  0.000  0.000  0.000  0.116  0.000  0.001  0.019  0.137
    5  0.000  0.000  0.000  0.000  0.000  0.000  0.000  0.000  0.000  0.000
tot    0.000  0.000  0.000  0.000  0.005  0.196  0.002  0.001  0.762  0.967
 
band    11 # energy   -5.28021877 # occ.  2.00000000
 
ion      s     py     pz     px    dxy    dyz    dz2    dxz  x2-y2    tot
    1  0.000  0.000  0.000  0.000  0.015  0.000  0.000  0.000  0.000  0.016
    2  0.000  0.000  0.000  0.000  0.017  0.000  0.000  0.053  0.000  0.071
    3  0.000  0.000  0.000  0.000  0.740  0.000  0.000  0.019  0.005  0.764
    4  0.000  0.000  0.000  0.000  0.010  0.001  0.000  0.105  0.000  0.116
    5  0.000  0.000  0.000  0.000  0.000  0.000  0.000  0.000  0.000  0.000
tot    0.000  0.000  0.000  0.000  0.783  0.001  0.000  0.177  0.005  0.967
 
band    12 # energy   -5.22725944 # occ.  2.00000000
 
ion      s     py     pz     px    dxy    dyz    dz2    dxz  x2-y2    tot
    1  0.000  0.000  0.000  0.000  0.000  0.027  0.001  0.001  0.008  0.037
    2  0.000  0.000  0.000  0.000  0.018  0.009  0.000  0.000  0.822  0.850
    3  0.000  0.000  0.000  0.000  0.000  0.052  0.000  0.001  0.000  0.053
    4  0.000  0.000  0.000  0.000  0.000  0.011  0.000  0.000  0.014  0.026
    5  0.000  0.000  0.000  0.000  0.000  0.000  0.000  0.000  0.000  0.000
tot    0.000  0.000  0.000  0.000  0.019  0.099  0.002  0.002  0.844  0.966
 
band    13 # energy   -5.22615601 # occ.  2.00000000
 
ion      s     py     pz     px    dxy    dyz    dz2    dxz  x2-y2    tot
    1  0.000  0.000  0.000  0.000  0.006  0.001  0.000  0.028  0.000  0.035
    2  0.000  0.000  0.000  0.000  0.817  0.000  0.000  0.011  0.018  0.846
    3  0.000  0.000  0.000  0.000  0.003  0.001  0.000  0.054  0.000  0.058
    4  0.000  0.000  0.000  0.000  0.014  0.000  0.000  0.012  0.000  0.027
    5  0.000  0.000  0.000  0.000  0.000  0.000  0.000  0.000  0.000  0.000
tot    0.000  0.000  0.000  0.000  0.841  0.002  0.000  0.104  0.019  0.967
 
band    14 # energy   -4.97124857 # occ.  2.00000000
 
ion      s     py     pz     px    dxy    dyz    dz2    dxz  x2-y2    tot
    1  0.000  0.000  0.000  0.000  0.104  0.006  0.000  0.001  0.730  0.841
    2  0.000  0.000  0.000  0.000  0.000  0.072  0.000  0.010  0.001  0.084
    3  0.000  0.000  0.000  0.000  0.004  0.002  0.000  0.000  0.025  0.031
    4  0.000  0.000  0.000  0.000  0.000  0.009  0.000  0.001  0.002  0.012
    5  0.000  0.000  0.000  0.000  0.000  0.000  0.000  0.000  0.000  0.000
tot    0.000  0.000  0.000  0.000  0.108  0.090  0.000  0.012  0.758  0.968
 
band    15 # energy   -4.97075011 # occ.  2.00000000
 
ion      s     py     pz     px    dxy    dyz    dz2    dxz  x2-y2    tot
    1  0.000  0.000  0.000  0.000  0.731  0.001  0.000  0.006  0.104  0.842
    2  0.000  0.000  0.000  0.000  0.001  0.010  0.000  0.071  0.000  0.083
    3  0.000  0.000  0.000  0.000  0.027  0.000  0.000  0.003  0.004  0.034
    4  0.000  0.000  0.000  0.000  0.001  0.001  0.000  0.007  0.000  0.010
    5  0.000  0.000  0.000  0.000  0.000  0.000  0.000  0.000  0.000  0.000
tot    0.000  0.000  0.000  0.000  0.760  0.013  0.000  0.087  0.108  0.968
 
band    16 # energy   -4.88062026 # occ.  2.00000000
 
ion      s     py     pz     px    dxy    dyz    dz2    dxz  x2-y2    tot
    1  0.026  0.000  0.000  0.000  0.000  0.000  0.388  0.000  0.000  0.415
    2  0.012  0.000  0.044  0.000  0.000  0.000  0.049  0.000  0.002  0.107
    3  0.000  0.000  0.076  0.000  0.000  0.004  0.001  0.000  0.011  0.092
    4  0.014  0.000  0.040  0.000  0.000  0.033  0.026  0.000  0.002  0.115
    5  0.016  0.000  0.000  0.000  0.000  0.000  0.000  0.000  0.000  0.016
tot    0.067  0.000  0.160  0.000  0.000  0.037  0.464  0.000  0.015  0.744
 
band    17 # energy   -4.76289671 # occ.  2.00000000
 
ion      s     py     pz     px    dxy    dyz    dz2    dxz  x2-y2    tot
    1  0.001  0.000  0.000  0.000  0.000  0.004  0.016  0.000  0.001  0.022
    2  0.001  0.000  0.002  0.000  0.000  0.005  0.004  0.000  0.021  0.033
    3  0.000  0.000  0.005  0.000  0.000  0.086  0.000  0.000  0.139  0.230
    4  0.000  0.000  0.004  0.000  0.000  0.673  0.000  0.000  0.003  0.680
    5  0.001  0.001  0.000  0.000  0.000  0.000  0.000  0.000  0.000  0.002
tot    0.004  0.001  0.010  0.000  0.000  0.767  0.020  0.000  0.164  0.967
 
band    18 # energy   -4.73279274 # occ.  2.00000000
 
ion      s     py     pz     px    dxy    dyz    dz2    dxz  x2-y2    tot
    1  0.000  0.000  0.000  0.000  0.000  0.000  0.000  0.004  0.000  0.004
    2  0.000  0.000  0.000  0.000  0.022  0.000  0.000  0.004  0.000  0.026
    3  0.000  0.000  0.000  0.000  0.133  0.000  0.000  0.106  0.000  0.239
    4  0.000  0.000  0.000  0.000  0.007  0.000  0.000  0.707  0.000  0.714
    5  0.000  0.000  0.000  0.000  0.000  0.000  0.000  0.000  0.000  0.000
tot    0.000  0.000  0.000  0.001  0.163  0.000  0.000  0.821  0.000  0.984
 
band    19 # energy   -4.47773814 # occ.  2.00000000
 
ion      s     py     pz     px    dxy    dyz    dz2    dxz  x2-y2    tot
    1  0.000  0.000  0.000  0.000  0.002  0.047  0.000  0.001  0.091  0.141
    2  0.000  0.000  0.000  0.000  0.002  0.432  0.000  0.012  0.061  0.506
    3  0.000  0.000  0.000  0.000  0.001  0.246  0.000  0.006  0.025  0.278
    4  0.000  0.000  0.000  0.000  0.000  0.047  0.000  0.002  0.011  0.060
    5  0.000  0.000  0.000  0.000  0.000  0.000  0.000  0.000  0.000  0.000
tot    0.000  0.000  0.000  0.000  0.005  0.771  0.000  0.021  0.187  0.984
 
band    20 # energy   -4.47726922 # occ.  2.00000000
 
ion      s     py     pz     px    dxy    dyz    dz2    dxz  x2-y2    tot
    1  0.000  0.000  0.000  0.000  0.091  0.001  0.000  0.048  0.002  0.142
    2  0.000  0.000  0.000  0.000  0.060  0.012  0.000  0.433  0.002  0.506
    3  0.000  0.000  0.000  0.000  0.023  0.007  0.000  0.238  0.001  0.269
    4  0.000  0.000  0.000  0.000  0.009  0.001  0.000  0.056  0.000  0.067
    5  0.000  0.000  0.000  0.000  0.000  0.000  0.000  0.000  0.000  0.000
tot    0.000  0.000  0.000  0.000  0.183  0.021  0.000  0.775  0.005  0.984
 
band    21 # energy   -4.25936900 # occ.  2.00000000
 
ion      s     py     pz     px    dxy    dyz    dz2    dxz  x2-y2    tot
    1  0.000  0.000  0.000  0.000  0.000  0.323  0.000  0.001  0.011  0.336
    2  0.000  0.000  0.000  0.000  0.000  0.118  0.000  0.000  0.000  0.118
    3  0.000  0.000  0.000  0.000  0.000  0.436  0.000  0.002  0.010  0.447
    4  0.000  0.000  0.000  0.000  0.000  0.074  0.000  0.000  0.011  0.085
    5  0.000  0.000  0.000  0.000  0.000  0.000  0.000  0.000  0.000  0.000
tot    0.000  0.000  0.000  0.000  0.000  0.950  0.000  0.004  0.032  0.986
 
band    22 # energy   -4.25845561 # occ.  2.00000000
 
ion      s     py     pz     px    dxy    dyz    dz2    dxz  x2-y2    tot
    1  0.000  0.000  0.000  0.000  0.011  0.001  0.000  0.321  0.000  0.334
    2  0.000  0.000  0.000  0.000  0.000  0.000  0.000  0.117  0.000  0.118
    3  0.000  0.000  0.000  0.000  0.011  0.002  0.000  0.429  0.000  0.442
    4  0.000  0.000  0.000  0.000  0.009  0.000  0.000  0.083  0.000  0.093
    5  0.000  0.000  0.000  0.000  0.000  0.000  0.000  0.000  0.000  0.000
tot    0.000  0.000  0.000  0.000  0.031  0.004  0.000  0.951  0.000  0.986
 
band    23 # energy   -3.98748410 # occ.  2.00000000
 
ion      s     py     pz     px    dxy    dyz    dz2    dxz  x2-y2    tot
    1  0.000  0.000  0.000  0.000  0.000  0.565  0.000  0.007  0.007  0.580
    2  0.000  0.000  0.000  0.000  0.000  0.268  0.000  0.003  0.023  0.295
    3  0.000  0.000  0.000  0.000  0.000  0.097  0.000  0.001  0.007  0.105
    4  0.000  0.000  0.000  0.000  0.000  0.009  0.000  0.000  0.002  0.010
    5  0.000  0.000  0.000  0.000  0.000  0.000  0.000  0.000  0.000  0.000
tot    0.000  0.000  0.000  0.000  0.000  0.940  0.000  0.011  0.038  0.990
 
band    24 # energy   -3.98690576 # occ.  2.00000000
 
ion      s     py     pz     px    dxy    dyz    dz2    dxz  x2-y2    tot
    1  0.000  0.000  0.000  0.000  0.007  0.007  0.000  0.566  0.000  0.580
    2  0.000  0.000  0.000  0.000  0.023  0.003  0.000  0.268  0.000  0.294
    3  0.000  0.000  0.000  0.000  0.007  0.001  0.000  0.096  0.000  0.104
    4  0.000  0.000  0.000  0.000  0.001  0.000  0.000  0.009  0.000  0.011
    5  0.000  0.000  0.000  0.000  0.000  0.000  0.000  0.000  0.000  0.000
tot    0.000  0.000  0.000  0.000  0.038  0.011  0.000  0.940  0.000  0.990
 
band    25 # energy   -2.92075430 # occ.  2.00000000
 
ion      s     py     pz     px    dxy    dyz    dz2    dxz  x2-y2    tot
    1  0.020  0.000  0.152  0.000  0.000  0.000  0.031  0.000  0.000  0.203
    2  0.015  0.000  0.079  0.000  0.000  0.000  0.023  0.000  0.000  0.117
    3  0.012  0.000  0.036  0.000  0.000  0.000  0.018  0.000  0.000  0.066
    4  0.009  0.000  0.012  0.000  0.000  0.000  0.008  0.000  0.000  0.030
    5  0.004  0.000  0.000  0.000  0.000  0.000  0.000  0.000  0.000  0.004
tot    0.060  0.000  0.280  0.000  0.000  0.000  0.081  0.000  0.000  0.420
 
band    26 # energy    1.60575141 # occ.  0.00000000
 
ion      s     py     pz     px    dxy    dyz    dz2    dxz  x2-y2    tot
    1  0.018  0.000  0.002  0.000  0.000  0.000  0.018  0.000  0.000  0.037
    2  0.025  0.000  0.001  0.000  0.000  0.000  0.023  0.000  0.000  0.049
    3  0.032  0.000  0.001  0.000  0.000  0.000  0.029  0.000  0.000  0.062
    4  0.035  0.000  0.000  0.000  0.000  0.000  0.036  0.000  0.000  0.071
    5  0.000  0.000  0.002  0.000  0.000  0.000  0.000  0.000  0.000  0.003
tot    0.110  0.000  0.006  0.000  0.000  0.000  0.106  0.000  0.000  0.222
 
band    27 # energy    1.91814286 # occ.  0.00000000
 
ion      s     py     pz     px    dxy    dyz    dz2    dxz  x2-y2    tot
    1  0.005  0.000  0.003  0.000  0.000  0.000  0.005  0.000  0.000  0.014
    2  0.001  0.000  0.004  0.000  0.000  0.000  0.001  0.000  0.000  0.006
    3  0.000  0.000  0.004  0.000  0.000  0.000  0.000  0.000  0.000  0.005
    4  0.003  0.000  0.003  0.000  0.000  0.000  0.005  0.000  0.000  0.011
    5  0.001  0.000  0.001  0.000  0.000  0.000  0.000  0.000  0.000  0.002
tot    0.010  0.000  0.015  0.000  0.000  0.000  0.011  0.000  0.000  0.037
 
band    28 # energy    2.35071363 # occ.  0.00000000
 
ion      s     py     pz     px    dxy    dyz    dz2    dxz  x2-y2    tot
    1  0.005  0.000  0.002  0.000  0.000  0.000  0.005  0.000  0.000  0.012
    2  0.001  0.000  0.003  0.000  0.000  0.000  0.001  0.000  0.000  0.005
    3  0.000  0.000  0.003  0.000  0.000  0.000  0.000  0.000  0.000  0.004
    4  0.002  0.000  0.002  0.000  0.000  0.000  0.003  0.000  0.000  0.007
    5  0.001  0.000  0.000  0.000  0.000  0.000  0.000  0.000  0.000  0.001
tot    0.009  0.000  0.011  0.000  0.000  0.000  0.009  0.000  0.000  0.029
 

 k-point     2 :    0.10000000 0.00000000 0.00000000     weight = 0.04000000

band     1 # energy  -11.30969036 # occ.  2.00000000
 
ion      s     py     pz     px    dxy    dyz    dz2    dxz  x2-y2    tot
    1  0.006  0.000  0.001  0.000  0.000  0.000  0.000  0.000  0.000  0.007
    2  0.040  0.000  0.001  0.001  0.000  0.000  0.000  0.000  0.000  0.042
    3  0.127  0.001  0.003  0.003  0.000  0.000  0.000  0.000  0.000  0.134
    4  0.297  0.003  0.000  0.007  0.001  0.000  0.008  0.000  0.001  0.316
    5  0.092  0.000  0.001  0.000  0.000  0.000  0.000  0.000  0.000  0.093
tot    0.561  0.004  0.007  0.011  0.001  0.000  0.008  0.000  0.001  0.592
 
band     2 # energy  -10.29941122 # occ.  2.00000000
 
ion      s     py     pz     px    dxy    dyz    dz2    dxz  x2-y2    tot
    1  0.112  0.001  0.010  0.002  0.000  0.000  0.000  0.001  0.000  0.127
    2  0.256  0.002  0.000  0.006  0.000  0.000  0.002  0.000  0.000  0.266
    3  0.052  0.000  0.017  0.001  0.000  0.000  0.000  0.001  0.000  0.073
    4  0.060  0.001  0.008  0.002  0.000  0.001  0.011  0.001  0.000  0.084
    5  0.039  0.000  0.000  0.000  0.000  0.000  0.000  0.000  0.000  0.040
tot    0.520  0.004  0.036  0.011  0.001  0.001  0.013  0.003  0.000  0.589
 
band     3 # energy   -8.72419952 # occ.  2.00000000
 
ion      s     py     pz     px    dxy    dyz    dz2    dxz  x2-y2    tot
    1  0.180  0.001  0.002  0.004  0.000  0.000  0.017  0.000  0.000  0.206
    2  0.005  0.000  0.045  0.000  0.000  0.002  0.001  0.005  0.000  0.057
    3  0.194  0.002  0.000  0.005  0.000  0.000  0.037  0.000  0.000  0.239
    4  0.006  0.000  0.031  0.000  0.001  0.002  0.026  0.005  0.001  0.072
    5  0.032  0.000  0.000  0.000  0.000  0.000  0.000  0.000  0.000  0.033
tot    0.418  0.003  0.079  0.010  0.001  0.004  0.081  0.010  0.001  0.607
 
band     4 # energy   -7.30866885 # occ.  2.00000000
 
ion      s     py     pz     px    dxy    dyz    dz2    dxz  x2-y2    tot
    1  0.104  0.001  0.004  0.004  0.001  0.000  0.133  0.000  0.000  0.248
    2  0.090  0.001  0.004  0.004  0.001  0.000  0.229  0.001  0.000  0.330
    3  0.026  0.000  0.015  0.001  0.000  0.001  0.089  0.003  0.000  0.135
    4  0.000  0.000  0.011  0.000  0.001  0.001  0.014  0.003  0.000  0.031
    5  0.005  0.000  0.000  0.000  0.000  0.000  0.000  0.000  0.000  0.005
tot    0.226  0.003  0.033  0.009  0.003  0.003  0.466  0.007  0.001  0.750
 
band     5 # energy   -6.09561803 # occ.  2.00000000
 
ion      s     py     pz     px    dxy    dyz    dz2    dxz  x2-y2    tot
    1  0.000  0.000  0.000  0.000  0.000  0.000  0.004  0.000  0.000  0.005
    2  0.001  0.000  0.000  0.000  0.002  0.000  0.001  0.000  0.001  0.005
    3  0.001  0.000  0.005  0.000  0.011  0.000  0.121  0.001  0.004  0.143
    4  0.007  0.000  0.039  0.001  0.011  0.033  0.447  0.071  0.007  0.615
    5  0.044  0.000  0.001  0.000  0.000  0.000  0.000  0.000  0.000  0.044
tot    0.052  0.000  0.044  0.001  0.025  0.033  0.573  0.072  0.012  0.812
 
band     6 # energy   -5.66827474 # occ.  2.00000000
 
ion      s     py     pz     px    dxy    dyz    dz2    dxz  x2-y2    tot
    1  0.001  0.000  0.001  0.000  0.002  0.000  0.014  0.000  0.001  0.018
    2  0.001  0.000  0.002  0.000  0.022  0.001  0.079  0.004  0.007  0.116
    3  0.000  0.000  0.013  0.000  0.002  0.024  0.091  0.073  0.001  0.203
    4  0.005  0.000  0.006  0.000  0.300  0.005  0.152  0.010  0.115  0.593
    5  0.001  0.000  0.000  0.000  0.000  0.000  0.000  0.000  0.000  0.002
tot    0.008  0.000  0.021  0.001  0.326  0.030  0.335  0.087  0.124  0.933
 
band     7 # energy   -5.61295186 # occ.  2.00000000
 
ion      s     py     pz     px    dxy    dyz    dz2    dxz  x2-y2    tot
    1  0.000  0.000  0.001  0.000  0.000  0.000  0.044  0.000  0.000  0.045
    2  0.001  0.000  0.002  0.000  0.019  0.004  0.013  0.011  0.007  0.057
    3  0.001  0.000  0.005  0.000  0.013  0.003  0.260  0.013  0.004  0.299
    4  0.001  0.000  0.008  0.000  0.305  0.006  0.139  0.018  0.063  0.540
    5  0.001  0.000  0.000  0.000  0.000  0.000  0.000  0.000  0.000  0.002
tot    0.004  0.000  0.016  0.001  0.337  0.013  0.455  0.042  0.073  0.943
 
band     8 # energy   -5.43451306 # occ.  2.00000000
 
ion      s     py     pz     px    dxy    dyz    dz2    dxz  x2-y2    tot
    1  0.000  0.000  0.000  0.000  0.000  0.000  0.001  0.001  0.000  0.004
    2  0.000  0.000  0.001  0.000  0.010  0.001  0.009  0.002  0.006  0.028
    3  0.000  0.000  0.000  0.000  0.005  0.023  0.012  0.008  0.020  0.069
    4  0.000  0.001  0.000  0.000  0.212  0.006  0.001  0.001  0.644  0.865
    5  0.000  0.001  0.000  0.000  0.000  0.000  0.000  0.000  0.000  0.001
tot    0.001  0.001  0.001  0.001  0.227  0.030  0.023  0.012  0.671  0.967
 
band     9 # energy   -5.37067020 # occ.  2.00000000
 
ion      s     py     pz     px    dxy    dyz    dz2    dxz  x2-y2    tot
    1  0.001  0.000  0.002  0.000  0.016  0.003  0.072  0.009  0.005  0.108
    2  0.001  0.000  0.002  0.000  0.013  0.017  0.159  0.045  0.005  0.244
    3  0.000  0.000  0.006  0.000  0.304  0.004  0.042  0.010  0.091  0.457
    4  0.000  0.000  0.002  0.000  0.009  0.011  0.040  0.025  0.045  0.132
    5  0.002  0.000  0.000  0.000  0.000  0.000  0.000  0.000  0.000  0.002
tot    0.005  0.000  0.012  0.001  0.342  0.036  0.312  0.089  0.146  0.943
 
band    10 # energy   -5.33040224 # occ.  2.00000000
 
ion      s     py     pz     px    dxy    dyz    dz2    dxz  x2-y2    tot
    1  0.004  0.000  0.001  0.000  0.035  0.004  0.026  0.012  0.011  0.093
    2  0.003  0.000  0.008  0.000  0.024  0.024  0.228  0.075  0.009  0.370
    3  0.000  0.000  0.022  0.000  0.115  0.002  0.080  0.009  0.039  0.268
    4  0.002  0.000  0.007  0.000  0.058  0.016  0.018  0.057  0.027  0.184
    5  0.002  0.000  0.000  0.000  0.000  0.000  0.000  0.000  0.000  0.002
tot    0.011  0.000  0.037  0.001  0.231  0.046  0.352  0.153  0.086  0.917
 
band    11 # energy   -5.28849332 # occ.  2.00000000
 
ion      s     py     pz     px    dxy    dyz    dz2    dxz  x2-y2    tot
    1  0.001  0.000  0.000  0.000  0.019  0.006  0.027  0.016  0.006  0.074
    2  0.000  0.000  0.000  0.001  0.507  0.000  0.020  0.000  0.177  0.705
    3  0.000  0.000  0.002  0.000  0.021  0.006  0.065  0.010  0.004  0.109
    4  0.001  0.000  0.001  0.000  0.017  0.009  0.025  0.013  0.003  0.069
    5  0.000  0.000  0.000  0.000  0.000  0.000  0.000  0.000  0.000  0.000
tot    0.003  0.000  0.003  0.001  0.564  0.021  0.137  0.039  0.190  0.958
 
band    12 # energy   -5.20507466 # occ.  2.00000000
 
ion      s     py     pz     px    dxy    dyz    dz2    dxz  x2-y2    tot
    1  0.000  0.000  0.000  0.000  0.003  0.004  0.002  0.002  0.009  0.018
    2  0.000  0.000  0.000  0.000  0.005  0.057  0.001  0.019  0.007  0.089
    3  0.000  0.000  0.000  0.000  0.158  0.045  0.000  0.013  0.452  0.669
    4  0.000  0.000  0.000  0.000  0.001  0.137  0.000  0.048  0.006  0.192
    5  0.000  0.000  0.000  0.000  0.000  0.000  0.000  0.000  0.000  0.000
tot    0.000  0.001  0.000  0.000  0.166  0.242  0.003  0.082  0.474  0.969
 
band    13 # energy   -5.12824464 # occ.  2.00000000
 
ion      s     py     pz     px    dxy    dyz    dz2    dxz  x2-y2    tot
    1  0.000  0.000  0.000  0.000  0.002  0.021  0.015  0.007  0.008  0.053
    2  0.000  0.001  0.001  0.000  0.190  0.002  0.003  0.003  0.583  0.783
    3  0.000  0.000  0.000  0.000  0.011  0.037  0.000  0.011  0.043  0.104
    4  0.000  0.000  0.000  0.000  0.005  0.001  0.000  0.000  0.018  0.026
    5  0.000  0.000  0.000  0.000  0.000  0.000  0.000  0.000  0.000  0.000
tot    0.000  0.001  0.001  0.000  0.209  0.061  0.019  0.022  0.653  0.966
 
band    14 # energy   -5.11447299 # occ.  2.00000000
 
ion      s     py     pz     px    dxy    dyz    dz2    dxz  x2-y2    tot
    1  0.003  0.000  0.003  0.000  0.027  0.003  0.356  0.008  0.008  0.408
    2  0.001  0.000  0.019  0.000  0.044  0.012  0.066  0.036  0.025  0.201
    3  0.000  0.000  0.010  0.000  0.166  0.013  0.001  0.039  0.056  0.285
    4  0.002  0.000  0.007  0.000  0.006  0.001  0.000  0.002  0.004  0.022
    5  0.003  0.000  0.000  0.000  0.000  0.000  0.000  0.000  0.000  0.003
tot    0.009  0.000  0.039  0.000  0.243  0.028  0.423  0.084  0.092  0.919
 
band    15 # energy   -4.99442724 # occ.  2.00000000
 
ion      s     py     pz     px    dxy    dyz    dz2    dxz  x2-y2    tot
    1  0.002  0.000  0.000  0.001  0.546  0.001  0.041  0.004  0.183  0.778
    2  0.000  0.000  0.007  0.000  0.005  0.003  0.015  0.010  0.002  0.041
    3  0.001  0.000  0.005  0.000  0.007  0.016  0.026  0.047  0.003  0.104
    4  0.000  0.000  0.001  0.000  0.011  0.002  0.000  0.009  0.004  0.028
    5  0.000  0.000  0.000  0.000  0.000  0.000  0.000  0.000  0.000  0.000
tot    0.003  0.000  0.013  0.001  0.569  0.022  0.082  0.069  0.191  0.952
 
band    16 # energy   -4.88863366 # occ.  2.00000000
 
ion      s     py     pz     px    dxy    dyz    dz2    dxz  x2-y2    tot
    1  0.000  0.001  0.000  0.000  0.169  0.013  0.000  0.004  0.518  0.705
    2  0.000  0.000  0.000  0.000  0.001  0.104  0.000  0.035  0.003  0.143
    3  0.000  0.000  0.000  0.000  0.005  0.013  0.000  0.004  0.023  0.045
    4  0.000  0.000  0.000  0.000  0.001  0.056  0.000  0.018  0.003  0.079
    5  0.000  0.000  0.000  0.000  0.000  0.000  0.000  0.000  0.000  0.000
tot    0.000  0.001  0.000  0.000  0.176  0.185  0.000  0.061  0.547  0.970
 
band    17 # energy   -4.77578682 # occ.  2.00000000
 
ion      s     py     pz     px    dxy    dyz    dz2    dxz  x2-y2    tot
    1  0.000  0.000  0.000  0.000  0.033  0.006  0.000  0.001  0.065  0.105
    2  0.000  0.000  0.000  0.000  0.003  0.003  0.000  0.004  0.035  0.045
    3  0.000  0.000  0.000  0.000  0.038  0.087  0.002  0.003  0.162  0.292
    4  0.000  0.000  0.000  0.000  0.000  0.427  0.000  0.106  0.003  0.538
    5  0.000  0.001  0.000  0.000  0.000  0.000  0.000  0.000  0.000  0.001
tot    0.000  0.001  0.000  0.000  0.074  0.523  0.002  0.114  0.265  0.980
 
band    18 # energy   -4.69763554 # occ.  2.00000000
 
ion      s     py     pz     px    dxy    dyz    dz2    dxz  x2-y2    tot
    1  0.000  0.000  0.000  0.000  0.025  0.006  0.004  0.021  0.016  0.073
    2  0.000  0.000  0.000  0.000  0.042  0.018  0.005  0.031  0.006  0.102
    3  0.002  0.000  0.000  0.000  0.071  0.041  0.021  0.257  0.007  0.400
    4  0.000  0.000  0.005  0.000  0.016  0.060  0.005  0.299  0.001  0.386
    5  0.003  0.000  0.000  0.000  0.000  0.000  0.000  0.000  0.000  0.004
tot    0.006  0.000  0.006  0.001  0.154  0.125  0.035  0.607  0.031  0.965
 
band    19 # energy   -4.48864905 # occ.  2.00000000
 
ion      s     py     pz     px    dxy    dyz    dz2    dxz  x2-y2    tot
    1  0.000  0.000  0.000  0.000  0.033  0.042  0.000  0.027  0.107  0.209
    2  0.000  0.000  0.000  0.000  0.017  0.279  0.000  0.087  0.047  0.430
    3  0.000  0.000  0.000  0.000  0.015  0.150  0.000  0.042  0.038  0.245
    4  0.000  0.000  0.000  0.000  0.002  0.069  0.000  0.020  0.008  0.100
    5  0.000  0.000  0.000  0.000  0.000  0.000  0.000  0.000  0.000  0.000
tot    0.000  0.000  0.000  0.000  0.067  0.540  0.000  0.176  0.200  0.983
 
band    20 # energy   -4.45270285 # occ.  2.00000000
 
ion      s     py     pz     px    dxy    dyz    dz2    dxz  x2-y2    tot
    1  0.000  0.000  0.004  0.000  0.032  0.108  0.002  0.292  0.009  0.449
    2  0.000  0.000  0.004  0.000  0.038  0.049  0.000  0.169  0.015  0.276
    3  0.003  0.000  0.001  0.000  0.007  0.019  0.024  0.048  0.005  0.108
    4  0.000  0.000  0.003  0.000  0.002  0.022  0.000  0.096  0.002  0.125
    5  0.002  0.000  0.000  0.000  0.000  0.000  0.000  0.000  0.000  0.002
tot    0.005  0.000  0.013  0.000  0.079  0.198  0.027  0.604  0.031  0.958
 
band    21 # energy   -4.28852438 # occ.  2.00000000
 
ion      s     py     pz     px    dxy    dyz    dz2    dxz  x2-y2    tot
    1  0.011  0.000  0.014  0.000  0.015  0.090  0.084  0.233  0.004  0.452
    2  0.001  0.000  0.001  0.000  0.010  0.073  0.002  0.260  0.003  0.350
    3  0.001  0.000  0.003  0.000  0.005  0.004  0.009  0.004  0.002  0.028
    4  0.000  0.000  0.005  0.000  0.000  0.016  0.000  0.049  0.000  0.071
    5  0.002  0.000  0.000  0.000  0.000  0.000  0.000  0.000  0.000  0.002
tot    0.016  0.000  0.023  0.001  0.029  0.183  0.096  0.546  0.008  0.903
 
band    22 # energy   -4.25550212 # occ.  2.00000000
 
ion      s     py     pz     px    dxy    dyz    dz2    dxz  x2-y2    tot
    1  0.000  0.000  0.000  0.000  0.003  0.232  0.000  0.088  0.011  0.333
    2  0.000  0.000  0.000  0.000  0.004  0.080  0.000  0.016  0.013  0.113
    3  0.000  0.000  0.000  0.000  0.001  0.334  0.000  0.109  0.005  0.449
    4  0.000  0.000  0.000  0.000  0.003  0.056  0.000  0.022  0.010  0.091
    5  0.000  0.000  0.000  0.000  0.000  0.000  0.000  0.000  0.000  0.000
tot    0.000  0.000  0.000  0.000  0.011  0.702  0.000  0.234  0.038  0.987
 
band    23 # energy   -3.98300641 # occ.  2.00000000
 
ion      s     py     pz     px    dxy    dyz    dz2    dxz  x2-y2    tot
    1  0.000  0.000  0.000  0.000  0.002  0.404  0.000  0.136  0.007  0.549
    2  0.000  0.000  0.000  0.000  0.005  0.224  0.000  0.073  0.016  0.318
    3  0.000  0.000  0.000  0.000  0.002  0.078  0.000  0.025  0.006  0.111