Starting job 28337808 ("jobname") on c15-30 at Fri Oct 11 10:35:30 CEST 2019
 running on    4 total cores
 distrk:  each k-point on    4 cores,    1 groups
 distr:  one band on    2 cores,    2 groups
 using from now: INCAR     
 vasp.5.4.4.18Apr17-6-g9f103f2a35 (build Jun 30 2017 11:15:00) complex          
  
 POSCAR found type information on POSCAR  Cu H 
 POSCAR found :  2 types and       5 ions
 scaLAPACK will be used

 ----------------------------------------------------------------------------- 
|                                                                             |
|  ADVICE TO THIS USER RUNNING 'VASP/VAMP'   (HEAR YOUR MASTER'S VOICE ...):  |
|                                                                             |
|      You have a (more or less) 'small supercell' and for smaller cells      |
|      it is recommended  to use the reciprocal-space projection scheme!      |
|      The real space optimization is not  efficient for small cells and it   |
|      is also less accurate ...                                              |
|      Therefore set LREAL=.FALSE. in the  INCAR file                         |
|                                                                             |
 ----------------------------------------------------------------------------- 

 LDA part: xc-table for Pade appr. of Perdew
 POSCAR, INCAR and KPOINTS ok, starting setup
 FFT: planning ...
 WAVECAR not read
 entering main loop
       N       E                     dE             d eps       ncg     rms          rms(c)
DAV:   1     0.196053789575E+03    0.19605E+03   -0.13933E+04  1808   0.922E+02
DAV:   2    -0.108252463310E+02   -0.20688E+03   -0.20096E+03  1848   0.264E+02
DAV:   3    -0.209506361786E+02   -0.10125E+02   -0.99160E+01  1900   0.778E+01
DAV:   4    -0.210761538713E+02   -0.12552E+00   -0.12513E+00  1936   0.771E+00
DAV:   5    -0.210772721052E+02   -0.11182E-02   -0.11182E-02  1976   0.524E-01    0.145E+01
RMM:   6    -0.190082962632E+02    0.20690E+01   -0.42852E+01  1901   0.640E+01    0.733E+00
RMM:   7    -0.172832190394E+02    0.17251E+01   -0.70146E+00  1867   0.267E+01    0.151E+00
RMM:   8    -0.173127489904E+02   -0.29530E-01   -0.11834E-01  1911   0.266E+00    0.212E+00
RMM:   9    -0.171968784021E+02    0.11587E+00   -0.70734E-02  1907   0.227E+00    0.739E-01
RMM:  10    -0.171866015861E+02    0.10277E-01   -0.20203E-02  1931   0.120E+00    0.458E-01
RMM:  11    -0.171811729919E+02    0.54286E-02   -0.84350E-03  1909   0.732E-01    0.185E-01
RMM:  12    -0.171800195289E+02    0.11535E-02   -0.18969E-03  1900   0.359E-01    0.958E-02
RMM:  13    -0.171796326008E+02    0.38693E-03   -0.57577E-04  1870   0.195E-01    0.615E-02
RMM:  14    -0.171795169603E+02    0.11564E-03   -0.31130E-04  1853   0.121E-01    0.434E-02
RMM:  15    -0.171796593904E+02   -0.14243E-03   -0.16416E-04  1794   0.966E-02    0.155E-02
RMM:  16    -0.171800181874E+02   -0.35880E-03   -0.11750E-04  1729   0.360E-02    0.148E-02
RMM:  17    -0.171800930445E+02   -0.74857E-04   -0.23934E-05  1697   0.216E-02    0.902E-03
RMM:  18    -0.171801618184E+02   -0.68774E-04   -0.70313E-06  1313   0.135E-02    0.718E-03
RMM:  19    -0.171801915460E+02   -0.29728E-04   -0.26865E-06  1176   0.120E-02    0.677E-03
RMM:  20    -0.171802224368E+02   -0.30891E-04   -0.16260E-06  1133   0.729E-03    0.599E-03
RMM:  21    -0.171802388435E+02   -0.16407E-04   -0.67561E-07  1082   0.481E-03    0.566E-03
RMM:  22    -0.171802455400E+02   -0.66964E-05   -0.24494E-07  1070   0.376E-03    0.568E-03
RMM:  23    -0.171802473204E+02   -0.17805E-05   -0.96454E-08  1023   0.283E-03    0.563E-03
RMM:  24    -0.171802473215E+02   -0.10932E-08   -0.44792E-09   315   0.106E-03
   1 F= -.17180247E+02 E0= -.17171003E+02  d E =-.184890E-01

Currently Loaded Modulefiles:
  1) intel/2017.4         2) perf-reports/7.0.6

Job script resource usage:
       JobID  MaxVMSize     MaxRSS 
------------ ---------- ---------- 
28337808.ba+    216884K      2337K 

Job step resource usage:
       JobID    JobName  AllocCPUS  MaxVMSize     MaxRSS    Elapsed ExitCode 
------------ ---------- ---------- ---------- ---------- ---------- -------- 
28337808        jobname          4                         00:00:19      0:0 
28337808.0    pmi_proxy          1    279832K       516K   00:00:18      0:0 

Job 28337808 ("jobname") completed on c15-30 at Fri Oct 11 10:35:48 CEST 2019
