<?xml version="1.0" encoding="ISO-8859-1"?>
<modeling>
 <generator>
  <i name="program" type="string">vasp </i>
  <i name="version" type="string">5.4.4.18Apr17-6-g9f103f2a35  </i>
  <i name="subversion" type="string">(build Jun 30 2017 11:15:00) complex            parallel </i>
  <i name="platform" type="string">STALLO_VASP_5.4.4 </i>
  <i name="date" type="string">2019 10 11 </i>
  <i name="time" type="string">10:35:31 </i>
 </generator>
 <incar>
  <i type="string" name="PREC">normal    ! low/normal/accurate</i>
  <i type="string" name="ALGO"> Fast      ! Algorithm for electronic re</i>
  <i type="int" name="ISPIN">     1</i>
  <i type="int" name="NELMIN">     4</i>
  <i name="EDIFF">      0.00000100</i>
  <i type="int" name="NSW">     0</i>
  <i name="ENCUT">    250.00000000</i>
  <i type="int" name="NEDOS">  2401</i>
  <i type="string" name="LREAL"> Auto      ! Projection in reciprocal sp</i>
  <i name="EMIN">    -17.00000000</i>
  <i name="EMAX">      7.00000000</i>
  <i type="int" name="ISMEAR">     0</i>
  <i name="SIGMA">      0.10000000</i>
  <i type="logical" name="LWAVE"> F  </i>
  <i type="int" name="LORBIT">    11</i>
  <i type="logical" name="LELF"> T  </i>
  <v type="int" name="KPOINT_BSE">    -1     0     0     0</v>
 </incar>
 <structure name="primitive_cell" >
  <crystal>
   <varray name="basis" >
    <v>       2.57386868       0.00000000       0.00000000 </v>
    <v>       1.28693434       2.22903567       0.00000000 </v>
    <v>       0.00000000       0.00000000      30.30466494 </v>
   </varray>
   <i name="volume">    173.86529028 </i>
   <varray name="rec_basis" >
    <v>       0.38852021      -0.22431225       0.00000000 </v>
    <v>       0.00000000       0.44862450       0.00000000 </v>
    <v>       0.00000000       0.00000000       0.03299822 </v>
   </varray>
  </crystal>
  <varray name="positions" >
   <v>       0.00000000       0.00000000       0.39597864 </v>
   <v>       0.33333333       0.33333333       0.46532621 </v>
   <v>      -0.33333334      -0.33333333      -0.46532621 </v>
   <v>       0.00000000       0.00000000      -0.39597864 </v>
   <v>      -0.31090211      -0.37819578      -0.36298042 </v>
  </varray>
 </structure>
 <varray name="primitive_index" >
  <v type="int" >        1 </v>
  <v type="int" >        2 </v>
  <v type="int" >        3 </v>
  <v type="int" >        4 </v>
  <v type="int" >        5 </v>
 </varray>
 <kpoints>
  <generation param="Gamma">
   <v type="int" name="divisions">      10       10        1 </v>
   <v name="usershift">      0.00000000       0.00000000       0.00000000 </v>
   <v name="genvec1">      0.10000000       0.00000000       0.00000000 </v>
   <v name="genvec2">      0.00000000       0.10000000       0.00000000 </v>
   <v name="genvec3">      0.00000000       0.00000000       1.00000000 </v>
   <v name="shift">      0.00000000       0.00000000       0.00000000 </v>
  </generation>
  <varray name="kpointlist" >
   <v>       0.00000000       0.00000000       0.00000000 </v>
   <v>       0.10000000       0.00000000       0.00000000 </v>
   <v>       0.20000000      -0.00000000       0.00000000 </v>
   <v>       0.30000000      -0.00000000       0.00000000 </v>
   <v>       0.40000000      -0.00000000       0.00000000 </v>
   <v>       0.50000000      -0.00000000       0.00000000 </v>
   <v>       0.00000000       0.10000000       0.00000000 </v>
   <v>       0.20000000       0.10000000       0.00000000 </v>
   <v>       0.30000000       0.10000000       0.00000000 </v>
   <v>       0.40000000       0.10000000       0.00000000 </v>
   <v>       0.50000000       0.10000000       0.00000000 </v>
   <v>      -0.40000000       0.10000000       0.00000000 </v>
   <v>      -0.30000000       0.10000000       0.00000000 </v>
   <v>      -0.20000000       0.10000000       0.00000000 </v>
   <v>      -0.10000000       0.10000000       0.00000000 </v>
   <v>       0.00000000       0.20000000       0.00000000 </v>
   <v>       0.40000000       0.20000000       0.00000000 </v>
   <v>       0.50000000       0.20000000       0.00000000 </v>
   <v>      -0.40000000       0.20000000       0.00000000 </v>
   <v>      -0.30000000       0.20000000       0.00000000 </v>
   <v>      -0.20000000       0.20000000       0.00000000 </v>
   <v>      -0.10000000       0.20000000       0.00000000 </v>
   <v>       0.00000000       0.30000000       0.00000000 </v>
   <v>      -0.40000000       0.30000000       0.00000000 </v>
   <v>      -0.30000000       0.30000000       0.00000000 </v>
   <v>      -0.20000000       0.30000000       0.00000000 </v>
   <v>      -0.10000000       0.30000000       0.00000000 </v>
   <v>       0.00000000       0.40000000       0.00000000 </v>
   <v>      -0.20000000       0.40000000       0.00000000 </v>
   <v>      -0.10000000       0.40000000       0.00000000 </v>
   <v>       0.00000000       0.50000000       0.00000000 </v>
  </varray>
  <varray name="weights" >
   <v>       0.01000000 </v>
   <v>       0.04000000 </v>
   <v>       0.04000000 </v>
   <v>       0.04000000 </v>
   <v>       0.04000000 </v>
   <v>       0.02000000 </v>
   <v>       0.02000000 </v>
   <v>       0.02000000 </v>
   <v>       0.04000000 </v>
   <v>       0.04000000 </v>
   <v>       0.04000000 </v>
   <v>       0.04000000 </v>
   <v>       0.04000000 </v>
   <v>       0.04000000 </v>
   <v>       0.04000000 </v>
   <v>       0.02000000 </v>
   <v>       0.02000000 </v>
   <v>       0.04000000 </v>
   <v>       0.04000000 </v>
   <v>       0.04000000 </v>
   <v>       0.04000000 </v>
   <v>       0.04000000 </v>
   <v>       0.02000000 </v>
   <v>       0.02000000 </v>
   <v>       0.04000000 </v>
   <v>       0.04000000 </v>
   <v>       0.04000000 </v>
   <v>       0.02000000 </v>
   <v>       0.02000000 </v>
   <v>       0.04000000 </v>
   <v>       0.01000000 </v>
  </varray>
 </kpoints>
 <parameters>
  <separator name="general" >
   <i type="string" name="SYSTEM">unknown system</i>
   <i type="logical" name="LCOMPAT"> F  </i>
  </separator>
  <separator name="electronic" >
   <i type="string" name="PREC">normal</i>
   <i name="ENMAX">    250.00000000</i>
   <i name="ENAUG">    516.45600000</i>
   <i name="EDIFF">      0.00000100</i>
   <i type="int" name="IALGO">    68</i>
   <i type="int" name="IWAVPR">    10</i>
   <i type="int" name="NBANDS">    28</i>
   <i name="NELECT">     45.00000000</i>
   <i type="int" name="TURBO">     0</i>
   <i type="int" name="IRESTART">     0</i>
   <i type="int" name="NREBOOT">     0</i>
   <i type="int" name="NMIN">     0</i>
   <i name="EREF">      0.00000000</i>
   <separator name="electronic smearing" >
    <i type="int" name="ISMEAR">     0</i>
    <i name="SIGMA">      0.10000000</i>
    <i name="KSPACING">      0.50000000</i>
    <i type="logical" name="KGAMMA"> T  </i>
   </separator>
   <separator name="electronic projectors" >
    <i type="logical" name="LREAL"> T  </i>
    <v name="ROPT">     -0.00050000     -0.00050000</v>
    <i type="int" name="LMAXPAW">  -100</i>
    <i type="int" name="LMAXMIX">     2</i>
    <i type="logical" name="NLSPLINE"> F  </i>
   </separator>
   <separator name="electronic startup" >
    <i type="int" name="ISTART">     0</i>
    <i type="int" name="ICHARG">     2</i>
    <i type="int" name="INIWAV">     1</i>
   </separator>
   <separator name="electronic spin" >
    <i type="int" name="ISPIN">     1</i>
    <i type="logical" name="LNONCOLLINEAR"> F  </i>
    <v name="MAGMOM">      1.00000000      1.00000000      1.00000000      1.00000000      1.00000000</v>
    <i name="NUPDOWN">     -1.00000000</i>
    <i type="logical" name="LSORBIT"> F  </i>
    <v name="SAXIS">      0.00000000      0.00000000      1.00000000</v>
    <i type="logical" name="LSPIRAL"> F  </i>
    <v name="QSPIRAL">      0.00000000      0.00000000      0.00000000</v>
    <i type="logical" name="LZEROZ"> F  </i>
   </separator>
   <separator name="electronic exchange-correlation" >
    <i type="logical" name="LASPH"> F  </i>
    <i type="logical" name="LMETAGGA"> F  </i>
   </separator>
   <separator name="electronic convergence" >
    <i type="int" name="NELM">    60</i>
    <i type="int" name="NELMDL">    -5</i>
    <i type="int" name="NELMIN">     4</i>
    <i name="ENINI">    250.00000000</i>
    <separator name="electronic convergence detail" >
     <i type="logical" name="LDIAG"> T  </i>
     <i type="logical" name="LSUBROT"> F  </i>
     <i name="WEIMIN">      0.00000000</i>
     <i name="EBREAK">      0.00000001</i>
     <i name="DEPER">      0.30000000</i>
     <i type="int" name="NRMM">     4</i>
     <i name="TIME">      0.40000000</i>
    </separator>
   </separator>
   <separator name="electronic mixer" >
    <i name="AMIX">      0.40000000</i>
    <i name="BMIX">      1.00000000</i>
    <i name="AMIN">      0.10000000</i>
    <i name="AMIX_MAG">      1.60000000</i>
    <i name="BMIX_MAG">      1.00000000</i>
    <separator name="electronic mixer details" >
     <i type="int" name="IMIX">     4</i>
     <i type="logical" name="MIXFIRST"> F  </i>
     <i type="int" name="MAXMIX">   -45</i>
     <i name="WC">    100.00000000</i>
     <i type="int" name="INIMIX">     1</i>
     <i type="int" name="MIXPRE">     1</i>
     <i type="int" name="MREMOVE">     5</i>
    </separator>
   </separator>
   <separator name="electronic dipolcorrection" >
    <i type="logical" name="LDIPOL"> F  </i>
    <i type="logical" name="LMONO"> F  </i>
    <i type="int" name="IDIPOL">     0</i>
    <i name="EPSILON">      1.00000000</i>
    <v name="DIPOL">   -100.00000000   -100.00000000   -100.00000000</v>
    <i name="EFIELD">      0.00000000</i>
   </separator>
  </separator>
  <separator name="grids" >
   <i type="int" name="NGX">    10</i>
   <i type="int" name="NGY">    10</i>
   <i type="int" name="NGZ">   120</i>
   <i type="int" name="NGXF">    20</i>
   <i type="int" name="NGYF">    20</i>
   <i type="int" name="NGZF">   240</i>
   <i type="logical" name="ADDGRID"> F  </i>
  </separator>
  <separator name="ionic" >
   <i type="int" name="NSW">     0</i>
   <i type="int" name="IBRION">    -1</i>
   <i type="int" name="MDALGO">     0</i>
   <i type="int" name="ISIF">     2</i>
   <i name="PSTRESS">      0.00000000</i>
   <i name="EDIFFG">      0.00001000</i>
   <i type="int" name="NFREE">     0</i>
   <i name="POTIM">      0.50000000</i>
   <i name="SMASS">     -3.00000000</i>
   <i name="SCALEE">      1.00000000</i>
  </separator>
  <separator name="ionic md" >
   <i name="TEBEG">      0.00010000</i>
   <i name="TEEND">      0.00010000</i>
   <i type="int" name="NBLOCK">     1</i>
   <i type="int" name="KBLOCK">     1</i>
   <i type="int" name="NPACO">   256</i>
   <i name="APACO">     16.00000000</i>
  </separator>
  <separator name="symmetry" >
   <i type="int" name="ISYM">     2</i>
   <i name="SYMPREC">      0.00001000</i>
  </separator>
  <separator name="dos" >
   <i type="int" name="LORBIT">    11</i>
   <v name="RWIGS">     -1.00000000     -1.00000000</v>
   <i type="int" name="NEDOS">  2401</i>
   <i name="EMIN">    -17.00000000</i>
   <i name="EMAX">      7.00000000</i>
   <i name="EFERMI">      0.00000000</i>
  </separator>
  <separator name="writing" >
   <i type="int" name="NWRITE">     2</i>
   <i type="logical" name="LWAVE"> F  </i>
   <i type="logical" name="LDOWNSAMPLE"> F  </i>
   <i type="logical" name="LCHARG"> T  </i>
   <i type="logical" name="LPARD"> F  </i>
   <i type="logical" name="LVTOT"> F  </i>
   <i type="logical" name="LVHAR"> F  </i>
   <i type="logical" name="LELF"> T  </i>
   <i type="logical" name="LOPTICS"> F  </i>
   <v name="STM">      0.00000000      0.00000000      0.00000000      0.00000000      0.00000000      0.00000000      0.00000000</v>
  </separator>
  <separator name="performance" >
   <i type="int" name="NPAR">     2</i>
   <i type="int" name="NSIM">     4</i>
   <i type="int" name="NBLK">    -1</i>
   <i type="logical" name="LPLANE"> T  </i>
   <i type="logical" name="LSCALAPACK"> T  </i>
   <i type="logical" name="LSCAAWARE"> F  </i>
   <i type="logical" name="LSCALU"> F  </i>
   <i type="logical" name="LASYNC"> F  </i>
   <i type="logical" name="LORBITALREAL"> F  </i>
  </separator>
  <separator name="miscellaneous" >
   <i type="int" name="IDIOT">     3</i>
   <i type="int" name="ISPECIAL">     0</i>
   <i type="logical" name="LMUSIC"> F  </i>
   <v name="POMASS">     63.54600000      1.00000000</v>
   <v name="DARWINR">      0.00000000      0.00000000</v>
   <v name="DARWINV">      1.00000000      1.00000000</v>
   <i type="logical" name="LCORR"> T  </i>
  </separator>
  <i type="logical" name="GGA_COMPAT"> T  </i>
  <i type="logical" name="LBERRY"> F  </i>
  <i type="int" name="ICORELEVEL">     0</i>
  <i type="logical" name="LDAU"> F  </i>
  <i type="int" name="I_CONSTRAINED_M">     0</i>
  <separator name="electronic exchange-correlation" >
   <i type="string" name="GGA">--</i>
   <i type="int" name="VOSKOWN">     0</i>
   <i type="logical" name="LHFCALC"> F  </i>
   <i type="string" name="PRECFOCK"></i>
   <i type="logical" name="LSYMGRAD"> F  </i>
   <i type="logical" name="LHFONE"> F  </i>
   <i type="logical" name="LRHFCALC"> F  </i>
   <i type="logical" name="LTHOMAS"> F  </i>
   <i type="logical" name="LMODELHF"> F  </i>
   <i name="ENCUT4O">     -1.00000000</i>
   <i type="int" name="EXXOEP">     0</i>
   <i type="int" name="FOURORBIT">     0</i>
   <i name="AEXX">      0.00000000</i>
   <i name="HFALPHA">      0.00000000</i>
   <i name="MCALPHA">      0.00000000</i>
   <i name="ALDAX">      1.00000000</i>
   <i name="AGGAX">      1.00000000</i>
   <i name="ALDAC">      1.00000000</i>
   <i name="AGGAC">      1.00000000</i>
   <i type="int" name="NKREDX">     1</i>
   <i type="int" name="NKREDY">     1</i>
   <i type="int" name="NKREDZ">     1</i>
   <i type="logical" name="SHIFTRED"> F  </i>
   <i type="logical" name="ODDONLY"> F  </i>
   <i type="logical" name="EVENONLY"> F  </i>
   <i type="int" name="LMAXFOCK">     0</i>
   <i type="int" name="NMAXFOCKAE">     0</i>
   <i type="logical" name="LFOCKAEDFT"> F  </i>
   <i name="HFSCREEN">      0.00000000</i>
   <i name="HFSCREENC">      0.00000000</i>
   <i type="int" name="NBANDSGWLOW">     0</i>
  </separator>
  <separator name="vdW DFT" >
   <i type="logical" name="LUSE_VDW"> F  </i>
   <i name="Zab_VDW">     -0.84910000</i>
   <i name="PARAM1">      0.12340000</i>
   <i name="PARAM2">      1.00000000</i>
   <i name="PARAM3">      0.00000000</i>
  </separator>
  <separator name="model GW" >
   <i type="int" name="MODEL_GW">     0</i>
   <i name="MODEL_EPS0">     20.86383483</i>
   <i name="MODEL_ALPHA">      1.00000000</i>
  </separator>
  <separator name="linear response parameters" >
   <i type="logical" name="LEPSILON"> F  </i>
   <i type="logical" name="LRPA"> F  </i>
   <i type="logical" name="LNABLA"> F  </i>
   <i type="logical" name="LVEL"> F  </i>
   <i type="int" name="KINTER">     0</i>
   <i name="CSHIFT">      0.10000000</i>
   <i name="OMEGAMAX">     -1.00000000</i>
   <i name="DEG_THRESHOLD">      0.00200000</i>
   <i name="RTIME">     -0.10000000</i>
   <i name="WPLASMAI">      0.00000000</i>
   <v name="DFIELD">      0.00000000      0.00000000      0.00000000</v>
   <v name="WPLASMA">      0.00000000      0.00000000      0.00000000      0.00000000      0.00000000      0.00000000      0.00000000      0.00000000      0.00000000</v>
  </separator>
  <separator name="orbital magnetization" >
   <i type="logical" name="NUCIND"> F  </i>
   <v name="MAGPOS">      0.00000000      0.00000000      0.00000000</v>
   <i type="logical" name="LNICSALL"> T  </i>
   <i type="logical" name="ORBITALMAG"> F  </i>
   <i type="logical" name="LMAGBLOCH"> F  </i>
   <i type="logical" name="LCHIMAG"> F  </i>
   <i type="logical" name="LGAUGE"> T  </i>
   <i type="int" name="MAGATOM">     0</i>
   <v name="MAGDIPOL">      0.00000000      0.00000000      0.00000000</v>
   <v name="AVECCONST">      0.00000000      0.00000000      0.00000000</v>
  </separator>
  <separator name="response functions" >
   <i type="logical" name="LADDER"> F  </i>
   <i type="logical" name="LRPAFORCE"> F  </i>
   <i type="logical" name="LFXC"> F  </i>
   <i type="logical" name="LHARTREE"> T  </i>
   <i type="int" name="IBSE">     0</i>
   <v type="int" name="KPOINT">    -1     0     0     0</v>
   <i type="logical" name="LTCTE"> F  </i>
   <i type="logical" name="LTETE"> F  </i>
   <i type="logical" name="LTRIPLET"> F  </i>
   <i type="logical" name="LFXCEPS"> F  </i>
   <i type="logical" name="LFXHEG"> F  </i>
   <i type="int" name="NATURALO">     2</i>
   <i type="logical" name="L2ORDER"> F  </i>
   <i type="logical" name="LMP2LT"> F  </i>
   <i type="logical" name="LUSEW"> F  </i>
   <i name="ENCUTGW">     -2.00000000</i>
   <i name="ENCUTGWSOFT">     -2.00000000</i>
   <i name="ENCUTLF">     -1.00000000</i>
   <i type="int" name="LMAXMP2">    -1</i>
   <i name="SCISSOR">      0.00000000</i>
   <i type="int" name="NOMEGA">     0</i>
   <i type="int" name="NOMEGAR">     0</i>
   <i type="int" name="NBANDSGW">    -1</i>
   <i type="int" name="NBANDSO">    -1</i>
   <i type="int" name="NBANDSV">    -1</i>
   <i type="int" name="NELM">     1</i>
   <i type="int" name="NELMHF">     1</i>
   <i type="int" name="DIM">     3</i>
   <i type="int" name="ANTIRES">     0</i>
   <i name="OMEGAMAX">    -30.00000000</i>
   <i name="OMEGAMIN">    -30.00000000</i>
   <i name="OMEGATL">   -200.00000000</i>
   <i type="int" name="OMEGAGRID">   140</i>
   <i name="CSHIFT">     -0.10000000</i>
   <i type="logical" name="SELFENERGY"> F  </i>
   <i type="logical" name="LSPECTRAL"> F  </i>
   <i type="logical" name="LSPECTRALGW"> F  </i>
   <i type="logical" name="LSINGLES"> F  </i>
   <i type="logical" name="LFERMIGW"> F  </i>
   <i type="logical" name="ODDONLYGW"> F  </i>
   <i type="logical" name="EVENONLYGW"> F  </i>
   <i type="int" name="NKREDLFX">     1</i>
   <i type="int" name="NKREDLFY">     1</i>
   <i type="int" name="NKREDLFZ">     1</i>
   <i type="int" name="MAXMEM">  2800</i>
   <i type="int" name="TELESCOPE">     0</i>
   <i type="int" name="TAUPAR">     1</i>
   <i type="int" name="OMEGAPAR">    -1</i>
   <i name="LAMBDA">      1.00000000</i>
  </separator>
  <separator name="External order field" >
   <i name="OFIELD_KAPPA">      0.00000000</i>
   <v name="OFIELD_K">      0.00000000      0.00000000      0.00000000</v>
   <i name="OFIELD_Q6_NEAR">      0.00000000</i>
   <i name="OFIELD_Q6_FAR">      0.00000000</i>
   <i name="OFIELD_A">      0.00000000</i>
  </separator>
 </parameters>
 <atominfo>
  <atoms>       5 </atoms>
  <types>       2 </types>
  <array name="atoms" >
   <dimension dim="1">ion</dimension>
   <field type="string">element</field>
   <field type="int">atomtype</field>
   <set>
    <rc><c>Cu</c><c>   1</c></rc>
    <rc><c>Cu</c><c>   1</c></rc>
    <rc><c>Cu</c><c>   1</c></rc>
    <rc><c>Cu</c><c>   1</c></rc>
    <rc><c>H </c><c>   2</c></rc>
   </set>
  </array>
  <array name="atomtypes" >
   <dimension dim="1">type</dimension>
   <field type="int">atomspertype</field>
   <field type="string">element</field>
   <field>mass</field>
   <field>valence</field>
   <field type="string">pseudopotential</field>
   <set>
    <rc><c>   4</c><c>Cu</c><c>     63.54600000</c><c>     11.00000000</c><c> PAW_PBE Cu 05Jan2001                   </c></rc>
    <rc><c>   1</c><c>H </c><c>      1.00000000</c><c>      1.00000000</c><c> PAW_PBE H 15Jun2001                    </c></rc>
   </set>
  </array>
 </atominfo>
 <structure name="initialpos" >
  <crystal>
   <varray name="basis" >
    <v>       2.57386868       0.00000000       0.00000000 </v>
    <v>       1.28693434       2.22903567       0.00000000 </v>
    <v>       0.00000000       0.00000000      30.30466494 </v>
   </varray>
   <i name="volume">    173.86529028 </i>
   <varray name="rec_basis" >
    <v>       0.38852021      -0.22431225       0.00000000 </v>
    <v>       0.00000000       0.44862450       0.00000000 </v>
    <v>       0.00000000       0.00000000       0.03299822 </v>
   </varray>
  </crystal>
  <varray name="positions" >
   <v>       0.00000000       0.00000000       0.39597864 </v>
   <v>       0.33333333       0.33333333       0.46532621 </v>
   <v>       0.66666666       0.66666667       0.53467379 </v>
   <v>       0.00000000       0.00000000       0.60402136 </v>
   <v>       0.68909789       0.62180422       0.63701958 </v>
  </varray>
 </structure>
 <calculation>
  <scstep>
   <time name="dav">    0.69    0.69</time>
   <time name="total">    0.71    0.78</time>
   <energy>
    <i name="alphaZ">    120.87645803 </i>
    <i name="ewald">  38005.07754730 </i>
    <i name="hartreedc"> -43126.78163583 </i>
    <i name="XCdc">    177.39145239 </i>
    <i name="pawpsdc">   4328.99049516 </i>
    <i name="pawaedc">  -4905.09836044 </i>
    <i name="eentropy">     -0.00717443 </i>
    <i name="bandstr">     19.65538912 </i>
    <i name="atom">   5575.94961827 </i>
    <i name="e_fr_energy">    196.05378957 </i>
    <i name="e_wo_entrp">    196.06096401 </i>
    <i name="e_0_energy">    196.05737679 </i>
   </energy>
  </scstep>
  <scstep>
   <time name="dav">    0.68    0.69</time>
   <time name="total">    0.69    0.69</time>
   <energy>
    <i name="e_fr_energy">    -10.82524633 </i>
    <i name="e_wo_entrp">    -10.80432048 </i>
    <i name="e_0_energy">    -10.81478340 </i>
   </energy>
  </scstep>
  <scstep>
   <time name="dav">    0.70    0.70</time>
   <time name="total">    0.71    0.71</time>
   <energy>
    <i name="e_fr_energy">    -20.95063618 </i>
    <i name="e_wo_entrp">    -20.93644800 </i>
    <i name="e_0_energy">    -20.94354209 </i>
   </energy>
  </scstep>
  <scstep>
   <time name="dav">    0.72    0.72</time>
   <time name="total">    0.72    0.72</time>
   <energy>
    <i name="e_fr_energy">    -21.07615387 </i>
    <i name="e_wo_entrp">    -21.06216483 </i>
    <i name="e_0_energy">    -21.06915935 </i>
   </energy>
  </scstep>
  <scstep>
   <time name="dav">    0.73    0.73</time>
   <time name="total">    0.77    0.77</time>
   <energy>
    <i name="e_fr_energy">    -21.07727211 </i>
    <i name="e_wo_entrp">    -21.06328385 </i>
    <i name="e_0_energy">    -21.07027798 </i>
   </energy>
  </scstep>
  <scstep>
   <time name="diag">    0.13    0.13</time>
   <time name="diis">    0.41    0.41</time>
   <time name="orth">    0.01    0.02</time>
   <time name="total">    0.61    0.62</time>
   <energy>
    <i name="e_fr_energy">    -19.00829626 </i>
    <i name="e_wo_entrp">    -18.99832388 </i>
    <i name="e_0_energy">    -19.00331007 </i>
   </energy>
  </scstep>
  <scstep>
   <time name="diag">    0.13    0.13</time>
   <time name="diis">    0.41    0.41</time>
   <time name="orth">    0.01    0.02</time>
   <time name="total">    0.61    0.61</time>
   <energy>
    <i name="e_fr_energy">    -17.28321904 </i>
    <i name="e_wo_entrp">    -17.27166255 </i>
    <i name="e_0_energy">    -17.27744079 </i>
   </energy>
  </scstep>
  <scstep>
   <time name="diag">    0.13    0.13</time>
   <time name="diis">    0.41    0.41</time>
   <time name="orth">    0.01    0.02</time>
   <time name="total">    0.62    0.62</time>
   <energy>
    <i name="e_fr_energy">    -17.31274899 </i>
    <i name="e_wo_entrp">    -17.29672916 </i>
    <i name="e_0_energy">    -17.30473908 </i>
   </energy>
  </scstep>
  <scstep>
   <time name="diag">    0.12    0.13</time>
   <time name="diis">    0.40    0.40</time>
   <time name="orth">    0.01    0.01</time>
   <time name="total">    0.60    0.60</time>
   <energy>
    <i name="e_fr_energy">    -17.19687840 </i>
    <i name="e_wo_entrp">    -17.17997906 </i>
    <i name="e_0_energy">    -17.18842873 </i>
   </energy>
  </scstep>
  <scstep>
   <time name="diag">    0.13    0.13</time>
   <time name="diis">    0.42    0.42</time>
   <time name="orth">    0.01    0.02</time>
   <time name="total">    0.62    0.62</time>
   <energy>
    <i name="e_fr_energy">    -17.18660159 </i>
    <i name="e_wo_entrp">    -17.16750451 </i>
    <i name="e_0_energy">    -17.17705305 </i>
   </energy>
  </scstep>
  <scstep>
   <time name="diag">    0.13    0.13</time>
   <time name="diis">    0.42    0.42</time>
   <time name="orth">    0.02    0.02</time>
   <time name="total">    0.62    0.62</time>
   <energy>
    <i name="e_fr_energy">    -17.18117299 </i>
    <i name="e_wo_entrp">    -17.16303043 </i>
    <i name="e_0_energy">    -17.17210171 </i>
   </energy>
  </scstep>
  <scstep>
   <time name="diag">    0.13    0.14</time>
   <time name="diis">    0.44    0.44</time>
   <time name="orth">    0.02    0.02</time>
   <time name="total">    0.65    0.65</time>
   <energy>
    <i name="e_fr_energy">    -17.18001953 </i>
    <i name="e_wo_entrp">    -17.16219017 </i>
    <i name="e_0_energy">    -17.17110485 </i>
   </energy>
  </scstep>
  <scstep>
   <time name="diag">    0.13    0.14</time>
   <time name="diis">    0.44    0.44</time>
   <time name="orth">    0.01    0.02</time>
   <time name="total">    0.64    0.65</time>
   <energy>
    <i name="e_fr_energy">    -17.17963260 </i>
    <i name="e_wo_entrp">    -17.16163562 </i>
    <i name="e_0_energy">    -17.17063411 </i>
   </energy>
  </scstep>
  <scstep>
   <time name="diag">    0.13    0.13</time>
   <time name="diis">    0.43    0.43</time>
   <time name="orth">    0.01    0.02</time>
   <time name="total">    0.64    0.64</time>
   <energy>
    <i name="e_fr_energy">    -17.17951696 </i>
    <i name="e_wo_entrp">    -17.16103095 </i>
    <i name="e_0_energy">    -17.17027396 </i>
   </energy>
  </scstep>
  <scstep>
   <time name="diag">    0.13    0.14</time>
   <time name="diis">    0.42    0.42</time>
   <time name="orth">    0.01    0.02</time>
   <time name="total">    0.62    0.62</time>
   <energy>
    <i name="e_fr_energy">    -17.17965939 </i>
    <i name="e_wo_entrp">    -17.16127297 </i>
    <i name="e_0_energy">    -17.17046618 </i>
   </energy>
  </scstep>
  <scstep>
   <time name="diag">    0.14    0.14</time>
   <time name="diis">    0.40    0.40</time>
   <time name="orth">    0.01    0.02</time>
   <time name="total">    0.61    0.61</time>
   <energy>
    <i name="e_fr_energy">    -17.18001819 </i>
    <i name="e_wo_entrp">    -17.16157010 </i>
    <i name="e_0_energy">    -17.17079414 </i>
   </energy>
  </scstep>
  <scstep>
   <time name="diag">    0.13    0.14</time>
   <time name="diis">    0.39    0.39</time>
   <time name="orth">    0.01    0.02</time>
   <time name="total">    0.60    0.60</time>
   <energy>
    <i name="e_fr_energy">    -17.18009304 </i>
    <i name="e_wo_entrp">    -17.16160813 </i>
    <i name="e_0_energy">    -17.17085059 </i>
   </energy>
  </scstep>
  <scstep>
   <time name="diag">    0.14    0.14</time>
   <time name="diis">    0.31    0.31</time>
   <time name="orth">    0.01    0.02</time>
   <time name="total">    0.52    0.52</time>
   <energy>
    <i name="e_fr_energy">    -17.18016182 </i>
    <i name="e_wo_entrp">    -17.16166379 </i>
    <i name="e_0_energy">    -17.17091280 </i>
   </energy>
  </scstep>
  <scstep>
   <time name="diag">    0.13    0.13</time>
   <time name="diis">    0.29    0.29</time>
   <time name="orth">    0.01    0.02</time>
   <time name="total">    0.50    0.50</time>
   <energy>
    <i name="e_fr_energy">    -17.18019155 </i>
    <i name="e_wo_entrp">    -17.16172175 </i>
    <i name="e_0_energy">    -17.17095665 </i>
   </energy>
  </scstep>
  <scstep>
   <time name="diag">    0.14    0.14</time>
   <time name="diis">    0.29    0.29</time>
   <time name="orth">    0.01    0.02</time>
   <time name="total">    0.49    0.50</time>
   <energy>
    <i name="e_fr_energy">    -17.18022244 </i>
    <i name="e_wo_entrp">    -17.16172590 </i>
    <i name="e_0_energy">    -17.17097417 </i>
   </energy>
  </scstep>
  <scstep>
   <time name="diag">    0.13    0.13</time>
   <time name="diis">    0.28    0.28</time>
   <time name="orth">    0.01    0.02</time>
   <time name="total">    0.49    0.49</time>
   <energy>
    <i name="e_fr_energy">    -17.18023884 </i>
    <i name="e_wo_entrp">    -17.16175282 </i>
    <i name="e_0_energy">    -17.17099583 </i>
   </energy>
  </scstep>
  <scstep>
   <time name="diag">    0.13    0.13</time>
   <time name="diis">    0.28    0.28</time>
   <time name="orth">    0.01    0.02</time>
   <time name="total">    0.49    0.49</time>
   <energy>
    <i name="e_fr_energy">    -17.18024554 </i>
    <i name="e_wo_entrp">    -17.16175382 </i>
    <i name="e_0_energy">    -17.17099968 </i>
   </energy>
  </scstep>
  <scstep>
   <time name="diag">    0.14    0.14</time>
   <time name="diis">    0.27    0.27</time>
   <time name="orth">    0.01    0.02</time>
   <time name="total">    0.48    0.48</time>
   <energy>
    <i name="e_fr_energy">    -17.18024732 </i>
    <i name="e_wo_entrp">    -17.16175928 </i>
    <i name="e_0_energy">    -17.17100330 </i>
   </energy>
  </scstep>
  <scstep>
   <time name="diag">    0.13    0.13</time>
   <time name="diis">    0.21    0.21</time>
   <time name="orth">    0.01    0.02</time>
   <time name="total">    0.38    0.38</time>
   <energy>
    <i name="alphaZ">    120.87645803 </i>
    <i name="ewald">  38005.07754730 </i>
    <i name="hartreedc"> -43075.51568546 </i>
    <i name="XCdc">    173.35732954 </i>
    <i name="pawpsdc">   4390.48465006 </i>
    <i name="pawaedc">  -4966.23354217 </i>
    <i name="eentropy">     -0.01848904 </i>
    <i name="bandstr">   -241.15813385 </i>
    <i name="atom">   5575.94961827 </i>
    <i name="e_fr_energy">    -17.18024732 </i>
    <i name="e_wo_entrp">    -17.16175828 </i>
    <i name="e_0_energy">    -17.17100280 </i>
   </energy>
  </scstep>
  <structure>
   <crystal>
    <varray name="basis" >
     <v>       2.57386868       0.00000000       0.00000000 </v>
     <v>       1.28693434       2.22903567       0.00000000 </v>
     <v>       0.00000000       0.00000000      30.30466494 </v>
    </varray>
    <i name="volume">    173.86529028 </i>
    <varray name="rec_basis" >
     <v>       0.38852021      -0.22431225       0.00000000 </v>
     <v>       0.00000000       0.44862450       0.00000000 </v>
     <v>       0.00000000       0.00000000       0.03299822 </v>
    </varray>
   </crystal>
   <varray name="positions" >
    <v>       0.00000000       0.00000000       0.39597864 </v>
    <v>       0.33333333       0.33333333       0.46532621 </v>
    <v>       0.66666666       0.66666667       0.53467379 </v>
    <v>       0.00000000       0.00000000       0.60402136 </v>
    <v>       0.68909789       0.62180422       0.63701958 </v>
   </varray>
  </structure>
  <varray name="forces" >
   <v>       0.00000000      -0.00111735       0.15153425 </v>
   <v>       0.00000000       0.00045189      -0.02263668 </v>
   <v>       0.00000000      -0.00773371      -0.29523205 </v>
   <v>       0.00000000      -0.22944887       0.74349873 </v>
   <v>      -0.00000000       0.23784803      -0.57716425 </v>
  </varray>
  <varray name="stress" >
   <v>     -49.03757400       0.00000000       0.00000000 </v>
   <v>       0.00000000     -47.97621305       2.40463539 </v>
   <v>       0.00000000       2.40321187     -51.53558917 </v>
  </varray>
  <energy>
   <i name="e_fr_energy">    -17.18024732 </i>
   <i name="e_wo_entrp">    -17.17100280 </i>
   <i name="e_0_energy">     -0.01848904 </i>
  </energy>
  <time name="totalsc">   15.33   15.43</time>
  <eigenvalues>
   <array>
    <dimension dim="1">band</dimension>
    <dimension dim="2">kpoint</dimension>
    <dimension dim="3">spin</dimension>
    <field>eigene</field>
    <field>occ</field>
    <set>
     <set comment="spin 1">
      <set comment="kpoint 1">
       <r>  -11.6123    1.0000 </r>
       <r>  -10.5972    1.0000 </r>
       <r>   -8.9886    1.0000 </r>
       <r>   -7.5303    1.0000 </r>
       <r>   -6.0844    1.0000 </r>
       <r>   -5.5618    1.0000 </r>
       <r>   -5.5430    1.0000 </r>
       <r>   -5.5132    1.0000 </r>
       <r>   -5.3199    1.0000 </r>
       <r>   -5.2821    1.0000 </r>
       <r>   -5.2802    1.0000 </r>
       <r>   -5.2273    1.0000 </r>
       <r>   -5.2262    1.0000 </r>
       <r>   -4.9712    1.0000 </r>
       <r>   -4.9708    1.0000 </r>
       <r>   -4.8806    1.0000 </r>
       <r>   -4.7629    1.0000 </r>
       <r>   -4.7328    1.0000 </r>
       <r>   -4.4777    1.0000 </r>
       <r>   -4.4773    1.0000 </r>
       <r>   -4.2594    1.0000 </r>
       <r>   -4.2585    1.0000 </r>
       <r>   -3.9875    1.0000 </r>
       <r>   -3.9869    1.0000 </r>
       <r>   -2.9208    1.0000 </r>
       <r>    1.6058    0.0000 </r>
       <r>    1.9181    0.0000 </r>
       <r>    2.3507    0.0000 </r>
      </set>
      <set comment="kpoint 2">
       <r>  -11.3097    1.0000 </r>
       <r>  -10.2994    1.0000 </r>
       <r>   -8.7242    1.0000 </r>
       <r>   -7.3087    1.0000 </r>
       <r>   -6.0956    1.0000 </r>
       <r>   -5.6683    1.0000 </r>
       <r>   -5.6130    1.0000 </r>
       <r>   -5.4345    1.0000 </r>
       <r>   -5.3707    1.0000 </r>
       <r>   -5.3304    1.0000 </r>
       <r>   -5.2885    1.0000 </r>
       <r>   -5.2051    1.0000 </r>
       <r>   -5.1282    1.0000 </r>
       <r>   -5.1145    1.0000 </r>
       <r>   -4.9944    1.0000 </r>
       <r>   -4.8886    1.0000 </r>
       <r>   -4.7758    1.0000 </r>
       <r>   -4.6976    1.0000 </r>
       <r>   -4.4886    1.0000 </r>
       <r>   -4.4527    1.0000 </r>
       <r>   -4.2885    1.0000 </r>
       <r>   -4.2555    1.0000 </r>
       <r>   -3.9830    1.0000 </r>
       <r>   -3.7696    1.0000 </r>
       <r>   -2.2359    0.1143 </r>
       <r>    1.8508    0.0000 </r>
       <r>    2.2220    0.0000 </r>
       <r>    2.6534    0.0000 </r>
      </set>
      <set comment="kpoint 3">
       <r>  -10.4455    1.0000 </r>
       <r>   -9.4564    1.0000 </r>
       <r>   -8.0330    1.0000 </r>
       <r>   -6.7870    1.0000 </r>
       <r>   -6.2033    1.0000 </r>
       <r>   -5.9340    1.0000 </r>
       <r>   -5.7347    1.0000 </r>
       <r>   -5.6322    1.0000 </r>
       <r>   -5.4767    1.0000 </r>
       <r>   -5.2599    1.0000 </r>
       <r>   -5.2063    1.0000 </r>
       <r>   -5.1711    1.0000 </r>
       <r>   -5.0931    1.0000 </r>
       <r>   -5.0088    1.0000 </r>
       <r>   -4.8716    1.0000 </r>
       <r>   -4.8233    1.0000 </r>
       <r>   -4.7892    1.0000 </r>
       <r>   -4.6070    1.0000 </r>
       <r>   -4.5677    1.0000 </r>
       <r>   -4.4353    1.0000 </r>
       <r>   -4.2563    1.0000 </r>
       <r>   -4.0871    1.0000 </r>
       <r>   -3.9781    1.0000 </r>
       <r>   -2.9274    1.0000 </r>
       <r>   -0.9173    0.0000 </r>
       <r>    2.5776    0.0000 </r>
       <r>    3.1318    0.0000 </r>
       <r>    3.5611    0.0000 </r>
      </set>
      <set comment="kpoint 4">
       <r>   -9.2141    1.0000 </r>
       <r>   -8.2910    1.0000 </r>
       <r>   -7.3340    1.0000 </r>
       <r>   -6.5307    1.0000 </r>
       <r>   -6.3364    1.0000 </r>
       <r>   -6.1415    1.0000 </r>
       <r>   -5.8515    1.0000 </r>
       <r>   -5.6401    1.0000 </r>
       <r>   -5.5137    1.0000 </r>
       <r>   -5.2779    1.0000 </r>
       <r>   -5.1820    1.0000 </r>
       <r>   -5.0543    1.0000 </r>
       <r>   -4.8921    1.0000 </r>
       <r>   -4.8256    1.0000 </r>
       <r>   -4.7336    1.0000 </r>
       <r>   -4.6119    1.0000 </r>
       <r>   -4.5062    1.0000 </r>
       <r>   -4.3700    1.0000 </r>
       <r>   -4.3342    1.0000 </r>
       <r>   -4.2448    1.0000 </r>
       <r>   -4.1274    1.0000 </r>
       <r>   -3.9651    1.0000 </r>
       <r>   -3.6247    1.0000 </r>
       <r>   -1.7914    0.0000 </r>
       <r>    0.7266    0.0000 </r>
       <r>    3.7309    0.0000 </r>
       <r>    4.6171    0.0000 </r>
       <r>    5.0026    0.0000 </r>
      </set>
      <set comment="kpoint 5">
       <r>   -8.2448    1.0000 </r>
       <r>   -7.3641    1.0000 </r>
       <r>   -7.0061    1.0000 </r>
       <r>   -6.5457    1.0000 </r>
       <r>   -6.5093    1.0000 </r>
       <r>   -6.2695    1.0000 </r>
       <r>   -5.9764    1.0000 </r>
       <r>   -5.4301    1.0000 </r>
       <r>   -5.3139    1.0000 </r>
       <r>   -5.2641    1.0000 </r>
       <r>   -5.1776    1.0000 </r>
       <r>   -4.9273    1.0000 </r>
       <r>   -4.8405    1.0000 </r>
       <r>   -4.4864    1.0000 </r>
       <r>   -4.3484    1.0000 </r>
       <r>   -4.3104    1.0000 </r>
       <r>   -4.1026    1.0000 </r>
       <r>   -4.0976    1.0000 </r>
       <r>   -4.0476    1.0000 </r>
       <r>   -3.9661    1.0000 </r>
       <r>   -3.8108    1.0000 </r>
       <r>   -3.5199    1.0000 </r>
       <r>   -2.5602    0.9996 </r>
       <r>   -0.4274    0.0000 </r>
       <r>    1.9036    0.0000 </r>
       <r>    2.4759    0.0000 </r>
       <r>    3.3204    0.0000 </r>
       <r>    4.6261    0.0000 </r>
      </set>
      <set comment="kpoint 6">
       <r>   -8.0072    1.0000 </r>
       <r>   -7.1029    1.0000 </r>
       <r>   -6.9087    1.0000 </r>
       <r>   -6.5902    1.0000 </r>
       <r>   -6.5312    1.0000 </r>
       <r>   -6.3145    1.0000 </r>
       <r>   -6.0024    1.0000 </r>
       <r>   -5.4069    1.0000 </r>
       <r>   -5.3117    1.0000 </r>
       <r>   -5.2383    1.0000 </r>
       <r>   -4.9671    1.0000 </r>
       <r>   -4.9337    1.0000 </r>
       <r>   -4.6095    1.0000 </r>
       <r>   -4.4469    1.0000 </r>
       <r>   -4.2547    1.0000 </r>
       <r>   -4.1198    1.0000 </r>
       <r>   -4.0442    1.0000 </r>
       <r>   -3.9494    1.0000 </r>
       <r>   -3.8910    1.0000 </r>
       <r>   -3.6937    1.0000 </r>
       <r>   -3.6390    1.0000 </r>
       <r>   -2.1884    0.0304 </r>
       <r>   -1.3694    0.0000 </r>
       <r>   -0.8212    0.0000 </r>
       <r>    0.7477    0.0000 </r>
       <r>    1.7212    0.0000 </r>
       <r>    2.8233    0.0000 </r>
       <r>    4.0425    0.0000 </r>
      </set>
      <set comment="kpoint 7">
       <r>  -11.3075    1.0000 </r>
       <r>  -10.2995    1.0000 </r>
       <r>   -8.7265    1.0000 </r>
       <r>   -7.3099    1.0000 </r>
       <r>   -6.1201    1.0000 </r>
       <r>   -5.6680    1.0000 </r>
       <r>   -5.6140    1.0000 </r>
       <r>   -5.4364    1.0000 </r>
       <r>   -5.3693    1.0000 </r>
       <r>   -5.3346    1.0000 </r>
       <r>   -5.2875    1.0000 </r>
       <r>   -5.2007    1.0000 </r>
       <r>   -5.1278    1.0000 </r>
       <r>   -5.1123    1.0000 </r>
       <r>   -4.9948    1.0000 </r>
       <r>   -4.8867    1.0000 </r>
       <r>   -4.7515    1.0000 </r>
       <r>   -4.7003    1.0000 </r>
       <r>   -4.4863    1.0000 </r>
       <r>   -4.4535    1.0000 </r>
       <r>   -4.2894    1.0000 </r>
       <r>   -4.2549    1.0000 </r>
       <r>   -3.9826    1.0000 </r>
       <r>   -3.7679    1.0000 </r>
       <r>   -2.2347    0.1111 </r>
       <r>    1.8506    0.0000 </r>
       <r>    2.2221    0.0000 </r>
       <r>    2.6534    0.0000 </r>
      </set>
      <set comment="kpoint 8">
       <r>  -10.7261    1.0000 </r>
       <r>   -9.7262    1.0000 </r>
       <r>   -8.2376    1.0000 </r>
       <r>   -6.9230    1.0000 </r>
       <r>   -6.1403    1.0000 </r>
       <r>   -5.8436    1.0000 </r>
       <r>   -5.7496    1.0000 </r>
       <r>   -5.5519    1.0000 </r>
       <r>   -5.4628    1.0000 </r>
       <r>   -5.3148    1.0000 </r>
       <r>   -5.2178    1.0000 </r>
       <r>   -5.1659    1.0000 </r>
       <r>   -5.1280    1.0000 </r>
       <r>   -5.0892    1.0000 </r>
       <r>   -4.9229    1.0000 </r>
       <r>   -4.8404    1.0000 </r>
       <r>   -4.7100    1.0000 </r>
       <r>   -4.6378    1.0000 </r>
       <r>   -4.5917    1.0000 </r>
       <r>   -4.4399    1.0000 </r>
       <r>   -4.3444    1.0000 </r>
       <r>   -4.0845    1.0000 </r>
       <r>   -4.0220    1.0000 </r>
       <r>   -3.1701    1.0000 </r>
       <r>   -1.3042    0.0000 </r>
       <r>    2.3380    0.0000 </r>
       <r>    2.8290    0.0000 </r>
       <r>    3.2583    0.0000 </r>
      </set>
      <set comment="kpoint 9">
       <r>   -9.6591    1.0000 </r>
       <r>   -8.6962    1.0000 </r>
       <r>   -7.5043    1.0000 </r>
       <r>   -6.5103    1.0000 </r>
       <r>   -6.2080    1.0000 </r>
       <r>   -6.0396    1.0000 </r>
       <r>   -5.8626    1.0000 </r>
       <r>   -5.7433    1.0000 </r>
       <r>   -5.5967    1.0000 </r>
       <r>   -5.3022    1.0000 </r>
       <r>   -5.2586    1.0000 </r>
       <r>   -5.1909    1.0000 </r>
       <r>   -5.0373    1.0000 </r>
       <r>   -4.9109    1.0000 </r>
       <r>   -4.8342    1.0000 </r>
       <r>   -4.7480    1.0000 </r>
       <r>   -4.5694    1.0000 </r>
       <r>   -4.4845    1.0000 </r>
       <r>   -4.3672    1.0000 </r>
       <r>   -4.2935    1.0000 </r>
       <r>   -4.1398    1.0000 </r>
       <r>   -4.0422    1.0000 </r>
       <r>   -3.7398    1.0000 </r>
       <r>   -2.2063    0.0523 </r>
       <r>    0.1283    0.0000 </r>
       <r>    3.3085    0.0000 </r>
       <r>    4.0375    0.0000 </r>
       <r>    4.4756    0.0000 </r>
      </set>
      <set comment="kpoint 10">
       <r>   -8.4853    1.0000 </r>
       <r>   -7.5923    1.0000 </r>
       <r>   -7.0177    1.0000 </r>
       <r>   -6.4876    1.0000 </r>
       <r>   -6.3597    1.0000 </r>
       <r>   -6.1474    1.0000 </r>
       <r>   -5.9347    1.0000 </r>
       <r>   -5.6276    1.0000 </r>
       <r>   -5.5369    1.0000 </r>
       <r>   -5.3312    1.0000 </r>
       <r>   -5.2411    1.0000 </r>
       <r>   -5.0811    1.0000 </r>
       <r>   -4.9147    1.0000 </r>
       <r>   -4.7331    1.0000 </r>
       <r>   -4.6098    1.0000 </r>
       <r>   -4.4979    1.0000 </r>
       <r>   -4.3657    1.0000 </r>
       <r>   -4.2211    1.0000 </r>
       <r>   -4.1563    1.0000 </r>
       <r>   -3.9824    1.0000 </r>
       <r>   -3.9283    1.0000 </r>
       <r>   -3.6199    1.0000 </r>
       <r>   -2.8723    1.0000 </r>
       <r>   -0.8360    0.0000 </r>
       <r>    1.8321    0.0000 </r>
       <r>    3.8553    0.0000 </r>
       <r>    4.4156    0.0000 </r>
       <r>    5.2664    0.0000 </r>
      </set>
      <set comment="kpoint 11">
       <r>   -7.9466    1.0000 </r>
       <r>   -7.0239    1.0000 </r>
       <r>   -6.8225    1.0000 </r>
       <r>   -6.4971    1.0000 </r>
       <r>   -6.4402    1.0000 </r>
       <r>   -6.2244    1.0000 </r>
       <r>   -6.0105    1.0000 </r>
       <r>   -5.5383    1.0000 </r>
       <r>   -5.3693    1.0000 </r>
       <r>   -5.2363    1.0000 </r>
       <r>   -5.2035    1.0000 </r>
       <r>   -5.0174    1.0000 </r>
       <r>   -4.7845    1.0000 </r>
       <r>   -4.5139    1.0000 </r>
       <r>   -4.3973    1.0000 </r>
       <r>   -4.2473    1.0000 </r>
       <r>   -4.1265    1.0000 </r>
       <r>   -4.0657    1.0000 </r>
       <r>   -4.0174    1.0000 </r>
       <r>   -3.8633    1.0000 </r>
       <r>   -3.3508    1.0000 </r>
       <r>   -2.3271    0.5343 </r>
       <r>   -1.3866    0.0000 </r>
       <r>    0.0387    0.0000 </r>
       <r>    1.3507    0.0000 </r>
       <r>    1.9970    0.0000 </r>
       <r>    3.1173    0.0000 </r>
       <r>    4.4490    0.0000 </r>
      </set>
      <set comment="kpoint 12">
       <r>   -7.9568    1.0000 </r>
       <r>   -7.0262    1.0000 </r>
       <r>   -6.8245    1.0000 </r>
       <r>   -6.4993    1.0000 </r>
       <r>   -6.4450    1.0000 </r>
       <r>   -6.2203    1.0000 </r>
       <r>   -6.0039    1.0000 </r>
       <r>   -5.5243    1.0000 </r>
       <r>   -5.3747    1.0000 </r>
       <r>   -5.2395    1.0000 </r>
       <r>   -5.1826    1.0000 </r>
       <r>   -5.0164    1.0000 </r>
       <r>   -4.7799    1.0000 </r>
       <r>   -4.5249    1.0000 </r>
       <r>   -4.3922    1.0000 </r>
       <r>   -4.2477    1.0000 </r>
       <r>   -4.1263    1.0000 </r>
       <r>   -4.0679    1.0000 </r>
       <r>   -4.0176    1.0000 </r>
       <r>   -3.8641    1.0000 </r>
       <r>   -3.3712    1.0000 </r>
       <r>   -2.3246    0.5200 </r>
       <r>   -1.3755    0.0000 </r>
       <r>    0.0444    0.0000 </r>
       <r>    1.3501    0.0000 </r>
       <r>    1.9977    0.0000 </r>
       <r>    3.1162    0.0000 </r>
       <r>    4.4521    0.0000 </r>
      </set>
      <set comment="kpoint 13">
       <r>   -8.4909    1.0000 </r>
       <r>   -7.6015    1.0000 </r>
       <r>   -7.0300    1.0000 </r>
       <r>   -6.4951    1.0000 </r>
       <r>   -6.3594    1.0000 </r>
       <r>   -6.1423    1.0000 </r>
       <r>   -5.9228    1.0000 </r>
       <r>   -5.6175    1.0000 </r>
       <r>   -5.5283    1.0000 </r>
       <r>   -5.3258    1.0000 </r>
       <r>   -5.2277    1.0000 </r>
       <r>   -5.0855    1.0000 </r>
       <r>   -4.9058    1.0000 </r>
       <r>   -4.7297    1.0000 </r>
       <r>   -4.6386    1.0000 </r>
       <r>   -4.4909    1.0000 </r>
       <r>   -4.3672    1.0000 </r>
       <r>   -4.2299    1.0000 </r>
       <r>   -4.1603    1.0000 </r>
       <r>   -3.9872    1.0000 </r>
       <r>   -3.9342    1.0000 </r>
       <r>   -3.6179    1.0000 </r>
       <r>   -2.8558    1.0000 </r>
       <r>   -0.8168    0.0000 </r>
       <r>    1.8442    0.0000 </r>
       <r>    3.8489    0.0000 </r>
       <r>    4.4161    0.0000 </r>
       <r>    5.2641    0.0000 </r>
      </set>
      <set comment="kpoint 14">
       <r>   -9.6521    1.0000 </r>
       <r>   -8.7014    1.0000 </r>
       <r>   -7.5240    1.0000 </r>
       <r>   -6.5227    1.0000 </r>
       <r>   -6.2231    1.0000 </r>
       <r>   -6.0339    1.0000 </r>
       <r>   -5.8510    1.0000 </r>
       <r>   -5.7410    1.0000 </r>
       <r>   -5.5961    1.0000 </r>
       <r>   -5.2995    1.0000 </r>
       <r>   -5.2560    1.0000 </r>
       <r>   -5.1764    1.0000 </r>
       <r>   -5.0412    1.0000 </r>
       <r>   -4.9312    1.0000 </r>
       <r>   -4.8348    1.0000 </r>
       <r>   -4.7469    1.0000 </r>
       <r>   -4.5751    1.0000 </r>
       <r>   -4.4769    1.0000 </r>
       <r>   -4.3572    1.0000 </r>
       <r>   -4.2935    1.0000 </r>
       <r>   -4.1399    1.0000 </r>
       <r>   -4.0427    1.0000 </r>
       <r>   -3.7258    1.0000 </r>
       <r>   -2.1886    0.0305 </r>
       <r>    0.1371    0.0000 </r>
       <r>    3.3089    0.0000 </r>
       <r>    4.0380    0.0000 </r>
       <r>    4.4816    0.0000 </r>
      </set>
      <set comment="kpoint 15">
       <r>  -10.7199    1.0000 </r>
       <r>   -9.7272    1.0000 </r>
       <r>   -8.2464    1.0000 </r>
       <r>   -6.9279    1.0000 </r>
       <r>   -6.1875    1.0000 </r>
       <r>   -5.8392    1.0000 </r>
       <r>   -5.7427    1.0000 </r>
       <r>   -5.5497    1.0000 </r>
       <r>   -5.4638    1.0000 </r>
       <r>   -5.3183    1.0000 </r>
       <r>   -5.2365    1.0000 </r>
       <r>   -5.1628    1.0000 </r>
       <r>   -5.1046    1.0000 </r>
       <r>   -5.0893    1.0000 </r>
       <r>   -4.9230    1.0000 </r>
       <r>   -4.8419    1.0000 </r>
       <r>   -4.7050    1.0000 </r>
       <r>   -4.6084    1.0000 </r>
       <r>   -4.5917    1.0000 </r>
       <r>   -4.4425    1.0000 </r>
       <r>   -4.3436    1.0000 </r>
       <r>   -4.0790    1.0000 </r>
       <r>   -4.0213    1.0000 </r>
       <r>   -3.1595    1.0000 </r>
       <r>   -1.2997    0.0000 </r>
       <r>    2.3375    0.0000 </r>
       <r>    2.8293    0.0000 </r>
       <r>    3.2594    0.0000 </r>
      </set>
      <set comment="kpoint 16">
       <r>  -10.4343    1.0000 </r>
       <r>   -9.4574    1.0000 </r>
       <r>   -8.0465    1.0000 </r>
       <r>   -6.7968    1.0000 </r>
       <r>   -6.2568    1.0000 </r>
       <r>   -5.9378    1.0000 </r>
       <r>   -5.7399    1.0000 </r>
       <r>   -5.6296    1.0000 </r>
       <r>   -5.4803    1.0000 </r>
       <r>   -5.2576    1.0000 </r>
       <r>   -5.2039    1.0000 </r>
       <r>   -5.1752    1.0000 </r>
       <r>   -5.0716    1.0000 </r>
       <r>   -5.0023    1.0000 </r>
       <r>   -4.8724    1.0000 </r>
       <r>   -4.8167    1.0000 </r>
       <r>   -4.7834    1.0000 </r>
       <r>   -4.6012    1.0000 </r>
       <r>   -4.5615    1.0000 </r>
       <r>   -4.4329    1.0000 </r>
       <r>   -4.2555    1.0000 </r>
       <r>   -4.0754    1.0000 </r>
       <r>   -3.9778    1.0000 </r>
       <r>   -2.9079    1.0000 </r>
       <r>   -0.9090    0.0000 </r>
       <r>    2.5776    0.0000 </r>
       <r>    3.1322    0.0000 </r>
       <r>    3.5610    0.0000 </r>
      </set>
      <set comment="kpoint 17">
       <r>   -8.5857    1.0000 </r>
       <r>   -7.6658    1.0000 </r>
       <r>   -6.9751    1.0000 </r>
       <r>   -6.4616    1.0000 </r>
       <r>   -6.1378    1.0000 </r>
       <r>   -6.0461    1.0000 </r>
       <r>   -5.9025    1.0000 </r>
       <r>   -5.8386    1.0000 </r>
       <r>   -5.5706    1.0000 </r>
       <r>   -5.4117    1.0000 </r>
       <r>   -5.3839    1.0000 </r>
       <r>   -5.2948    1.0000 </r>
       <r>   -4.9735    1.0000 </r>
       <r>   -4.8945    1.0000 </r>
       <r>   -4.7786    1.0000 </r>
       <r>   -4.6093    1.0000 </r>
       <r>   -4.4078    1.0000 </r>
       <r>   -4.2650    1.0000 </r>
       <r>   -4.1757    1.0000 </r>
       <r>   -3.9772    1.0000 </r>
       <r>   -3.9096    1.0000 </r>
       <r>   -3.5742    1.0000 </r>
       <r>   -2.8766    1.0000 </r>
       <r>   -0.9589    0.0000 </r>
       <r>    1.6542    0.0000 </r>
       <r>    4.5008    0.0000 </r>
       <r>    5.3513    0.0000 </r>
       <r>    5.6226    0.0000 </r>
      </set>
      <set comment="kpoint 18">
       <r>   -7.8309    1.0000 </r>
       <r>   -6.8583    1.0000 </r>
       <r>   -6.6477    1.0000 </r>
       <r>   -6.3863    1.0000 </r>
       <r>   -6.2555    1.0000 </r>
       <r>   -6.0593    1.0000 </r>
       <r>   -5.9629    1.0000 </r>
       <r>   -5.7552    1.0000 </r>
       <r>   -5.5840    1.0000 </r>
       <r>   -5.5153    1.0000 </r>
       <r>   -5.3371    1.0000 </r>
       <r>   -5.0573    1.0000 </r>
       <r>   -4.9638    1.0000 </r>
       <r>   -4.8137    1.0000 </r>
       <r>   -4.6272    1.0000 </r>
       <r>   -4.5342    1.0000 </r>
       <r>   -4.3706    1.0000 </r>
       <r>   -4.1958    1.0000 </r>
       <r>   -4.0257    1.0000 </r>
       <r>   -3.8835    1.0000 </r>
       <r>   -3.1418    1.0000 </r>
       <r>   -2.3631    0.7239 </r>
       <r>   -1.2857    0.0000 </r>
       <r>    0.7008    0.0000 </r>
       <r>    2.9106    0.0000 </r>
       <r>    3.0797    0.0000 </r>
       <r>    3.9969    0.0000 </r>
       <r>    5.1590    0.0000 </r>
      </set>
      <set comment="kpoint 19">
       <r>   -7.6772    1.0000 </r>
       <r>   -6.6651    1.0000 </r>
       <r>   -6.5491    1.0000 </r>
       <r>   -6.3224    1.0000 </r>
       <r>   -6.1983    1.0000 </r>
       <r>   -6.1216    1.0000 </r>
       <r>   -5.9662    1.0000 </r>
       <r>   -5.8180    1.0000 </r>
       <r>   -5.5336    1.0000 </r>
       <r>   -5.4493    1.0000 </r>
       <r>   -5.2490    1.0000 </r>
       <r>   -5.0976    1.0000 </r>
       <r>   -4.8952    1.0000 </r>
       <r>   -4.6931    1.0000 </r>
       <r>   -4.5619    1.0000 </r>
       <r>   -4.4467    1.0000 </r>
       <r>   -4.2778    1.0000 </r>
       <r>   -4.1043    1.0000 </r>
       <r>   -4.0591    1.0000 </r>
       <r>   -3.9542    1.0000 </r>
       <r>   -2.3419    0.6157 </r>
       <r>   -0.7432    0.0000 </r>
       <r>   -0.2037    0.0000 </r>
       <r>    0.5539    0.0000 </r>
       <r>    1.8182    0.0000 </r>
       <r>    2.1601    0.0000 </r>
       <r>    3.4799    0.0000 </r>
       <r>    4.6420    0.0000 </r>
      </set>
      <set comment="kpoint 20">
       <r>   -7.8558    1.0000 </r>
       <r>   -6.8711    1.0000 </r>
       <r>   -6.6500    1.0000 </r>
       <r>   -6.3884    1.0000 </r>
       <r>   -6.2546    1.0000 </r>
       <r>   -6.0473    1.0000 </r>
       <r>   -5.9570    1.0000 </r>
       <r>   -5.7429    1.0000 </r>
       <r>   -5.5788    1.0000 </r>
       <r>   -5.5076    1.0000 </r>
       <r>   -5.3295    1.0000 </r>
       <r>   -5.0581    1.0000 </r>
       <r>   -4.9616    1.0000 </r>
       <r>   -4.8121    1.0000 </r>
       <r>   -4.6303    1.0000 </r>
       <r>   -4.5275    1.0000 </r>
       <r>   -4.3730    1.0000 </r>
       <r>   -4.1930    1.0000 </r>
       <r>   -4.0299    1.0000 </r>
       <r>   -3.8836    1.0000 </r>
       <r>   -3.1833    1.0000 </r>
       <r>   -2.3551    0.6851 </r>
       <r>   -1.2561    0.0000 </r>
       <r>    0.7375    0.0000 </r>
       <r>    2.9038    0.0000 </r>
       <r>    3.0875    0.0000 </r>
       <r>    4.0090    0.0000 </r>
       <r>    5.1950    0.0000 </r>
      </set>
      <set comment="kpoint 21">
       <r>   -8.5739    1.0000 </r>
       <r>   -7.6870    1.0000 </r>
       <r>   -7.0143    1.0000 </r>
       <r>   -6.4666    1.0000 </r>
       <r>   -6.1376    1.0000 </r>
       <r>   -6.0441    1.0000 </r>
       <r>   -5.9003    1.0000 </r>
       <r>   -5.8351    1.0000 </r>
       <r>   -5.5713    1.0000 </r>
       <r>   -5.4124    1.0000 </r>
       <r>   -5.3556    1.0000 </r>
       <r>   -5.2933    1.0000 </r>
       <r>   -4.9762    1.0000 </r>
       <r>   -4.9040    1.0000 </r>
       <r>   -4.7496    1.0000 </r>
       <r>   -4.6220    1.0000 </r>
       <r>   -4.4083    1.0000 </r>
       <r>   -4.2626    1.0000 </r>
       <r>   -4.1933    1.0000 </r>
       <r>   -3.9788    1.0000 </r>
       <r>   -3.9207    1.0000 </r>
       <r>   -3.5687    1.0000 </r>
       <r>   -2.8482    1.0000 </r>
       <r>   -0.9164    0.0000 </r>
       <r>    1.6861    0.0000 </r>
       <r>    4.5225    0.0000 </r>
       <r>    5.3507    0.0000 </r>
       <r>    5.6438    0.0000 </r>
      </set>
      <set comment="kpoint 22">
       <r>   -9.6389    1.0000 </r>
       <r>   -8.7031    1.0000 </r>
       <r>   -7.5391    1.0000 </r>
       <r>   -6.5429    1.0000 </r>
       <r>   -6.2285    1.0000 </r>
       <r>   -6.0411    1.0000 </r>
       <r>   -5.8641    1.0000 </r>
       <r>   -5.7413    1.0000 </r>
       <r>   -5.5992    1.0000 </r>
       <r>   -5.3042    1.0000 </r>
       <r>   -5.2594    1.0000 </r>
       <r>   -5.1739    1.0000 </r>
       <r>   -5.0285    1.0000 </r>
       <r>   -4.9159    1.0000 </r>
       <r>   -4.8295    1.0000 </r>
       <r>   -4.7473    1.0000 </r>
       <r>   -4.5753    1.0000 </r>
       <r>   -4.4758    1.0000 </r>
       <r>   -4.3527    1.0000 </r>
       <r>   -4.2932    1.0000 </r>
       <r>   -4.1398    1.0000 </r>
       <r>   -4.0421    1.0000 </r>
       <r>   -3.7166    1.0000 </r>
       <r>   -2.1707    0.0168 </r>
       <r>    0.1470    0.0000 </r>
       <r>    3.3116    0.0000 </r>
       <r>    4.0381    0.0000 </r>
       <r>    4.4851    0.0000 </r>
      </set>
      <set comment="kpoint 23">
       <r>   -9.1758    1.0000 </r>
       <r>   -8.3006    1.0000 </r>
       <r>   -7.3767    1.0000 </r>
       <r>   -6.5764    1.0000 </r>
       <r>   -6.3391    1.0000 </r>
       <r>   -6.1642    1.0000 </r>
       <r>   -5.8678    1.0000 </r>
       <r>   -5.6435    1.0000 </r>
       <r>   -5.5197    1.0000 </r>
       <r>   -5.2801    1.0000 </r>
       <r>   -5.1689    1.0000 </r>
       <r>   -5.0521    1.0000 </r>
       <r>   -4.8736    1.0000 </r>
       <r>   -4.8253    1.0000 </r>
       <r>   -4.7339    1.0000 </r>
       <r>   -4.5988    1.0000 </r>
       <r>   -4.5067    1.0000 </r>
       <r>   -4.3661    1.0000 </r>
       <r>   -4.3318    1.0000 </r>
       <r>   -4.2443    1.0000 </r>
       <r>   -4.1273    1.0000 </r>
       <r>   -3.9647    1.0000 </r>
       <r>   -3.5925    1.0000 </r>
       <r>   -1.7408    0.0000 </r>
       <r>    0.7613    0.0000 </r>
       <r>    3.7527    0.0000 </r>
       <r>    4.6139    0.0000 </r>
       <r>    5.0368    0.0000 </r>
      </set>
      <set comment="kpoint 24">
       <r>   -7.5351    1.0000 </r>
       <r>   -6.4393    1.0000 </r>
       <r>   -6.3693    1.0000 </r>
       <r>   -6.2276    1.0000 </r>
       <r>   -6.1331    1.0000 </r>
       <r>   -6.0469    1.0000 </r>
       <r>   -5.9523    1.0000 </r>
       <r>   -5.8885    1.0000 </r>
       <r>   -5.6917    1.0000 </r>
       <r>   -5.5376    1.0000 </r>
       <r>   -5.4187    1.0000 </r>
       <r>   -5.0382    1.0000 </r>
       <r>   -4.9870    1.0000 </r>
       <r>   -4.8030    1.0000 </r>
       <r>   -4.6577    1.0000 </r>
       <r>   -4.4966    1.0000 </r>
       <r>   -4.4447    1.0000 </r>
       <r>   -4.1463    1.0000 </r>
       <r>   -4.0700    1.0000 </r>
       <r>   -3.9781    1.0000 </r>
       <r>   -1.9358    0.0000 </r>
       <r>   -0.4115    0.0000 </r>
       <r>    0.6615    0.0000 </r>
       <r>    1.9481    0.0000 </r>
       <r>    2.3891    0.0000 </r>
       <r>    2.9972    0.0000 </r>
       <r>    3.1903    0.0000 </r>
       <r>    3.7745    0.0000 </r>
      </set>
      <set comment="kpoint 25">
       <r>   -7.5545    1.0000 </r>
       <r>   -6.4508    1.0000 </r>
       <r>   -6.3549    1.0000 </r>
       <r>   -6.2271    1.0000 </r>
       <r>   -6.1251    1.0000 </r>
       <r>   -6.0477    1.0000 </r>
       <r>   -5.9518    1.0000 </r>
       <r>   -5.8878    1.0000 </r>
       <r>   -5.6914    1.0000 </r>
       <r>   -5.5375    1.0000 </r>
       <r>   -5.4171    1.0000 </r>
       <r>   -5.0379    1.0000 </r>
       <r>   -4.9870    1.0000 </r>
       <r>   -4.8037    1.0000 </r>
       <r>   -4.6506    1.0000 </r>
       <r>   -4.4943    1.0000 </r>
       <r>   -4.4439    1.0000 </r>
       <r>   -4.1484    1.0000 </r>
       <r>   -4.0701    1.0000 </r>
       <r>   -3.9781    1.0000 </r>
       <r>   -1.9746    0.0000 </r>
       <r>   -0.3949    0.0000 </r>
       <r>    0.7091    0.0000 </r>
       <r>    2.0082    0.0000 </r>
       <r>    2.3835    0.0000 </r>
       <r>    2.9160    0.0000 </r>
       <r>    3.1937    0.0000 </r>
       <r>    3.9652    0.0000 </r>
      </set>
      <set comment="kpoint 26">
       <r>   -7.8353    1.0000 </r>
       <r>   -6.8825    1.0000 </r>
       <r>   -6.6547    1.0000 </r>
       <r>   -6.3962    1.0000 </r>
       <r>   -6.2517    1.0000 </r>
       <r>   -6.0721    1.0000 </r>
       <r>   -5.9579    1.0000 </r>
       <r>   -5.7518    1.0000 </r>
       <r>   -5.5760    1.0000 </r>
       <r>   -5.5076    1.0000 </r>
       <r>   -5.3396    1.0000 </r>
       <r>   -5.0573    1.0000 </r>
       <r>   -4.9579    1.0000 </r>
       <r>   -4.8078    1.0000 </r>
       <r>   -4.6236    1.0000 </r>
       <r>   -4.5265    1.0000 </r>
       <r>   -4.3708    1.0000 </r>
       <r>   -4.1922    1.0000 </r>
       <r>   -4.0323    1.0000 </r>
       <r>   -3.8834    1.0000 </r>
       <r>   -3.1958    1.0000 </r>
       <r>   -2.3525    0.6715 </r>
       <r>   -1.2402    0.0000 </r>
       <r>    0.7833    0.0000 </r>
       <r>    2.9640    0.0000 </r>
       <r>    3.2865    0.0000 </r>
       <r>    3.8815    0.0000 </r>
       <r>    5.0452    0.0000 </r>
      </set>
      <set comment="kpoint 27">
       <r>   -8.4407    1.0000 </r>
       <r>   -7.6194    1.0000 </r>
       <r>   -7.0650    1.0000 </r>
       <r>   -6.5285    1.0000 </r>
       <r>   -6.3566    1.0000 </r>
       <r>   -6.1633    1.0000 </r>
       <r>   -5.9437    1.0000 </r>
       <r>   -5.6284    1.0000 </r>
       <r>   -5.5354    1.0000 </r>
       <r>   -5.3205    1.0000 </r>
       <r>   -5.2350    1.0000 </r>
       <r>   -5.0811    1.0000 </r>
       <r>   -4.9007    1.0000 </r>
       <r>   -4.7304    1.0000 </r>
       <r>   -4.6107    1.0000 </r>
       <r>   -4.4908    1.0000 </r>
       <r>   -4.3662    1.0000 </r>
       <r>   -4.2357    1.0000 </r>
       <r>   -4.1574    1.0000 </r>
       <r>   -3.9843    1.0000 </r>
       <r>   -3.9331    1.0000 </r>
       <r>   -3.6159    1.0000 </r>
       <r>   -2.8314    1.0000 </r>
       <r>   -0.7644    0.0000 </r>
       <r>    1.9152    0.0000 </r>
       <r>    3.9717    0.0000 </r>
       <r>    4.3916    0.0000 </r>
       <r>    5.2086    0.0000 </r>
      </set>
      <set comment="kpoint 28">
       <r>   -8.1790    1.0000 </r>
       <r>   -7.3889    1.0000 </r>
       <r>   -7.0305    1.0000 </r>
       <r>   -6.5931    1.0000 </r>
       <r>   -6.5070    1.0000 </r>
       <r>   -6.3055    1.0000 </r>
       <r>   -6.0086    1.0000 </r>
       <r>   -5.4361    1.0000 </r>
       <r>   -5.3056    1.0000 </r>
       <r>   -5.2547    1.0000 </r>
       <r>   -5.2174    1.0000 </r>
       <r>   -4.9125    1.0000 </r>
       <r>   -4.8278    1.0000 </r>
       <r>   -4.4755    1.0000 </r>
       <r>   -4.3515    1.0000 </r>
       <r>   -4.3142    1.0000 </r>
       <r>   -4.1039    1.0000 </r>
       <r>   -4.1008    1.0000 </r>
       <r>   -4.0477    1.0000 </r>
       <r>   -3.9661    1.0000 </r>
       <r>   -3.8107    1.0000 </r>
       <r>   -3.5237    1.0000 </r>
       <r>   -2.5190    0.9974 </r>
       <r>   -0.3365    0.0000 </r>
       <r>    2.2355    0.0000 </r>
       <r>    2.4668    0.0000 </r>
       <r>    3.2376    0.0000 </r>
       <r>    4.5119    0.0000 </r>
      </set>
      <set comment="kpoint 29">
       <r>   -7.6753    1.0000 </r>
       <r>   -6.6703    1.0000 </r>
       <r>   -6.5504    1.0000 </r>
       <r>   -6.3209    1.0000 </r>
       <r>   -6.2020    1.0000 </r>
       <r>   -6.1491    1.0000 </r>
       <r>   -5.9625    1.0000 </r>
       <r>   -5.8054    1.0000 </r>
       <r>   -5.5497    1.0000 </r>
       <r>   -5.4493    1.0000 </r>
       <r>   -5.2595    1.0000 </r>
       <r>   -5.0954    1.0000 </r>
       <r>   -4.8849    1.0000 </r>
       <r>   -4.6928    1.0000 </r>
       <r>   -4.5577    1.0000 </r>
       <r>   -4.4368    1.0000 </r>
       <r>   -4.2770    1.0000 </r>
       <r>   -4.1089    1.0000 </r>
       <r>   -4.0591    1.0000 </r>
       <r>   -3.9544    1.0000 </r>
       <r>   -2.4177    0.9141 </r>
       <r>   -0.7210    0.0000 </r>
       <r>   -0.1677    0.0000 </r>
       <r>    0.5952    0.0000 </r>
       <r>    2.0247    0.0000 </r>
       <r>    2.3020    0.0000 </r>
       <r>    3.3829    0.0000 </r>
       <r>    4.4902    0.0000 </r>
      </set>
      <set comment="kpoint 30">
       <r>   -7.9124    1.0000 </r>
       <r>   -7.0412    1.0000 </r>
       <r>   -6.8233    1.0000 </r>
       <r>   -6.5065    1.0000 </r>
       <r>   -6.4683    1.0000 </r>
       <r>   -6.2571    1.0000 </r>
       <r>   -6.0332    1.0000 </r>
       <r>   -5.5158    1.0000 </r>
       <r>   -5.3712    1.0000 </r>
       <r>   -5.2583    1.0000 </r>
       <r>   -5.2041    1.0000 </r>
       <r>   -5.0042    1.0000 </r>
       <r>   -4.7824    1.0000 </r>
       <r>   -4.5127    1.0000 </r>
       <r>   -4.3873    1.0000 </r>
       <r>   -4.2432    1.0000 </r>
       <r>   -4.1269    1.0000 </r>
       <r>   -4.0721    1.0000 </r>
       <r>   -4.0206    1.0000 </r>
       <r>   -3.8634    1.0000 </r>
       <r>   -3.4084    1.0000 </r>
       <r>   -2.3214    0.5021 </r>
       <r>   -1.3483    0.0000 </r>
       <r>    0.0864    0.0000 </r>
       <r>    1.8187    0.0000 </r>
       <r>    1.9550    0.0000 </r>
       <r>    3.0204    0.0000 </r>
       <r>    4.3095    0.0000 </r>
      </set>
      <set comment="kpoint 31">
       <r>   -7.9575    1.0000 </r>
       <r>   -7.1178    1.0000 </r>
       <r>   -6.9021    1.0000 </r>
       <r>   -6.6006    1.0000 </r>
       <r>   -6.5543    1.0000 </r>
       <r>   -6.3554    1.0000 </r>
       <r>   -6.0468    1.0000 </r>
       <r>   -5.4070    1.0000 </r>
       <r>   -5.2892    1.0000 </r>
       <r>   -5.2277    1.0000 </r>
       <r>   -5.0231    1.0000 </r>
       <r>   -4.9325    1.0000 </r>
       <r>   -4.5891    1.0000 </r>
       <r>   -4.4398    1.0000 </r>
       <r>   -4.2547    1.0000 </r>
       <r>   -4.1467    1.0000 </r>
       <r>   -4.0440    1.0000 </r>
       <r>   -3.9495    1.0000 </r>
       <r>   -3.8911    1.0000 </r>
       <r>   -3.6937    1.0000 </r>
       <r>   -3.6753    1.0000 </r>
       <r>   -2.1879    0.0298 </r>
       <r>   -1.3578    0.0000 </r>
       <r>   -0.8170    0.0000 </r>
       <r>    1.3649    0.0000 </r>
       <r>    1.6536    0.0000 </r>
       <r>    2.7374    0.0000 </r>
       <r>    3.8831    0.0000 </r>
      </set>
     </set>
    </set>
   </array>
  </eigenvalues>
  <separator name="orbital magnetization" >
   <v name="MAGDIPOLOUT">      0.00000000      0.00000000      0.00000000</v>
  </separator>
  <dos>
   <i name="efermi">     -2.32106313 </i>
   <total>
    <array>
     <dimension dim="1">gridpoints</dimension>
     <dimension dim="2">spin</dimension>
     <field>energy</field>
     <field>total</field>
     <field>integrated</field>
     <set>
      <set comment="spin 1">
       <r>   -17.0000     0.0000     0.0000 </r>
       <r>   -16.9900     0.0000     0.0000 </r>
       <r>   -16.9800     0.0000     0.0000 </r>
       <r>   -16.9700     0.0000     0.0000 </r>
       <r>   -16.9600     0.0000     0.0000 </r>
       <r>   -16.9500     0.0000     0.0000 </r>
       <r>   -16.9400     0.0000     0.0000 </r>
       <r>   -16.9300     0.0000     0.0000 </r>
       <r>   -16.9200     0.0000     0.0000 </r>
       <r>   -16.9100     0.0000     0.0000 </r>
       <r>   -16.9000     0.0000     0.0000 </r>
       <r>   -16.8900     0.0000     0.0000 </r>
       <r>   -16.8800     0.0000     0.0000 </r>
       <r>   -16.8700     0.0000     0.0000 </r>
       <r>   -16.8600     0.0000     0.0000 </r>
       <r>   -16.8500     0.0000     0.0000 </r>
       <r>   -16.8400     0.0000     0.0000 </r>
       <r>   -16.8300     0.0000     0.0000 </r>
       <r>   -16.8200     0.0000     0.0000 </r>
       <r>   -16.8100     0.0000     0.0000 </r>
       <r>   -16.8000     0.0000     0.0000 </r>
       <r>   -16.7900     0.0000     0.0000 </r>
       <r>   -16.7800     0.0000     0.0000 </r>
       <r>   -16.7700     0.0000     0.0000 </r>
       <r>   -16.7600     0.0000     0.0000 </r>
       <r>   -16.7500     0.0000     0.0000 </r>
       <r>   -16.7400     0.0000     0.0000 </r>
       <r>   -16.7300     0.0000     0.0000 </r>
       <r>   -16.7200     0.0000     0.0000 </r>
       <r>   -16.7100     0.0000     0.0000 </r>
       <r>   -16.7000     0.0000     0.0000 </r>
       <r>   -16.6900     0.0000     0.0000 </r>
       <r>   -16.6800     0.0000     0.0000 </r>
       <r>   -16.6700     0.0000     0.0000 </r>
       <r>   -16.6600     0.0000     0.0000 </r>
       <r>   -16.6500     0.0000     0.0000 </r>
       <r>   -16.6400     0.0000     0.0000 </r>
       <r>   -16.6300     0.0000     0.0000 </r>
       <r>   -16.6200     0.0000     0.0000 </r>
       <r>   -16.6100     0.0000     0.0000 </r>
       <r>   -16.6000     0.0000     0.0000 </r>
       <r>   -16.5900     0.0000     0.0000 </r>
       <r>   -16.5800     0.0000     0.0000 </r>
       <r>   -16.5700     0.0000     0.0000 </r>
       <r>   -16.5600     0.0000     0.0000 </r>
       <r>   -16.5500     0.0000     0.0000 </r>
       <r>   -16.5400     0.0000     0.0000 </r>
       <r>   -16.5300     0.0000     0.0000 </r>
       <r>   -16.5200     0.0000     0.0000 </r>
       <r>   -16.5100     0.0000     0.0000 </r>
       <r>   -16.5000     0.0000     0.0000 </r>
       <r>   -16.4900     0.0000     0.0000 </r>
       <r>   -16.4800     0.0000     0.0000 </r>
       <r>   -16.4700     0.0000     0.0000 </r>
       <r>   -16.4600     0.0000     0.0000 </r>
       <r>   -16.4500     0.0000     0.0000 </r>
       <r>   -16.4400     0.0000     0.0000 </r>
       <r>   -16.4300     0.0000     0.0000 </r>
       <r>   -16.4200     0.0000     0.0000 </r>
       <r>   -16.4100     0.0000     0.0000 </r>
       <r>   -16.4000     0.0000     0.0000 </r>
       <r>   -16.3900     0.0000     0.0000 </r>
       <r>   -16.3800     0.0000     0.0000 </r>
       <r>   -16.3700     0.0000     0.0000 </r>
       <r>   -16.3600     0.0000     0.0000 </r>
       <r>   -16.3500     0.0000     0.0000 </r>
       <r>   -16.3400     0.0000     0.0000 </r>
       <r>   -16.3300     0.0000     0.0000 </r>
       <r>   -16.3200     0.0000     0.0000 </r>
       <r>   -16.3100     0.0000     0.0000 </r>
       <r>   -16.3000     0.0000     0.0000 </r>
       <r>   -16.2900     0.0000     0.0000 </r>
       <r>   -16.2800     0.0000     0.0000 </r>
       <r>   -16.2700     0.0000     0.0000 </r>
       <r>   -16.2600     0.0000     0.0000 </r>
       <r>   -16.2500     0.0000     0.0000 </r>
       <r>   -16.2400     0.0000     0.0000 </r>
       <r>   -16.2300     0.0000     0.0000 </r>
       <r>   -16.2200     0.0000     0.0000 </r>
       <r>   -16.2100     0.0000     0.0000 </r>
       <r>   -16.2000     0.0000     0.0000 </r>
       <r>   -16.1900     0.0000     0.0000 </r>
       <r>   -16.1800     0.0000     0.0000 </r>
       <r>   -16.1700     0.0000     0.0000 </r>
       <r>   -16.1600     0.0000     0.0000 </r>
       <r>   -16.1500     0.0000     0.0000 </r>
       <r>   -16.1400     0.0000     0.0000 </r>
       <r>   -16.1300     0.0000     0.0000 </r>
       <r>   -16.1200     0.0000     0.0000 </r>
       <r>   -16.1100     0.0000     0.0000 </r>
       <r>   -16.1000     0.0000     0.0000 </r>
       <r>   -16.0900     0.0000     0.0000 </r>
       <r>   -16.0800     0.0000     0.0000 </r>
       <r>   -16.0700     0.0000     0.0000 </r>
       <r>   -16.0600     0.0000     0.0000 </r>
       <r>   -16.0500     0.0000     0.0000 </r>
       <r>   -16.0400     0.0000     0.0000 </r>
       <r>   -16.0300     0.0000     0.0000 </r>
       <r>   -16.0200     0.0000     0.0000 </r>
       <r>   -16.0100     0.0000     0.0000 </r>
       <r>   -16.0000     0.0000     0.0000 </r>
       <r>   -15.9900     0.0000     0.0000 </r>
       <r>   -15.9800     0.0000     0.0000 </r>
       <r>   -15.9700     0.0000     0.0000 </r>
       <r>   -15.9600     0.0000     0.0000 </r>
       <r>   -15.9500     0.0000     0.0000 </r>
       <r>   -15.9400     0.0000     0.0000 </r>
       <r>   -15.9300     0.0000     0.0000 </r>
       <r>   -15.9200     0.0000     0.0000 </r>
       <r>   -15.9100     0.0000     0.0000 </r>
       <r>   -15.9000     0.0000     0.0000 </r>
       <r>   -15.8900     0.0000     0.0000 </r>
       <r>   -15.8800     0.0000     0.0000 </r>
       <r>   -15.8700     0.0000     0.0000 </r>
       <r>   -15.8600     0.0000     0.0000 </r>
       <r>   -15.8500     0.0000     0.0000 </r>
       <r>   -15.8400     0.0000     0.0000 </r>
       <r>   -15.8300     0.0000     0.0000 </r>
       <r>   -15.8200     0.0000     0.0000 </r>
       <r>   -15.8100     0.0000     0.0000 </r>
       <r>   -15.8000     0.0000     0.0000 </r>
       <r>   -15.7900     0.0000     0.0000 </r>
       <r>   -15.7800     0.0000     0.0000 </r>
       <r>   -15.7700     0.0000     0.0000 </r>
       <r>   -15.7600     0.0000     0.0000 </r>
       <r>   -15.7500     0.0000     0.0000 </r>
       <r>   -15.7400     0.0000     0.0000 </r>
       <r>   -15.7300     0.0000     0.0000 </r>
       <r>   -15.7200     0.0000     0.0000 </r>
       <r>   -15.7100     0.0000     0.0000 </r>
       <r>   -15.7000     0.0000     0.0000 </r>
       <r>   -15.6900     0.0000     0.0000 </r>
       <r>   -15.6800     0.0000     0.0000 </r>
       <r>   -15.6700     0.0000     0.0000 </r>
       <r>   -15.6600     0.0000     0.0000 </r>
       <r>   -15.6500     0.0000     0.0000 </r>
       <r>   -15.6400     0.0000     0.0000 </r>
       <r>   -15.6300     0.0000     0.0000 </r>
       <r>   -15.6200     0.0000     0.0000 </r>
       <r>   -15.6100     0.0000     0.0000 </r>
       <r>   -15.6000     0.0000     0.0000 </r>
       <r>   -15.5900     0.0000     0.0000 </r>
       <r>   -15.5800     0.0000     0.0000 </r>
       <r>   -15.5700     0.0000     0.0000 </r>
       <r>   -15.5600     0.0000     0.0000 </r>
       <r>   -15.5500     0.0000     0.0000 </r>
       <r>   -15.5400     0.0000     0.0000 </r>
       <r>   -15.5300     0.0000     0.0000 </r>
       <r>   -15.5200     0.0000     0.0000 </r>
       <r>   -15.5100     0.0000     0.0000 </r>
       <r>   -15.5000     0.0000     0.0000 </r>
       <r>   -15.4900     0.0000     0.0000 </r>
       <r>   -15.4800     0.0000     0.0000 </r>
       <r>   -15.4700     0.0000     0.0000 </r>
       <r>   -15.4600     0.0000     0.0000 </r>
       <r>   -15.4500     0.0000     0.0000 </r>
       <r>   -15.4400     0.0000     0.0000 </r>
       <r>   -15.4300     0.0000     0.0000 </r>
       <r>   -15.4200     0.0000     0.0000 </r>
       <r>   -15.4100     0.0000     0.0000 </r>
       <r>   -15.4000     0.0000     0.0000 </r>
       <r>   -15.3900     0.0000     0.0000 </r>
       <r>   -15.3800     0.0000     0.0000 </r>
       <r>   -15.3700     0.0000     0.0000 </r>
       <r>   -15.3600     0.0000     0.0000 </r>
       <r>   -15.3500     0.0000     0.0000 </r>
       <r>   -15.3400     0.0000     0.0000 </r>
       <r>   -15.3300     0.0000     0.0000 </r>
       <r>   -15.3200     0.0000     0.0000 </r>
       <r>   -15.3100     0.0000     0.0000 </r>
       <r>   -15.3000     0.0000     0.0000 </r>
       <r>   -15.2900     0.0000     0.0000 </r>
       <r>   -15.2800     0.0000     0.0000 </r>
       <r>   -15.2700     0.0000     0.0000 </r>
       <r>   -15.2600     0.0000     0.0000 </r>
       <r>   -15.2500     0.0000     0.0000 </r>
       <r>   -15.2400     0.0000     0.0000 </r>
       <r>   -15.2300     0.0000     0.0000 </r>
       <r>   -15.2200     0.0000     0.0000 </r>
       <r>   -15.2100     0.0000     0.0000 </r>
       <r>   -15.2000     0.0000     0.0000 </r>
       <r>   -15.1900     0.0000     0.0000 </r>
       <r>   -15.1800     0.0000     0.0000 </r>
       <r>   -15.1700     0.0000     0.0000 </r>
       <r>   -15.1600     0.0000     0.0000 </r>
       <r>   -15.1500     0.0000     0.0000 </r>
       <r>   -15.1400     0.0000     0.0000 </r>
       <r>   -15.1300     0.0000     0.0000 </r>
       <r>   -15.1200     0.0000     0.0000 </r>
       <r>   -15.1100     0.0000     0.0000 </r>
       <r>   -15.1000     0.0000     0.0000 </r>
       <r>   -15.0900     0.0000     0.0000 </r>
       <r>   -15.0800     0.0000     0.0000 </r>
       <r>   -15.0700     0.0000     0.0000 </r>
       <r>   -15.0600     0.0000     0.0000 </r>
       <r>   -15.0500     0.0000     0.0000 </r>
       <r>   -15.0400     0.0000     0.0000 </r>
       <r>   -15.0300     0.0000     0.0000 </r>
       <r>   -15.0200     0.0000     0.0000 </r>
       <r>   -15.0100     0.0000     0.0000 </r>
       <r>   -15.0000     0.0000     0.0000 </r>
       <r>   -14.9900     0.0000     0.0000 </r>
       <r>   -14.9800     0.0000     0.0000 </r>
       <r>   -14.9700     0.0000     0.0000 </r>
       <r>   -14.9600     0.0000     0.0000 </r>
       <r>   -14.9500     0.0000     0.0000 </r>
       <r>   -14.9400     0.0000     0.0000 </r>
       <r>   -14.9300     0.0000     0.0000 </r>
       <r>   -14.9200     0.0000     0.0000 </r>
       <r>   -14.9100     0.0000     0.0000 </r>
       <r>   -14.9000     0.0000     0.0000 </r>
       <r>   -14.8900     0.0000     0.0000 </r>
       <r>   -14.8800     0.0000     0.0000 </r>
       <r>   -14.8700     0.0000     0.0000 </r>
       <r>   -14.8600     0.0000     0.0000 </r>
       <r>   -14.8500     0.0000     0.0000 </r>
       <r>   -14.8400     0.0000     0.0000 </r>
       <r>   -14.8300     0.0000     0.0000 </r>
       <r>   -14.8200     0.0000     0.0000 </r>
       <r>   -14.8100     0.0000     0.0000 </r>
       <r>   -14.8000     0.0000     0.0000 </r>
       <r>   -14.7900     0.0000     0.0000 </r>
       <r>   -14.7800     0.0000     0.0000 </r>
       <r>   -14.7700     0.0000     0.0000 </r>
       <r>   -14.7600     0.0000     0.0000 </r>
       <r>   -14.7500     0.0000     0.0000 </r>
       <r>   -14.7400     0.0000     0.0000 </r>
       <r>   -14.7300     0.0000     0.0000 </r>
       <r>   -14.7200     0.0000     0.0000 </r>
       <r>   -14.7100     0.0000     0.0000 </r>
       <r>   -14.7000     0.0000     0.0000 </r>
       <r>   -14.6900     0.0000     0.0000 </r>
       <r>   -14.6800     0.0000     0.0000 </r>
       <r>   -14.6700     0.0000     0.0000 </r>
       <r>   -14.6600     0.0000     0.0000 </r>
       <r>   -14.6500     0.0000     0.0000 </r>
       <r>   -14.6400     0.0000     0.0000 </r>
       <r>   -14.6300     0.0000     0.0000 </r>
       <r>   -14.6200     0.0000     0.0000 </r>
       <r>   -14.6100     0.0000     0.0000 </r>
       <r>   -14.6000     0.0000     0.0000 </r>
       <r>   -14.5900     0.0000     0.0000 </r>
       <r>   -14.5800     0.0000     0.0000 </r>
       <r>   -14.5700     0.0000     0.0000 </r>
       <r>   -14.5600     0.0000     0.0000 </r>
       <r>   -14.5500     0.0000     0.0000 </r>
       <r>   -14.5400     0.0000     0.0000 </r>
       <r>   -14.5300     0.0000     0.0000 </r>
       <r>   -14.5200     0.0000     0.0000 </r>
       <r>   -14.5100     0.0000     0.0000 </r>
       <r>   -14.5000     0.0000     0.0000 </r>
       <r>   -14.4900     0.0000     0.0000 </r>
       <r>   -14.4800     0.0000     0.0000 </r>
       <r>   -14.4700     0.0000     0.0000 </r>
       <r>   -14.4600     0.0000     0.0000 </r>
       <r>   -14.4500     0.0000     0.0000 </r>
       <r>   -14.4400     0.0000     0.0000 </r>
       <r>   -14.4300     0.0000     0.0000 </r>
       <r>   -14.4200     0.0000     0.0000 </r>
       <r>   -14.4100     0.0000     0.0000 </r>
       <r>   -14.4000     0.0000     0.0000 </r>
       <r>   -14.3900     0.0000     0.0000 </r>
       <r>   -14.3800     0.0000     0.0000 </r>
       <r>   -14.3700     0.0000     0.0000 </r>
       <r>   -14.3600     0.0000     0.0000 </r>
       <r>   -14.3500     0.0000     0.0000 </r>
       <r>   -14.3400     0.0000     0.0000 </r>
       <r>   -14.3300     0.0000     0.0000 </r>
       <r>   -14.3200     0.0000     0.0000 </r>
       <r>   -14.3100     0.0000     0.0000 </r>
       <r>   -14.3000     0.0000     0.0000 </r>
       <r>   -14.2900     0.0000     0.0000 </r>
       <r>   -14.2800     0.0000     0.0000 </r>
       <r>   -14.2700     0.0000     0.0000 </r>
       <r>   -14.2600     0.0000     0.0000 </r>
       <r>   -14.2500     0.0000     0.0000 </r>
       <r>   -14.2400     0.0000     0.0000 </r>
       <r>   -14.2300     0.0000     0.0000 </r>
       <r>   -14.2200     0.0000     0.0000 </r>
       <r>   -14.2100     0.0000     0.0000 </r>
       <r>   -14.2000     0.0000     0.0000 </r>
       <r>   -14.1900     0.0000     0.0000 </r>
       <r>   -14.1800     0.0000     0.0000 </r>
       <r>   -14.1700     0.0000     0.0000 </r>
       <r>   -14.1600     0.0000     0.0000 </r>
       <r>   -14.1500     0.0000     0.0000 </r>
       <r>   -14.1400     0.0000     0.0000 </r>
       <r>   -14.1300     0.0000     0.0000 </r>
       <r>   -14.1200     0.0000     0.0000 </r>
       <r>   -14.1100     0.0000     0.0000 </r>
       <r>   -14.1000     0.0000     0.0000 </r>
       <r>   -14.0900     0.0000     0.0000 </r>
       <r>   -14.0800     0.0000     0.0000 </r>
       <r>   -14.0700     0.0000     0.0000 </r>
       <r>   -14.0600     0.0000     0.0000 </r>
       <r>   -14.0500     0.0000     0.0000 </r>
       <r>   -14.0400     0.0000     0.0000 </r>
       <r>   -14.0300     0.0000     0.0000 </r>
       <r>   -14.0200     0.0000     0.0000 </r>
       <r>   -14.0100     0.0000     0.0000 </r>
       <r>   -14.0000     0.0000     0.0000 </r>
       <r>   -13.9900     0.0000     0.0000 </r>
       <r>   -13.9800     0.0000     0.0000 </r>
       <r>   -13.9700     0.0000     0.0000 </r>
       <r>   -13.9600     0.0000     0.0000 </r>
       <r>   -13.9500     0.0000     0.0000 </r>
       <r>   -13.9400     0.0000     0.0000 </r>
       <r>   -13.9300     0.0000     0.0000 </r>
       <r>   -13.9200     0.0000     0.0000 </r>
       <r>   -13.9100     0.0000     0.0000 </r>
       <r>   -13.9000     0.0000     0.0000 </r>
[...]
        <r>  0.0003  0.0004  0.0009  0.0002  0.0558  0.0033  0.0970  0.0341  0.0153 </r>
        <r>  0.0002  0.0028  0.0006  0.0001  0.0793  0.0013  0.0249  0.0022  0.0158 </r>
        <r>  0.0009  0.0001  0.0000  0.0000  0.0000  0.0000  0.0000  0.0000  0.0000 </r>
       </set>
       <set comment="band 19">
        <r>  0.0010  0.0040  0.0009  0.0001  0.1294  0.0054  0.2186  0.0106  0.0267 </r>
        <r>  0.0002  0.0006  0.0001  0.0001  0.1714  0.0562  0.0549  0.0002  0.0130 </r>
        <r>  0.0002  0.0005  0.0003  0.0000  0.1777  0.0062  0.0298  0.0123  0.0049 </r>
        <r>  0.0001  0.0014  0.0000  0.0000  0.0422  0.0001  0.0018  0.0042  0.0041 </r>
        <r>  0.0007  0.0000  0.0000  0.0000  0.0000  0.0000  0.0000  0.0000  0.0000 </r>
       </set>
       <set comment="band 20">
        <r>  0.0016  0.0037  0.0002  0.0000  0.4403  0.0132  0.0476  0.0081  0.0074 </r>
        <r>  0.0000  0.0001  0.0004  0.0000  0.1376  0.0057  0.1429  0.0132  0.0322 </r>
        <r>  0.0000  0.0004  0.0001  0.0000  0.0681  0.0140  0.0124  0.0132  0.0072 </r>
        <r>  0.0001  0.0001  0.0002  0.0000  0.0038  0.0003  0.0052  0.0038  0.0024 </r>
        <r>  0.0001  0.0000  0.0000  0.0000  0.0000  0.0000  0.0000  0.0000  0.0000 </r>
       </set>
       <set comment="band 21">
        <r>  0.0002  0.0012  0.0004  0.0000  0.0198  0.0058  0.0139  0.0009  0.0028 </r>
        <r>  0.0005  0.0040  0.0006  0.0000  0.0246  0.0201  0.0119  0.0006  0.0007 </r>
        <r>  0.0044  0.0110  0.0047  0.0000  0.0669  0.0295  0.1047  0.0063  0.0380 </r>
        <r>  0.0132  0.0787  0.0009  0.0006  0.2110  0.0910  0.0034  0.0060  0.0392 </r>
        <r>  0.0536  0.0002  0.0000  0.0001  0.0000  0.0000  0.0000  0.0000  0.0000 </r>
       </set>
       <set comment="band 22">
        <r>  0.0201  0.0441  0.0051  0.0004  0.0447  0.0127  0.0384  0.0020  0.0314 </r>
        <r>  0.0422  0.1013  0.0011  0.0011  0.0759  0.0001  0.0313  0.0002  0.0505 </r>
        <r>  0.0233  0.0433  0.0056  0.0005  0.0319  0.0139  0.0374  0.0013  0.0329 </r>
        <r>  0.0046  0.0057  0.0034  0.0002  0.0033  0.0201  0.0145  0.0003  0.0176 </r>
        <r>  0.0079  0.0001  0.0000  0.0000  0.0000  0.0000  0.0000  0.0000  0.0000 </r>
       </set>
       <set comment="band 23">
        <r>  0.0350  0.1279  0.0004  0.0012  0.0457  0.0025  0.0018  0.0006  0.0192 </r>
        <r>  0.0124  0.0024  0.0333  0.0003  0.0009  0.0324  0.0159  0.0063  0.0131 </r>
        <r>  0.0168  0.1258  0.0031  0.0008  0.0360  0.0009  0.0022  0.0017  0.0038 </r>
        <r>  0.0143  0.0032  0.0134  0.0005  0.0009  0.0341  0.0196  0.0024  0.0267 </r>
        <r>  0.0163  0.0001  0.0000  0.0000  0.0000  0.0000  0.0000  0.0000  0.0000 </r>
       </set>
       <set comment="band 24">
        <r>  0.0140  0.1125  0.0181  0.0004  0.0155  0.0029  0.0185  0.0021  0.0120 </r>
        <r>  0.0045  0.1520  0.0137  0.0000  0.0184  0.0025  0.0343  0.0021  0.0156 </r>
        <r>  0.0100  0.0494  0.0200  0.0001  0.0057  0.0112  0.0167  0.0023  0.0124 </r>
        <r>  0.0228  0.0012  0.0060  0.0007  0.0001  0.0127  0.0057  0.0009  0.0180 </r>
        <r>  0.0094  0.0003  0.0001  0.0000  0.0000  0.0000  0.0000  0.0000  0.0000 </r>
       </set>
       <set comment="band 25">
        <r>  0.0107  0.0082  0.0035  0.0002  0.0005  0.0003  0.0030  0.0002  0.0066 </r>
        <r>  0.0143  0.0111  0.0002  0.0004  0.0008  0.0111  0.0023  0.0000  0.0079 </r>
        <r>  0.0810  0.0029  0.0075  0.0024  0.0003  0.0125  0.0045  0.0005  0.0356 </r>
        <r>  0.1688  0.0605  0.0358  0.0048  0.0030  0.0150  0.0154  0.0020  0.0862 </r>
        <r>  0.0038  0.0127  0.0005  0.0000  0.0000  0.0000  0.0000  0.0000  0.0000 </r>
       </set>
       <set comment="band 26">
        <r>  0.0294  0.0070  0.0027  0.0007  0.0005  0.0057  0.0026  0.0001  0.0130 </r>
        <r>  0.1071  0.0020  0.0074  0.0032  0.0000  0.0069  0.0071  0.0003  0.0495 </r>
        <r>  0.0778  0.0218  0.0230  0.0026  0.0013  0.0382  0.0100  0.0013  0.0433 </r>
        <r>  0.0308  0.0274  0.0375  0.0012  0.0017  0.0494  0.0001  0.0045  0.0134 </r>
        <r>  0.0481  0.0033  0.0009  0.0000  0.0000  0.0000  0.0000  0.0000  0.0000 </r>
       </set>
       <set comment="band 27">
        <r>  0.1848  0.0275  0.0151  0.0052  0.0013  0.0165  0.0089  0.0005  0.0752 </r>
        <r>  0.0314  0.0047  0.0191  0.0013  0.0003  0.0187  0.0002  0.0006  0.0114 </r>
        <r>  0.0251  0.0364  0.0100  0.0009  0.0019  0.0024  0.0041  0.0003  0.0131 </r>
        <r>  0.0472  0.0004  0.0010  0.0009  0.0000  0.0380  0.0008  0.0004  0.0100 </r>
        <r>  0.0194  0.0020  0.0003  0.0000  0.0000  0.0000  0.0000  0.0000  0.0000 </r>
       </set>
       <set comment="band 28">
        <r>  0.0512  0.0247  0.0775  0.0013  0.0009  0.0109  0.0019  0.0019  0.0180 </r>
        <r>  0.0476  0.0075  0.0119  0.0028  0.0004  0.0423  0.0001  0.0004  0.0200 </r>
        <r>  0.0166  0.0203  0.0485  0.0006  0.0008  0.0022  0.0012  0.0014  0.0057 </r>
        <r>  0.0292  0.0150  0.0024  0.0005  0.0004  0.0387  0.0014  0.0003  0.0033 </r>
        <r>  0.0226  0.0014  0.0014  0.0001  0.0000  0.0000  0.0000  0.0000  0.0000 </r>
       </set>
      </set>
      <set comment="kpoint 31">
       <set comment="band 1">
        <r>  0.0000  0.0000  0.0000  0.0000  0.0000  0.0000  0.0000  0.0000  0.0000 </r>
        <r>  0.0002  0.0000  0.0000  0.0000  0.0000  0.0000  0.0000  0.0000  0.0006 </r>
        <r>  0.0001  0.0022  0.0002  0.0000  0.0000  0.0198  0.0029  0.0000  0.0008 </r>
        <r>  0.0351  0.0401  0.0000  0.0000  0.0000  0.2331  0.0038  0.0000  0.3134 </r>
        <r>  0.1513  0.0000  0.0019  0.0000  0.0000  0.0000  0.0000  0.0000  0.0000 </r>
       </set>
       <set comment="band 2">
        <r>  0.0065  0.0011  0.0014  0.0000  0.0000  0.0088  0.0042  0.0000  0.0159 </r>
        <r>  0.0302  0.0021  0.0006  0.0000  0.0000  0.0756  0.0147  0.0000  0.1028 </r>
        <r>  0.0707  0.0004  0.0000  0.0000  0.0000  0.0173  0.0270  0.0000  0.2608 </r>
        <r>  0.0132  0.0030  0.0018  0.0000  0.0000  0.1275  0.0075  0.0000  0.0484 </r>
        <r>  0.0007  0.0003  0.0000  0.0000  0.0000  0.0000  0.0000  0.0000  0.0000 </r>
       </set>
       <set comment="band 3">
        <r>  0.0000  0.0067  0.0002  0.0000  0.0000  0.0736  0.0033  0.0000  0.0016 </r>
        <r>  0.0508  0.0012  0.0000  0.0000  0.0000  0.0957  0.0010  0.0000  0.3275 </r>
        <r>  0.0078  0.0058  0.0009  0.0000  0.0000  0.1592  0.0000  0.0000  0.0562 </r>
        <r>  0.0008  0.0069  0.0001  0.0000  0.0000  0.0144  0.0019  0.0000  0.0214 </r>
        <r>  0.0026  0.0000  0.0001  0.0000  0.0000  0.0000  0.0000  0.0000  0.0000 </r>
       </set>
       <set comment="band 4">
        <r>  0.0048  0.0001  0.0001  0.0000  0.0000  0.0006  0.0023  0.0000  0.0621 </r>
        <r>  0.0009  0.0007  0.0002  0.0000  0.0000  0.0032  0.0480  0.0000  0.0252 </r>
        <r>  0.0009  0.0001  0.0022  0.0000  0.0000  0.0435  0.0827  0.0000  0.1742 </r>
        <r>  0.0027  0.0005  0.0008  0.0000  0.0000  0.1986  0.0614  0.0000  0.1821 </r>
        <r>  0.0054  0.0004  0.0000  0.0000  0.0000  0.0000  0.0000  0.0000  0.0000 </r>
       </set>
       <set comment="band 5">
        <r>  0.0336  0.0005  0.0041  0.0000  0.0000  0.0083  0.0106  0.0000  0.1573 </r>
        <r>  0.0033  0.0029  0.0023  0.0000  0.0000  0.2558  0.0138  0.0000  0.0994 </r>
        <r>  0.0014  0.0001  0.0049  0.0000  0.0000  0.0784  0.0227  0.0000  0.0827 </r>
        <r>  0.0091  0.0016  0.0015  0.0000  0.0000  0.0377  0.0128  0.0000  0.0293 </r>
        <r>  0.0026  0.0002  0.0000  0.0000  0.0000  0.0000  0.0000  0.0000  0.0000 </r>
       </set>
       <set comment="band 6">
        <r>  0.0206  0.0001  0.0000  0.0000  0.0000  0.0015  0.0295  0.0000  0.3911 </r>
        <r>  0.0000  0.0080  0.0006  0.0000  0.0000  0.0110  0.0614  0.0000  0.0784 </r>
        <r>  0.0061  0.0000  0.0017  0.0000  0.0000  0.0742  0.0000  0.0000  0.0596 </r>
        <r>  0.0039  0.0135  0.0002  0.0000  0.0000  0.0439  0.0020  0.0000  0.0558 </r>
        <r>  0.0108  0.0003  0.0000  0.0000  0.0000  0.0000  0.0000  0.0000  0.0000 </r>
       </set>
       <set comment="band 7">
        <r>  0.0000  0.0069  0.0008  0.0000  0.0000  0.2688  0.0260  0.0000  0.0324 </r>
        <r>  0.0035  0.0099  0.0065  0.0000  0.0000  0.0863  0.0350  0.0000  0.0000 </r>
        <r>  0.0008  0.0103  0.0003  0.0000  0.0000  0.2514  0.0001  0.0000  0.0128 </r>
        <r>  0.0071  0.0237  0.0032  0.0000  0.0000  0.0000  0.0637  0.0000  0.0007 </r>
        <r>  0.0116  0.0002  0.0001  0.0000  0.0000  0.0000  0.0000  0.0000  0.0000 </r>
       </set>
       <set comment="band 8">
        <r>  0.0006  0.0002  0.0004  0.0000  0.0000  0.2433  0.0230  0.0000  0.0733 </r>
        <r>  0.0001  0.0062  0.0013  0.0000  0.0000  0.1541  0.1189  0.0000  0.0957 </r>
        <r>  0.0002  0.0036  0.0021  0.0000  0.0000  0.0157  0.0973  0.0000  0.0653 </r>
        <r>  0.0002  0.0007  0.0003  0.0000  0.0000  0.0025  0.0232  0.0000  0.0057 </r>
        <r>  0.0005  0.0000  0.0000  0.0000  0.0000  0.0000  0.0000  0.0000  0.0000 </r>
       </set>
       <set comment="band 9">
        <r>  0.0000  0.0000  0.0000  0.0002  0.0002  0.0000  0.0000  0.0205  0.0000 </r>
        <r>  0.0000  0.0000  0.0000  0.0002  0.0009  0.0000  0.0000  0.1547  0.0000 </r>
        <r>  0.0000  0.0000  0.0000  0.0001  0.0020  0.0000  0.0000  0.3590  0.0000 </r>
        <r>  0.0000  0.0000  0.0000  0.0003  0.0004  0.0000  0.0000  0.4263  0.0000 </r>
        <r>  0.0000  0.0000  0.0000  0.0006  0.0000  0.0000  0.0000  0.0000  0.0000 </r>
       </set>
       <set comment="band 10">
        <r>  0.0018  0.0000  0.0017  0.0000  0.0000  0.0000  0.1196  0.0000  0.0288 </r>
        <r>  0.0023  0.0146  0.0001  0.0000  0.0000  0.0315  0.0731  0.0000  0.0006 </r>
        <r>  0.0031  0.0114  0.0017  0.0000  0.0000  0.0038  0.1694  0.0000  0.0115 </r>
        <r>  0.0044  0.0182  0.0002  0.0000  0.0000  0.0026  0.3897  0.0000  0.0190 </r>
        <r>  0.0072  0.0001  0.0000  0.0000  0.0000  0.0000  0.0000  0.0000  0.0000 </r>
       </set>
       <set comment="band 11">
        <r>  0.0012  0.0016  0.0001  0.0000  0.0000  0.1695  0.0084  0.0000  0.0052 </r>
        <r>  0.0024  0.0001  0.0090  0.0000  0.0000  0.0124  0.1415  0.0000  0.0034 </r>
        <r>  0.0043  0.0421  0.0002  0.0000  0.0000  0.0300  0.2063  0.0000  0.0016 </r>
        <r>  0.0063  0.0489  0.0001  0.0000  0.0000  0.0021  0.0832  0.0000  0.0657 </r>
        <r>  0.0144  0.0004  0.0000  0.0000  0.0000  0.0000  0.0000  0.0000  0.0000 </r>
       </set>
       <set comment="band 12">
        <r>  0.0000  0.0000  0.0000  0.0005  0.0008  0.0000  0.0000  0.1718  0.0000 </r>
        <r>  0.0000  0.0000  0.0000  0.0001  0.0013  0.0000  0.0000  0.4376  0.0000 </r>
        <r>  0.0000  0.0000  0.0000  0.0016  0.0000  0.0000  0.0000  0.0100  0.0000 </r>
        <r>  0.0000  0.0000  0.0000  0.0000  0.0003  0.0000  0.0000  0.3457  0.0000 </r>
        <r>  0.0000  0.0000  0.0000  0.0006  0.0000  0.0000  0.0000  0.0000  0.0000 </r>
       </set>
       <set comment="band 13">
        <r>  0.0085  0.0006  0.0005  0.0000  0.0000  0.0083  0.3987  0.0000  0.0010 </r>
        <r>  0.0002  0.0352  0.0011  0.0000  0.0000  0.0399  0.0448  0.0000  0.0011 </r>
        <r>  0.0009  0.0076  0.0101  0.0000  0.0000  0.0367  0.0164  0.0000  0.0149 </r>
        <r>  0.0003  0.0320  0.0024  0.0000  0.0000  0.0357  0.1685  0.0000  0.0003 </r>
        <r>  0.0171  0.0001  0.0001  0.0000  0.0000  0.0000  0.0000  0.0000  0.0000 </r>
       </set>
       <set comment="band 14">
        <r>  0.0000  0.0000  0.0000  0.0000  0.0002  0.0000  0.0000  0.3458  0.0000 </r>
        <r>  0.0000  0.0000  0.0000  0.0017  0.0000  0.0000  0.0000  0.0090  0.0000 </r>
        <r>  0.0000  0.0000  0.0000  0.0001  0.0001  0.0000  0.0000  0.4137  0.0000 </r>
        <r>  0.0000  0.0000  0.0000  0.0005  0.0389  0.0000  0.0000  0.1697  0.0000 </r>
        <r>  0.0000  0.0000  0.0000  0.0004  0.0000  0.0000  0.0000  0.0000  0.0000 </r>
       </set>
       <set comment="band 15">
        <r>  0.0000  0.0000  0.0000  0.0000  0.0000  0.0000  0.0000  0.0280  0.0000 </r>
        <r>  0.0000  0.0000  0.0000  0.0001  0.0001  0.0000  0.0000  0.0036  0.0000 </r>
        <r>  0.0000  0.0000  0.0000  0.0000  0.0039  0.0000  0.0000  0.0113  0.0000 </r>
        <r>  0.0000  0.0000  0.0000  0.0000  0.9423  0.0000  0.0000  0.0042  0.0000 </r>
        <r>  0.0000  0.0000  0.0000  0.0001  0.0000  0.0000  0.0000  0.0000  0.0000 </r>
       </set>
       <set comment="band 16">
        <r>  0.0018  0.0140  0.0003  0.0000  0.0000  0.0738  0.1252  0.0000  0.0240 </r>
        <r>  0.0012  0.0061  0.0002  0.0000  0.0000  0.0095  0.3085  0.0000  0.0617 </r>
        <r>  0.0003  0.0000  0.0042  0.0000  0.0000  0.0870  0.0455  0.0000  0.0200 </r>
        <r>  0.0000  0.0189  0.0013  0.0000  0.0000  0.0057  0.0841  0.0000  0.0385 </r>
        <r>  0.0052  0.0002  0.0000  0.0000  0.0000  0.0000  0.0000  0.0000  0.0000 </r>
       </set>
       <set comment="band 17">
        <r>  0.0000  0.0000  0.0000  0.0003  0.0020  0.0000  0.0000  0.3671  0.0000 </r>
        <r>  0.0000  0.0000  0.0000  0.0001  0.0575  0.0000  0.0000  0.3326  0.0000 </r>
        <r>  0.0000  0.0000  0.0000  0.0002  0.0427  0.0000  0.0000  0.1588  0.0000 </r>
        <r>  0.0000  0.0000  0.0000  0.0002  0.0059  0.0000  0.0000  0.0215  0.0000 </r>
        <r>  0.0000  0.0000  0.0000  0.0000  0.0000  0.0000  0.0000  0.0000  0.0000 </r>
       </set>
       <set comment="band 18">
        <r>  0.0000  0.0000  0.0000  0.0000  0.0016  0.0000  0.0000  0.0001  0.0000 </r>
        <r>  0.0000  0.0000  0.0000  0.0000  0.3203  0.0000  0.0000  0.0036  0.0000 </r>
        <r>  0.0000  0.0000  0.0000  0.0000  0.6635  0.0000  0.0000  0.0001  0.0000 </r>
        <r>  0.0000  0.0000  0.0000  0.0000  0.0035  0.0000  0.0000  0.0011  0.0000 </r>
        <r>  0.0000  0.0000  0.0000  0.0000  0.0000  0.0000  0.0000  0.0000  0.0000 </r>
       </set>
       <set comment="band 19">
        <r>  0.0000  0.0000  0.0000  0.0000  0.0144  0.0000  0.0000  0.0411  0.0000 </r>
        <r>  0.0000  0.0000  0.0000  0.0000  0.6024  0.0000  0.0000  0.0278  0.0000 </r>
        <r>  0.0000  0.0000  0.0000  0.0000  0.2814  0.0000  0.0000  0.0195  0.0000 </r>
        <r>  0.0000  0.0000  0.0000  0.0000  0.0027  0.0000  0.0000  0.0048  0.0000 </r>
        <r>  0.0000  0.0000  0.0000  0.0000  0.0000  0.0000  0.0000  0.0000  0.0000 </r>
       </set>
       <set comment="band 20">
        <r>  0.0000  0.0000  0.0000  0.0000  0.9751  0.0000  0.0000  0.0009  0.0000 </r>
        <r>  0.0000  0.0000  0.0000  0.0000  0.0117  0.0000  0.0000  0.0049  0.0000 </r>
        <r>  0.0000  0.0000  0.0000  0.0000  0.0005  0.0000  0.0000  0.0012  0.0000 </r>
        <r>  0.0000  0.0000  0.0000  0.0000  0.0000  0.0000  0.0000  0.0001  0.0000 </r>
        <r>  0.0000  0.0000  0.0000  0.0000  0.0000  0.0000  0.0000  0.0000  0.0000 </r>
       </set>
       <set comment="band 21">
        <r>  0.0000  0.0081  0.0020  0.0000  0.0000  0.0203  0.1412  0.0000  0.0186 </r>
        <r>  0.0001  0.0147  0.0014  0.0000  0.0000  0.0832  0.0069  0.0000  0.0005 </r>
        <r>  0.0005  0.0201  0.0049  0.0000  0.0000  0.0355  0.2038  0.0000  0.0490 </r>
        <r>  0.0001  0.0777  0.0018  0.0000  0.0000  0.1087  0.0009  0.0000  0.0097 </r>
        <r>  0.0446  0.0000  0.0001  0.0000  0.0000  0.0000  0.0000  0.0000  0.0000 </r>
       </set>
       <set comment="band 22">
        <r>  0.0050  0.0847  0.0056  0.0000  0.0000  0.0160  0.0371  0.0000  0.0161 </r>
        <r>  0.0000  0.1343  0.0110  0.0000  0.0000  0.0000  0.0000  0.0000  0.0000 </r>
        <r>  0.0162  0.0853  0.0010  0.0000  0.0000  0.0167  0.0727  0.0000  0.0428 </r>
        <r>  0.0116  0.0100  0.0040  0.0000  0.0000  0.0321  0.0291  0.0000  0.0355 </r>
        <r>  0.0109  0.0000  0.0000  0.0000  0.0000  0.0000  0.0000  0.0000  0.0000 </r>
       </set>
       <set comment="band 23">
        <r>  0.0009  0.0940  0.0006  0.0000  0.0000  0.0025  0.0020  0.0000  0.0015 </r>
        <r>  0.0636  0.0268  0.0020  0.0000  0.0000  0.0149  0.0990  0.0000  0.0911 </r>
        <r>  0.0020  0.1540  0.0107  0.0000  0.0000  0.0017  0.0033  0.0000  0.0023 </r>
        <r>  0.0321  0.0009  0.0091  0.0000  0.0000  0.0098  0.0306  0.0000  0.0456 </r>
        <r>  0.0033  0.0001  0.0000  0.0000  0.0000  0.0000  0.0000  0.0000  0.0000 </r>
       </set>
       <set comment="band 24">
        <r>  0.0343  0.1822  0.0159  0.0000  0.0000  0.0000  0.0365  0.0000  0.0440 </r>
        <r>  0.0121  0.1153  0.0458  0.0000  0.0000  0.0019  0.0108  0.0000  0.0125 </r>
        <r>  0.0201  0.0261  0.0142  0.0000  0.0000  0.0031  0.0170  0.0000  0.0215 </r>
        <r>  0.0079  0.0000  0.0013  0.0000  0.0000  0.0015  0.0042  0.0000  0.0085 </r>
        <r>  0.0005  0.0000  0.0000  0.0000  0.0000  0.0000  0.0000  0.0000  0.0000 </r>
       </set>
       <set comment="band 25">
        <r>  0.0001  0.0022  0.0000  0.0000  0.0000  0.0005  0.0000  0.0000  0.0001 </r>
        <r>  0.0170  0.0009  0.0061  0.0000  0.0000  0.0000  0.0018  0.0000  0.0086 </r>
        <r>  0.0013  0.0193  0.0102  0.0000  0.0000  0.0212  0.0003  0.0000  0.0003 </r>
        <r>  0.1986  0.0586  0.0599  0.0000  0.0000  0.0075  0.0076  0.0000  0.1069 </r>
        <r>  0.0252  0.0178  0.0008  0.0000  0.0000  0.0000  0.0000  0.0000  0.0000 </r>
       </set>
       <set comment="band 26">
        <r>  0.0539  0.0102  0.0016  0.0000  0.0000  0.0025  0.0056  0.0000  0.0267 </r>
        <r>  0.0622  0.0031  0.0024  0.0000  0.0000  0.0389  0.0042  0.0000  0.0321 </r>
        <r>  0.2073  0.0011  0.0033  0.0000  0.0000  0.0264  0.0154  0.0000  0.1002 </r>
        <r>  0.0308  0.0037  0.0229  0.0000  0.0000  0.0668  0.0040  0.0000  0.0061 </r>
        <r>  0.0309  0.0000  0.0004  0.0000  0.0000  0.0000  0.0000  0.0000  0.0000 </r>
       </set>
       <set comment="band 27">
        <r>  0.2286  0.0162  0.0103  0.0000  0.0000  0.0081  0.0068  0.0000  0.0896 </r>
        <r>  0.0156  0.0276  0.0028  0.0000  0.0000  0.0259  0.0001  0.0000  0.0071 </r>
        <r>  0.0151  0.0064  0.0393  0.0000  0.0000  0.0042  0.0002  0.0000  0.0060 </r>
        <r>  0.0385  0.0047  0.0032  0.0000  0.0000  0.0520  0.0014  0.0000  0.0073 </r>
        <r>  0.0225  0.0005  0.0006  0.0000  0.0000  0.0000  0.0000  0.0000  0.0000 </r>
       </set>
       <set comment="band 28">
        <r>  0.0596  0.0127  0.0682  0.0000  0.0000  0.0132  0.0004  0.0000  0.0179 </r>
        <r>  0.1447  0.0057  0.0003  0.0000  0.0000  0.0081  0.0001  0.0000  0.0500 </r>
        <r>  0.0000  0.0286  0.0272  0.0000  0.0000  0.0212  0.0000  0.0000  0.0000 </r>
        <r>  0.0186  0.0062  0.0108  0.0000  0.0000  0.0489  0.0002  0.0000  0.0021 </r>
        <r>  0.0168  0.0026  0.0008  0.0000  0.0000  0.0000  0.0000  0.0000  0.0000 </r>
       </set>
      </set>
     </set>
    </set>
   </array>
  </projected>
 </calculation>
 <structure name="finalpos" >
  <crystal>
   <varray name="basis" >
    <v>       2.57386868       0.00000000       0.00000000 </v>
    <v>       1.28693434       2.22903567       0.00000000 </v>
    <v>       0.00000000       0.00000000      30.30466494 </v>
   </varray>
   <i name="volume">    173.86529028 </i>
   <varray name="rec_basis" >
    <v>       0.38852021      -0.22431225       0.00000000 </v>
    <v>       0.00000000       0.44862450       0.00000000 </v>
    <v>       0.00000000       0.00000000       0.03299822 </v>
   </varray>
  </crystal>
  <varray name="positions" >
   <v>       0.00000000       0.00000000       0.39597864 </v>
   <v>       0.33333333       0.33333333       0.46532621 </v>
   <v>       0.66666666       0.66666667       0.53467379 </v>
   <v>       0.00000000       0.00000000       0.60402136 </v>
   <v>       0.68909789       0.62180422       0.63701958 </v>
  </varray>
 </structure>
</modeling>
