unknown system                          
   1.00000000000000     
     4.913700    0.000000    0.000000
    -2.456850    4.255389    0.000000
     0.000000    0.000000    5.405130
   Si   O 
     3     6
Direct
  0.469800  0.000000  0.666670
  0.000000  0.469800  0.333330
  0.530200  0.530200  0.000000
  0.414500  0.266200  0.785600
  0.733800  0.148300  0.452270
  0.851700  0.585500  0.118930
  0.148300  0.733800  0.547730
  0.266200  0.414500  0.214400
  0.585500  0.851700  0.881070
 
   48   48   56
  1.4544      1.3851      1.3883      1.4425      1.5317      1.6459      1.7799      1.9304      2.0949      2.2691    
  2.4461      2.6172      2.7756      2.9202      3.0592      3.2104      3.3978      3.6476      3.9934      4.4931    
  5.2480      6.4020      8.1169      10.534      13.747      17.789      22.627      28.123      33.965      39.592    
  44.218      47.001      47.337      45.117      40.780      35.130      29.032      23.162      17.925      13.502    
  9.9390      7.2063      5.2179      3.8416      2.9201      2.3060      1.8916      1.6171      1.3851      1.3107    
  1.3176      1.3872      1.5025      1.6528      1.8323      2.0368      2.2619      2.5017      2.7479      2.9879    
  3.2073      3.3940      3.5440      3.6651      3.7770      3.9081      4.0898      4.3599      4.7765      5.4310    
  6.4457      7.9472      10.033      12.745      16.060      19.873      23.975      28.027      31.567      34.071    
  35.093      34.415      32.135      28.640      24.462      20.114      15.986      12.328      9.2693      6.8532    
  5.0471      3.7596      2.8695      2.2590      1.8390      1.5564      1.3883      1.3176      1.3321      1.4168    
  1.5561      1.7388      1.9590      2.2132      2.4978      2.8067      3.1303      3.4529      3.7538      4.0105    
  4.2052      4.3317      4.3997      4.4345      4.4712      4.5482      4.7080      5.0065      5.5214      6.3471    
  7.5749      9.2667      11.431      14.005      16.847      19.731      22.365      24.420      25.592      25.677    
  24.637      22.621      19.915      16.859      13.768      10.886      8.3810      6.3409      4.7744      3.6270    
  2.8102      2.2342      1.8300      1.5553      1.4425      1.3872      1.4168      1.5197      1.6834      1.8974    
  2.1557      2.4567      2.8000      3.1825      3.5942      4.0169      4.4240      4.7829      5.0611      5.2353    
  5.2996      5.2701      5.1816      5.0799      5.0130      5.0277      5.1750      5.5167      6.1231      7.0564    
  8.3460      9.9689      11.842      13.826      15.729      17.333      18.420      18.823      18.466      17.388    
  15.725      13.680      11.477      9.3214      7.3717      5.7268      4.4227      3.4402      2.7241      2.2092    
  1.8423      1.5916      1.5317      1.5025      1.5561      1.6834      1.8743      2.1202      2.4162      2.7633    
  3.1655      3.6249      4.1350      4.6768      5.2180      5.7151      6.1202      6.3904      6.5001      6.4495    
  6.2667      6.0016      5.7146      5.4646      5.3032      5.2774      5.4340      5.8167      6.4555      7.3532    
  8.4754      9.7451      11.043      12.217      13.110      13.589      13.576      13.059      12.093      10.791    
  9.2984      7.7673      6.3253      5.0622      4.0243      3.2174      2.6150      2.1757      1.8616      1.6499    
  1.6459      1.6528      1.7388      1.8974      2.1202      2.4002      2.7352      3.1289      3.5902      4.1281    
  4.7436      5.4207      6.1231      6.7962      7.3748      7.7947      8.0064      7.9886      7.7556      7.3552    
  6.8578      6.3422      5.8807      5.5290      5.3249      5.2939      5.4552      5.8193      6.3770      7.0882    
  7.8796      8.6531      9.3014      9.7251      9.8508      9.6454      9.1221      8.3369      7.3756      6.3379    
  5.3190      4.3944      3.6095      2.9788      2.4941      2.1355      1.8828      1.7217      1.7799      1.8323    
  1.9590      2.1557      2.4162      2.7352      3.1120      3.5529      4.0723      4.6877      5.4103      6.2316    
  7.1157      7.9993      8.7994      9.4268      9.8039      9.8826      9.6565      9.1642      8.4807      7.7030    
  6.9303      6.2449      5.7001      5.3224      5.1209      5.0952      5.2353      5.5166      5.8980      6.3224    
  6.7210      7.0213      7.1606      7.1010      6.8358      6.3863      5.7954      5.1215      4.4299      3.7795    
  3.2101      2.7391      2.3684      2.0931      1.9070      1.8040      1.9304      2.0368      2.2132      2.4567    
  2.7633      3.1289      3.5529      4.0431      4.6191      5.3078      6.1321      7.0958      8.1701      9.2887    
  10.353      11.247      11.859      12.109      11.960      11.434      10.605      9.5821      8.4908      7.4477    
  6.5419      5.8238      5.3048      4.9691      4.7909      4.7458      4.8098      4.9509      5.1241      5.2766    
  5.3593      5.3378      5.1967      4.9391      4.5834      4.1600      3.7062      3.2603      2.8552      2.5130    
  2.2446      2.0527      1.9370      1.8965      2.0949      2.2619      2.4978      2.8000      3.1655      3.5902    
  4.0723      4.6191      5.2528      6.0084      6.9225      8.0152      9.2721      10.632      11.988      13.200    
  14.120      14.624      14.637      14.153      13.235      12.002      10.601      9.1851      7.8852      6.7895    
  5.9316      5.2982      4.8526      4.5571      4.3819      4.2997      4.2793      4.2848      4.2800      4.2345    
  4.1284      3.9563      3.7257      3.4513      3.1508      2.8448      2.5580      2.3152      2.1332      2.0190    
  1.9740      1.9988      2.2691      2.5017      2.8067      3.1825      3.6249      4.1281      4.6877      5.3078    
  6.0084      6.8287      7.8182      9.0169      10.431      12.014      13.663      15.223      16.513      17.358    
  17.631      17.284      16.356      14.967      13.287      11.502      9.7837      8.2615      7.0088      6.0404    
  5.3251      4.8088      4.4380      4.1732      3.9875      3.8574      3.7562      3.6560      3.5348      3.3814    
  3.1952      2.9828      2.7556      2.5293      2.3229      2.1559      2.0440      1.9967      2.0178      2.1082    
  2.4461      2.7479      3.1303      3.5942      4.1350      4.7436      5.4103      6.1321      6.9225      7.8182    
  8.8763      10.155      11.686      13.450      15.359      17.260      18.948      20.205      20.839      20.742    
  19.909      18.448      16.543      14.414      12.273      10.296      8.6007      7.2426      6.2103      5.4460    
  4.8773      4.4458      4.1147      3.8596      3.6581      3.4863      3.3225      3.1505      2.9606      2.7534    
  2.5401      2.3392      2.1698      2.0477      1.9850      1.9905      2.0689      2.2207      2.6172      2.9879    
  3.4529      4.0169      4.6768      5.4207      6.2316      7.0958      8.0152      9.0169      10.155      11.498    
  13.104      14.985      17.086      19.273      21.339      23.035      24.110      24.378      23.771      22.354    
  20.313      17.893      15.354      12.921      10.761      8.9679      7.5585      6.4911      5.6921      5.0861    
  4.6135      4.2350      3.9252      3.6643      3.4333      3.2139      2.9922      2.7634      2.5334      2.3185    
  2.1402      2.0202      1.9746      2.0115      2.1317      2.3334      2.7756      3.2073      3.7538      4.4240    
  5.2180      6.1231      7.1157      8.1701      9.2721      10.431      11.686      13.104      14.756      16.689    
  18.889      21.262      23.625      25.722      27.263      27.986      27.736      26.512      24.466      21.857    
  18.983      16.124      13.498      11.245      9.4201      8.0092      6.9469      6.1448      5.5193      5.0096    
  4.5797      4.2083      3.8785      3.5756      3.2889      3.0120      2.7431      2.4892      2.2703      2.1152    
  2.0490      2.0834      2.2177      2.4481      2.9202      3.3940      4.0105      4.7829      5.7151      6.7962    
  7.9993      9.2887      10.632      12.014      13.450      14.985      16.689      18.630      20.836      23.268    
  25.793      28.183      30.136      31.338      31.546      30.665      28.784      26.140      23.052      19.843    
  16.788      14.087      11.845      10.081      8.7379      7.7215      6.9303      6.2825      5.7233      5.2205    
  4.7568      4.3235      3.9174      3.5372      3.1826      2.8580      2.5772      2.3643      2.2454      2.2380    
  2.3479      2.5746      3.0592      3.5440      4.2052      5.0611      6.1202      7.3748      8.7994      10.353    
  11.988      13.663      15.359      17.086      18.889      20.836      22.985      25.353      27.878      30.392    
  32.626      34.247      34.940      34.513      32.962      30.471      27.347      23.939      20.572      17.502    
  14.891      12.795      11.178      9.9479      8.9933      8.2109      7.5213      6.8740      6.2449      5.6289    
  5.0313      4.4635      3.9409      3.4788      3.0900      2.7867      2.5847      2.5006      2.5472      2.7313    
  3.2104      3.6651      4.3317      5.2353      6.3904      7.7947      9.4268      11.247      13.200      15.223    
  17.260      19.273      21.262      23.268      25.353      27.576      29.947      32.388      34.700      36.576    
  37.682      37.747      36.659      34.504      31.550      28.160      24.687      21.424      18.572      16.228    
  14.391      12.984      11.891      10.991      10.181      9.3881      8.5728      7.7255      6.8604      6.0086    
  5.2091      4.4973      3.8981      3.4254      3.0870      2.8892      2.8383      2.9414      3.3978      3.7770    
  4.3997      5.2996      6.5001      8.0064      9.8039      11.859      14.120      16.513      18.948      21.339    
  23.625      25.793      27.878      29.947      32.064      34.209      36.267      38.055      39.318      39.783    
  39.251      37.683      35.221      32.153      28.841      25.642      22.782      20.381      18.466      16.979    
  15.810      14.831      13.925      13.000      11.994      10.883      9.6847      8.4504      7.2463      6.1364    
  5.1737      4.3952      3.8173      3.4375      3.2436      3.2279      3.6476      3.9081      4.4345      5.2701    
  6.4495      7.9886      9.8826      12.109      14.624      17.358      20.205      23.035      25.722      28.183    
  30.392      32.388      34.209      35.821      37.226      38.432      39.378      39.906      39.819      38.981    
  37.391      35.180      32.570      29.838      27.290      25.127      23.378      21.994      20.878      19.911    
  18.972      17.955      16.776      15.391      13.809      12.095      10.347      8.6708      7.1641      5.9007    
  4.9216      4.2317      3.8075      3.6180      3.9934      4.0898      4.4712      5.1816      6.2667      7.7556    
  9.6565      11.960      14.637      17.631      20.839      24.110      27.263      30.136      32.626      34.700    
  36.267      37.226      37.645      37.736      37.723      37.714      37.663      37.433      36.907      36.034    
  34.833      33.366      31.762      30.226      28.962      27.954      27.119      26.350      25.524      24.518    
  23.225      21.578      19.574      17.284      14.845      12.424      10.174      8.2153      6.6243      5.4328    
  4.6282      4.1651      4.4931      4.3599      4.5482      5.0799      6.0016      7.3552      9.1642      11.434    
  14.153      17.284      20.742      24.378      27.986      31.338      34.247      36.576      38.055      38.432    
  37.736      36.309      34.681      33.356      32.621      32.516      32.916      33.628      34.431      35.082    
  35.385      35.289      34.956      34.659      34.427      34.167      33.741      32.985      31.742      29.901    
  27.443      24.463      21.159      17.775      14.545      11.645      9.1966      7.2680      5.8740      4.9745    
  5.2480      4.7765      4.7080      5.0130      5.7146      6.8578      8.4807      10.605      13.235      16.356    
  19.909      23.771      27.736      31.546      34.940      37.682      39.318      39.378      37.723      34.681    
  31.005      27.622      25.315      24.511      25.274      27.398      30.465      33.890      37.031      39.410    
  40.913      41.819      42.560      43.219      43.646      43.596      42.785      40.985      38.121      34.322    
  29.893      25.222      20.671      16.513      12.923      9.9943      7.7638      6.2081      6.4020      5.4310    
  5.0065      5.0277      5.4646      6.3422      7.7030      9.5821      12.002      14.967      18.448      22.354    
  26.512      30.665      34.513      37.747      39.783      39.906      37.714      33.356      27.622      21.772    
  17.124      14.664      14.864      17.709      22.753      29.145      35.764      41.553      45.914      48.911    
  51.114      53.130      54.974      56.304      56.618      55.431      52.474      47.839      41.971      35.518    
  29.112      23.220      18.102      13.863      10.522      8.0588      8.1169      6.4457      5.5214      5.1750    
  5.3032      5.8807      6.9303      8.4908      10.601      13.287      16.543      20.313      24.466      28.784    
  32.962      36.659      39.251      39.819      37.663      32.621      25.315      17.124      9.8008      4.9244    
  3.5311      6.0180      12.152      21.038      31.192      40.924      48.968      54.953      59.395      63.216    
  67.013      70.486      72.878      73.291      71.033      65.944      58.520      49.749      40.738      32.368    
  25.118      19.125      14.349      10.709      10.534      7.9472      6.3471      5.5167      5.2774      5.5290    
  6.2449      7.4477      9.1851      11.502      14.414      17.893      21.857      26.140      30.471      34.504    
  37.683      38.981      37.433      32.516      24.511      14.664      4.9244     -2.6458     -6.4177     -5.4396    
 0.49553      10.737      23.710      37.235      49.306      58.904      66.265      72.454      78.559      84.778    
  90.197      93.444      93.190      88.700      80.219      68.955      56.622      44.811      34.521      26.091    
  19.426      14.305      13.747      10.033      7.5749      6.1231      5.4340      5.3249      5.7001      6.5419    
  7.8852      9.7837      12.273      15.354      18.983      23.052      27.347      31.550      35.221      37.391    
  36.907      32.916      25.274      14.864      3.5311     -6.4177     -12.862     -14.275     -9.8879     0.13973    
  14.501      30.861      46.607      59.938      70.554      79.460      88.075      97.219      106.24      113.38    
  116.64      114.41      106.25      93.183      77.388      61.346      46.973      35.171      25.963      18.958    
  17.789      12.745      9.2667      7.0564      5.8167      5.2939      5.3224      5.8238      6.7895      8.2615    
  10.296      12.921      16.124      19.843      23.939      28.160      32.153      35.180      36.034      33.628    
  27.398      17.709      6.0180     -5.4396     -14.275     -18.491     -16.744     -8.5612      5.3351      22.871    
  41.157      57.676      71.391      82.963      93.974      105.74      118.24      129.72      137.61      139.41    
  133.60      120.49      102.22      81.979      62.840      46.728      34.171      24.753      22.627      16.060    
  11.431      8.3460      6.4555      5.4552      5.1209      5.3048      5.9316      7.0088      8.6007      10.761    
  13.498      16.788      20.572      24.687      28.841      32.570      34.833      34.431      30.465      22.753    
  12.152     0.49553     -9.8879     -16.744     -18.246     -13.251     -1.7146      14.921      33.936      52.394    
  68.487      82.247      95.123      108.79      123.93      139.25      152.03      159.20      157.87      146.96    
  128.20      105.10      81.527      60.688      44.102      31.696      28.123      19.873      14.005      9.9689    
  7.3532      5.8193      5.0952      4.9691      5.2982      6.0404      7.2426      8.9679      11.245      14.087    
  17.502      21.424      25.642      29.838      33.366      35.082      33.890      29.145      21.038      10.737    
 0.13973     -8.5612     -13.251     -12.212     -4.5972      9.0294      26.576      45.142      62.343      77.413    
  91.323      105.86      122.28      140.08      156.80      169.32      173.88      167.70      151.04      127.30    
  100.96      76.045      55.345      39.594      33.965      23.975      16.847      11.842      8.4754      6.3770    
  5.2353      4.7909      4.8526      5.3251      6.2103      7.5585      9.4201      11.845      14.891      18.572    
  22.782      27.290      31.762      35.385      37.031      35.764      31.192      23.710      14.501      5.3351    
 -1.7146     -4.5972     -1.7732      7.1660      21.097      37.650      54.255      69.422      83.383      97.665    
  113.85      132.25      151.05      167.37      177.48      177.49      165.75      144.29      117.75      90.661    
  66.751      47.880      39.592      28.027      19.731      13.826      9.7451      7.0882      5.5166      4.7458    
  4.5571      4.8088      5.4460      6.4911      8.0092      10.081      12.795      16.228      20.381      25.127    
  30.226      35.289      39.410      41.553      40.924      37.235      30.861      22.871      14.921      9.0294    
  7.1660      10.611      19.343      31.907      46.048      59.881      72.865      85.910      100.55      117.69    
  136.43      154.26      167.99      173.66      168.28      151.98      128.22      101.68      76.483      55.521    
  44.218      31.567      22.365      15.729      11.043      7.8796      5.8980      4.8098      4.3819      4.4380    
  4.8773      5.6921      6.9469      8.7379      11.178      14.391      18.466      23.378      28.962      34.956    
  40.913      45.914      48.968      49.306      46.607      41.157      33.936      26.576      21.097      19.343    
  22.271      29.509      39.557      50.623      61.619      72.688      84.926      99.456      116.21      133.45    
  148.34      157.63      158.05      148.22      129.80      106.52      82.499      61.180      47.001      34.071    
  24.420      17.333      12.217      8.6531      6.3224      4.9509      4.2997      4.1732      4.4458      5.0861    
  6.1448      7.7215      9.9479      12.984      16.979      21.994      27.954      34.659      41.819      48.911    
  54.953      58.904      59.938      57.676      52.394      45.142      37.650      31.907      29.509      31.068    
  36.059      43.217      51.318      59.881      69.363      80.687      94.223      109.09      123.24      133.87    
  138.18      134.22      122.07      103.96      83.338      63.628      47.337      35.093      25.592      18.420    
  13.110      9.3014      6.7210      5.1241      4.2793      3.9875      4.1147      4.6135      5.5193      6.9303    
  8.9933      11.891      15.810      20.878      27.119      34.427      42.560      51.114      59.395      66.265    
  70.554      71.391      68.487      62.343      54.255      46.048      39.557      36.059      35.909      38.583    
  43.134      48.817      55.516      63.684      73.685      85.196      97.050      107.26      113.46      113.64    
  107.06      94.642      78.763      62.252      45.117      34.415      25.677      18.823      13.589      9.7251    
  7.0213      5.2766      4.2848      3.8574      3.8596      4.2350      5.0096      6.2825      8.2109      10.991    
  14.831      19.911      26.350      34.167      43.219      53.130      63.216      72.454      79.460      82.963    
  82.247      77.413      69.422      59.881      50.623      43.217      38.583      36.868      37.624      40.211    
  44.208      49.588      56.414      64.554      73.443      81.889      88.202      90.657      88.166      80.808    
  69.872      57.344      40.780      32.135      24.637      18.466      13.576      9.8508      7.1606      5.3593    
  4.2800      3.7562      3.6581      3.9252      4.5797      5.7233      7.5213      10.181      13.925      18.972    
  25.524      33.741      43.646      54.974      67.013      78.559      88.075      93.974      95.123      91.323    
  83.383      72.865      61.619      51.318      43.134      37.624      34.789      34.282      35.671      38.624    
  42.872      48.208      54.312      60.537      65.843      68.988      68.937      65.313      58.600      49.966    
  35.130      28.640      22.621      17.388      13.059      9.6454      7.1010      5.3378      4.2345      3.6560    
  3.4863      3.6643      4.2083      5.2205      6.8740      9.3881      13.000      17.955      24.518      32.985    
  43.596      56.304      70.486      84.778      97.219      105.74      108.79      105.86      97.665      85.910    
  72.688      59.881      48.817      40.211      34.282      30.922      29.829      30.575      32.722      35.908    
  39.813      44.035      47.981      50.866      51.902      50.585      46.936      41.503      29.032      24.462    
  19.915      15.725      12.093      9.1221      6.8358      5.1967      4.1284      3.5348      3.3225      3.4333    
  3.8785      4.7568      6.2449      8.5728      11.994      16.776      23.225      31.742      42.785      56.618    
  72.878      90.197      106.24      118.24      123.93      122.28      113.85      100.55      84.926      69.363    
  55.516      44.208      35.671      29.829      26.436      25.119      25.428      26.910      29.174      31.864    
  34.587      36.860      38.150      38.022      36.301      33.157      23.162      20.114      16.859      13.680    
  10.791      8.3369      6.3863      4.9391      3.9563      3.3814      3.1505      3.2139      3.5756      4.3235    
  5.6289      7.7255      10.883      15.391      21.578      29.901      40.985      55.431      73.291      93.444    
  113.38      129.72      139.25      140.08      132.25      117.69      99.456      80.687      63.684      49.588    
  38.624      30.575      25.119      21.908      20.535      20.551      21.521      23.062      24.827      26.471    
  27.636      28.000      27.353      25.678      17.925      15.986      13.768      11.477      9.2984      7.3756    
  5.7954      4.5834      3.7257      3.1952      2.9606      2.9922      3.2889      3.9174      5.0313      6.8604    
  9.6847      13.809      19.574      27.443      38.121      52.474      71.033      93.190      116.64      137.61    
  152.03      156.80      151.05      136.43      116.21      94.223      73.685      56.414      42.872      32.722    
  25.428      20.535      17.650      16.357      16.215      16.814      17.806      18.892      19.801      20.292    
  20.178      19.374      13.502      12.328      10.886      9.3214      7.7673      6.3379      5.1215      4.1600    
  3.4513      2.9828      2.7534      2.7634      3.0120      3.5372      4.4635      6.0086      8.4504      12.095    
  17.284      24.463      34.322      47.839      65.944      88.700      114.41      139.41      159.20      169.32    
  167.37      154.26      133.45      109.09      85.196      64.554      48.208      35.908      26.910      20.551    
  16.357      13.911      12.780      12.550      12.873      13.459      14.066      14.497      14.602      14.280    
  9.9390      9.2693      8.3810      7.3717      6.3253      5.3190      4.4299      3.7062      3.1508      2.7556    
  2.5401      2.5334      2.7431      3.1826      3.9409      5.2091      7.2463      10.347      14.845      21.159    
  29.893      41.971      58.520      80.219      106.25      133.60      157.87      173.88      177.48      167.99    
  148.34      123.24      97.050      73.443      54.312      39.813      29.174      21.521      16.215      12.780    
  10.787      9.8339      9.5718      9.7051      9.9938      10.266      10.405      10.318      7.2063      6.8532    
  6.3409      5.7268      5.0622      4.3944      3.7795      3.2603      2.8448      2.5293      2.3392      2.3185    
  2.4892      2.8580      3.4788      4.4973      6.1364      8.6708      12.424      17.775      25.222      35.518    
  49.749      68.955      93.183      120.49      146.96      167.70      177.49      173.66      157.63      133.87    
  107.26      81.889      60.537      44.035      31.864      23.062      16.814      12.550      9.8339      8.2745    
  7.5159      7.2499      7.2351      7.3120      7.3838      7.3724      5.2179      5.0471      4.7744      4.4227    
  4.0243      3.6095      3.2101      2.8552      2.5580      2.3229      2.1698      2.1402      2.2703      2.5772    
  3.0900      3.8981      5.1737      7.1641      10.174      14.545      20.671      29.112      40.738      56.622    
  77.388      102.22      128.20      151.04      165.75      168.28      158.05      138.18      113.46      88.202    
  65.843      47.981      34.587      24.827      17.806      12.873      9.5718      7.5159      6.3438      5.7407    
  5.4654      5.3581      5.3230      5.2956      3.8416      3.7596      3.6270      3.4402      3.2174      2.9788    
  2.7391      2.5130      2.3152      2.1559      2.0477      2.0202      2.1152      2.3643      2.7867      3.4254    
  4.3952      5.9007      8.2153      11.645      16.513      23.220      32.368      44.811      61.346      81.979    
  105.10      127.30      144.29      151.98      148.22      134.22      113.64      90.657      68.988      50.866    
  36.860      26.471      18.892      13.459      9.7051      7.2499      5.7407      4.8660      4.3834      4.1240    
  3.9833      3.9028      2.9201      2.8695      2.8102      2.7241      2.6150      2.4941      2.3684      2.2446    
  2.1332      2.0440      1.9850      1.9746      2.0490      2.2454      2.5847      3.0870      3.8173      4.9216    
  6.6243      9.1966      12.923      18.102      25.118      34.521      46.973      62.840      81.527      100.96    
  117.75      128.22      129.80      122.07      107.06      88.166      68.937      51.902      38.150      27.636    
  19.801      14.066      9.9938      7.2351      5.4654      4.3834      3.7413      3.3609      3.1320      2.9964    
  2.3060      2.2590      2.2342      2.2092      2.1757      2.1355      2.0931      2.0527      2.0190      1.9967    
  1.9905      2.0115      2.0834      2.2380      2.5006      2.8892      3.4375      4.2317      5.4328      7.2680    
  9.9943      13.863      19.125      26.091      35.171      46.728      60.688      76.045      90.661      101.68    
  106.52      103.96      94.642      80.808      65.313      50.585      38.022      28.000      20.292      14.497    
  10.266      7.3120      5.3581      4.1240      3.3609      2.8857      2.5869      2.4052      1.8916      1.8390    
  1.8300      1.8423      1.8616      1.8828      1.9070      1.9370      1.9740      2.0178      2.0689      2.1317    
  2.2177      2.3479      2.5472      2.8383      3.2436      3.8075      4.6282      5.8740      7.7638      10.522    
  14.349      19.426      25.963      34.171      44.102      55.345      66.751      76.483      82.499      83.338    
  78.763      69.872      58.600      46.936      36.301      27.353      20.178      14.602      10.405      7.3838    
  5.3230      3.9833      3.1320      2.5869      2.2344      2.0141      1.6171      1.5564      1.5553      1.5916    
  1.6499      1.7217      1.8040      1.8965      1.9988      2.1082      2.2207      2.3334      2.4481      2.5746    
  2.7313      2.9414      3.2279      3.6180      4.1651      4.9745      6.2081      8.0588      10.709      14.305    
  18.958      24.753      31.696      39.594      47.880      55.521      61.180      63.628      62.252      57.344    
  49.966      41.503      33.157      25.678      19.374      14.280      10.318      7.3724      5.2956      3.9028    
  2.9964      2.4052      2.0141      1.7617      1.4650      1.4171      1.4201      1.4543      1.5078      1.5760    
  1.6564      1.7471      1.8461      1.9511      2.0580      2.1616      2.2579      2.3469      2.4358      2.5408    
  2.6839      2.8881      3.1771      3.5869      4.1827      5.0657      6.3584      8.1744      10.584      13.594    
  17.132      21.045      25.078      28.853      31.888      33.687      33.905      32.480      29.661      25.913    
  21.752      17.622      13.837      10.581      7.9303      5.8818      4.3768      3.3213      2.6046      2.1224    
  1.7974      1.5857      1.3800      1.3277      1.3341      1.3821      1.4588      1.5581      1.6776      1.8145    
  1.9640      2.1210      2.2804      2.4348      2.5753      2.6941      2.7893      2.8690      2.9506      3.0578    
  3.2158      3.4515      3.8013      4.3238      5.1039      6.2390      7.8102      9.8523      12.334      15.150    
  18.121      20.994      23.456      25.174      25.875      25.422      23.875      21.468      18.535      15.415    
  12.394      9.6775      7.3926      5.5849      4.2280      3.2472      2.5526      2.0655      1.7292      1.5082    
  1.3892      1.3422      1.3565      1.4184      1.5166      1.6439      1.7972      1.9735      2.1678      2.3739    
  2.5848      2.7916      2.9823      3.1435      3.2649      3.3438      3.3889      3.4203      3.4660      3.5547    
  3.7147      3.9801      4.4006      5.0427      5.9772      7.2563      8.8902      10.828      12.950      15.080    