unknown system                          
   1.00000000000000     
     4.913700    0.000000    0.000000
    -2.456850    4.255389    0.000000
     0.000000    0.000000    5.405130
   Si   O 
     3     6
Direct
  0.469800  0.000000  0.666670
  0.000000  0.469800  0.333330
  0.530200  0.530200  0.000000
  0.414500  0.266200  0.785600
  0.733800  0.148300  0.452270
  0.851700  0.585500  0.118930
  0.148300  0.733800  0.547730
  0.266200  0.414500  0.214400
  0.585500  0.851700  0.881070
 
   48   48   56
 0.14544375648E+01 0.13851368550E+01 0.13882750477E+01 0.14425271300E+01 0.15316688819E+01
 0.16459313903E+01 0.17798942995E+01 0.19304030054E+01 0.20948601929E+01 0.22690876554E+01
 0.24460552382E+01 0.26171545299E+01 0.27755606749E+01 0.29202124575E+01 0.30591848322E+01
 0.32103568197E+01 0.33977594641E+01 0.36476166766E+01 0.39933638287E+01 0.44931258309E+01
 0.52479902501E+01 0.64020327631E+01 0.81168840609E+01 0.10534123091E+02 0.13746911353E+02
 0.17789215683E+02 0.22627102680E+02 0.28123358122E+02 0.33964734707E+02 0.39591834980E+02
 0.44217581212E+02 0.47000745158E+02 0.47337295719E+02 0.45116960088E+02 0.40779579679E+02
 0.35129964574E+02 0.29031859966E+02 0.23161907710E+02 0.17924798464E+02 0.13501800123E+02
 0.99390170093E+01 0.72063150668E+01 0.52179249125E+01 0.38416036993E+01 0.29201197749E+01
 0.23059642308E+01 0.18915713019E+01 0.16170534739E+01 0.13851368550E+01 0.13107083406E+01
 0.13176121025E+01 0.13871533996E+01 0.15024861594E+01 0.16527895437E+01 0.18322801624E+01
 0.20368142436E+01 0.22618845662E+01 0.25017381293E+01 0.27478655005E+01 0.29878865506E+01
 0.32072730889E+01 0.33940139822E+01 0.35440281662E+01 0.36650555803E+01 0.37770375123E+01
 0.39080805765E+01 0.40897528869E+01 0.43599392409E+01 0.47764836520E+01 0.54310198931E+01
 0.64456593184E+01 0.79471951708E+01 0.10032751204E+02 0.12745003659E+02 0.16059732785E+02
 0.19872582789E+02 0.23974684525E+02 0.28027308930E+02 0.31566575500E+02 0.34070677477E+02
 0.35093031433E+02 0.34414736244E+02 0.32135104550E+02 0.28639943335E+02 0.24461531588E+02
 0.20113506482E+02 0.15986411808E+02 0.12327855938E+02 0.92693399187E+01 0.68532320231E+01
 0.50470670836E+01 0.37596214925E+01 0.28694771089E+01 0.22589798071E+01 0.18390277469E+01
 0.15563923957E+01 0.13882750477E+01 0.13176121025E+01 0.13320674022E+01 0.14167621024E+01
 0.15561334682E+01 0.17388492020E+01 0.19589884888E+01 0.22132395632E+01 0.24978095430E+01
 0.28067385716E+01 0.31302578103E+01 0.34529255354E+01 0.37538354821E+01 0.40104920057E+01
 0.42052047332E+01 0.43317080109E+01 0.43996813829E+01 0.44344631904E+01 0.44711736528E+01
 0.45481931952E+01 0.47079753763E+01 0.50064749866E+01 0.55213626722E+01 0.63470897639E+01
 0.75749434415E+01 0.92666741107E+01 0.11430820713E+02 0.14005284290E+02 0.16847015381E+02
 0.19731250414E+02 0.22364856979E+02 0.24419877152E+02 0.25591969074E+02 0.25676903444E+02
 0.24637239623E+02 0.22620960566E+02 0.19915122462E+02 0.16859436043E+02 0.13767587697E+02
 0.10885671312E+02 0.83810414438E+01 0.63408823581E+01 0.47743593995E+01 0.36269844609E+01
 0.28101616277E+01 0.22341873016E+01 0.18300445588E+01 0.15552677767E+01 0.14425271300E+01
 0.13871533996E+01 0.14167621024E+01 0.15197304484E+01 0.16834469588E+01 0.18974425257E+01
 0.21557216924E+01 0.24566682816E+01 0.28000335515E+01 0.31825201706E+01 0.35942232830E+01
 0.40168968021E+01 0.44239564275E+01 0.47828641317E+01 0.50611183806E+01 0.52352781067E+01
 0.52996007493E+01 0.52700602287E+01 0.51815860638E+01 0.50799203500E+01 0.50129569365E+01
 0.50276855649E+01 0.51750361489E+01 0.55167232996E+01 0.61230968604E+01 0.70563835666E+01
 0.83459875141E+01 0.99689004682E+01 0.11842283418E+02 0.13825672829E+02 0.15729439814E+02
 0.17333190148E+02 0.18419976832E+02 0.18822685092E+02 0.18466353872E+02 0.17387822679E+02
 0.15724655488E+02 0.13679818602E+02 0.11477079707E+02 0.93213756886E+01 0.73716616460E+01
 0.57268209558E+01 0.44227273542E+01 0.34402106794E+01 0.27241419081E+01 0.22092308383E+01
 0.18423019729E+01 0.15916209550E+01 0.15316688819E+01 0.15024861594E+01 0.15561334682E+01
 0.16834469588E+01 0.18743363687E+01 0.21201690947E+01 0.24162383190E+01 0.27632663208E+01
 0.31654825092E+01 0.36249234735E+01 0.41350461836E+01 0.46768196240E+01 0.52179559330E+01
 0.57151422407E+01 0.61201938483E+01 0.63903627395E+01 0.65000710265E+01 0.64495228030E+01
 0.62666933850E+01 0.60015862678E+01 0.57146130155E+01 0.54645948508E+01 0.53031732901E+01
 0.52773906341E+01 0.54339673330E+01 0.58167011906E+01 0.64555126110E+01 0.73531915462E+01
 0.84754217231E+01 0.97451425682E+01 0.11042665967E+02 0.12216761162E+02 0.13109623364E+02
 0.13589169998E+02 0.13576263414E+02 0.13058885742E+02 0.12092853266E+02 0.10790567933E+02
 0.92984391084E+01 0.77672534336E+01 0.63252536579E+01 0.50621547266E+01 0.40243485736E+01
 0.32173908525E+01 0.26150317845E+01 0.21757038254E+01 0.18615706955E+01 0.16499235828E+01
 0.16459313903E+01 0.16527895437E+01 0.17388492021E+01 0.18974425257E+01 0.21201690947E+01
 0.24002111858E+01 0.27352416104E+01 0.31289494832E+01 0.35901781496E+01 0.41280827900E+01
 0.47435614288E+01 0.54207385668E+01 0.61231411451E+01 0.67962020488E+01 0.73748278989E+01
 0.77947232594E+01 0.80064010640E+01 0.79885900263E+01 0.77556061944E+01 0.73551631698E+01
 0.68578210424E+01 0.63422461954E+01 0.58806812557E+01 0.55289815801E+01 0.53249109775E+01
 0.52939436139E+01 0.54552266408E+01 0.58192926607E+01 0.63769814375E+01 0.70881815697E+01
 0.78795667316E+01 0.86531462208E+01 0.93014398545E+01 0.97251396372E+01 0.98508373892E+01
 0.96453758821E+01 0.91221178015E+01 0.83368741381E+01 0.73756118721E+01 0.63378772802E+01
 0.53190452709E+01 0.43944409660E+01 0.36094549524E+01 0.29787934548E+01 0.24940830831E+01
 0.21355185961E+01 0.18827551352E+01 0.17217362280E+01 0.17798942995E+01 0.18322801624E+01
 0.19589884888E+01 0.21557216924E+01 0.24162383190E+01 0.27352416104E+01 0.31119727026E+01
 0.35529154955E+01 0.40722684878E+01 0.46877190032E+01 0.54102527613E+01 0.62315500376E+01
 0.71156956766E+01 0.79992999834E+01 0.87993716262E+01 0.94268168734E+01 0.98039466262E+01
 0.98825638761E+01 0.96565418168E+01 0.91642198322E+01 0.84807237897E+01 0.77030017698E+01
 0.69303302634E+01 0.62448805939E+01 0.57001464814E+01 0.53224263607E+01 0.51208692642E+01
 0.50951954183E+01 0.52352888770E+01 0.55166441322E+01 0.58979857775E+01 0.63223996099E+01
 0.67210424407E+01 0.70212766172E+01 0.71605799148E+01 0.71010021968E+01 0.68357713826E+01
 0.63862735129E+01 0.57954166900E+01 0.51215353549E+01 0.44299245264E+01 0.37794798755E+01
 0.32100509551E+01 0.27391029335E+01 0.23684158475E+01 0.20931498509E+01 0.19069964940E+01
 0.18040167161E+01 0.19304030054E+01 0.20368142436E+01 0.22132395632E+01 0.24566682816E+01
 0.27632663208E+01 0.31289494832E+01 0.35529154955E+01 0.40431117800E+01 0.46190767098E+01
 0.53077947791E+01 0.61321480112E+01 0.70957707451E+01 0.81700707101E+01 0.92887449719E+01
 0.10352921801E+02 0.11246673056E+02 0.11859273529E+02 0.12108613694E+02 0.11959836720E+02
 0.11434120046E+02 0.10604819248E+02 0.95820941467E+01 0.84908255053E+01 0.74476648785E+01
 0.65418604781E+01 0.58237697241E+01 0.53047730617E+01 0.49690837844E+01 0.47909028375E+01
 0.47457870670E+01 0.48097694025E+01 0.49508675977E+01 0.51241002283E+01 0.52765643364E+01
 0.53592840547E+01 0.53377941101E+01 0.51967070580E+01 0.49390727675E+01 0.45834250281E+01
 0.41600377007E+01 0.37062271799E+01 0.32603375855E+01 0.28551581646E+01 0.25129625593E+01
 0.22445756564E+01 0.20527401617E+01 0.19369861532E+01 0.18965284224E+01 0.20948601929E+01
 0.22618845662E+01 0.24978095430E+01 0.28000335515E+01 0.31654825092E+01 0.35901781496E+01
 0.40722684878E+01 0.46190767098E+01 0.52527786966E+01 0.60084167570E+01 0.69224846786E+01
 0.80151785196E+01 0.92720774354E+01 0.10632141783E+02 0.11987897297E+02 0.13199555507E+02
 0.14119883379E+02 0.14623993602E+02 0.14637228109E+02 0.14153209276E+02 0.13235384488E+02
 0.12001901889E+02 0.10601055870E+02 0.91851010190E+01 0.78852087567E+01 0.67894884838E+01
 0.59315886083E+01 0.52982396802E+01 0.48525771712E+01 0.45570701505E+01 0.43818628957E+01
 0.42997112812E+01 0.42793038268E+01 0.42847645626E+01 0.42800472393E+01 0.42345298322E+01
 0.41284292266E+01 0.39563138134E+01 0.37257003887E+01 0.34513307296E+01 0.31507708414E+01
 0.28447539542E+01 0.25580453782E+01 0.23151763375E+01 0.21331898119E+01 0.20190386215E+01
 0.19739578382E+01 0.19988038920E+01 0.22690876554E+01 0.25017381293E+01 0.28067385716E+01
 0.31825201706E+01 0.36249234735E+01 0.41280827900E+01 0.46877190032E+01 0.53077947791E+01
 0.60084167570E+01 0.68286907918E+01 0.78181910988E+01 0.90168856709E+01 0.10430967711E+02
 0.12014488059E+02 0.13663255382E+02 0.15223120327E+02 0.16512632047E+02 0.17357761061E+02
 0.17631213405E+02 0.17283758954E+02 0.16355975263E+02 0.14967063022E+02 0.13286970219E+02
 0.11502214548E+02 0.97837387779E+01 0.82614594015E+01 0.70087748747E+01 0.60404237303E+01
 0.53251183405E+01 0.48087538183E+01 0.44379692585E+01 0.41732057693E+01 0.39875163415E+01
 0.38573845727E+01 0.37561903004E+01 0.36560424144E+01 0.35348421795E+01 0.33814183990E+01
 0.31952011158E+01 0.29828138055E+01 0.27556378835E+01 0.25293040205E+01 0.23228771010E+01
 0.21558609187E+01 0.20440059035E+01 0.19967182690E+01 0.20177620054E+01 0.21082212462E+01
 0.24460552382E+01 0.27478655005E+01 0.31302578103E+01 0.35942232830E+01 0.41350461836E+01
 0.47435614288E+01 0.54102527613E+01 0.61321480113E+01 0.69224846786E+01 0.78181910988E+01
 0.88762858352E+01 0.10155073747E+02 0.11686309943E+02 0.13449794844E+02 0.15358762737E+02
 0.17259625000E+02 0.18948346344E+02 0.20204639522E+02 0.20839328645E+02 0.20741662423E+02
 0.19909195567E+02 0.18447905057E+02 0.16543002235E+02 0.14414177933E+02 0.12273424133E+02
 0.10295660577E+02 0.86006955812E+01 0.72426189420E+01 0.62103169381E+01 0.54459660475E+01
 0.48773273997E+01 0.44458129710E+01 0.41146513799E+01 0.38596423031E+01 0.36580954415E+01
 0.34862519371E+01 0.33225403210E+01 0.31504793050E+01 0.29606441918E+01 0.27533942143E+01
 0.25400556303E+01 0.23391663165E+01 0.21698297374E+01 0.20477062085E+01 0.19849618669E+01
 0.19905162220E+01 0.20689058511E+01 0.22206935556E+01 0.26171545299E+01 0.29878865506E+01
 0.34529255354E+01 0.40168968022E+01 0.46768196240E+01 0.54207385668E+01 0.62315500376E+01
 0.70957707451E+01 0.80151785196E+01 0.90168856709E+01 0.10155073747E+02 0.11498474952E+02
 0.13103954360E+02 0.14984823606E+02 0.17085801053E+02 0.19272645727E+02 0.21339329612E+02
 0.23034665919E+02 0.24109625509E+02 0.24378143975E+02 0.23770514207E+02 0.22354280265E+02
 0.20312527039E+02 0.17893129370E+02 0.15353990533E+02 0.12921070359E+02 0.10761361292E+02
 0.89679252671E+01 0.75585325959E+01 0.64911064003E+01 0.56921452525E+01 0.50860523924E+01
 0.46134638898E+01 0.42349855790E+01 0.39251629758E+01 0.36642582370E+01 0.34332536540E+01
 0.32138561270E+01 0.29922140920E+01 0.27633506053E+01 0.25334200847E+01 0.23184760012E+01
 0.21402158519E+01 0.20202175482E+01 0.19746421860E+01 0.20114787521E+01 0.21316514118E+01
 0.23333881760E+01 0.27755606750E+01 0.32072730889E+01 0.37538354821E+01 0.44239564275E+01
 0.52179559330E+01 0.61231411451E+01 0.71156956766E+01 0.81700707101E+01 0.92720774354E+01
 0.10430967711E+02 0.11686309943E+02 0.13103954360E+02 0.14756179997E+02 0.16689096646E+02
 0.18889365873E+02 0.21262145945E+02 0.23625241900E+02 0.25722478388E+02 0.27262732318E+02
 0.27985687016E+02 0.27736001307E+02 0.26512280719E+02 0.24466389240E+02 0.21856967961E+02
 0.18983021831E+02 0.16123814387E+02 0.13498178999E+02 0.11244799396E+02 0.94200724633E+01
 0.80091916882E+01 0.69469055508E+01 0.61448337754E+01 0.55192856228E+01 0.50095568220E+01
 0.45797249180E+01 0.42083453998E+01 0.38785117042E+01 0.35755757191E+01 0.32888849744E+01
 0.30120165670E+01 0.27431404219E+01 0.24892426134E+01 0.22703102006E+01 0.21151696237E+01
 0.20490185435E+01 0.20834489089E+01 0.22177346607E+01 0.24481206533E+01 0.29202124575E+01
 0.33940139822E+01 0.40104920057E+01 0.47828641317E+01 0.57151422407E+01 0.67962020488E+01
 0.79992999834E+01 0.92887449719E+01 0.10632141783E+02 0.12014488059E+02 0.13449794844E+02
 0.14984823606E+02 0.16689096646E+02 0.18629510693E+02 0.20835801630E+02 0.23267708447E+02
 0.25792894485E+02 0.28182822649E+02 0.30136272660E+02 0.31338354415E+02 0.31545790327E+02
 0.30665038118E+02 0.28783668083E+02 0.26139962537E+02 0.23051884546E+02 0.19842795590E+02
 0.16788343566E+02 0.14086684047E+02 0.11845030833E+02 0.10080522966E+02 0.87378974890E+01
 0.77214956857E+01 0.69302983143E+01 0.62824705637E+01 0.57232646468E+01 0.52205246001E+01
 0.47567736507E+01 0.43234929344E+01 0.39173869645E+01 0.35371843678E+01 0.31826288822E+01
 0.28579586590E+01 0.25771999271E+01 0.23643483409E+01 0.22453823235E+01 0.22379602286E+01
 0.23478546942E+01 0.25745813421E+01 0.30591848322E+01 0.35440281662E+01 0.42052047332E+01
 0.50611183806E+01 0.61201938483E+01 0.73748278989E+01 0.87993716262E+01 0.10352921801E+02
 0.11987897297E+02 0.13663255382E+02 0.15358762737E+02 0.17085801053E+02 0.18889365873E+02
 0.20835801630E+02 0.22985012064E+02 0.25353383934E+02 0.27877949903E+02 0.30392252486E+02
 0.32626423918E+02 0.34246883526E+02 0.34939874334E+02 0.34512649641E+02 0.32961650887E+02
 0.30470535945E+02 0.27346688881E+02 0.23938914097E+02 0.20571647574E+02 0.17501747885E+02
 0.14890789340E+02 0.12794679535E+02 0.11177876068E+02 0.99479060247E+01 0.89932761490E+01
 0.82109452469E+01 0.75213368957E+01 0.68739501176E+01 0.62449253464E+01 0.56289478949E+01
 0.50312571436E+01 0.44634645969E+01 0.39409036471E+01 0.34788162097E+01 0.30899502149E+01
 0.27867371056E+01 0.25846514654E+01 0.25005827281E+01 0.25472070539E+01 0.27312505470E+01
 0.32103568197E+01 0.36650555803E+01 0.43317080109E+01 0.52352781067E+01 0.63903627395E+01
 0.77947232594E+01 0.94268168734E+01 0.11246673056E+02 0.13199555507E+02 0.15223120327E+02
 0.17259625000E+02 0.19272645727E+02 0.21262145945E+02 0.23267708447E+02 0.25353383934E+02
 0.27576403155E+02 0.29947095174E+02 0.32387876620E+02 0.34699710975E+02 0.36575847224E+02
 0.37681744056E+02 0.37747347232E+02 0.36658904930E+02 0.34503945451E+02 0.31549895634E+02
 0.28159786406E+02 0.24686855232E+02 0.21423594686E+02 0.18571522468E+02 0.16227965173E+02
 0.14391099436E+02 0.12984220747E+02 0.11891366471E+02 0.10991268156E+02 0.10181019614E+02
 0.93880547270E+01 0.85728055290E+01 0.77254953267E+01 0.68603729984E+01 0.60086236991E+01
 0.52090505810E+01 0.44972760889E+01 0.38981300409E+01 0.34253989938E+01 0.30869533762E+01
 0.28891937865E+01 0.28382974670E+01 0.29414078015E+01 0.33977594642E+01 0.37770375123E+01
 0.43996813829E+01 0.52996007493E+01 0.65000710265E+01 0.80064010640E+01 0.98039466262E+01
 0.11859273529E+02 0.14119883379E+02 0.16512632047E+02 0.18948346344E+02 0.21339329612E+02
 0.23625241900E+02 0.25792894485E+02 0.27877949903E+02 0.29947095174E+02 0.32063642925E+02
 0.34209340717E+02 0.36267440105E+02 0.38054822790E+02 0.39317879822E+02 0.39782802448E+02
 0.39250796805E+02 0.37682502278E+02 0.35221177102E+02 0.32152714285E+02 0.28841415520E+02
 0.25642357713E+02 0.22781988679E+02 0.20381189094E+02 0.18466020560E+02 0.16979277955E+02
 0.15809936641E+02 0.14830603442E+02 0.13925018024E+02 0.13000420284E+02 0.11994402370E+02
 0.10883085116E+02 0.96846772906E+01 0.84504228525E+01 0.72462708385E+01 0.61363538922E+01
 0.51737434977E+01 0.43952120207E+01 0.38173378082E+01 0.34375342627E+01 0.32435859094E+01
 0.32278753828E+01 0.36476166766E+01 0.39080805765E+01 0.44344631904E+01 0.52700602287E+01
 0.64495228030E+01 0.79885900263E+01 0.98825638761E+01 0.12108613694E+02 0.14623993602E+02
 0.17357761061E+02 0.20204639522E+02 0.23034665919E+02 0.25722478388E+02 0.28182822649E+02
 0.30392252486E+02 0.32387876620E+02 0.34209340717E+02 0.35821124757E+02 0.37225710331E+02
 0.38431787093E+02 0.39377907322E+02 0.39906133317E+02 0.39819017743E+02 0.38981346002E+02
 0.37391011680E+02 0.35179619895E+02 0.32569711512E+02 0.29837699149E+02 0.27289729322E+02
 0.25127198537E+02 0.23378174495E+02 0.21994425680E+02 0.20878373675E+02 0.19910609972E+02
 0.18971867277E+02 0.17955006974E+02 0.16775949900E+02 0.15390510210E+02 0.13809079201E+02
 0.12095288488E+02 0.10346878477E+02 0.86708479821E+01 0.71641317537E+01 0.59006529338E+01
 0.49216219762E+01 0.42317057022E+01 0.38074548746E+01 0.36179699966E+01 0.39933638287E+01
 0.40897528869E+01 0.44711736528E+01 0.51815860639E+01 0.62666933850E+01 0.77556061944E+01
 0.96565418168E+01 0.11959836720E+02 0.14637228109E+02 0.17631213405E+02 0.20839328645E+02
 0.24109625509E+02 0.27262732318E+02 0.30136272660E+02 0.32626423918E+02 0.34699710975E+02
 0.36267440104E+02 0.37225710330E+02 0.37644992149E+02 0.37736030960E+02 0.37723100441E+02
 0.37714430465E+02 0.37662780611E+02 0.37433294784E+02 0.36906613902E+02 0.36034226301E+02
 0.34832569254E+02 0.33366397785E+02 0.31761533419E+02 0.30226354814E+02 0.28961802380E+02
 0.27953866832E+02 0.27119234740E+02 0.26350275322E+02 0.25524357977E+02 0.24518112991E+02
 0.23225137124E+02 0.21578279081E+02 0.19573662829E+02 0.17283696772E+02 0.14845142826E+02
 0.12423618028E+02 0.10173877238E+02 0.82153002015E+01 0.66243281866E+01 0.54327967263E+01
 0.46281989707E+01 0.41651106552E+01 0.44931258309E+01 0.43599392409E+01 0.45481931952E+01
 0.50799203500E+01 0.60015862678E+01 0.73551631698E+01 0.91642198322E+01 0.11434120046E+02
 0.14153209276E+02 0.17283758954E+02 0.20741662423E+02 0.24378143975E+02 0.27985687016E+02
 0.31338354415E+02 0.34246883526E+02 0.36575847224E+02 0.38054822788E+02 0.38431787090E+02
 0.37736030958E+02 0.36308712226E+02 0.34681419396E+02 0.33355717403E+02 0.32620778140E+02
 0.32515831160E+02 0.32915774768E+02 0.33628222881E+02 0.34430589705E+02 0.35082456408E+02
 0.35385260694E+02 0.35288582480E+02 0.34955699198E+02 0.34658728478E+02 0.34427225365E+02
 0.34166638083E+02 0.33740629973E+02 0.32985275262E+02 0.31742145369E+02 0.29901047166E+02
 0.27442653972E+02 0.24462816382E+02 0.21158531670E+02 0.17775363337E+02 0.14544637434E+02
 0.11644961597E+02 0.91966354271E+01 0.72680103032E+01 0.58740470011E+01 0.49744732950E+01
 0.52479902502E+01 0.47764836520E+01 0.47079753763E+01 0.50129569365E+01 0.57146130156E+01
 0.68578210424E+01 0.84807237897E+01 0.10604819248E+02 0.13235384488E+02 0.16355975263E+02
 0.19909195567E+02 0.23770514207E+02 0.27736001307E+02 0.31545790327E+02 0.34939874334E+02
 0.37681744055E+02 0.39317879819E+02 0.39377907316E+02 0.37723100435E+02 0.34681419392E+02
 0.31004896790E+02 0.27622268622E+02 0.25314851900E+02 0.24510584148E+02 0.25274276813E+02
 0.27398022981E+02 0.30465272981E+02 0.33890105947E+02 0.37031270552E+02 0.39410266527E+02
 0.40913491853E+02 0.41819178011E+02 0.42560419920E+02 0.43218721613E+02 0.43645531000E+02
 0.43595565645E+02 0.42784553421E+02 0.40984527569E+02 0.38120709490E+02 0.34322030173E+02
 0.29893251922E+02 0.25221641035E+02 0.20670614086E+02 0.16513316121E+02 0.12922772575E+02
 0.99943398420E+01 0.77638280209E+01 0.62081496115E+01 0.64020327631E+01 0.54310198931E+01
 0.50064749866E+01 0.50276855649E+01 0.54645948509E+01 0.63422461954E+01 0.77030017698E+01
 0.95820941467E+01 0.12001901889E+02 0.14967063022E+02 0.18447905057E+02 0.22354280265E+02
 0.26512280719E+02 0.30665038118E+02 0.34512649641E+02 0.37747347232E+02 0.39782802444E+02
 0.39906133310E+02 0.37714430456E+02 0.33355717395E+02 0.27622268617E+02 0.21772161193E+02
 0.17124385548E+02 0.14663637778E+02 0.14863616720E+02 0.17709433180E+02 0.22753146335E+02
 0.29144784603E+02 0.35764292116E+02 0.41552952194E+02 0.45914198496E+02 0.48911379730E+02
 0.51114490189E+02 0.53129515686E+02 0.54974025466E+02 0.56303626981E+02 0.56618188665E+02
 0.55431136693E+02 0.52473998399E+02 0.47838628819E+02 0.41971306832E+02 0.35517748179E+02
 0.29111527982E+02 0.23219718263E+02 0.18102272037E+02 0.13862767218E+02 0.10522438864E+02
 0.80587944114E+01 0.81168840609E+01 0.64456593184E+01 0.55213626722E+01 0.51750361489E+01
 0.53031732901E+01 0.58806812557E+01 0.69303302634E+01 0.84908255053E+01 0.10601055870E+02
 0.13286970219E+02 0.16543002235E+02 0.20312527039E+02 0.24466389240E+02 0.28783668083E+02
 0.32961650887E+02 0.36658904930E+02 0.39250796801E+02 0.39819017735E+02 0.37662780600E+02
 0.32620778129E+02 0.25314851892E+02 0.17124385544E+02 0.98008212092E+01 0.49243649549E+01
 0.35310554763E+01 0.60179883077E+01 0.12151603280E+02 0.21038049064E+02 0.31192313096E+02
 0.40924412456E+02 0.48967572358E+02 0.54953241167E+02 0.59395190784E+02 0.63216284638E+02
 0.67013110036E+02 0.70486269440E+02 0.72878005860E+02 0.73290776424E+02 0.71032793284E+02
 0.65943695800E+02 0.58520064344E+02 0.49748530326E+02 0.40738481851E+02 0.32367846923E+02
 0.25117554570E+02 0.19124566094E+02 0.14348573168E+02 0.10708754915E+02 0.10534123091E+02
 0.79471951708E+01 0.63470897639E+01 0.55167232996E+01 0.52773906341E+01 0.55289815801E+01
 0.62448805939E+01 0.74476648785E+01 0.91851010190E+01 0.11502214548E+02 0.14414177933E+02
 0.17893129370E+02 0.21856967961E+02 0.26139962537E+02 0.30470535945E+02 0.34503945451E+02
 0.37682502275E+02 0.38981345994E+02 0.37433294772E+02 0.32515831147E+02 0.24510584137E+02
 0.14663637770E+02 0.49243649516E+01 -.26457760743E+01 -.64177013561E+01 -.54395820490E+01
 0.49552797701E+00 0.10736826323E+02 0.23709877307E+02 0.37234740695E+02 0.49306077777E+02
 0.58903855072E+02 0.66265097285E+02 0.72453741106E+02 0.78559006212E+02 0.84778216131E+02
 0.90196914992E+02 0.93443908097E+02 0.93190284261E+02 0.88700269802E+02 0.80219191350E+02
 0.68954538257E+02 0.56622182949E+02 0.44810636392E+02 0.34521485469E+02 0.26091285202E+02
 0.19426382020E+02 0.14304511967E+02 0.13746911353E+02 0.10032751204E+02 0.75749434415E+01
 0.61230968604E+01 0.54339673330E+01 0.53249109775E+01 0.57001464814E+01 0.65418604781E+01
 0.78852087567E+01 0.97837387779E+01 0.12273424133E+02 0.15353990533E+02 0.18983021831E+02
 0.23051884546E+02 0.27346688881E+02 0.31549895634E+02 0.35221177100E+02 0.37391011674E+02
 0.36906613891E+02 0.32915774755E+02 0.25274276800E+02 0.14863616711E+02 0.35310554707E+01
 -.64177013583E+01 -.12861966649E+02 -.14275288684E+02 -.98878783611E+01 0.13973124184E+00
 0.14501253671E+02 0.30861338097E+02 0.46607074421E+02 0.59937863796E+02 0.70553932440E+02
 0.79459548347E+02 0.88074888862E+02 0.97219427896E+02 0.10623577819E+03 0.11338467961E+03
 0.11663786300E+03 0.11440656535E+03 0.10624723416E+03 0.93183483684E+02 0.77388141418E+02
 0.61346374173E+02 0.46973426675E+02 0.35170895936E+02 0.25963097061E+02 0.18958359750E+02
 0.17789215683E+02 0.12745003659E+02 0.92666741107E+01 0.70563835666E+01 0.58167011906E+01
 0.52939436139E+01 0.53224263607E+01 0.58237697241E+01 0.67894884838E+01 0.82614594016E+01
 0.10295660577E+02 0.12921070359E+02 0.16123814387E+02 0.19842795590E+02 0.23938914097E+02
 0.28159786406E+02 0.32152714285E+02 0.35179619891E+02 0.36034226292E+02 0.33628222869E+02
 0.27398022968E+02 0.17709433170E+02 0.60179883009E+01 -.54395820524E+01 -.14275288685E+02
 -.18490844136E+02 -.16744438244E+02 -.85612074094E+01 0.53350767992E+01 0.22871457377E+02
 0.41157479994E+02 0.57676164195E+02 0.71390558417E+02 0.82962589887E+02 0.93973892663E+02
 0.10573903471E+03 0.11824243192E+03 0.12972325436E+03 0.13760786218E+03 0.13941451267E+03
 0.13360360393E+03 0.12048536678E+03 0.10221538982E+03 0.81978561848E+02 0.62840401462E+02
 0.46728084269E+02 0.34171020192E+02 0.24752673869E+02 0.22627102680E+02 0.16059732785E+02
 0.11430820713E+02 0.83459875141E+01 0.64555126110E+01 0.54552266408E+01 0.51208692642E+01
 0.53047730617E+01 0.59315886083E+01 0.70087748747E+01 0.86006955812E+01 0.10761361292E+02
 0.13498178999E+02 0.16788343566E+02 0.20571647574E+02 0.24686855232E+02 0.28841415520E+02
 0.32569711511E+02 0.34832569249E+02 0.34430589696E+02 0.30465272970E+02 0.22753146325E+02
 0.12151603274E+02 0.49552797350E+00 -.98878783623E+01 -.16744438244E+02 -.18246152836E+02
 -.13250746115E+02 -.17145610824E+01 0.14920555158E+02 0.33936205653E+02 0.52393840932E+02
 0.68487097513E+02 0.82246800957E+02 0.95123173344E+02 0.10879450616E+03 0.12393211083E+03
 0.13925480872E+03 0.15202869759E+03 0.15919757325E+03 0.15786940946E+03 0.14696080073E+03
 0.12819582181E+03 0.10510172160E+03 0.81526614597E+02 0.60688113458E+02 0.44102415649E+02
 0.31695772680E+02 0.28123358122E+02 0.19872582789E+02 0.14005284290E+02 0.99689004682E+01
 0.73531915462E+01 0.58192926607E+01 0.50951954183E+01 0.49690837844E+01 0.52982396802E+01
 0.60404237303E+01 0.72426189420E+01 0.89679252671E+01 0.11244799396E+02 0.14086684047E+02
 0.17501747885E+02 0.21423594686E+02 0.25642357713E+02 0.29837699149E+02 0.33366397783E+02
 0.35082456402E+02 0.33890105939E+02 0.29144784596E+02 0.21038049058E+02 0.10736826320E+02
 0.13973124183E+00 -.85612074083E+01 -.13250746114E+02 -.12211829027E+02 -.45971989786E+01
 0.90294269234E+01 0.26575811848E+02 0.45141674195E+02 0.62343095820E+02 0.77412777486E+02
 0.91322903933E+02 0.10586213903E+03 0.12227814527E+03 0.14007845285E+03 0.15680347324E+03
 0.16932131045E+03 0.17387799685E+03 0.16770030590E+03 0.15103523913E+03 0.12729529279E+03
 0.10095747105E+03 0.76045359801E+02 0.55344516332E+02 0.39594217702E+02 0.33964734707E+02
 0.23974684525E+02 0.16847015381E+02 0.11842283418E+02 0.84754217231E+01 0.63769814375E+01
 0.52352888770E+01 0.47909028375E+01 0.48525771712E+01 0.53251183405E+01 0.62103169382E+01
 0.75585325960E+01 0.94200724633E+01 0.11845030833E+02 0.14890789340E+02 0.18571522468E+02
 0.22781988679E+02 0.27289729322E+02 0.31761533418E+02 0.35385260692E+02 0.37031270548E+02
 0.35764292111E+02 0.31192313094E+02 0.23709877307E+02 0.14501253674E+02 0.53350768027E+01
 -.17145610790E+01 -.45971989763E+01 -.17731639527E+01 0.71659679774E+01 0.21097096640E+02
 0.37649520915E+02 0.54255415312E+02 0.69421712821E+02 0.83382950960E+02 0.97665180008E+02
 0.11384871462E+03 0.13224625955E+03 0.15105188503E+03 0.16736751930E+03 0.17748464689E+03
 0.17749333101E+03 0.16574519012E+03 0.14428669027E+03 0.11774610506E+03 0.90661097834E+02
 0.66751461062E+02 0.47879537585E+02 0.39591834980E+02 0.28027308931E+02 0.19731250414E+02
 0.13825672829E+02 0.97451425682E+01 0.70881815697E+01 0.55166441322E+01 0.47457870670E+01
 0.45570701506E+01 0.48087538183E+01 0.54459660475E+01 0.64911064003E+01 0.80091916882E+01
 0.10080522966E+02 0.12794679535E+02 0.16227965173E+02 0.20381189094E+02 0.25127198537E+02
 0.30226354814E+02 0.35288582480E+02 0.39410266526E+02 0.41552952192E+02 0.40924412456E+02
 0.37234740698E+02 0.30861338102E+02 0.22871457384E+02 0.14920555165E+02 0.90294269292E+01
 0.71659679808E+01 0.10610649695E+02 0.19343243189E+02 0.31907192153E+02 0.46047932384E+02
 0.59880899824E+02 0.72864739435E+02 0.85910182620E+02 0.10054841026E+03 0.11768517055E+03
 0.13643168719E+03 0.15425690912E+03 0.16798628970E+03 0.17366425745E+03 0.16828466346E+03
 0.15197657215E+03 0.12822387288E+03 0.10168115123E+03 0.76483427614E+02 0.55521354862E+02
 0.44217581212E+02 0.31566575500E+02 0.22364856979E+02 0.15729439814E+02 0.11042665967E+02
 0.78795667316E+01 0.58979857775E+01 0.48097694025E+01 0.43818628957E+01 0.44379692585E+01
 0.48773273997E+01 0.56921452525E+01 0.69469055508E+01 0.87378974890E+01 0.11177876068E+02
 0.14391099436E+02 0.18466020560E+02 0.23378174495E+02 0.28961802380E+02 0.34955699198E+02
 0.40913491853E+02 0.45914198496E+02 0.48967572360E+02 0.49306077781E+02 0.46607074428E+02
 0.41157480004E+02 0.33936205664E+02 0.26575811857E+02 0.21097096647E+02 0.19343243193E+02
 0.22271081914E+02 0.29508697247E+02 0.39556714748E+02 0.50623069937E+02 0.61619055797E+02
 0.72688091440E+02 0.84925653063E+02 0.99455603764E+02 0.11620619917E+03 0.13344773642E+03
 0.14834285851E+03 0.15763204459E+03 0.15805442682E+03 0.14822077867E+03 0.12979562354E+03
 0.10652486385E+03 0.82499106027E+02 0.61180051473E+02 0.47000745158E+02 0.34070677477E+02
 0.24419877152E+02 0.17333190148E+02 0.12216761162E+02 0.86531462208E+01 0.63223996099E+01
 0.49508675977E+01 0.42997112812E+01 0.41732057693E+01 0.44458129710E+01 0.50860523924E+01
 0.61448337754E+01 0.77214956857E+01 0.99479060247E+01 0.12984220747E+02 0.16979277955E+02
 0.21994425680E+02 0.27953866832E+02 0.34658728478E+02 0.41819178011E+02 0.48911379730E+02
 0.54953241168E+02 0.58903855076E+02 0.59937863804E+02 0.57676164206E+02 0.52393840945E+02
 0.45141674208E+02 0.37649520927E+02 0.31907192161E+02 0.29508697251E+02 0.31068185917E+02
 0.36058770707E+02 0.43216710576E+02 0.51317814860E+02 0.59881431790E+02 0.69362971402E+02
 0.80687019171E+02 0.94222899832E+02 0.10908625107E+03 0.12323895255E+03 0.13387122830E+03
 0.13818229739E+03 0.13421994278E+03 0.12206814652E+03 0.10395957157E+03 0.83337587260E+02
 0.63627579867E+02 0.47337295719E+02 0.35093031433E+02 0.25591969074E+02 0.18419976832E+02
 0.13109623364E+02 0.93014398545E+01 0.67210424407E+01 0.51241002283E+01 0.42793038268E+01
 0.39875163415E+01 0.41146513799E+01 0.46134638898E+01 0.55192856228E+01 0.69302983144E+01
 0.89932761490E+01 0.11891366471E+02 0.15809936641E+02 0.20878373675E+02 0.27119234740E+02
 0.34427225365E+02 0.42560419920E+02 0.51114490189E+02 0.59395190785E+02 0.66265097288E+02
 0.70553932445E+02 0.71390558427E+02 0.68487097525E+02 0.62343095834E+02 0.54255415325E+02
 0.46047932395E+02 0.39556714756E+02 0.36058770710E+02 0.35908755094E+02 0.38583020605E+02
 0.43134109209E+02 0.48817356566E+02 0.55515829434E+02 0.63683511174E+02 0.73684913045E+02
 0.85196485860E+02 0.97050067734E+02 0.10726128283E+03 0.11345671027E+03 0.11364316131E+03
 0.10705756126E+03 0.94641806363E+02 0.78762847266E+02 0.62252231499E+02 0.45116960088E+02
 0.34414736244E+02 0.25676903444E+02 0.18822685092E+02 0.13589169998E+02 0.97251396372E+01
 0.70212766172E+01 0.52765643365E+01 0.42847645626E+01 0.38573845727E+01 0.38596423031E+01
 0.42349855790E+01 0.50095568220E+01 0.62824705637E+01 0.82109452469E+01 0.10991268156E+02
 0.14830603442E+02 0.19910609972E+02 0.26350275322E+02 0.34166638083E+02 0.43218721613E+02
 0.53129515686E+02 0.63216284638E+02 0.72453741106E+02 0.79459548349E+02 0.82962589893E+02
 0.82246800966E+02 0.77412777497E+02 0.69421712833E+02 0.59880899835E+02 0.50623069945E+02
 0.43216710581E+02 0.38583020607E+02 0.36868026655E+02 0.37623747842E+02 0.40210672351E+02