   9   9   0   0
  0.1255774E+02  0.4913700E-09  0.4913700E-09  0.5405130E-09  0.5000000E-15
  1.000000000000000E-004
  CAR 
 unknown system                          
     13.66323645    -20.37670813  301      1.09682358      1.00000000
    -20.377  0.0000E+00  0.0000E+00
    -20.263  0.0000E+00  0.0000E+00
    -20.150  0.0000E+00  0.0000E+00
    -20.036  0.0000E+00  0.0000E+00
    -19.923  0.0000E+00  0.0000E+00
    -19.809  0.0000E+00  0.0000E+00
    -19.696  0.0000E+00  0.0000E+00
    -19.582  0.0000E+00  0.0000E+00
    -19.469  0.0000E+00  0.0000E+00
    -19.356  0.0000E+00  0.0000E+00
    -19.242  0.0000E+00  0.0000E+00
    -19.129  0.0000E+00  0.0000E+00
    -19.015  0.0000E+00  0.0000E+00
    -18.902  0.0000E+00  0.0000E+00
    -18.788  0.0000E+00  0.0000E+00
    -18.675  0.0000E+00  0.0000E+00
    -18.561  0.0000E+00  0.0000E+00
    -18.448  0.0000E+00  0.0000E+00
    -18.334  0.4778E-01  0.6752E-03
    -18.221  0.6457E+00  0.3355E-01
    -18.107  0.2427E+01  0.1866E+00
    -17.994  0.5688E+01  0.6488E+00
    -17.880  0.7254E+01  0.1498E+01
    -17.767  0.1136E+01  0.1953E+01
    -17.654  0.7112E-02  0.2000E+01
    -17.540  0.2555E+01  0.2066E+01
    -17.427  0.9508E+01  0.2848E+01
    -17.313  0.4017E+01  0.3572E+01
    -17.200  0.1132E+01  0.3879E+01
    -17.086  0.4721E+00  0.3961E+01
    -16.973  0.2909E+00  0.3995E+01
    -16.859  0.4173E+01  0.4202E+01
    -16.746  0.8854E+01  0.5216E+01
    -16.632  0.1967E+01  0.5715E+01
    -16.519  0.1107E+01  0.5887E+01
    -16.405  0.4606E+00  0.5974E+01
    -16.292  0.2669E-01  0.6000E+01
    -16.178  0.8951E+02  0.1120E+02
    -16.065  0.0000E+00  0.1200E+02
    -15.952  0.0000E+00  0.1200E+02
    -15.838  0.0000E+00  0.1200E+02
    -15.725  0.0000E+00  0.1200E+02
    -15.611  0.0000E+00  0.1200E+02
    -15.498  0.0000E+00  0.1200E+02
    -15.384  0.0000E+00  0.1200E+02
    -15.271  0.0000E+00  0.1200E+02
    -15.157  0.0000E+00  0.1200E+02
    -15.044  0.0000E+00  0.1200E+02
    -14.930  0.0000E+00  0.1200E+02
    -14.817  0.0000E+00  0.1200E+02
    -14.703  0.0000E+00  0.1200E+02
    -14.590  0.0000E+00  0.1200E+02
    -14.476  0.0000E+00  0.1200E+02
    -14.363  0.0000E+00  0.1200E+02
    -14.250  0.0000E+00  0.1200E+02
    -14.136  0.0000E+00  0.1200E+02
    -14.023  0.0000E+00  0.1200E+02
    -13.909  0.0000E+00  0.1200E+02
    -13.796  0.0000E+00  0.1200E+02
    -13.682  0.0000E+00  0.1200E+02
    -13.569  0.0000E+00  0.1200E+02
    -13.455  0.0000E+00  0.1200E+02
    -13.342  0.0000E+00  0.1200E+02
    -13.228  0.0000E+00  0.1200E+02
    -13.115  0.0000E+00  0.1200E+02
    -13.001  0.0000E+00  0.1200E+02
    -12.888  0.0000E+00  0.1200E+02
    -12.774  0.0000E+00  0.1200E+02
    -12.661  0.0000E+00  0.1200E+02
    -12.548  0.0000E+00  0.1200E+02
    -12.434  0.0000E+00  0.1200E+02
    -12.321  0.0000E+00  0.1200E+02
    -12.207  0.0000E+00  0.1200E+02
    -12.094  0.0000E+00  0.1200E+02
    -11.980  0.0000E+00  0.1200E+02
    -11.867  0.0000E+00  0.1200E+02
    -11.753  0.0000E+00  0.1200E+02
    -11.640  0.0000E+00  0.1200E+02
    -11.526  0.0000E+00  0.1200E+02
    -11.413  0.0000E+00  0.1200E+02
    -11.299  0.0000E+00  0.1200E+02
    -11.186  0.0000E+00  0.1200E+02
    -11.072  0.0000E+00  0.1200E+02
    -10.959  0.0000E+00  0.1200E+02
    -10.846  0.0000E+00  0.1200E+02
    -10.732  0.0000E+00  0.1200E+02
    -10.619  0.0000E+00  0.1200E+02
    -10.505  0.0000E+00  0.1200E+02
    -10.392  0.0000E+00  0.1200E+02
    -10.278  0.0000E+00  0.1200E+02
    -10.165  0.0000E+00  0.1200E+02
    -10.051  0.0000E+00  0.1200E+02
     -9.938  0.0000E+00  0.1200E+02
     -9.824  0.0000E+00  0.1200E+02
     -9.711  0.0000E+00  0.1200E+02
     -9.597  0.0000E+00  0.1200E+02
     -9.484  0.0000E+00  0.1200E+02
     -9.370  0.0000E+00  0.1200E+02
     -9.257  0.0000E+00  0.1200E+02
     -9.144  0.0000E+00  0.1200E+02
     -9.030  0.0000E+00  0.1200E+02
     -8.917  0.0000E+00  0.1200E+02
     -8.803  0.0000E+00  0.1200E+02
     -8.690  0.0000E+00  0.1200E+02
     -8.576  0.0000E+00  0.1200E+02
     -8.463  0.0000E+00  0.1200E+02
     -8.349  0.0000E+00  0.1200E+02
     -8.236  0.0000E+00  0.1200E+02
     -8.122  0.3169E-01  0.1200E+02
     -8.009  0.1989E+00  0.1201E+02
     -7.895  0.4198E+00  0.1205E+02
     -7.782  0.6945E+00  0.1211E+02
     -7.668  0.1023E+01  0.1221E+02
     -7.555  0.1405E+01  0.1234E+02
     -7.442  0.5028E+01  0.1270E+02
     -7.328  0.6041E+01  0.1338E+02
     -7.215  0.2168E+01  0.1384E+02
     -7.101  0.5375E+00  0.1398E+02
     -6.988  0.5645E-01  0.1400E+02
     -6.874  0.1409E+00  0.1401E+02
     -6.761  0.2634E+00  0.1404E+02
     -6.647  0.4238E+00  0.1408E+02
     -6.534  0.8860E+00  0.1414E+02
     -6.420  0.1601E+01  0.1428E+02
     -6.307  0.2176E+01  0.1450E+02
     -6.193  0.3764E+01  0.1479E+02
     -6.080  0.7003E+01  0.1541E+02
     -5.966  0.2136E+01  0.1581E+02
     -5.853  0.7076E+00  0.1597E+02
     -5.740  0.6628E-01  0.1600E+02
     -5.626  0.9230E-02  0.1600E+02
     -5.513  0.2931E+00  0.1601E+02
     -5.399  0.1501E+01  0.1611E+02
     -5.286  0.2763E+01  0.1635E+02
     -5.172  0.3961E+01  0.1673E+02
     -5.059  0.2718E+01  0.1709E+02
     -4.945  0.2408E+01  0.1738E+02
     -4.832  0.1916E+01  0.1763E+02
     -4.718  0.1273E+01  0.1781E+02
     -4.605  0.7921E+00  0.1793E+02
     -4.491  0.8493E+00  0.1799E+02
     -4.378  0.1366E+02  0.1845E+02
     -4.264  0.8760E+01  0.2023E+02
     -4.151  0.5322E+01  0.2088E+02
     -4.038  0.4589E+01  0.2145E+02
     -3.924  0.8814E+00  0.2208E+02
     -3.811  0.1011E+02  0.2294E+02
     -3.697  0.3164E+01  0.2376E+02
     -3.584  0.7839E+00  0.2397E+02
     -3.470  0.0000E+00  0.2400E+02
     -3.357  0.0000E+00  0.2400E+02
     -3.243  0.0000E+00  0.2400E+02
     -3.130  0.0000E+00  0.2400E+02
     -3.016  0.0000E+00  0.2400E+02
     -2.903  0.0000E+00  0.2400E+02
     -2.789  0.0000E+00  0.2400E+02
     -2.676  0.0000E+00  0.2400E+02
     -2.562  0.0000E+00  0.2400E+02
     -2.449  0.0000E+00  0.2400E+02
     -2.336  0.0000E+00  0.2400E+02
     -2.222  0.0000E+00  0.2400E+02
     -2.109  0.1434E+02  0.2469E+02
     -1.995  0.5441E+01  0.2570E+02
     -1.882  0.4168E+00  0.2600E+02
     -1.768  0.1181E+02  0.2735E+02
     -1.655  0.4473E+01  0.2816E+02
     -1.541  0.7816E+01  0.2886E+02
     -1.428  0.7170E+01  0.2971E+02
     -1.314  0.2149E+01  0.3003E+02
     -1.201  0.1245E+02  0.3075E+02
     -1.087  0.4496E+01  0.3167E+02
     -0.974  0.1670E+02  0.3237E+02
     -0.860  0.2472E+01  0.3381E+02
     -0.747  0.3215E+01  0.3405E+02
     -0.634  0.5906E+01  0.3457E+02
     -0.520  0.1218E+02  0.3572E+02
     -0.407  0.7901E+01  0.3696E+02
     -0.293  0.5655E+01  0.3771E+02
     -0.180  0.3315E+01  0.3820E+02
     -0.066  0.1170E+02  0.3954E+02
      0.047  0.8406E+01  0.4041E+02
      0.161  0.4059E+01  0.4200E+02
      0.274  0.2214E+01  0.4201E+02
      0.388  0.1077E+02  0.4315E+02
      0.501  0.2687E+01  0.4384E+02
      0.615  0.6248E+01  0.4427E+02
      0.728  0.7600E+01  0.4510E+02
      0.842  0.8029E+01  0.4603E+02
      0.955  0.1198E+02  0.4709E+02
      1.068  0.6567E+00  0.4799E+02
      1.182  0.0000E+00  0.4800E+02
      1.295  0.0000E+00  0.4800E+02
      1.409  0.0000E+00  0.4800E+02
      1.522  0.0000E+00  0.4800E+02
      1.636  0.0000E+00  0.4800E+02
      1.749  0.0000E+00  0.4800E+02
      1.863  0.0000E+00  0.4800E+02
      1.976  0.0000E+00  0.4800E+02
      2.090  0.0000E+00  0.4800E+02
      2.203  0.0000E+00  0.4800E+02
      2.317  0.0000E+00  0.4800E+02
      2.430  0.0000E+00  0.4800E+02
      2.544  0.0000E+00  0.4800E+02
      2.657  0.0000E+00  0.4800E+02
      2.770  0.0000E+00  0.4800E+02
      2.884  0.0000E+00  0.4800E+02
      2.997  0.0000E+00  0.4800E+02
      3.111  0.0000E+00  0.4800E+02
      3.224  0.0000E+00  0.4800E+02
      3.338  0.0000E+00  0.4800E+02
      3.451  0.0000E+00  0.4800E+02
      3.565  0.0000E+00  0.4800E+02
      3.678  0.0000E+00  0.4800E+02
      3.792  0.0000E+00  0.4800E+02
      3.905  0.0000E+00  0.4800E+02
      4.019  0.0000E+00  0.4800E+02
      4.132  0.0000E+00  0.4800E+02
      4.246  0.0000E+00  0.4800E+02
      4.359  0.0000E+00  0.4800E+02
      4.472  0.0000E+00  0.4800E+02
      4.586  0.0000E+00  0.4800E+02
      4.699  0.0000E+00  0.4800E+02
      4.813  0.0000E+00  0.4800E+02
      4.926  0.0000E+00  0.4800E+02
      5.040  0.0000E+00  0.4800E+02
      5.153  0.0000E+00  0.4800E+02
      5.267  0.0000E+00  0.4800E+02
      5.380  0.0000E+00  0.4800E+02
      5.494  0.0000E+00  0.4800E+02
      5.607  0.0000E+00  0.4800E+02
      5.721  0.0000E+00  0.4800E+02
      5.834  0.0000E+00  0.4800E+02
      5.948  0.0000E+00  0.4800E+02
      6.061  0.0000E+00  0.4800E+02
      6.174  0.0000E+00  0.4800E+02
      6.288  0.0000E+00  0.4800E+02
      6.401  0.0000E+00  0.4800E+02
      6.515  0.0000E+00  0.4800E+02
      6.628  0.0000E+00  0.4800E+02
      6.742  0.0000E+00  0.4800E+02
      6.855  0.0000E+00  0.4800E+02
      6.969  0.0000E+00  0.4800E+02
      7.082  0.0000E+00  0.4800E+02
      7.196  0.1640E-02  0.4800E+02
      7.309  0.9500E-02  0.4800E+02
      7.423  0.2385E-01  0.4800E+02
      7.536  0.4469E-01  0.4801E+02
      7.650  0.7203E-01  0.4801E+02
      7.763  0.1059E+00  0.4802E+02
      7.876  0.1462E+00  0.4804E+02
      7.990  0.1930E+00  0.4806E+02
      8.103  0.2463E+00  0.4808E+02
      8.217  0.3423E+00  0.4811E+02
      8.330  0.4552E+00  0.4816E+02
      8.444  0.5771E+00  0.4822E+02
      8.557  0.7235E+00  0.4829E+02
      8.671  0.9315E+00  0.4838E+02
      8.784  0.1111E+01  0.4850E+02
      8.898  0.1261E+01  0.4864E+02
      9.011  0.1382E+01  0.4879E+02
      9.125  0.1474E+01  0.4895E+02
      9.238  0.1924E+01  0.4914E+02
      9.352  0.1694E+01  0.4935E+02
      9.465  0.1457E+01  0.4953E+02
      9.578  0.1212E+01  0.4968E+02
      9.692  0.9609E+00  0.4980E+02
      9.805  0.7021E+00  0.4990E+02
      9.919  0.4362E+00  0.4996E+02
     10.032  0.3909E+00  0.5000E+02
     10.146  0.1434E+01  0.5009E+02
     10.259  0.4219E+01  0.5039E+02
     10.373  0.9126E+01  0.5113E+02
     10.486  0.5847E+01  0.5222E+02
     10.600  0.8647E+01  0.5315E+02
     10.713  0.4307E+01  0.5390E+02
     10.827  0.1511E+01  0.5421E+02
     10.940  0.2715E+01  0.5440E+02
     11.054  0.5247E+01  0.5486E+02
     11.167  0.5914E+01  0.5551E+02
     11.280  0.2336E+01  0.5596E+02
     11.394  0.6482E+01  0.5638E+02
     11.507  0.1038E+02  0.5751E+02
     11.621  0.4223E+00  0.5799E+02
     11.734  0.0000E+00  0.5800E+02
     11.848  0.0000E+00  0.5800E+02
     11.961  0.0000E+00  0.5800E+02
     12.075  0.0000E+00  0.5800E+02
     12.188  0.0000E+00  0.5800E+02
     12.302  0.0000E+00  0.5800E+02
     12.415  0.0000E+00  0.5800E+02
     12.529  0.0000E+00  0.5800E+02
     12.642  0.0000E+00  0.5800E+02
     12.756  0.0000E+00  0.5800E+02
     12.869  0.0000E+00  0.5800E+02
     12.982  0.0000E+00  0.5800E+02
     13.096  0.0000E+00  0.5800E+02
     13.209  0.0000E+00  0.5800E+02
     13.323  0.0000E+00  0.5800E+02
     13.436  0.0000E+00  0.5800E+02
     13.550  0.0000E+00  0.5800E+02
     13.663  0.0000E+00  0.5800E+02
