Automatically generated mesh
      10
Reciprocal lattice
    0.00000000000000    0.00000000000000    0.00000000000000             1
    0.33333333333333    0.00000000000000    0.00000000000000             4
    0.33333333333333    0.33333333333333    0.00000000000000             2
   -0.33333333333333    0.33333333333333    0.00000000000000             2
    0.00000000000000    0.00000000000000    0.33333333333333             2
    0.33333333333333    0.00000000000000    0.33333333333333             4
   -0.33333333333333    0.00000000000000    0.33333333333333             4
    0.33333333333333    0.33333333333333    0.33333333333333             4
   -0.33333333333333    0.33333333333333    0.33333333333333             2
    0.33333333333333   -0.33333333333333    0.33333333333333             2
Tetrahedra
        40    0.00617283950617
         4         2         2         3         7
         4         1         2         2         7
         4         1         2         5         7
         4         2         3         7         8
         8         2         6         7         8
         4         2         5         6         7
         4         2         3         4         8
         4         2         2         3         8
         4         2         2         6         8
         4         2         4         8         9
         4         2         7         8         9
         4         1         2         4         9
         4         1         2         7         9
         4         1         5         7         9
         4         2         3         4         6
         4         2         2         3         6
         4         2         3         6         7
         4         3         4         6        10
         4         3         6         8        10
         4         3         6         7         8
         4         3         4         4        10
         4         3         4         8        10
         4         4         8         9        10
         4         1         2         4         5
         4         2         4         5         6
         4         4         5         6        10
         4         6         6         7         8
         4         5         6         6         7
         2         5         5         6         6
         2         6         6         8         8
         4         7         8         8         9
         4         6         7         8         8
         8         6         7         7         8
         4         7         8         9        10
         4         6         7         8        10
         4         5         7         9        10
         4         5         6         7        10
         4         5         5         6        10
         4         8         9         9        10
         2         8         8         9         9
