       N       E                     dE             d eps       ncg     rms          rms(c)
DAV:   1     0.273251856577E+03    0.27325E+03   -0.22639E+04   588   0.125E+03
DAV:   2    -0.639869616924E+02   -0.33724E+03   -0.33101E+03   774   0.318E+02
DAV:   3    -0.803639894615E+02   -0.16377E+02   -0.16337E+02   680   0.802E+01
DAV:   4    -0.805611163171E+02   -0.19713E+00   -0.19688E+00   688   0.948E+00
DAV:   5    -0.805646268997E+02   -0.35106E-02   -0.35096E-02   660   0.124E+00    0.184E+01
RMM:   6    -0.711625387622E+02    0.94021E+01   -0.40173E+01   623   0.331E+01    0.516E+00
RMM:   7    -0.711405777582E+02    0.21961E-01   -0.17881E+00   669   0.611E+00    0.339E+00
RMM:   8    -0.711562070311E+02   -0.15629E-01   -0.26913E-01   651   0.404E+00    0.636E-01
RMM:   9    -0.711479754090E+02    0.82316E-02   -0.51693E-02   678   0.119E+00    0.137E-01
RMM:  10    -0.711514341412E+02   -0.34587E-02   -0.20728E-02   669   0.742E-01    0.251E-01
RMM:  11    -0.711498519720E+02    0.15822E-02   -0.32687E-03   678   0.328E-01    0.738E-02
RMM:  12    -0.711497778345E+02    0.74137E-04   -0.10499E-03   675   0.168E-01    0.617E-03
RMM:  13    -0.711497816779E+02   -0.38434E-05   -0.31150E-05   506   0.318E-02
   1 F= -.71149782E+02 E0= -.71149782E+02  d E =0.000000E+00
