<?xml version="1.0" encoding="ISO-8859-1"?>
<modeling>
 <generator>
  <i name="program" type="string">vasp </i>
  <i name="version" type="string">5.4.1  </i>
  <i name="subversion" type="string">05Feb16 (build Mar 02 2016 14:09:44) complex                          parallel </i>
  <i name="platform" type="string">Abel-impi-ifc-cuda </i>
  <i name="date" type="string">2019 09 13 </i>
  <i name="time" type="string">12:00:45 </i>
 </generator>
 <incar>
  <i type="string" name="PREC">normal    ! low/normal/accurate</i>
  <i type="string" name="ALGO"> Fast      ! Algorithm for electronic re</i>
  <i type="int" name="ISPIN">     1</i>
  <i type="int" name="NELMIN">     4</i>
  <i name="EDIFF">      0.00001000</i>
  <i type="int" name="NSW">     0</i>
  <i name="ENCUT">    400.00000000</i>
  <i type="string" name="LREAL"> Auto      ! Projection in reciprocal sp</i>
  <i type="int" name="ISMEAR">    -5</i>
  <i name="SIGMA">      0.20000000</i>
  <i type="logical" name="LWAVE"> F  </i>
  <v type="int" name="KPOINT_BSE">    -1     0     0     0</v>
 </incar>
 <kpoints>
  <generation param="Gamma">
   <v type="int" name="divisions">       3        3        3 </v>
   <v name="usershift">      0.00000000       0.00000000       0.00000000 </v>
   <v name="genvec1">      0.33333333       0.00000000       0.00000000 </v>
   <v name="genvec2">      0.00000000       0.33333333       0.00000000 </v>
   <v name="genvec3">      0.00000000       0.00000000       0.33333333 </v>
   <v name="shift">      0.00000000       0.00000000       0.00000000 </v>
  </generation>
  <varray name="kpointlist" >
   <v>       0.00000000       0.00000000       0.00000000 </v>
   <v>       0.33333333       0.00000000       0.00000000 </v>
   <v>       0.33333333       0.33333333       0.00000000 </v>
   <v>      -0.33333333       0.33333333       0.00000000 </v>
   <v>       0.00000000       0.00000000       0.33333333 </v>
   <v>       0.33333333       0.00000000       0.33333333 </v>
   <v>      -0.33333333       0.00000000       0.33333333 </v>
   <v>       0.33333333       0.33333333       0.33333333 </v>
   <v>      -0.33333333       0.33333333       0.33333333 </v>
   <v>       0.33333333      -0.33333333       0.33333333 </v>
  </varray>
  <varray name="weights" >
   <v>       0.03703704 </v>
   <v>       0.14814815 </v>
   <v>       0.07407407 </v>
   <v>       0.07407407 </v>
   <v>       0.07407407 </v>
   <v>       0.14814815 </v>
   <v>       0.14814815 </v>
   <v>       0.14814815 </v>
   <v>       0.07407407 </v>
   <v>       0.07407407 </v>
  </varray>
  <varray name="tetrahedronlist"  type="int" >
   <v type="int" >        4        2        2        3        7 </v>
   <v type="int" >        4        1        2        2        7 </v>
   <v type="int" >        4        1        2        5        7 </v>
   <v type="int" >        4        2        3        7        8 </v>
   <v type="int" >        8        2        6        7        8 </v>
   <v type="int" >        4        2        5        6        7 </v>
   <v type="int" >        4        2        3        4        8 </v>
   <v type="int" >        4        2        2        3        8 </v>
   <v type="int" >        4        2        2        6        8 </v>
   <v type="int" >        4        2        4        8        9 </v>
   <v type="int" >        4        2        7        8        9 </v>
   <v type="int" >        4        1        2        4        9 </v>
   <v type="int" >        4        1        2        7        9 </v>
   <v type="int" >        4        1        5        7        9 </v>
   <v type="int" >        4        2        3        4        6 </v>
   <v type="int" >        4        2        2        3        6 </v>
   <v type="int" >        4        2        3        6        7 </v>
   <v type="int" >        4        3        4        6       10 </v>
   <v type="int" >        4        3        6        8       10 </v>
   <v type="int" >        4        3        6        7        8 </v>
   <v type="int" >        4        3        4        4       10 </v>
   <v type="int" >        4        3        4        8       10 </v>
   <v type="int" >        4        4        8        9       10 </v>
   <v type="int" >        4        1        2        4        5 </v>
   <v type="int" >        4        2        4        5        6 </v>
   <v type="int" >        4        4        5        6       10 </v>
   <v type="int" >        4        6        6        7        8 </v>
   <v type="int" >        4        5        6        6        7 </v>
   <v type="int" >        2        5        5        6        6 </v>
   <v type="int" >        2        6        6        8        8 </v>
   <v type="int" >        4        7        8        8        9 </v>
   <v type="int" >        4        6        7        8        8 </v>
   <v type="int" >        8        6        7        7        8 </v>
   <v type="int" >        4        7        8        9       10 </v>
   <v type="int" >        4        6        7        8       10 </v>
   <v type="int" >        4        5        7        9       10 </v>
   <v type="int" >        4        5        6        7       10 </v>
   <v type="int" >        4        5        5        6       10 </v>
   <v type="int" >        4        8        9        9       10 </v>
   <v type="int" >        2        8        8        9        9 </v>
  </varray>
  <i name="volumeweight">      0.00617284 </i>
 </kpoints>
 <parameters>
  <separator name="general" >
   <i type="string" name="SYSTEM">unknown system</i>
   <i type="logical" name="LCOMPAT"> F  </i>
  </separator>
  <separator name="electronic" >
   <i type="string" name="PREC">normal</i>
   <i name="ENMAX">    400.00000000</i>
   <i name="ENAUG">    605.39200000</i>
   <i name="EDIFF">      0.00001000</i>
   <i type="int" name="IALGO">    68</i>
   <i type="int" name="IWAVPR">    10</i>
   <i type="int" name="NBANDS">    29</i>
   <i name="NELECT">     48.00000000</i>
   <i type="int" name="TURBO">     0</i>
   <i type="int" name="IRESTART">     0</i>
   <i type="int" name="NREBOOT">     0</i>
   <i type="int" name="NMIN">     0</i>
   <i name="EREF">      0.00000000</i>
   <separator name="electronic smearing" >
    <i type="int" name="ISMEAR">    -5</i>
    <i name="SIGMA">      0.20000000</i>
    <i name="KSPACING">      0.50000000</i>
    <i type="logical" name="KGAMMA"> T  </i>
   </separator>
   <separator name="electronic projectors" >
    <i type="logical" name="LREAL"> T  </i>
    <v name="ROPT">     -0.00050000     -0.00050000</v>
    <i type="int" name="LMAXPAW">  -100</i>
    <i type="int" name="LMAXMIX">     2</i>
    <i type="logical" name="NLSPLINE"> F  </i>
   </separator>
   <separator name="electronic startup" >
    <i type="int" name="ISTART">     0</i>
    <i type="int" name="ICHARG">     2</i>
    <i type="int" name="INIWAV">     1</i>
   </separator>
   <separator name="electronic spin" >
    <i type="int" name="ISPIN">     1</i>
    <i type="logical" name="LNONCOLLINEAR"> F  </i>
    <v name="MAGMOM">      1.00000000      1.00000000      1.00000000      1.00000000      1.00000000      1.00000000      1.00000000      1.00000000      1.00000000</v>
    <i name="NUPDOWN">     -1.00000000</i>
    <i type="logical" name="LSORBIT"> F  </i>
    <v name="SAXIS">      0.00000000      0.00000000      1.00000000</v>
    <i type="logical" name="LSPIRAL"> F  </i>
    <v name="QSPIRAL">      0.00000000      0.00000000      0.00000000</v>
    <i type="logical" name="LZEROZ"> F  </i>
   </separator>
   <separator name="electronic exchange-correlation" >
    <i type="logical" name="LASPH"> F  </i>
    <i type="logical" name="LMETAGGA"> F  </i>
   </separator>
   <separator name="electronic convergence" >
    <i type="int" name="NELM">    60</i>
    <i type="int" name="NELMDL">    -5</i>
    <i type="int" name="NELMIN">     4</i>
    <i name="ENINI">    400.00000000</i>
    <separator name="electronic convergence detail" >
     <i type="logical" name="LDIAG"> T  </i>
     <i type="logical" name="LSUBROT"> F  </i>
     <i name="WEIMIN">      0.00000000</i>
     <i name="EBREAK">      0.00000009</i>
     <i name="DEPER">      0.30000000</i>
     <i type="int" name="NRMM">     4</i>
     <i name="TIME">      0.40000000</i>
    </separator>
   </separator>
   <separator name="electronic mixer" >
    <i name="AMIX">      0.40000000</i>
    <i name="BMIX">      1.00000000</i>
    <i name="AMIN">      0.10000000</i>
    <i name="AMIX_MAG">      1.60000000</i>
    <i name="BMIX_MAG">      1.00000000</i>
    <separator name="electronic mixer details" >
     <i type="int" name="IMIX">     4</i>
     <i type="logical" name="MIXFIRST"> F  </i>
     <i type="int" name="MAXMIX">   -45</i>
     <i name="WC">    100.00000000</i>
     <i type="int" name="INIMIX">     1</i>
     <i type="int" name="MIXPRE">     1</i>
     <i type="int" name="MREMOVE">     5</i>
    </separator>
   </separator>
   <separator name="electronic dipolcorrection" >
    <i type="logical" name="LDIPOL"> F  </i>
    <i type="logical" name="LMONO"> F  </i>
    <i type="int" name="IDIPOL">     0</i>
    <i name="EPSILON">      1.00000000</i>
    <v name="DIPOL">   -100.00000000   -100.00000000   -100.00000000</v>
    <i name="EFIELD">      0.00000000</i>
   </separator>
  </separator>
  <separator name="grids" >
   <i type="int" name="NGX">    24</i>
   <i type="int" name="NGY">    24</i>
   <i type="int" name="NGZ">    28</i>
   <i type="int" name="NGXF">    48</i>
   <i type="int" name="NGYF">    48</i>
   <i type="int" name="NGZF">    56</i>
   <i type="logical" name="ADDGRID"> F  </i>
  </separator>
  <separator name="ionic" >
   <i type="int" name="NSW">     0</i>
   <i type="int" name="IBRION">    -1</i>
   <i type="int" name="ISIF">     2</i>
   <i name="PSTRESS">      0.00000000</i>
   <i name="EDIFFG">      0.00010000</i>
   <i type="int" name="NFREE">     0</i>
   <i name="POTIM">      0.50000000</i>
   <i name="SMASS">     -3.00000000</i>
   <i name="SCALEE">      1.00000000</i>
  </separator>
  <separator name="ionic md" >
   <i name="TEBEG">      0.00010000</i>
   <i name="TEEND">      0.00010000</i>
   <i type="int" name="NBLOCK">     1</i>
   <i type="int" name="KBLOCK">     1</i>
   <i type="int" name="NPACO">   256</i>
   <i name="APACO">     16.00000000</i>
  </separator>
  <separator name="symmetry" >
   <i type="int" name="ISYM">     2</i>
   <i name="SYMPREC">      0.00001000</i>
  </separator>
  <separator name="dos" >
   <i type="logical" name="LORBIT"> F  </i>
   <v name="RWIGS">     -1.00000000     -1.00000000</v>
   <i type="int" name="NEDOS">   301</i>
   <i name="EMIN">     10.00000000</i>
   <i name="EMAX">    -10.00000000</i>
   <i name="EFERMI">      0.00000000</i>
  </separator>
  <separator name="writing" >
   <i type="int" name="NWRITE">     2</i>
   <i type="logical" name="LWAVE"> F  </i>
   <i type="logical" name="LCHARG"> T  </i>
   <i type="logical" name="LPARD"> F  </i>
   <i type="logical" name="LVTOT"> F  </i>
   <i type="logical" name="LVHAR"> F  </i>
   <i type="logical" name="LELF"> F  </i>
   <i type="logical" name="LOPTICS"> F  </i>
   <v name="STM">      0.00000000      0.00000000      0.00000000      0.00000000      0.00000000      0.00000000      0.00000000</v>
  </separator>
  <separator name="performance" >
   <i type="int" name="NPAR">     1</i>
   <i type="int" name="NSIM">     4</i>
   <i type="int" name="NBLK">    -1</i>
   <i type="logical" name="LPLANE"> T  </i>
   <i type="logical" name="LSCALAPACK"> F  </i>
   <i type="logical" name="LSCAAWARE"> F  </i>
   <i type="logical" name="LSCALU"> F  </i>
   <i type="logical" name="LASYNC"> F  </i>
   <i type="logical" name="LORBITALREAL"> F  </i>
  </separator>
  <separator name="miscellaneous" >
   <i type="int" name="IDIOT">     3</i>
   <i type="logical" name="LMUSIC"> F  </i>
   <v name="POMASS">     28.08500000     16.00000000</v>
   <v name="DARWINR">      0.00000000      0.00000000</v>
   <v name="DARWINV">      1.00000000      1.00000000</v>
   <i type="logical" name="LCORR"> T  </i>
  </separator>
  <i type="logical" name="GGA_COMPAT"> T  </i>
  <i type="logical" name="LBERRY"> F  </i>
  <i type="int" name="ICORELEVEL">     0</i>
  <i type="logical" name="LDAU"> F  </i>
  <i type="int" name="I_CONSTRAINED_M">     0</i>
  <separator name="electronic exchange-correlation" >
   <i type="string" name="GGA">--</i>
   <i type="int" name="VOSKOWN">     0</i>
   <i type="logical" name="LHFCALC"> F  </i>
   <i type="string" name="PRECFOCK"></i>
   <i type="logical" name="LSYMGRAD"> F  </i>
   <i type="logical" name="LHFONE"> F  </i>
   <i type="logical" name="LRHFCALC"> F  </i>
   <i type="logical" name="LTHOMAS"> F  </i>
   <i type="logical" name="LMODELHF"> F  </i>
   <i name="ENCUT4O">     -1.00000000</i>
   <i type="int" name="EXXOEP">     0</i>
   <i type="int" name="FOURORBIT">     0</i>
   <i name="AEXX">      0.00000000</i>
   <i name="HFALPHA">      0.00000000</i>
   <i name="MCALPHA">      0.00000000</i>
   <i name="ALDAX">      1.00000000</i>
   <i name="AGGAX">      1.00000000</i>
   <i name="ALDAC">      1.00000000</i>
   <i name="AGGAC">      1.00000000</i>
   <i type="int" name="NKREDX">     1</i>
   <i type="int" name="NKREDY">     1</i>
   <i type="int" name="NKREDZ">     1</i>
   <i type="logical" name="SHIFTRED"> F  </i>
   <i type="logical" name="ODDONLY"> F  </i>
   <i type="logical" name="EVENONLY"> F  </i>
   <i type="int" name="LMAXFOCK">     0</i>
   <i type="int" name="NMAXFOCKAE">     0</i>
   <i type="logical" name="LFOCKAEDFT"> F  </i>
   <i name="HFSCREEN">      0.00000000</i>
   <i name="HFSCREENC">      0.00000000</i>
   <i type="int" name="NBANDSGWLOW">     0</i>
  </separator>
  <separator name="vdW DFT" >
   <i type="logical" name="LUSE_VDW"> F  </i>
   <i name="Zab_VDW">     -0.84910000</i>
   <i name="PARAM1">      0.12340000</i>
   <i name="PARAM2">      1.00000000</i>
   <i name="PARAM3">      0.00000000</i>
  </separator>
  <separator name="model GW" >
   <i type="int" name="MODEL_GW">     0</i>
   <i name="MODEL_EPS0">      7.53464495</i>
   <i name="MODEL_ALPHA">      1.00000000</i>
  </separator>
  <separator name="linear response parameters" >
   <i type="logical" name="LEPSILON"> F  </i>
   <i type="logical" name="LRPA"> F  </i>
   <i type="logical" name="LNABLA"> F  </i>
   <i type="logical" name="LVEL"> F  </i>
   <i type="int" name="KINTER">     0</i>
   <i name="CSHIFT">      0.10000000</i>
   <i name="OMEGAMAX">     -1.00000000</i>
   <i name="DEG_THRESHOLD">      0.00200000</i>
  </separator>
  <separator name="orbital magnetization" >
   <i type="logical" name="NUCIND"> F  </i>
   <v name="MAGPOS">      0.00000000      0.00000000      0.00000000</v>
   <i type="logical" name="LNICSALL"> T  </i>
   <i type="logical" name="ORBITALMAG"> F  </i>
   <i type="logical" name="LMAGBLOCH"> F  </i>
   <i type="logical" name="LCHIMAG"> F  </i>
   <i type="logical" name="LGAUGE"> T  </i>
   <i type="int" name="MAGATOM">     0</i>
   <v name="MAGDIPOL">      0.00000000      0.00000000      0.00000000</v>
   <v name="AVECCONST">      0.00000000      0.00000000      0.00000000</v>
  </separator>
  <separator name="response functions" >
   <i type="logical" name="LADDER"> F  </i>
   <i type="logical" name="LFXC"> F  </i>
   <i type="logical" name="LHARTREE"> T  </i>
   <i type="int" name="IBSE">     0</i>
   <v type="int" name="KPOINT">    -1     0     0     0</v>
   <i type="logical" name="LTCTE"> F  </i>
   <i type="logical" name="LTETE"> F  </i>
   <i type="logical" name="LTRIPLET"> F  </i>
   <i type="logical" name="LFXCEPS"> F  </i>
   <i type="logical" name="LFXHEG"> F  </i>
   <i type="int" name="NATURALO">     0</i>
   <i type="logical" name="L2ORDER"> F  </i>
   <i type="logical" name="LUSEW"> F  </i>
   <i name="ENCUTGW">     -2.00000000</i>
   <i name="ENCUTGWSOFT">     -2.00000000</i>
   <i name="ENCUTLF">     -1.00000000</i>
   <i type="int" name="LMAXMP2">    -1</i>
   <i name="SCISSOR">      0.00000000</i>
   <i type="int" name="NOMEGA">     0</i>
   <i type="int" name="NOMEGAR">     0</i>
   <i type="int" name="NBANDSGW">    -1</i>
   <i type="int" name="NBANDSO">    -1</i>
   <i type="int" name="NBANDSV">    -1</i>
   <i type="int" name="NELM">     1</i>
   <i type="int" name="NELMHF">     1</i>
   <i type="int" name="DIM">     3</i>
   <i type="int" name="ANTIRES">     0</i>
   <i name="OMEGAMAX">    -30.00000000</i>
   <i name="OMEGAMIN">    -30.00000000</i>
   <i name="OMEGATL">   -200.00000000</i>
   <i type="int" name="OMEGAGRID">     0</i>
   <i name="CSHIFT">     -0.10000000</i>
   <i type="logical" name="SELFENERGY"> F  </i>
   <i type="logical" name="LSPECTRAL"> F  </i>
   <i type="logical" name="LSPECTRALGW"> F  </i>
   <i type="logical" name="LSINGLES"> F  </i>
   <i type="logical" name="LFERMIGW"> F  </i>
   <i type="logical" name="ODDONLYGW"> F  </i>
   <i type="logical" name="EVENONLYGW"> F  </i>
   <i type="int" name="NKREDLFX">     1</i>
   <i type="int" name="NKREDLFY">     1</i>
   <i type="int" name="NKREDLFZ">     1</i>
   <i type="int" name="MAXMEM">  1800</i>
   <i type="int" name="TELESCOPE">     0</i>
   <i type="int" name="TAUPAR">     1</i>
   <i type="int" name="OMEGAPAR">    -1</i>
   <i name="LAMBDA">      1.00000000</i>
  </separator>
  <separator name="External order field" >
   <i name="OFIELD_KAPPA">      0.00000000</i>
   <v name="OFIELD_K">      0.00000000      0.00000000      0.00000000</v>
   <i name="OFIELD_Q6_NEAR">      0.00000000</i>
   <i name="OFIELD_Q6_FAR">      0.00000000</i>
   <i name="OFIELD_A">      0.00000000</i>
  </separator>
 </parameters>
 <atominfo>
  <atoms>       9 </atoms>
  <types>       2 </types>
  <array name="atoms" >
   <dimension dim="1">ion</dimension>
   <field type="string">element</field>
   <field type="int">atomtype</field>
   <set>
    <rc><c>Si</c><c>   1</c></rc>
    <rc><c>Si</c><c>   1</c></rc>
    <rc><c>Si</c><c>   1</c></rc>
    <rc><c>O </c><c>   2</c></rc>
    <rc><c>O </c><c>   2</c></rc>
    <rc><c>O </c><c>   2</c></rc>
    <rc><c>O </c><c>   2</c></rc>
    <rc><c>O </c><c>   2</c></rc>
    <rc><c>O </c><c>   2</c></rc>
   </set>
  </array>
  <array name="atomtypes" >
   <dimension dim="1">type</dimension>
   <field type="int">atomspertype</field>
   <field type="string">element</field>
   <field>mass</field>
   <field>valence</field>
   <field type="string">pseudopotential</field>
   <set>
    <rc><c>   3</c><c>Si</c><c>     28.08500000</c><c>      4.00000000</c><c> PAW_PBE Si 05Jan2001                   </c></rc>
    <rc><c>   6</c><c>O </c><c>     16.00000000</c><c>      6.00000000</c><c> PAW_PBE O 08Apr2002                    </c></rc>
   </set>
  </array>
 </atominfo>
 <structure name="initialpos" >
  <crystal>
   <varray name="basis" >
    <v>       4.91370000       0.00000000       0.00000000 </v>
    <v>      -2.45685000       4.25538903       0.00000000 </v>
    <v>       0.00000000       0.00000000       5.40513000 </v>
   </varray>
   <i name="volume">    113.01967420 </i>
   <varray name="rec_basis" >
    <v>       0.20351263       0.11749807       0.00000000 </v>
    <v>       0.00000000       0.23499614       0.00000000 </v>
    <v>       0.00000000       0.00000000       0.18500943 </v>
   </varray>
  </crystal>
  <varray name="positions" >
   <v>       0.46980000       0.00000000       0.66667000 </v>
   <v>       0.00000000       0.46980000       0.33333000 </v>
   <v>       0.53020000       0.53020000       0.00000000 </v>
   <v>       0.41450000       0.26620000       0.78560000 </v>
   <v>       0.73380000       0.14830000       0.45227000 </v>
   <v>       0.85170000       0.58550000       0.11893000 </v>
   <v>       0.14830000       0.73380000       0.54773000 </v>
   <v>       0.26620000       0.41450000       0.21440000 </v>
   <v>       0.58550000       0.85170000       0.88107000 </v>
  </varray>
 </structure>
 <calculation>
  <scstep>
   <time name="dav">    0.78    0.78</time>
   <time name="total">    0.87    0.89</time>
   <energy>
    <i name="alphaZ">     69.72802778 </i>
    <i name="ewald">  -1887.20590689 </i>
    <i name="hartreedc">   -937.14514242 </i>
    <i name="XCdc">    142.01294050 </i>
    <i name="pawpsdc">   1574.92322788 </i>
    <i name="pawaedc">  -1533.24131965 </i>
    <i name="eentropy">      0.00000000 </i>
    <i name="bandstr">    -58.59638553 </i>
    <i name="atom">   2902.77641490 </i>
    <i name="e_fr_energy">    273.25185658 </i>
    <i name="e_wo_entrp">    273.25185658 </i>
    <i name="e_0_energy">    273.25185658 </i>
   </energy>
  </scstep>
  <scstep>
   <time name="dav">    1.00    1.00</time>
   <time name="total">    1.00    1.01</time>
   <energy>
    <i name="e_fr_energy">    -63.98696169 </i>
    <i name="e_wo_entrp">    -63.98696169 </i>
    <i name="e_0_energy">    -63.98696169 </i>
   </energy>
  </scstep>
  <scstep>
   <time name="dav">    0.94    0.94</time>
   <time name="total">    0.94    0.95</time>
   <energy>
    <i name="e_fr_energy">    -80.36398946 </i>
    <i name="e_wo_entrp">    -80.36398946 </i>
    <i name="e_0_energy">    -80.36398946 </i>
   </energy>
  </scstep>
  <scstep>
   <time name="dav">    0.95    0.95</time>
   <time name="total">    0.96    0.97</time>
   <energy>
    <i name="e_fr_energy">    -80.56111632 </i>
    <i name="e_wo_entrp">    -80.56111632 </i>
    <i name="e_0_energy">    -80.56111632 </i>
   </energy>
  </scstep>
  <scstep>
   <time name="dav">    0.92    0.92</time>
   <time name="total">    0.98    1.05</time>
   <energy>
    <i name="e_fr_energy">    -80.56462690 </i>
    <i name="e_wo_entrp">    -80.56462690 </i>
    <i name="e_0_energy">    -80.56462690 </i>
   </energy>
  </scstep>
  <scstep>
   <time name="diag">    0.14    0.14</time>
   <time name="diis">    0.59    0.59</time>
   <time name="orth">    0.01    0.02</time>
   <time name="total">    0.89    0.90</time>
   <energy>
    <i name="e_fr_energy">    -71.16253876 </i>
    <i name="e_wo_entrp">    -71.16253876 </i>
    <i name="e_0_energy">    -71.16253876 </i>
   </energy>
  </scstep>
  <scstep>
   <time name="diag">    0.14    0.14</time>
   <time name="diis">    0.64    0.64</time>
   <time name="orth">    0.01    0.02</time>
   <time name="total">    0.93    0.94</time>
   <energy>
    <i name="e_fr_energy">    -71.14057776 </i>
    <i name="e_wo_entrp">    -71.14057776 </i>
    <i name="e_0_energy">    -71.14057776 </i>
   </energy>
  </scstep>
  <scstep>
   <time name="diag">    0.14    0.14</time>
   <time name="diis">    0.62    0.62</time>
   <time name="orth">    0.01    0.02</time>
   <time name="total">    0.91    0.92</time>
   <energy>
    <i name="e_fr_energy">    -71.15620703 </i>
    <i name="e_wo_entrp">    -71.15620703 </i>
    <i name="e_0_energy">    -71.15620703 </i>
   </energy>
  </scstep>
  <scstep>
   <time name="diag">    0.14    0.14</time>
   <time name="diis">    0.64    0.64</time>
   <time name="orth">    0.02    0.02</time>
   <time name="total">    0.94    0.94</time>
   <energy>
    <i name="e_fr_energy">    -71.14797541 </i>
    <i name="e_wo_entrp">    -71.14797541 </i>
    <i name="e_0_energy">    -71.14797541 </i>
   </energy>
  </scstep>
  <scstep>
   <time name="diag">    0.14    0.14</time>
   <time name="diis">    0.64    0.64</time>
   <time name="orth">    0.02    0.02</time>
   <time name="total">    0.94    0.94</time>
   <energy>
    <i name="e_fr_energy">    -71.15143414 </i>
    <i name="e_wo_entrp">    -71.15143414 </i>
    <i name="e_0_energy">    -71.15143414 </i>
   </energy>
  </scstep>
  <scstep>
   <time name="diag">    0.14    0.14</time>
   <time name="diis">    0.65    0.65</time>
   <time name="orth">    0.01    0.02</time>
   <time name="total">    0.94    0.95</time>
   <energy>
    <i name="e_fr_energy">    -71.14985197 </i>
    <i name="e_wo_entrp">    -71.14985197 </i>
    <i name="e_0_energy">    -71.14985197 </i>
   </energy>
  </scstep>
  <scstep>
   <time name="diag">    0.14    0.14</time>
   <time name="diis">    0.64    0.64</time>
   <time name="orth">    0.01    0.02</time>
   <time name="total">    0.94    0.95</time>
   <energy>
    <i name="e_fr_energy">    -71.14977783 </i>
    <i name="e_wo_entrp">    -71.14977783 </i>
    <i name="e_0_energy">    -71.14977783 </i>
   </energy>
  </scstep>
  <scstep>
   <time name="diag">    0.14    0.14</time>
   <time name="diis">    0.50    0.50</time>
   <time name="orth">    0.02    0.02</time>
   <time name="total">    0.74    0.74</time>
   <energy>
    <i name="alphaZ">     69.72802778 </i>
    <i name="ewald">  -1887.20590689 </i>
    <i name="hartreedc">  -1070.76213897 </i>
    <i name="XCdc">    151.09375026 </i>
    <i name="pawpsdc">   2074.35124618 </i>
    <i name="pawaedc">  -2034.91540319 </i>
    <i name="eentropy">      0.00000000 </i>
    <i name="bandstr">   -276.21577174 </i>
    <i name="atom">   2902.77641490 </i>
    <i name="e_fr_energy">    -71.14978168 </i>
    <i name="e_wo_entrp">    -71.14978168 </i>
    <i name="e_0_energy">    -71.14978168 </i>
   </energy>
  </scstep>
  <structure>
   <crystal>
    <varray name="basis" >
     <v>       4.91370000       0.00000000       0.00000000 </v>
     <v>      -2.45685000       4.25538903       0.00000000 </v>
     <v>       0.00000000       0.00000000       5.40513000 </v>
    </varray>
    <i name="volume">    113.01967420 </i>
    <varray name="rec_basis" >
     <v>       0.20351263       0.11749807       0.00000000 </v>
     <v>       0.00000000       0.23499614       0.00000000 </v>
     <v>       0.00000000       0.00000000       0.18500943 </v>
    </varray>
   </crystal>
   <varray name="positions" >
    <v>       0.46980000       0.00000000       0.66667000 </v>
    <v>       0.00000000       0.46980000       0.33333000 </v>
    <v>       0.53020000       0.53020000       0.00000000 </v>
    <v>       0.41450000       0.26620000       0.78560000 </v>
    <v>       0.73380000       0.14830000       0.45227000 </v>
    <v>       0.85170000       0.58550000       0.11893000 </v>
    <v>       0.14830000       0.73380000       0.54773000 </v>
    <v>       0.26620000       0.41450000       0.21440000 </v>
    <v>       0.58550000       0.85170000       0.88107000 </v>
   </varray>
  </structure>
  <varray name="forces" >
   <v>       0.39650256      -0.00076559      -0.00715377 </v>
   <v>      -0.19891430       0.34299849       0.00715377 </v>
   <v>      -0.20706520      -0.35864744       0.00000000 </v>
   <v>      -0.52123252       0.29150188       0.06738244 </v>
   <v>       0.01364432      -0.59904814       0.06523459 </v>
   <v>       0.51492154       0.31425539       0.06700874 </v>
   <v>      -0.52561307      -0.28770775      -0.06523459 </v>
   <v>       0.51306429      -0.30564967      -0.06738244 </v>
   <v>       0.01469238       0.60306283      -0.06700874 </v>
  </varray>
  <varray name="stress" >
   <v>      38.79720298      -0.69264851       0.22577300 </v>
   <v>      -0.69264851      37.99740144      -0.13035010 </v>
   <v>       0.22577297      -0.13035008      24.46557188 </v>
  </varray>
  <energy>
   <i name="e_fr_energy">    -71.14978168 </i>
   <i name="e_wo_entrp">    -71.14978168 </i>
   <i name="e_0_energy">      0.00000000 </i>
  </energy>
  <time name="totalsc">   13.45   13.72</time>
  <eigenvalues>
   <array>
    <dimension dim="1">band</dimension>
    <dimension dim="2">kpoint</dimension>
    <dimension dim="3">spin</dimension>
    <field>eigene</field>
    <field>occ</field>
    <set>
     <set comment="spin 1">
      <set comment="kpoint 1">
       <r>  -18.3767    1.0000 </r>
       <r>  -16.8407    1.0000 </r>
       <r>  -16.8403    1.0000 </r>
       <r>  -16.2064    1.0000 </r>
       <r>  -16.1587    1.0000 </r>
       <r>  -16.1582    1.0000 </r>
       <r>   -7.1836    1.0000 </r>
       <r>   -7.1833    1.0000 </r>
       <r>   -4.3427    1.0000 </r>
       <r>   -4.3370    1.0000 </r>
       <r>   -4.1841    1.0000 </r>
       <r>   -4.1840    1.0000 </r>
       <r>   -1.8635    1.0000 </r>
       <r>   -1.8632    1.0000 </r>
       <r>   -1.6255    1.0000 </r>
       <r>   -1.3654    1.0000 </r>
       <r>   -0.4145    1.0000 </r>
       <r>   -0.4134    1.0000 </r>
       <r>   -0.3965    1.0000 </r>
       <r>    0.1084    1.0000 </r>
       <r>    0.1087    1.0000 </r>
       <r>    0.4178    1.0000 </r>
       <r>    0.7586    1.0000 </r>
       <r>    0.7587    1.0000 </r>
       <r>    7.1150    0.0000 </r>
       <r>   10.4022    0.0000 </r>
       <r>   10.4027    0.0000 </r>
       <r>   10.9045    0.0000 </r>
       <r>   10.9049    0.0000 </r>
      </set>
      <set comment="kpoint 2">
       <r>  -18.0778    1.0000 </r>
       <r>  -17.1951    1.0000 </r>
       <r>  -16.8040    1.0000 </r>
       <r>  -16.2508    1.0000 </r>
       <r>  -16.2052    1.0000 </r>
       <r>  -16.1857    1.0000 </r>
       <r>   -7.2932    1.0000 </r>
       <r>   -6.5832    1.0000 </r>
       <r>   -4.6398    1.0000 </r>
       <r>   -4.3912    1.0000 </r>
       <r>   -4.3098    1.0000 </r>
       <r>   -3.7231    1.0000 </r>
       <r>   -2.0723    1.0000 </r>
       <r>   -1.6968    1.0000 </r>
       <r>   -1.5724    1.0000 </r>
       <r>   -1.2046    1.0000 </r>
       <r>   -1.0066    1.0000 </r>
       <r>   -0.5871    1.0000 </r>
       <r>   -0.4953    1.0000 </r>
       <r>   -0.0096    1.0000 </r>
       <r>    0.0601    1.0000 </r>
       <r>    0.2637    1.0000 </r>
       <r>    0.8475    1.0000 </r>
       <r>    0.9962    1.0000 </r>
       <r>    8.5378    0.0000 </r>
       <r>   10.4301    0.0000 </r>
       <r>   10.5579    0.0000 </r>
       <r>   11.0596    0.0000 </r>
       <r>   11.4967    0.0000 </r>
      </set>
      <set comment="kpoint 3">
       <r>  -17.6438    1.0000 </r>
       <r>  -17.6434    1.0000 </r>
       <r>  -16.8255    1.0000 </r>
       <r>  -16.2525    1.0000 </r>
       <r>  -16.2096    1.0000 </r>
       <r>  -16.2093    1.0000 </r>
       <r>   -7.3885    1.0000 </r>
       <r>   -5.6507    1.0000 </r>
       <r>   -5.6505    1.0000 </r>
       <r>   -4.2470    1.0000 </r>
       <r>   -4.2470    1.0000 </r>
       <r>   -3.4712    1.0000 </r>
       <r>   -1.8606    1.0000 </r>
       <r>   -1.8603    1.0000 </r>
       <r>   -1.8085    1.0000 </r>
       <r>   -0.9834    1.0000 </r>
       <r>   -0.9834    1.0000 </r>
       <r>   -0.8276    1.0000 </r>
       <r>   -0.6310    1.0000 </r>
       <r>   -0.1523    1.0000 </r>
       <r>   -0.1520    1.0000 </r>
       <r>    0.6537    1.0000 </r>
       <r>    0.6542    1.0000 </r>
       <r>    1.0945    1.0000 </r>
       <r>   10.0496    0.0000 </r>
       <r>   10.0498    0.0000 </r>
       <r>   10.5402    0.0000 </r>
       <r>   11.5305    0.0000 </r>
       <r>   11.6632    0.0000 </r>
      </set>
      <set comment="kpoint 4">
       <r>  -18.0777    1.0000 </r>
       <r>  -17.1951    1.0000 </r>
       <r>  -16.8043    1.0000 </r>
       <r>  -16.2509    1.0000 </r>
       <r>  -16.2052    1.0000 </r>
       <r>  -16.1853    1.0000 </r>
       <r>   -7.2930    1.0000 </r>
       <r>   -6.5834    1.0000 </r>
       <r>   -4.6399    1.0000 </r>
       <r>   -4.3910    1.0000 </r>
       <r>   -4.3097    1.0000 </r>
       <r>   -3.7233    1.0000 </r>
       <r>   -2.0724    1.0000 </r>
       <r>   -1.6967    1.0000 </r>
       <r>   -1.5723    1.0000 </r>
       <r>   -1.2052    1.0000 </r>
       <r>   -1.0066    1.0000 </r>
       <r>   -0.5866    1.0000 </r>
       <r>   -0.4953    1.0000 </r>
       <r>   -0.0096    1.0000 </r>
       <r>    0.0601    1.0000 </r>
       <r>    0.2633    1.0000 </r>
       <r>    0.8475    1.0000 </r>
       <r>    0.9965    1.0000 </r>
       <r>    8.5376    0.0000 </r>
       <r>   10.4298    0.0000 </r>
       <r>   10.5576    0.0000 </r>
       <r>   11.0599    0.0000 </r>
       <r>   11.4104    0.0000 </r>
      </set>
      <set comment="kpoint 5">
       <r>  -18.1629    1.0000 </r>
       <r>  -17.5823    1.0000 </r>
       <r>  -16.2824    1.0000 </r>
       <r>  -16.2007    1.0000 </r>
       <r>  -16.1838    1.0000 </r>
       <r>  -16.1380    1.0000 </r>
       <r>   -8.1492    1.0000 </r>
       <r>   -5.7999    1.0000 </r>
       <r>   -4.7293    1.0000 </r>
       <r>   -4.5184    1.0000 </r>
       <r>   -4.4697    1.0000 </r>
       <r>   -3.7010    1.0000 </r>
       <r>   -1.8691    1.0000 </r>
       <r>   -1.5804    1.0000 </r>
       <r>   -1.5036    1.0000 </r>
       <r>   -1.0784    1.0000 </r>
       <r>   -0.8330    1.0000 </r>
       <r>   -0.6202    1.0000 </r>
       <r>   -0.5628    1.0000 </r>
       <r>   -0.4547    1.0000 </r>
       <r>   -0.0539    1.0000 </r>
       <r>    0.6739    1.0000 </r>
       <r>    0.9356    1.0000 </r>
       <r>    1.0077    1.0000 </r>
       <r>    8.1240    0.0000 </r>
       <r>    9.9929    0.0000 </r>
       <r>   10.2670    0.0000 </r>
       <r>   10.3847    0.0000 </r>
       <r>   11.5592    0.0000 </r>
      </set>
      <set comment="kpoint 6">
       <r>  -17.9310    1.0000 </r>
       <r>  -17.4762    1.0000 </r>
       <r>  -16.6773    1.0000 </r>
       <r>  -16.2568    1.0000 </r>
       <r>  -16.2106    1.0000 </r>
       <r>  -16.1722    1.0000 </r>
       <r>   -7.5196    1.0000 </r>
       <r>   -6.0617    1.0000 </r>
       <r>   -5.1457    1.0000 </r>
       <r>   -4.3357    1.0000 </r>
       <r>   -4.0157    1.0000 </r>
       <r>   -3.8821    1.0000 </r>
       <r>   -2.1355    1.0000 </r>
       <r>   -1.8459    1.0000 </r>
       <r>   -1.4038    1.0000 </r>
       <r>   -1.2014    1.0000 </r>
       <r>   -0.9110    1.0000 </r>
       <r>   -0.5401    1.0000 </r>
       <r>   -0.3995    1.0000 </r>
       <r>   -0.1308    1.0000 </r>
       <r>    0.1624    1.0000 </r>
       <r>    0.3654    1.0000 </r>
       <r>    0.7516    1.0000 </r>
       <r>    0.8800    1.0000 </r>
       <r>    9.2317    0.0000 </r>
       <r>   10.2266    0.0000 </r>
       <r>   10.5817    0.0000 </r>
       <r>   10.8796    0.0000 </r>
       <r>   11.5453    0.0000 </r>
      </set>
      <set comment="kpoint 7">
       <r>  -17.9371    1.0000 </r>
       <r>  -17.4595    1.0000 </r>
       <r>  -16.7041    1.0000 </r>
       <r>  -16.2469    1.0000 </r>
       <r>  -16.1968    1.0000 </r>
       <r>  -16.1792    1.0000 </r>
       <r>   -7.5224    1.0000 </r>
       <r>   -6.0661    1.0000 </r>
       <r>   -5.1407    1.0000 </r>
       <r>   -4.3638    1.0000 </r>
       <r>   -4.0289    1.0000 </r>
       <r>   -3.8133    1.0000 </r>
       <r>   -2.1005    1.0000 </r>
       <r>   -1.8727    1.0000 </r>
       <r>   -1.3658    1.0000 </r>
       <r>   -1.3347    1.0000 </r>
       <r>   -0.9818    1.0000 </r>
       <r>   -0.4297    1.0000 </r>
       <r>   -0.3157    1.0000 </r>
       <r>   -0.1045    1.0000 </r>
       <r>    0.1436    1.0000 </r>
       <r>    0.2875    1.0000 </r>
       <r>    0.6251    1.0000 </r>
       <r>    1.0155    1.0000 </r>
       <r>    9.1492    0.0000 </r>
       <r>   10.4531    0.0000 </r>
       <r>   10.6153    0.0000 </r>
       <r>   11.1848    0.0000 </r>
       <r>   11.3050    0.0000 </r>
      </set>
      <set comment="kpoint 8">
       <r>  -17.7766    1.0000 </r>
       <r>  -17.3439    1.0000 </r>
       <r>  -16.9853    1.0000 </r>
       <r>  -16.2753    1.0000 </r>
       <r>  -16.2350    1.0000 </r>
       <r>  -16.1925    1.0000 </r>
       <r>   -7.0200    1.0000 </r>
       <r>   -6.2313    1.0000 </r>
       <r>   -5.4968    1.0000 </r>
       <r>   -4.2472    1.0000 </r>
       <r>   -3.9667    1.0000 </r>
       <r>   -3.8279    1.0000 </r>
       <r>   -2.1636    1.0000 </r>
       <r>   -1.7536    1.0000 </r>
       <r>   -1.7361    1.0000 </r>
       <r>   -0.9136    1.0000 </r>
       <r>   -0.8943    1.0000 </r>
       <r>   -0.8488    1.0000 </r>
       <r>   -0.1120    1.0000 </r>
       <r>   -0.0756    1.0000 </r>
       <r>    0.1422    1.0000 </r>
       <r>    0.4741    1.0000 </r>
       <r>    0.4974    1.0000 </r>
       <r>    0.7597    1.0000 </r>
       <r>   10.1183    0.0000 </r>
       <r>   10.5317    0.0000 </r>
       <r>   10.8490    0.0000 </r>
       <r>   11.2546    0.0000 </r>
       <r>   11.3839    0.0000 </r>
      </set>
      <set comment="kpoint 9">
       <r>  -17.9308    1.0000 </r>
       <r>  -17.4764    1.0000 </r>
       <r>  -16.6776    1.0000 </r>
       <r>  -16.2570    1.0000 </r>
       <r>  -16.2106    1.0000 </r>
       <r>  -16.1718    1.0000 </r>
       <r>   -7.5195    1.0000 </r>
       <r>   -6.0618    1.0000 </r>
       <r>   -5.1460    1.0000 </r>
       <r>   -4.3353    1.0000 </r>
       <r>   -4.0158    1.0000 </r>
       <r>   -3.8821    1.0000 </r>
       <r>   -2.1356    1.0000 </r>
       <r>   -1.8461    1.0000 </r>
       <r>   -1.4036    1.0000 </r>
       <r>   -1.2013    1.0000 </r>
       <r>   -0.9109    1.0000 </r>
       <r>   -0.5403    1.0000 </r>
       <r>   -0.3995    1.0000 </r>
       <r>   -0.1313    1.0000 </r>
       <r>    0.1624    1.0000 </r>
       <r>    0.3650    1.0000 </r>
       <r>    0.7516    1.0000 </r>
       <r>    0.8805    1.0000 </r>
       <r>    9.2316    0.0000 </r>
       <r>   10.2265    0.0000 </r>
       <r>   10.5816    0.0000 </r>
       <r>   10.8791    0.0000 </r>
       <r>   11.5395    0.0000 </r>
      </set>
      <set comment="kpoint 10">
       <r>  -17.9369    1.0000 </r>
       <r>  -17.4596    1.0000 </r>
       <r>  -16.7044    1.0000 </r>
       <r>  -16.2470    1.0000 </r>
       <r>  -16.1969    1.0000 </r>
       <r>  -16.1786    1.0000 </r>
       <r>   -7.5223    1.0000 </r>
       <r>   -6.0662    1.0000 </r>
       <r>   -5.1410    1.0000 </r>
       <r>   -4.3635    1.0000 </r>
       <r>   -4.0289    1.0000 </r>
       <r>   -3.8134    1.0000 </r>
       <r>   -2.1007    1.0000 </r>
       <r>   -1.8729    1.0000 </r>
       <r>   -1.3656    1.0000 </r>
       <r>   -1.3346    1.0000 </r>
       <r>   -0.9817    1.0000 </r>
       <r>   -0.4297    1.0000 </r>
       <r>   -0.3161    1.0000 </r>
       <r>   -0.1046    1.0000 </r>
       <r>    0.1437    1.0000 </r>
       <r>    0.2878    1.0000 </r>
       <r>    0.6247    1.0000 </r>
       <r>    1.0158    1.0000 </r>
       <r>    9.1491    0.0000 </r>
       <r>   10.4532    0.0000 </r>
       <r>   10.6192    0.0000 </r>
       <r>   11.1912    0.0000 </r>
       <r>   11.4669    0.0000 </r>
      </set>
     </set>
    </set>
   </array>
  </eigenvalues>
  <separator name="orbital magnetization" >
   <v name="MAGDIPOLOUT">      0.00000000      0.00000000      0.00000000</v>
  </separator>
  <dos>
   <i name="efermi">      1.09682358 </i>
   <total>
    <array>
     <dimension dim="1">gridpoints</dimension>
     <dimension dim="2">spin</dimension>
     <field>energy</field>
     <field>total</field>
     <field>integrated</field>
     <set>
      <set comment="spin 1">
       <r>   -20.3767     0.0000     0.0000 </r>
       <r>   -20.2632     0.0000     0.0000 </r>
       <r>   -20.1498     0.0000     0.0000 </r>
       <r>   -20.0363     0.0000     0.0000 </r>
       <r>   -19.9228     0.0000     0.0000 </r>
       <r>   -19.8094     0.0000     0.0000 </r>
       <r>   -19.6959     0.0000     0.0000 </r>
       <r>   -19.5824     0.0000     0.0000 </r>
       <r>   -19.4690     0.0000     0.0000 </r>
       <r>   -19.3555     0.0000     0.0000 </r>
       <r>   -19.2420     0.0000     0.0000 </r>
       <r>   -19.1286     0.0000     0.0000 </r>
       <r>   -19.0151     0.0000     0.0000 </r>
       <r>   -18.9016     0.0000     0.0000 </r>
       <r>   -18.7882     0.0000     0.0000 </r>
       <r>   -18.6747     0.0000     0.0000 </r>
       <r>   -18.5612     0.0000     0.0000 </r>
       <r>   -18.4478     0.0000     0.0000 </r>
       <r>   -18.3343     0.0478     0.0007 </r>
       <r>   -18.2208     0.6457     0.0335 </r>
       <r>   -18.1074     2.4266     0.1866 </r>
       <r>   -17.9939     5.6884     0.6488 </r>
       <r>   -17.8804     7.2540     1.4980 </r>
       <r>   -17.7670     1.1355     1.9534 </r>
       <r>   -17.6535     0.0071     2.0000 </r>
       <r>   -17.5400     2.5555     2.0657 </r>
       <r>   -17.4266     9.5080     2.8478 </r>
       <r>   -17.3131     4.0174     3.5723 </r>
       <r>   -17.1996     1.1324     3.8789 </r>
       <r>   -17.0862     0.4721     3.9614 </r>
       <r>   -16.9727     0.2909     3.9949 </r>
       <r>   -16.8592     4.1732     4.2016 </r>
       <r>   -16.7458     8.8544     5.2161 </r>
       <r>   -16.6323     1.9671     5.7149 </r>
       <r>   -16.5188     1.1074     5.8873 </r>
       <r>   -16.4054     0.4606     5.9742 </r>
       <r>   -16.2919     0.0267     5.9999 </r>
       <r>   -16.1784    89.5052    11.1963 </r>
       <r>   -16.0650     0.0000    12.0000 </r>
       <r>   -15.9515     0.0000    12.0000 </r>
       <r>   -15.8380     0.0000    12.0000 </r>
       <r>   -15.7246     0.0000    12.0000 </r>
       <r>   -15.6111     0.0000    12.0000 </r>
       <r>   -15.4976     0.0000    12.0000 </r>
       <r>   -15.3842     0.0000    12.0000 </r>
       <r>   -15.2707     0.0000    12.0000 </r>
       <r>   -15.1572     0.0000    12.0000 </r>
       <r>   -15.0438     0.0000    12.0000 </r>
       <r>   -14.9303     0.0000    12.0000 </r>
       <r>   -14.8169     0.0000    12.0000 </r>
       <r>   -14.7034     0.0000    12.0000 </r>
       <r>   -14.5899     0.0000    12.0000 </r>
       <r>   -14.4765     0.0000    12.0000 </r>
       <r>   -14.3630     0.0000    12.0000 </r>
       <r>   -14.2495     0.0000    12.0000 </r>
       <r>   -14.1361     0.0000    12.0000 </r>
       <r>   -14.0226     0.0000    12.0000 </r>
       <r>   -13.9091     0.0000    12.0000 </r>
       <r>   -13.7957     0.0000    12.0000 </r>
       <r>   -13.6822     0.0000    12.0000 </r>
       <r>   -13.5687     0.0000    12.0000 </r>
       <r>   -13.4553     0.0000    12.0000 </r>
       <r>   -13.3418     0.0000    12.0000 </r>
       <r>   -13.2283     0.0000    12.0000 </r>
       <r>   -13.1149     0.0000    12.0000 </r>
       <r>   -13.0014     0.0000    12.0000 </r>
       <r>   -12.8879     0.0000    12.0000 </r>
       <r>   -12.7745     0.0000    12.0000 </r>
       <r>   -12.6610     0.0000    12.0000 </r>
       <r>   -12.5475     0.0000    12.0000 </r>
       <r>   -12.4341     0.0000    12.0000 </r>
       <r>   -12.3206     0.0000    12.0000 </r>
       <r>   -12.2071     0.0000    12.0000 </r>
       <r>   -12.0937     0.0000    12.0000 </r>
       <r>   -11.9802     0.0000    12.0000 </r>
       <r>   -11.8667     0.0000    12.0000 </r>
       <r>   -11.7533     0.0000    12.0000 </r>
       <r>   -11.6398     0.0000    12.0000 </r>
       <r>   -11.5263     0.0000    12.0000 </r>
       <r>   -11.4129     0.0000    12.0000 </r>
       <r>   -11.2994     0.0000    12.0000 </r>
       <r>   -11.1859     0.0000    12.0000 </r>
       <r>   -11.0725     0.0000    12.0000 </r>
       <r>   -10.9590     0.0000    12.0000 </r>
       <r>   -10.8455     0.0000    12.0000 </r>
       <r>   -10.7321     0.0000    12.0000 </r>
       <r>   -10.6186     0.0000    12.0000 </r>
       <r>   -10.5051     0.0000    12.0000 </r>
       <r>   -10.3917     0.0000    12.0000 </r>
       <r>   -10.2782     0.0000    12.0000 </r>
       <r>   -10.1647     0.0000    12.0000 </r>
       <r>   -10.0513     0.0000    12.0000 </r>
       <r>    -9.9378     0.0000    12.0000 </r>
       <r>    -9.8243     0.0000    12.0000 </r>
       <r>    -9.7109     0.0000    12.0000 </r>
       <r>    -9.5974     0.0000    12.0000 </r>
       <r>    -9.4839     0.0000    12.0000 </r>
       <r>    -9.3705     0.0000    12.0000 </r>
       <r>    -9.2570     0.0000    12.0000 </r>
       <r>    -9.1435     0.0000    12.0000 </r>
       <r>    -9.0301     0.0000    12.0000 </r>
       <r>    -8.9166     0.0000    12.0000 </r>
       <r>    -8.8031     0.0000    12.0000 </r>
       <r>    -8.6897     0.0000    12.0000 </r>
       <r>    -8.5762     0.0000    12.0000 </r>
       <r>    -8.4627     0.0000    12.0000 </r>
       <r>    -8.3493     0.0000    12.0000 </r>
       <r>    -8.2358     0.0000    12.0000 </r>
       <r>    -8.1223     0.0317    12.0004 </r>
       <r>    -8.0089     0.1989    12.0130 </r>
       <r>    -7.8954     0.4198    12.0476 </r>
       <r>    -7.7819     0.6945    12.1103 </r>
       <r>    -7.6685     1.0229    12.2072 </r>
       <r>    -7.5550     1.4051    12.3445 </r>
       <r>    -7.4415     5.0282    12.7032 </r>
       <r>    -7.3281     6.0407    13.3813 </r>
       <r>    -7.2146     2.1684    13.8424 </r>
       <r>    -7.1011     0.5375    13.9821 </r>
       <r>    -6.9877     0.0564    14.0037 </r>
       <r>    -6.8742     0.1409    14.0145 </r>
       <r>    -6.7607     0.2634    14.0371 </r>
       <r>    -6.6473     0.4238    14.0757 </r>
       <r>    -6.5338     0.8860    14.1414 </r>
       <r>    -6.4203     1.6007    14.2838 </r>
       <r>    -6.3069     2.1763    14.4993 </r>
       <r>    -6.1934     3.7639    14.7945 </r>
       <r>    -6.0799     7.0030    15.4137 </r>
       <r>    -5.9665     2.1362    15.8101 </r>
       <r>    -5.8530     0.7076    15.9674 </r>
       <r>    -5.7395     0.0663    15.9980 </r>
       <r>    -5.6261     0.0092    16.0001 </r>
       <r>    -5.5126     0.2931    16.0135 </r>
       <r>    -5.3991     1.5012    16.1101 </r>
       <r>    -5.2857     2.7627    16.3526 </r>
       <r>    -5.1722     3.9607    16.7347 </r>
       <r>    -5.0587     2.7183    17.0892 </r>
       <r>    -4.9453     2.4084    17.3817 </r>
       <r>    -4.8318     1.9165    17.6288 </r>
       <r>    -4.7183     1.2728    17.8099 </r>
       <r>    -4.6049     0.7921    17.9308 </r>
       <r>    -4.4914     0.8493    17.9945 </r>
       <r>    -4.3779    13.6601    18.4536 </r>
       <r>    -4.2645     8.7596    20.2336 </r>
       <r>    -4.1510     5.3221    20.8819 </r>
       <r>    -4.0375     4.5892    21.4478 </r>
       <r>    -3.9241     0.8814    22.0764 </r>
       <r>    -3.8106    10.1064    22.9400 </r>
       <r>    -3.6971     3.1638    23.7617 </r>
       <r>    -3.5837     0.7839    23.9706 </r>
       <r>    -3.4702     0.0000    24.0000 </r>
       <r>    -3.3567     0.0000    24.0000 </r>
       <r>    -3.2433     0.0000    24.0000 </r>
       <r>    -3.1298     0.0000    24.0000 </r>
       <r>    -3.0163     0.0000    24.0000 </r>
       <r>    -2.9029     0.0000    24.0000 </r>
       <r>    -2.7894     0.0000    24.0000 </r>
       <r>    -2.6759     0.0000    24.0000 </r>
       <r>    -2.5625     0.0000    24.0000 </r>
       <r>    -2.4490     0.0000    24.0000 </r>
       <r>    -2.3355     0.0000    24.0000 </r>
       <r>    -2.2221     0.0000    24.0000 </r>
       <r>    -2.1086    14.3428    24.6889 </r>
       <r>    -1.9951     5.4408    25.6952 </r>
       <r>    -1.8817     0.4168    25.9969 </r>
       <r>    -1.7682    11.8104    27.3493 </r>
       <r>    -1.6547     4.4734    28.1586 </r>
       <r>    -1.5413     7.8156    28.8561 </r>
       <r>    -1.4278     7.1704    29.7055 </r>
       <r>    -1.3143     2.1492    30.0341 </r>
       <r>    -1.2009    12.4480    30.7508 </r>
       <r>    -1.0874     4.4959    31.6730 </r>
       <r>    -0.9739    16.6962    32.3658 </r>
       <r>    -0.8605     2.4716    33.8100 </r>
       <r>    -0.7470     3.2148    34.0509 </r>
       <r>    -0.6335     5.9064    34.5675 </r>
       <r>    -0.5201    12.1814    35.7156 </r>
       <r>    -0.4066     7.9014    36.9582 </r>
       <r>    -0.2931     5.6546    37.7138 </r>
       <r>    -0.1797     3.3148    38.2033 </r>
       <r>    -0.0662    11.6989    39.5434 </r>
       <r>     0.0473     8.4064    40.4092 </r>
       <r>     0.1607     4.0590    41.9966 </r>
       <r>     0.2742     2.2138    42.0121 </r>
       <r>     0.3877    10.7680    43.1464 </r>
       <r>     0.5011     2.6868    43.8393 </r>
       <r>     0.6146     6.2482    44.2713 </r>
       <r>     0.7281     7.6001    45.0963 </r>
       <r>     0.8415     8.0286    46.0329 </r>
       <r>     0.9550    11.9759    47.0937 </r>
       <r>     1.0685     0.6567    47.9943 </r>
       <r>     1.1819     0.0000    48.0000 </r>
       <r>     1.2954     0.0000    48.0000 </r>
       <r>     1.4089     0.0000    48.0000 </r>
       <r>     1.5223     0.0000    48.0000 </r>
       <r>     1.6358     0.0000    48.0000 </r>
       <r>     1.7493     0.0000    48.0000 </r>
       <r>     1.8627     0.0000    48.0000 </r>
       <r>     1.9762     0.0000    48.0000 </r>
       <r>     2.0897     0.0000    48.0000 </r>
       <r>     2.2031     0.0000    48.0000 </r>
       <r>     2.3166     0.0000    48.0000 </r>
       <r>     2.4301     0.0000    48.0000 </r>
       <r>     2.5435     0.0000    48.0000 </r>
       <r>     2.6570     0.0000    48.0000 </r>
       <r>     2.7705     0.0000    48.0000 </r>
       <r>     2.8839     0.0000    48.0000 </r>
       <r>     2.9974     0.0000    48.0000 </r>
       <r>     3.1109     0.0000    48.0000 </r>
       <r>     3.2243     0.0000    48.0000 </r>
       <r>     3.3378     0.0000    48.0000 </r>
       <r>     3.4513     0.0000    48.0000 </r>
       <r>     3.5647     0.0000    48.0000 </r>
       <r>     3.6782     0.0000    48.0000 </r>
       <r>     3.7917     0.0000    48.0000 </r>
       <r>     3.9051     0.0000    48.0000 </r>
       <r>     4.0186     0.0000    48.0000 </r>
       <r>     4.1321     0.0000    48.0000 </r>
       <r>     4.2455     0.0000    48.0000 </r>
       <r>     4.3590     0.0000    48.0000 </r>
       <r>     4.4725     0.0000    48.0000 </r>
       <r>     4.5859     0.0000    48.0000 </r>
       <r>     4.6994     0.0000    48.0000 </r>
       <r>     4.8129     0.0000    48.0000 </r>
       <r>     4.9263     0.0000    48.0000 </r>
       <r>     5.0398     0.0000    48.0000 </r>
       <r>     5.1533     0.0000    48.0000 </r>
       <r>     5.2667     0.0000    48.0000 </r>
       <r>     5.3802     0.0000    48.0000 </r>
       <r>     5.4936     0.0000    48.0000 </r>
       <r>     5.6071     0.0000    48.0000 </r>
       <r>     5.7206     0.0000    48.0000 </r>
       <r>     5.8340     0.0000    48.0000 </r>
       <r>     5.9475     0.0000    48.0000 </r>
       <r>     6.0610     0.0000    48.0000 </r>
       <r>     6.1744     0.0000    48.0000 </r>
       <r>     6.2879     0.0000    48.0000 </r>
       <r>     6.4014     0.0000    48.0000 </r>
       <r>     6.5148     0.0000    48.0000 </r>
       <r>     6.6283     0.0000    48.0000 </r>
       <r>     6.7418     0.0000    48.0000 </r>
       <r>     6.8552     0.0000    48.0000 </r>
       <r>     6.9687     0.0000    48.0000 </r>
       <r>     7.0822     0.0000    48.0000 </r>
       <r>     7.1956     0.0016    48.0000 </r>
       <r>     7.3091     0.0095    48.0006 </r>
       <r>     7.4226     0.0239    48.0024 </r>
       <r>     7.5360     0.0447    48.0063 </r>
       <r>     7.6495     0.0720    48.0128 </r>
       <r>     7.7630     0.1059    48.0229 </r>
       <r>     7.8764     0.1462    48.0371 </r>
       <r>     7.9899     0.1930    48.0563 </r>
       <r>     8.1034     0.2463    48.0811 </r>
       <r>     8.2168     0.3423    48.1141 </r>
       <r>     8.3303     0.4552    48.1592 </r>
       <r>     8.4438     0.5771    48.2177 </r>
       <r>     8.5572     0.7235    48.2907 </r>
       <r>     8.6707     0.9315    48.3849 </r>
       <r>     8.7842     1.1105    48.5010 </r>
       <r>     8.8976     1.2606    48.6358 </r>
       <r>     9.0111     1.3818    48.7860 </r>
       <r>     9.1246     1.4740    48.9483 </r>
       <r>     9.2380     1.9237    49.1418 </r>
       <r>     9.3515     1.6939    49.3471 </r>
       <r>     9.4650     1.4568    49.5259 </r>
       <r>     9.5784     1.2124    49.6774 </r>
       <r>     9.6919     0.9609    49.8008 </r>
       <r>     9.8054     0.7021    49.8952 </r>
       <r>     9.9188     0.4362    49.9599 </r>
       <r>    10.0323     0.3909    49.9984 </r>
       <r>    10.1458     1.4341    50.0866 </r>
       <r>    10.2592     4.2190    50.3851 </r>
       <r>    10.3727     9.1264    51.1280 </r>
       <r>    10.4862     5.8474    52.2224 </r>
       <r>    10.5996     8.6475    53.1500 </r>
       <r>    10.7131     4.3070    53.9038 </r>
       <r>    10.8266     1.5111    54.2108 </r>
       <r>    10.9400     2.7151    54.4015 </r>
       <r>    11.0535     5.2467    54.8577 </r>
       <r>    11.1670     5.9145    55.5109 </r>
       <r>    11.2804     2.3356    55.9650 </r>
       <r>    11.3939     6.4823    56.3783 </r>
       <r>    11.5074    10.3820    57.5134 </r>
       <r>    11.6208     0.4223    57.9940 </r>
       <r>    11.7343     0.0000    58.0000 </r>
       <r>    11.8478     0.0000    58.0000 </r>
       <r>    11.9612     0.0000    58.0000 </r>
       <r>    12.0747     0.0000    58.0000 </r>
       <r>    12.1882     0.0000    58.0000 </r>
       <r>    12.3016     0.0000    58.0000 </r>
       <r>    12.4151     0.0000    58.0000 </r>
       <r>    12.5286     0.0000    58.0000 </r>
       <r>    12.6420     0.0000    58.0000 </r>
       <r>    12.7555     0.0000    58.0000 </r>
       <r>    12.8690     0.0000    58.0000 </r>
       <r>    12.9824     0.0000    58.0000 </r>
       <r>    13.0959     0.0000    58.0000 </r>
       <r>    13.2094     0.0000    58.0000 </r>
       <r>    13.3228     0.0000    58.0000 </r>
       <r>    13.4363     0.0000    58.0000 </r>
       <r>    13.5498     0.0000    58.0000 </r>
       <r>    13.6632     0.0000    58.0000 </r>
      </set>
     </set>
    </array>
   </total>
  </dos>
 </calculation>
 <structure name="finalpos" >
  <crystal>
   <varray name="basis" >
    <v>       4.91370000       0.00000000       0.00000000 </v>
    <v>      -2.45685000       4.25538903       0.00000000 </v>
    <v>       0.00000000       0.00000000       5.40513000 </v>
   </varray>
   <i name="volume">    113.01967420 </i>
   <varray name="rec_basis" >
    <v>       0.20351263       0.11749807       0.00000000 </v>
    <v>       0.00000000       0.23499614       0.00000000 </v>
    <v>       0.00000000       0.00000000       0.18500943 </v>
   </varray>
  </crystal>
  <varray name="positions" >
   <v>       0.46980000       0.00000000       0.66667000 </v>
   <v>       0.00000000       0.46980000       0.33333000 </v>
   <v>       0.53020000       0.53020000       0.00000000 </v>
   <v>       0.41450000       0.26620000       0.78560000 </v>
   <v>       0.73380000       0.14830000       0.45227000 </v>
   <v>       0.85170000       0.58550000       0.11893000 </v>
   <v>       0.14830000       0.73380000       0.54773000 </v>
   <v>       0.26620000       0.41450000       0.21440000 </v>
   <v>       0.58550000       0.85170000       0.88107000 </v>
  </varray>
 </structure>
</modeling>
