   20   20    1    1
  0.2397744E+02  0.5581684E-09  0.3946846E-09  0.2176795E-08  0.5000000E-15
  1.000000000000000E-004
  CAR 
 unknown system                          
    128     12     76
 
  0.0000000E+00  0.0000000E+00  0.0000000E+00  0.2857143E-01
    1      -35.642160   1.000000
    2      -34.419726   1.000000
    3      -33.101701   1.000000
    4      -32.491334   1.000000
    5      -19.929092   1.000000
    6      -19.678277   1.000000
    7      -19.246334   1.000000
    8      -18.911846   1.000000
    9      -18.597269   1.000000
   10      -18.373834   1.000000
   11      -17.759266   1.000000
   12      -17.619913   1.000000
   13      -17.266159   1.000000
   14      -17.263175   1.000000
   15      -17.225317   1.000000
   16      -17.002803   1.000000
   17      -16.505794   1.000000
   18      -16.319870   1.000000
   19      -16.109271   1.000000
   20      -16.094711   1.000000
   21      -15.947824   1.000000
   22      -15.835651   1.000000
   23      -15.183710   1.000000
   24      -14.794919   1.000000
   25      -14.782640   1.000000
   26      -14.574615   1.000000
   27      -14.447857   1.000000
   28      -13.740790   1.000000
   29       -6.406542   1.000000
   30       -6.349319   1.000000
   31       -5.647400   1.000000
   32       -5.519297   1.000000
   33       -5.330450   1.000000
   34       -5.155251   1.000000
   35       -5.067256   1.000000
   36       -4.947685   1.000000
   37       -4.822791   1.000000
   38       -4.778218   1.000000
   39       -4.457863   1.000000
   40       -4.216604   1.000000
   41       -4.169688   1.000000
   42       -4.080554   1.000000
   43       -4.037597   1.000000
   44       -4.035192   1.000000
   45       -3.717028   1.000000
   46       -3.580462   1.000000
   47       -3.370545   1.000000
   48       -3.137562   1.000000
   49       -2.926720   1.000000
   50       -2.844500   1.000000
   51       -2.760785   1.000000
   52       -2.710614   1.000000
   53       -2.651708   1.000000
   54       -2.369616   1.000000
   55       -2.022684   1.000000
   56       -1.889411   1.000000
   57       -1.837347   1.000000
   58       -1.655764   1.000000
   59       -1.434785   1.000000
   60       -1.412812   1.000000
   61       -1.334082   1.000000
   62       -1.016886   1.000000
   63       -0.707155   1.000000
   64       -0.094796   0.495502
   65       -0.079188   0.408268
   66        0.212189   0.000007
   67        0.731738   0.000000
   68        1.295676   0.000000
   69        1.497070   0.000000
   70        1.718544   0.000000
   71        2.657954   0.000000
   72        2.794906   0.000000
   73        3.166609   0.000000
   74        3.776027   0.000000
   75        4.211433   0.000000
   76        5.160314   0.000000
 
  0.2000000E+00  0.0000000E+00  0.0000000E+00  0.5714286E-01
    1      -35.641933   1.000000
    2      -34.419488   1.000000
    3      -33.101465   1.000000
    4      -32.491175   1.000000
    5      -19.933140   1.000000
    6      -19.758045   1.000000
    7      -19.175120   1.000000
    8      -18.949803   1.000000
    9      -18.580368   1.000000
   10      -18.381939   1.000000
   11      -17.760023   1.000000
   12      -17.629742   1.000000
   13      -17.265374   1.000000
   14      -17.241686   1.000000
   15      -17.215883   1.000000
   16      -17.015560   1.000000
   17      -16.506548   1.000000
   18      -16.362333   1.000000
   19      -16.089569   1.000000
   20      -16.060154   1.000000
   21      -15.945928   1.000000
   22      -15.794244   1.000000
   23      -15.184501   1.000000
   24      -14.791960   1.000000
   25      -14.733091   1.000000
   26      -14.596191   1.000000
   27      -14.448394   1.000000
   28      -13.738329   1.000000
   29       -6.477303   1.000000
   30       -6.304837   1.000000
   31       -5.610074   1.000000
   32       -5.478202   1.000000
   33       -5.315003   1.000000
   34       -5.174349   1.000000
   35       -5.085871   1.000000
   36       -4.907007   1.000000
   37       -4.889850   1.000000
   38       -4.748247   1.000000
   39       -4.432087   1.000000
   40       -4.272504   1.000000
   41       -4.197430   1.000000
   42       -4.086959   1.000000
   43       -4.045243   1.000000
   44       -3.898125   1.000000
   45       -3.755021   1.000000
   46       -3.573020   1.000000
   47       -3.508895   1.000000
   48       -3.190967   1.000000
   49       -2.942502   1.000000
   50       -2.830660   1.000000
   51       -2.764071   1.000000
   52       -2.705420   1.000000
   53       -2.553653   1.000000
   54       -2.349994   1.000000
   55       -2.178869   1.000000
   56       -1.925459   1.000000
   57       -1.813547   1.000000
   58       -1.759569   1.000000
   59       -1.431152   1.000000
   60       -1.394317   1.000000
   61       -1.156871   1.000000
   62       -1.038612   1.000000
   63       -0.857249   1.000000
   64       -0.274207   0.994231
   65        0.124959   0.000907
   66        0.162940   0.000128
   67        0.783100   0.000000
   68        1.248336   0.000000
   69        1.459990   0.000000
   70        1.743899   0.000000
   71        2.616439   0.000000
   72        2.843985   0.000000
   73        3.581861   0.000000
   74        3.819587   0.000000
   75        4.517287   0.000000
   76        5.314502   0.000000
 
  0.4000000E+00  0.0000000E+00  0.0000000E+00  0.5714286E-01
    1      -35.641565   1.000000
    2      -34.419103   1.000000
    3      -33.101083   1.000000
    4      -32.490918   1.000000
    5      -19.952873   1.000000
    6      -19.839640   1.000000
    7      -19.094404   1.000000
    8      -19.005634   1.000000
    9      -18.542810   1.000000
   10      -18.413470   1.000000
   11      -17.761239   1.000000
   12      -17.643687   1.000000
   13      -17.253124   1.000000
   14      -17.209101   1.000000
   15      -17.195005   1.000000
   16      -17.051949   1.000000
   17      -16.507762   1.000000
   18      -16.407509   1.000000
   19      -16.048529   1.000000
   20      -16.012786   1.000000
   21      -15.958555   1.000000
   22      -15.735753   1.000000
   23      -15.185775   1.000000
   24      -14.737769   1.000000
   25      -14.686480   1.000000
   26      -14.643319   1.000000
   27      -14.449256   1.000000
   28      -13.734899   1.000000
   29       -6.560711   1.000000
   30       -6.263795   1.000000
   31       -5.553449   1.000000
   32       -5.388057   1.000000
   33       -5.305157   1.000000
   34       -5.210243   1.000000
   35       -5.119361   1.000000
   36       -4.907637   1.000000
   37       -4.866624   1.000000
   38       -4.710544   1.000000
   39       -4.524055   1.000000
   40       -4.183727   1.000000
   41       -4.150924   1.000000
   42       -4.087906   1.000000
   43       -4.052091   1.000000
   44       -3.879681   1.000000
   45       -3.808023   1.000000
   46       -3.739743   1.000000
   47       -3.596399   1.000000
   48       -3.287403   1.000000
   49       -2.835692   1.000000
   50       -2.755344   1.000000
   51       -2.748408   1.000000
   52       -2.689025   1.000000
   53       -2.533730   1.000000
   54       -2.392244   1.000000
   55       -2.278667   1.000000
   56       -2.150437   1.000000
   57       -1.773124   1.000000
   58       -1.682235   1.000000
   59       -1.463687   1.000000
   60       -1.302180   1.000000
   61       -1.154653   1.000000
   62       -1.075136   1.000000
   63       -0.901400   1.000000
   64       -0.631097   1.000000
   65        0.089246   0.004474
   66        0.490608   0.000000
   67        0.714029   0.000000
   68        1.176419   0.000000
   69        1.553405   0.000000
   70        1.741570   0.000000
   71        2.551904   0.000000
   72        2.898338   0.000000
   73        3.619264   0.000000
   74        4.137968   0.000000
   75        4.304109   0.000000
   76        5.577229   0.000000
 
  0.0000000E+00  0.1428571E+00  0.0000000E+00  0.5714286E-01
    1      -35.637666   1.000000
    2      -34.415571   1.000000
    3      -33.097567   1.000000
    4      -32.486895   1.000000
    5      -20.001569   1.000000
    6      -19.615731   1.000000
    7      -19.200689   1.000000
    8      -18.949493   1.000000
    9      -18.658737   1.000000
   10      -18.314854   1.000000
   11      -17.661927   1.000000
   12      -17.610545   1.000000
   13      -17.359191   1.000000
   14      -17.317853   1.000000
   15      -17.198367   1.000000
   16      -16.944139   1.000000
   17      -16.380389   1.000000
   18      -16.359261   1.000000
   19      -16.194029   1.000000
   20      -16.053417   1.000000
   21      -16.012236   1.000000
   22      -15.924223   1.000000
   23      -15.057633   1.000000
   24      -14.866688   1.000000
   25      -14.805053   1.000000
   26      -14.615224   1.000000
   27      -14.132208   1.000000
   28      -13.867584   1.000000
   29       -6.421949   1.000000
   30       -6.266956   1.000000
   31       -5.684813   1.000000
   32       -5.642277   1.000000
   33       -5.565779   1.000000
   34       -5.390717   1.000000
   35       -5.024010   1.000000
   36       -4.918194   1.000000
   37       -4.848422   1.000000
   38       -4.722257   1.000000
   39       -4.431600   1.000000
   40       -4.353172   1.000000
   41       -4.313091   1.000000
   42       -4.194782   1.000000
   43       -4.078240   1.000000
   44       -3.739550   1.000000
   45       -3.689577   1.000000
   46       -3.523265   1.000000
   47       -3.366240   1.000000
   48       -3.096233   1.000000
   49       -3.096066   1.000000
   50       -2.976190   1.000000
   51       -2.900383   1.000000
   52       -2.890609   1.000000
   53       -2.369472   1.000000
   54       -2.251134   1.000000
   55       -2.059495   1.000000
   56       -1.913829   1.000000
   57       -1.837007   1.000000
   58       -1.730364   1.000000
   59       -1.563238   1.000000
   60       -1.444466   1.000000
   61       -1.367928   1.000000
   62       -0.744663   1.000000
   63       -0.702130   1.000000
   64       -0.062110   0.317920
   65        0.016538   0.056396
   66        0.336334   0.000000
   67        0.512265   0.000000
   68        1.242616   0.000000
   69        1.434959   0.000000
   70        1.609024   0.000000
   71        2.764689   0.000000
   72        2.807496   0.000000
   73        3.019263   0.000000
   74        3.547004   0.000000
   75        4.518661   0.000000
   76        5.124849   0.000000
 
  0.2000000E+00  0.1428571E+00  0.0000000E+00  0.1142857E+00
    1      -35.637473   1.000000
    2      -34.415366   1.000000
    3      -33.097365   1.000000
    4      -32.486760   1.000000
    5      -19.983653   1.000000
    6      -19.704691   1.000000
    7      -19.145167   1.000000
    8      -18.984932   1.000000
    9      -18.634990   1.000000
   10      -18.332787   1.000000
   11      -17.677227   1.000000
   12      -17.609483   1.000000
   13      -17.333427   1.000000
   14      -17.294146   1.000000
   15      -17.203188   1.000000
   16      -16.965816   1.000000
   17      -16.398546   1.000000
   18      -16.370656   1.000000
   19      -16.161886   1.000000
   20      -16.043994   1.000000
   21      -15.980288   1.000000
   22      -15.925757   1.000000
   23      -15.055956   1.000000
   24      -14.844546   1.000000
   25      -14.778765   1.000000
   26      -14.629194   1.000000
   27      -14.130069   1.000000
   28      -13.859761   1.000000
   29       -6.442535   1.000000
   30       -6.293915   1.000000
   31       -5.731430   1.000000
   32       -5.559150   1.000000
   33       -5.547995   1.000000
   34       -5.407786   1.000000
   35       -5.041266   1.000000
   36       -4.944052   1.000000
   37       -4.896080   1.000000
   38       -4.630769   1.000000
   39       -4.421154   1.000000
   40       -4.368513   1.000000
   41       -4.283616   1.000000
   42       -4.214095   1.000000
   43       -4.075636   1.000000
   44       -3.736695   1.000000
   45       -3.647707   1.000000
   46       -3.537472   1.000000
   47       -3.504455   1.000000
   48       -3.190125   1.000000
   49       -3.016562   1.000000
   50       -2.980352   1.000000
   51       -2.920254   1.000000
   52       -2.815465   1.000000
   53       -2.324705   1.000000
   54       -2.248610   1.000000
   55       -2.152572   1.000000
   56       -1.968438   1.000000
   57       -1.815465   1.000000
   58       -1.775123   1.000000
   59       -1.655001   1.000000
   60       -1.366947   1.000000
   61       -1.239999   1.000000
   62       -0.873269   1.000000
   63       -0.621501   1.000000
   64       -0.246405   0.983530
   65        0.126142   0.000857
   66        0.259989   0.000000
   67        0.636712   0.000000
   68        1.330265   0.000000
   69        1.358620   0.000000
   70        1.459448   0.000000
   71        2.721055   0.000000
   72        2.829393   0.000000
   73        3.739147   0.000000
   74        3.878662   0.000000
   75        4.779859   0.000000
   76        5.448916   0.000000
 
  0.4000000E+00  0.1428571E+00  0.0000000E+00  0.1142857E+00
    1      -35.637159   1.000000
    2      -34.415036   1.000000
    3      -33.097037   1.000000
    4      -32.486541   1.000000
    5      -19.932632   1.000000
    6      -19.839505   1.000000
    7      -19.086631   1.000000
    8      -19.039117   1.000000
    9      -18.585811   1.000000
   10      -18.377189   1.000000
   11      -17.700103   1.000000
   12      -17.607959   1.000000
   13      -17.283930   1.000000
   14      -17.246152   1.000000
   15      -17.215180   1.000000
   16      -17.014717   1.000000
   17      -16.436500   1.000000
   18      -16.369330   1.000000
   19      -16.108116   1.000000
   20      -16.002519   1.000000
   21      -15.957038   1.000000
   22      -15.939949   1.000000
   23      -15.052955   1.000000
   24      -14.796688   1.000000
   25      -14.740418   1.000000
   26      -14.659771   1.000000
   27      -14.120468   1.000000
   28      -13.850926   1.000000
   29       -6.519447   1.000000
   30       -6.279632   1.000000
   31       -5.801749   1.000000
   32       -5.581923   1.000000
   33       -5.419211   1.000000
   34       -5.376793   1.000000
   35       -5.117120   1.000000
   36       -4.890632   1.000000
   37       -4.859730   1.000000
   38       -4.634723   1.000000
   39       -4.461231   1.000000
   40       -4.387576   1.000000
   41       -4.302901   1.000000
   42       -4.165037   1.000000
   43       -4.049063   1.000000
   44       -3.807564   1.000000
   45       -3.697931   1.000000
   46       -3.618477   1.000000
   47       -3.404895   1.000000
   48       -3.251674   1.000000
   49       -3.091797   1.000000
   50       -3.042615   1.000000
   51       -2.863251   1.000000
   52       -2.645601   1.000000
   53       -2.394098   1.000000
   54       -2.255965   1.000000
   55       -2.139720   1.000000
   56       -2.055970   1.000000
   57       -1.826319   1.000000
   58       -1.750226   1.000000
   59       -1.650307   1.000000
   60       -1.568849   1.000000
   61       -1.007064   1.000000
   62       -0.778116   1.000000
   63       -0.663471   1.000000
   64       -0.580400   1.000000
   65        0.017732   0.054505
   66        0.428855   0.000000
   67        0.803513   0.000000
   68        1.034896   0.000000
   69        1.419760   0.000000
   70        1.548887   0.000000
   71        2.676720   0.000000
   72        2.878335   0.000000
   73        3.824575   0.000000
   74        3.880675   0.000000
   75        5.072737   0.000000
   76        5.624967   0.000000
 
  0.0000000E+00  0.2857143E+00  0.0000000E+00  0.5714286E-01
    1      -35.627538   1.000000
    2      -34.406209   1.000000
    3      -33.088253   1.000000
    4      -32.476890   1.000000
    5      -20.184683   1.000000
    6      -19.454087   1.000000
    7      -19.108195   1.000000
    8      -18.928343   1.000000
    9      -18.810901   1.000000
   10      -18.162859   1.000000
   11      -17.682180   1.000000
   12      -17.588718   1.000000
   13      -17.464570   1.000000
   14      -17.352597   1.000000
   15      -17.124024   1.000000
   16      -16.792777   1.000000
   17      -16.458134   1.000000
   18      -16.403239   1.000000
   19      -16.346866   1.000000
   20      -16.136043   1.000000
   21      -15.872714   1.000000
   22      -15.784002   1.000000
   23      -15.074449   1.000000
   24      -14.832907   1.000000
   25      -14.793438   1.000000
   26      -14.573580   1.000000
   27      -14.193127   1.000000
   28      -13.714870   1.000000
   29       -6.568401   1.000000
   30       -6.093575   1.000000
   31       -6.018576   1.000000
   32       -5.702250   1.000000
   33       -5.694767   1.000000
   34       -5.562817   1.000000
   35       -5.201044   1.000000
   36       -5.124076   1.000000
   37       -4.895496   1.000000
   38       -4.720138   1.000000
   39       -4.575552   1.000000
   40       -4.572835   1.000000
   41       -4.355050   1.000000
   42       -4.047208   1.000000
   43       -3.965947   1.000000
   44       -3.923436   1.000000
   45       -3.782584   1.000000
   46       -3.488780   1.000000
   47       -3.349087   1.000000
   48       -3.200232   1.000000
   49       -3.123616   1.000000
   50       -3.028477   1.000000
   51       -2.996479   1.000000
   52       -2.779953   1.000000
   53       -2.719674   1.000000
   54       -2.241694   1.000000
   55       -2.078453   1.000000
   56       -1.972866   1.000000
   57       -1.811739   1.000000
   58       -1.784766   1.000000
   59       -1.640329   1.000000
   60       -1.451080   1.000000
   61       -1.262553   1.000000
   62       -0.691281   1.000000
   63       -0.451699   1.000000
   64       -0.059254   0.303655
   65       -0.030835   0.179883
   66        0.345444   0.000000
   67        0.641597   0.000000
   68        1.035584   0.000000
   69        1.641947   0.000000
   70        1.669363   0.000000
   71        2.524852   0.000000
   72        3.051710   0.000000
   73        3.172482   0.000000
   74        3.994657   0.000000
   75        4.649941   0.000000
   76        5.464303   0.000000
 
  0.2000000E+00  0.2857143E+00  0.0000000E+00  0.1142857E+00
    1      -35.627419   1.000000
    2      -34.406080   1.000000
    3      -33.088126   1.000000
    4      -32.476808   1.000000
    5      -20.149894   1.000000
    6      -19.536255   1.000000
    7      -19.092751   1.000000
    8      -18.953480   1.000000
    9      -18.780211   1.000000
   10      -18.198324   1.000000
   11      -17.699432   1.000000
   12      -17.545253   1.000000
   13      -17.432218   1.000000
   14      -17.355785   1.000000
   15      -17.134602   1.000000
   16      -16.830110   1.000000
   17      -16.441585   1.000000
   18      -16.359211   1.000000
   19      -16.348584   1.000000
   20      -16.134177   1.000000
   21      -15.888282   1.000000
   22      -15.801471   1.000000
   23      -15.023989   1.000000
   24      -14.832386   1.000000
   25      -14.786447   1.000000
   26      -14.591162   1.000000
   27      -14.169270   1.000000
   28      -13.701924   1.000000
   29       -6.538716   1.000000
   30       -6.169950   1.000000
   31       -6.085700   1.000000
   32       -5.842444   1.000000
   33       -5.633875   1.000000
   34       -5.492684   1.000000
   35       -5.284935   1.000000
   36       -5.088126   1.000000
   37       -4.847196   1.000000
   38       -4.827877   1.000000
   39       -4.599974   1.000000
   40       -4.459125   1.000000
   41       -4.242769   1.000000
   42       -4.078509   1.000000
   43       -3.966525   1.000000
   44       -3.928250   1.000000
   45       -3.777716   1.000000
   46       -3.517886   1.000000
   47       -3.477368   1.000000
   48       -3.251943   1.000000
   49       -3.074092   1.000000
   50       -2.969227   1.000000
   51       -2.856580   1.000000
   52       -2.825632   1.000000
   53       -2.731042   1.000000
   54       -2.284607   1.000000
   55       -2.039206   1.000000
   56       -1.999265   1.000000
   57       -1.971109   1.000000
   58       -1.653132   1.000000
   59       -1.608261   1.000000
   60       -1.463685   1.000000
   61       -1.155689   1.000000
   62       -0.690355   1.000000
   63       -0.419569   0.999998
   64       -0.190687   0.910661
   65        0.022806   0.047024
   66        0.295403   0.000000
   67        0.543430   0.000000
   68        1.076960   0.000000
   69        1.216969   0.000000
   70        1.527650   0.000000
   71        2.511793   0.000000
   72        3.004137   0.000000
   73        3.067772   0.000000
   74        3.874490   0.000000
   75        4.216396   0.000000
   76        5.638918   0.000000
 
  0.4000000E+00  0.2857143E+00  0.0000000E+00  0.1142857E+00
    1      -35.627228   1.000000
    2      -34.405871   1.000000
    3      -33.087921   1.000000
    4      -32.476675   1.000000
    5      -20.078574   1.000000
    6      -19.663345   1.000000
    7      -19.089379   1.000000
    8      -18.993159   1.000000
    9      -18.717942   1.000000
   10      -18.266579   1.000000
   11      -17.726842   1.000000
   12      -17.472985   1.000000
   13      -17.371873   1.000000
   14      -17.361650   1.000000
   15      -17.148763   1.000000
   16      -16.900339   1.000000
   17      -16.430706   1.000000
   18      -16.347161   1.000000
   19      -16.271442   1.000000
   20      -16.133505   1.000000
   21      -15.909319   1.000000
   22      -15.838245   1.000000
   23      -14.941503   1.000000
   24      -14.834056   1.000000
   25      -14.776219   1.000000
   26      -14.618717   1.000000
   27      -14.128379   1.000000
   28      -13.683866   1.000000
   29       -6.506800   1.000000
   30       -6.267226   1.000000
   31       -6.165221   1.000000
   32       -6.017768   1.000000
   33       -5.567749   1.000000
   34       -5.359708   1.000000
   35       -5.329326   1.000000
   36       -5.127294   1.000000
   37       -4.984866   1.000000
   38       -4.765207   1.000000
   39       -4.544373   1.000000
   40       -4.497054   1.000000
   41       -4.116025   1.000000
   42       -4.042704   1.000000
   43       -4.005373   1.000000
   44       -3.874982   1.000000
   45       -3.810057   1.000000
   46       -3.719848   1.000000
   47       -3.421910   1.000000
   48       -3.171450   1.000000
   49       -3.097758   1.000000
   50       -3.021266   1.000000
   51       -2.904726   1.000000
   52       -2.747717   1.000000
   53       -2.578379   1.000000
   54       -2.289880   1.000000
   55       -2.234642   1.000000
   56       -1.993343   1.000000
   57       -1.889060   1.000000
   58       -1.630710   1.000000
   59       -1.586509   1.000000
   60       -1.535154   1.000000
   61       -0.903201   1.000000
   62       -0.655295   1.000000
   63       -0.427589   0.999999
   64       -0.380263   0.999972
   65        0.024688   0.044469
   66        0.108628   0.001938
   67        0.575870   0.000000
   68        0.999395   0.000000
   69        1.275822   0.000000
   70        1.470038   0.000000
   71        2.042185   0.000000
   72        2.619641   0.000000
   73        2.926514   0.000000
   74        3.872740   0.000000
   75        4.123203   0.000000
   76        5.685497   0.000000
 
  0.0000000E+00  0.4285714E+00  0.0000000E+00  0.5714286E-01
    1      -35.619384   1.000000
    2      -34.398676   1.000000
    3      -33.080757   1.000000
    4      -32.468836   1.000000
    5      -20.334889   1.000000
    6      -19.291066   1.000000
    7      -19.037461   1.000000
    8      -18.948540   1.000000
    9      -18.849925   1.000000
   10      -18.010131   1.000000
   11      -17.806078   1.000000
   12      -17.654230   1.000000
   13      -17.594239   1.000000
   14      -17.173257   1.000000
   15      -17.073433   1.000000
   16      -16.671725   1.000000
   17      -16.640832   1.000000
   18      -16.600593   1.000000
   19      -16.335604   1.000000
   20      -15.957266   1.000000
   21      -15.852214   1.000000
   22      -15.504953   1.000000
   23      -15.271737   1.000000
   24      -14.791094   1.000000
   25      -14.640958   1.000000
   26      -14.558953   1.000000
   27      -14.547891   1.000000
   28      -13.460659   1.000000
   29       -6.719594   1.000000
   30       -6.292343   1.000000
   31       -5.945783   1.000000
   32       -5.803879   1.000000
   33       -5.750599   1.000000
   34       -5.515178   1.000000
   35       -5.507585   1.000000
   36       -5.183301   1.000000
   37       -4.952999   1.000000
   38       -4.935753   1.000000
   39       -4.668522   1.000000
   40       -4.555047   1.000000
   41       -4.264928   1.000000
   42       -4.127660   1.000000
   43       -4.050993   1.000000
   44       -3.877163   1.000000
   45       -3.809605   1.000000
   46       -3.559827   1.000000
   47       -3.536857   1.000000
   48       -3.162205   1.000000
   49       -3.131861   1.000000
   50       -3.025226   1.000000
   51       -2.959245   1.000000
   52       -2.871037   1.000000
   53       -2.826287   1.000000
   54       -2.455800   1.000000
   55       -2.329091   1.000000
   56       -1.892346   1.000000
   57       -1.762326   1.000000
   58       -1.711278   1.000000
   59       -1.619267   1.000000
   60       -1.401471   1.000000
   61       -1.274695   1.000000
   62       -0.447458   1.000000
   63       -0.427380   0.999999
   64       -0.171627   0.858875
   65       -0.129242   0.682917
   66        0.413138   0.000000
   67        0.995128   0.000000
   68        1.150649   0.000000
   69        1.426637   0.000000
   70        1.738068   0.000000
   71        2.658684   0.000000
   72        2.867108   0.000000
   73        3.441185   0.000000
   74        3.959655   0.000000
   75        4.568298   0.000000
   76        5.701851   0.000000
 
  0.2000000E+00  0.4285714E+00  0.0000000E+00  0.1142857E+00
    1      -35.619327   1.000000
    2      -34.398607   1.000000
    3      -33.080691   1.000000
    4      -32.468797   1.000000
    5      -20.296506   1.000000
    6      -19.349611   1.000000
    7      -19.043725   1.000000
    8      -18.912902   1.000000
    9      -18.901676   1.000000
   10      -18.059659   1.000000
   11      -17.737940   1.000000
   12      -17.668029   1.000000
   13      -17.558085   1.000000
   14      -17.211088   1.000000
   15      -17.073855   1.000000
   16      -16.690052   1.000000
   17      -16.641734   1.000000
   18      -16.520072   1.000000
   19      -16.348459   1.000000
   20      -15.960857   1.000000
   21      -15.885666   1.000000
   22      -15.548342   1.000000
   23      -15.190743   1.000000
   24      -14.790878   1.000000
   25      -14.703049   1.000000
   26      -14.596480   1.000000
   27      -14.424004   1.000000
   28      -13.445386   1.000000
   29       -6.684383   1.000000
   30       -6.298880   1.000000
   31       -6.120009   1.000000
   32       -5.928980   1.000000
   33       -5.746929   1.000000
   34       -5.542668   1.000000
   35       -5.487548   1.000000
   36       -5.167418   1.000000
   37       -5.019027   1.000000
   38       -4.836907   1.000000
   39       -4.675005   1.000000
   40       -4.520454   1.000000
   41       -4.231617   1.000000
   42       -4.140753   1.000000
   43       -4.005976   1.000000
   44       -3.908643   1.000000
   45       -3.771893   1.000000
   46       -3.649739   1.000000
   47       -3.492462   1.000000
   48       -3.329040   1.000000
   49       -3.085999   1.000000
   50       -2.969089   1.000000
   51       -2.940271   1.000000
   52       -2.794778   1.000000
   53       -2.752081   1.000000
   54       -2.552405   1.000000
   55       -2.213147   1.000000
   56       -2.022241   1.000000
   57       -1.772355   1.000000
   58       -1.595076   1.000000
   59       -1.580404   1.000000
   60       -1.430400   1.000000
   61       -1.167953   1.000000
   62       -0.463856   1.000000
   63       -0.392284   0.999986
   64       -0.217584   0.957755
   65       -0.060306   0.308879
   66        0.442658   0.000000
   67        0.642226   0.000000
   68        1.085091   0.000000
   69        1.289522   0.000000
   70        1.474585   0.000000
   71        1.971108   0.000000
   72        2.584345   0.000000
   73        2.748363   0.000000
   74        3.849641   0.000000
   75        4.046846   0.000000
   76        5.983929   0.000000
 
  0.4000000E+00  0.4285714E+00  0.0000000E+00  0.1142857E+00
    1      -35.619234   1.000000
    2      -34.398495   1.000000
    3      -33.080585   1.000000
    4      -32.468733   1.000000
    5      -20.224450   1.000000
    6      -19.450032   1.000000
    7      -19.045777   1.000000
    8      -18.991865   1.000000
    9      -18.839686   1.000000
   10      -18.149689   1.000000
   11      -17.697817   1.000000
   12      -17.628779   1.000000
   13      -17.487884   1.000000
   14      -17.265155   1.000000
   15      -17.066677   1.000000
   16      -16.778092   1.000000
   17      -16.589781   1.000000
   18      -16.408793   1.000000
   19      -16.366147   1.000000
   20      -15.988751   1.000000
   21      -15.902943   1.000000
   22      -15.622527   1.000000
   23      -15.075292   1.000000
   24      -14.794576   1.000000
   25      -14.764028   1.000000
   26      -14.588312   1.000000
   27      -14.329365   1.000000
   28      -13.421835   1.000000
   29       -6.618643   1.000000
   30       -6.334908   1.000000
   31       -6.294808   1.000000
   32       -6.105579   1.000000
   33       -5.825569   1.000000
   34       -5.566860   1.000000
   35       -5.408077   1.000000
   36       -5.142063   1.000000
   37       -5.041181   1.000000
   38       -4.847636   1.000000
   39       -4.820547   1.000000
   40       -4.380479   1.000000
   41       -4.133984   1.000000
   42       -4.109503   1.000000
   43       -4.031841   1.000000
   44       -3.920401   1.000000