unknown system                          
   1.00000000000000     
     5.581684    0.000000    0.000000
     0.000000    3.946846    0.000000
     0.000000    0.000000   21.767946
   O    Sr   Ti
    12     4     4
Direct
  0.500000  0.000000  0.233947
  0.241884  0.500000  0.307633
  0.758116  0.500000  0.307633
  0.000000  0.000000  0.382928
  0.746992  0.500000  0.452916
  0.253008  0.500000  0.452916
  0.500000  0.000000  0.525777
  0.245574  0.500000  0.596497
  0.754426  0.500000  0.596497
  0.000000  0.000000  0.669423
  0.747570  0.500000  0.739141
  0.252430  0.500000  0.739141
  0.000000  0.000000  0.274785
  0.500000  0.000000  0.417464
  0.000000  0.000000  0.560122
  0.500000  0.000000  0.717981
  0.500000  0.500000  0.258638
  0.000000  0.500000  0.402847
  0.500000  0.500000  0.546924
  0.000000  0.500000  0.688580
 
   32   24  120
 0.42744E-14 0.10048E-13 0.12990E-12 0.21227E-11 0.32475E-11 0.32703E-11 0.33332E-11 0.32999E-11 0.33133E-11 0.33521E-11
 0.35003E-11 0.35785E-11 0.27634E-11 0.29310E-13 0.22204E-15 0.16653E-15 -.55511E-16 0.16653E-15 0.49960E-15 0.29254E-13
 0.27546E-11 0.35859E-11 0.34838E-11 0.33661E-11 0.32987E-11 0.33239E-11 0.33164E-11 0.32951E-11 0.32321E-11 0.21307E-11
 0.12979E-12 0.10103E-13 0.94369E-14 0.22427E-13 0.30898E-12 0.47380E-11 0.67282E-11 0.67542E-11 0.68593E-11 0.67309E-11
 0.67098E-11 0.67940E-11 0.71413E-11 0.73538E-11 0.60704E-11 0.73885E-13 0.61062E-15 -.55511E-16 0.11102E-15 -.11102E-15
 0.66613E-15 0.73719E-13 0.60407E-11 0.73799E-11 0.71044E-11 0.68194E-11 0.66748E-11 0.67917E-11 0.68176E-11 0.68092E-11
 0.66826E-11 0.47631E-11 0.30881E-12 0.22371E-13 0.11458E-12 0.29826E-12 0.49846E-11 0.57537E-10 0.66502E-10 0.66066E-10
 0.66075E-10 0.60689E-10 0.57210E-10 0.58669E-10 0.65985E-10 0.71125E-10 0.68502E-10 0.13877E-11 0.77161E-14 0.49960E-15
 0.27756E-15 0.55511E-15 0.76605E-14 0.13894E-11 0.67735E-10 0.71867E-10 0.65515E-10 0.59077E-10 0.56707E-10 0.61567E-10
 0.65229E-10 0.66892E-10 0.65599E-10 0.58331E-10 0.49758E-11 0.29787E-12 0.13555E-10 0.43458E-10 0.12565E-08 0.55093E-08
 0.50289E-08 0.47802E-08 0.41198E-08 0.22452E-08 0.14624E-08 0.16279E-08 0.30072E-08 0.46738E-08 0.59754E-08 0.32688E-09
 0.89773E-12 0.33751E-13 0.12157E-13 0.33640E-13 0.89750E-12 0.32808E-09 0.57344E-08 0.49197E-08 0.29372E-08 0.16594E-08
 0.14405E-08 0.23186E-08 0.39758E-08 0.49874E-08 0.47626E-08 0.58004E-08 0.12507E-08 0.43392E-10 0.67629E-06 0.72999E-05
 0.97599E-06 0.16561E-05 0.14764E-05 0.30724E-05 0.81907E-06 0.22061E-07 0.67687E-08 0.86755E-08 0.53201E-07 0.58049E-05
 0.13634E-05 0.16539E-05 0.13277E-08 0.33857E-10 0.10348E-10 0.33876E-10 0.13255E-08 0.17756E-05 0.15928E-05 0.81434E-05
 0.52050E-07 0.87670E-08 0.67319E-08 0.22462E-07 0.74485E-06 0.23771E-05 0.17522E-05 0.14831E-05 0.10017E-05 0.73303E-05
 0.88019E-05 0.32326E-03 0.15048E-05 0.71662E-06 0.63243E-06 0.71707E-06 0.28451E-04 0.37724E-07 0.97238E-08 0.13017E-07
 0.10971E-06 0.36175E-05 0.77794E-06 0.11619E-05 0.79508E-08 0.10000E-08 0.52743E-09 0.10001E-08 0.79497E-08 0.11654E-05
 0.78048E-06 0.35951E-05 0.10962E-06 0.13023E-07 0.97211E-08 0.37745E-07 0.27913E-04 0.71356E-06 0.63433E-06 0.71563E-06
 0.15073E-05 0.32076E-03 0.12233E-05 0.61106E-05 0.32982E-05 0.80691E-06 0.56587E-06 0.69529E-06 0.33261E-05 0.30037E-07
 0.84427E-08 0.11075E-07 0.72725E-07 0.15339E-04 0.52201E-06 0.10616E-04 0.10269E-07 0.12211E-08 0.64058E-09 0.12211E-08
 0.10269E-07 0.10616E-04 0.52201E-06 0.15339E-04 0.72724E-07 0.11075E-07 0.84427E-08 0.30037E-07 0.33260E-05 0.69528E-06
 0.56587E-06 0.80691E-06 0.32982E-05 0.61106E-05 0.12394E-04 0.27407E-03 0.17175E-05 0.64424E-06 0.55319E-06 0.72959E-06
 0.40682E-04 0.45614E-07 0.11366E-07 0.15756E-07 0.13771E-06 0.31916E-05 0.60159E-06 0.25818E-05 0.90670E-08 0.11584E-08
 0.61863E-09 0.11584E-08 0.90676E-08 0.25696E-05 0.59905E-06 0.32112E-05 0.13783E-06 0.15747E-07 0.11371E-07 0.45579E-07
 0.41970E-04 0.73339E-06 0.55178E-06 0.64533E-06 0.17150E-05 0.27772E-03 0.66991E-06 0.13167E-05 0.77113E-04 0.39783E-05
 0.61922E-05 0.15748E-05 0.30751E-06 0.13664E-07 0.42619E-08 0.42804E-08 0.27250E-07 0.22301E-04 0.22096E-05 0.13029E-05
 0.10514E-07 0.13450E-08 0.71339E-09 0.13446E-08 0.10539E-07 0.11260E-05 0.15432E-05 0.10317E-04 0.27905E-07 0.42258E-08
 0.43250E-08 0.13353E-07 0.35497E-06 0.21833E-05 0.45426E-05 0.49196E-05 0.18598E-03 0.12859E-05 0.19973E-08 0.20572E-08
 0.22027E-08 0.23813E-08 0.23859E-08 0.15828E-08 0.33426E-09 0.44712E-09 0.10247E-09 0.38558E-10 0.14757E-09 0.16120E-08
 0.30832E-08 0.26772E-08 0.12152E-08 0.47112E-09 0.31535E-09 0.46751E-09 0.12213E-08 0.25830E-08 0.33253E-08 0.15378E-08
 0.14955E-09 0.38265E-10 0.10382E-09 0.43701E-09 0.34349E-09 0.15071E-08 0.24528E-08 0.22940E-08 0.22795E-08 0.20481E-08
 0.35351E-10 0.35476E-10 0.35956E-10 0.37518E-10 0.37546E-10 0.19482E-10 0.95171E-11 0.20369E-10 0.13504E-11 0.51531E-12
 0.19243E-11 0.21284E-10 0.47501E-10 0.49668E-10 0.44103E-10 0.36292E-10 0.32447E-10 0.36066E-10 0.44336E-10 0.49034E-10
 0.48642E-10 0.20955E-10 0.19342E-11 0.51342E-12 0.13566E-11 0.20041E-10 0.96434E-11 0.19222E-10 0.37830E-10 0.36869E-10
 0.36472E-10 0.35466E-10 0.39695E-11 0.39527E-11 0.39706E-11 0.41102E-11 0.40078E-11 0.20640E-11 0.15203E-11 0.21201E-11
 0.97033E-13 0.42133E-13 0.15982E-12 0.19223E-11 0.51958E-11 0.55876E-11 0.53848E-11 0.50582E-11 0.48503E-11 0.50435E-11
 0.54095E-11 0.55413E-11 0.52817E-11 0.19055E-11 0.16015E-12 0.41966E-13 0.97367E-13 0.20979E-11 0.15321E-11 0.20507E-11
 0.40307E-11 0.40673E-11 0.39978E-11 0.39615E-11 0.19879E-11 0.19749E-11 0.19778E-11 0.20390E-11 0.19688E-11 0.10243E-11
 0.85526E-12 0.93078E-12 0.41356E-13 0.18985E-13 0.71387E-13 0.88141E-12 0.25717E-11 0.28020E-11 0.27366E-11 0.26201E-11
 0.25406E-11 0.26163E-11 0.27451E-11 0.27809E-11 0.26135E-11 0.87480E-12 0.71387E-13 0.18818E-13 0.41550E-13 0.92218E-12
 0.86076E-12 0.10198E-11 0.19788E-11 0.20218E-11 0.19872E-11 0.19805E-11 0.39666E-11 0.39505E-11 0.39695E-11 0.41098E-11
 0.40078E-11 0.20639E-11 0.15199E-11 0.21192E-11 0.96867E-13 0.42244E-13 0.15954E-12 0.19217E-11 0.51959E-11 0.55934E-11
 0.53985E-11 0.50776E-11 0.48695E-11 0.50628E-11 0.54234E-11 0.55470E-11 0.52816E-11 0.19051E-11 0.16026E-12 0.42022E-13
 0.97311E-13 0.20972E-11 0.15318E-11 0.20507E-11 0.40307E-11 0.40670E-11 0.39968E-11 0.39593E-11 0.35425E-10 0.35535E-10
 0.35990E-10 0.37534E-10 0.37548E-10 0.19489E-10 0.95248E-11 0.20422E-10 0.13520E-11 0.51553E-12 0.19263E-11 0.21320E-10
 0.47496E-10 0.49475E-10 0.43670E-10 0.35732E-10 0.31929E-10 0.35511E-10 0.43899E-10 0.48846E-10 0.48638E-10 0.20990E-10
 0.19360E-11 0.51398E-12 0.13579E-11 0.20093E-10 0.96512E-11 0.19229E-10 0.37832E-10 0.36884E-10 0.36506E-10 0.35525E-10
 0.19656E-08 0.20278E-08 0.21795E-08 0.23685E-08 0.23842E-08 0.15761E-08 0.33160E-09 0.43823E-09 0.10112E-09 0.38253E-10
 0.14584E-09 0.15815E-08 0.30861E-08 0.27627E-08 0.12814E-08 0.49880E-09 0.33421E-09 0.49486E-09 0.12881E-08 0.26640E-08
 0.33286E-08 0.15093E-08 0.14779E-09 0.37964E-10 0.10245E-09 0.42841E-09 0.34072E-09 0.15010E-08 0.24511E-08 0.22819E-08
 0.22551E-08 0.20188E-08 0.11872E-05 0.26130E-05 0.30163E-03 0.30336E-05 0.59212E-05 0.13355E-05 0.43120E-06 0.15743E-07
 0.47446E-08 0.47487E-08 0.32834E-07 0.30773E-03 0.22778E-05 0.61782E-06 0.86466E-08 0.11888E-08 0.63808E-09 0.11884E-08
 0.86646E-08 0.55810E-06 0.15828E-05 0.55144E-03 0.33702E-07 0.46850E-08 0.48187E-08 0.15359E-07 0.51167E-06 0.18007E-05
 0.43714E-05 0.36470E-05 0.10386E-03 0.25275E-05 0.25577E-05 0.18549E-04 0.31137E-05 0.73486E-06 0.56192E-06 0.84227E-06
 0.43145E-05 0.34188E-07 0.91673E-08 0.12432E-07 0.88017E-07 0.20138E-04 0.58940E-06 0.92825E-04 0.11677E-07 0.13232E-08
 0.68660E-09 0.13232E-08 0.11678E-07 0.90227E-04 0.58693E-06 0.20451E-04 0.88078E-07 0.12426E-07 0.91711E-08 0.34165E-07
 0.43583E-05 0.84699E-06 0.56047E-06 0.73618E-06 0.31074E-05 0.18485E-04 0.31811E-05 0.10317E-03 0.17825E-05 0.70443E-06
 0.55708E-06 0.60550E-06 0.34488E-04 0.40273E-07 0.10437E-07 0.14138E-07 0.11555E-06 0.28739E-05 0.53215E-06 0.13765E-05
 0.79629E-08 0.10636E-08 0.57184E-09 0.10636E-08 0.79629E-08 0.13765E-05 0.53215E-06 0.28739E-05 0.11555E-06 0.14138E-07
 0.10437E-07 0.40273E-07 0.34487E-04 0.60550E-06 0.55709E-06 0.70443E-06 0.17825E-05 0.10318E-03 0.21377E-05 0.15307E-04
 0.27200E-05 0.82129E-06 0.64222E-06 0.82858E-06 0.31437E-05 0.28542E-07 0.79467E-08 0.10237E-07 0.71312E-07 0.21031E-04
 0.76211E-06 0.49716E-05 0.10204E-07 0.11461E-08 0.58843E-09 0.11461E-08 0.10202E-07 0.50018E-05 0.76458E-06 0.20720E-04
 0.71265E-07 0.10241E-07 0.79447E-08 0.28556E-07 0.31238E-05 0.82422E-06 0.64416E-06 0.82007E-06 0.27259E-05 0.15333E-04
 0.13192E-05 0.21457E-05 0.65798E-06 0.13434E-05 0.14419E-05 0.22973E-05 0.20176E-05 0.28355E-07 0.80814E-08 0.10665E-07
 0.77572E-07 0.12960E-03 0.14015E-05 0.61829E-06 0.12111E-08 0.33039E-10 0.10183E-10 0.33057E-10 0.12092E-08 0.64552E-06
 0.16410E-05 0.18532E-02 0.75552E-07 0.10789E-07 0.80334E-08 0.28941E-07 0.17416E-05 0.18367E-05 0.17076E-05 0.12160E-05
 0.67215E-06 0.21506E-05 0.13534E-10 0.43324E-10 0.12425E-08 0.54640E-08 0.50238E-08 0.47361E-08 0.39730E-08 0.21236E-08
 0.13769E-08 0.15326E-08 0.28314E-08 0.45046E-08 0.59858E-08 0.33222E-09 0.89972E-12 0.33751E-13 0.11879E-13 0.33640E-13
 0.89928E-12 0.33345E-09 0.57442E-08 0.47371E-08 0.27675E-08 0.15614E-08 0.13570E-08 0.21911E-08 0.38366E-08 0.49404E-08
 0.47579E-08 0.57515E-08 0.12368E-08 0.43258E-10 0.11480E-12 0.29843E-12 0.49867E-11 0.57572E-10 0.66508E-10 0.66123E-10
 0.66307E-10 0.61107E-10 0.57687E-10 0.59187E-10 0.66416E-10 0.71366E-10 0.68492E-10 0.13867E-11 0.75495E-14 0.49960E-15
 0.22204E-15 0.44409E-15 0.78826E-14 0.13884E-11 0.67726E-10 0.72111E-10 0.65942E-10 0.59600E-10 0.57178E-10 0.61994E-10
 0.65457E-10 0.66949E-10 0.65606E-10 0.58367E-10 0.49779E-11 0.29798E-12 0.92149E-14 0.22482E-13 0.30870E-12 0.47374E-11
 0.67280E-11 0.67533E-11 0.68562E-11 0.67239E-11 0.67009E-11 0.67857E-11 0.71371E-11 0.73518E-11 0.60705E-11 0.73885E-13
 0.72164E-15 -.55511E-16  0.0000     0.55511E-16 0.72164E-15 0.73663E-13 0.60408E-11 0.73776E-11 0.71003E-11 0.68112E-11
 0.66660E-11 0.67846E-11 0.68146E-11 0.68082E-11 0.66827E-11 0.47632E-11 0.30836E-12 0.22482E-13 0.43854E-14 0.10214E-13
 0.13239E-12 0.21456E-11 0.34225E-11 0.34436E-11 0.34715E-11 0.34868E-11 0.35808E-11 0.36408E-11 0.38199E-11 0.38952E-11
 0.35064E-11 0.58120E-13 0.44409E-15 0.11102E-15  0.0000      0.0000     0.72164E-15 0.58120E-13 0.34708E-11 0.39500E-11
 0.37805E-11 0.36882E-11 0.35420E-11 0.35161E-11 0.34545E-11 0.34448E-11 0.34102E-11 0.21534E-11 0.13212E-12 0.10381E-13
 0.96589E-14 0.23315E-13 0.31219E-12 0.47725E-11 0.70731E-11 0.71178E-11 0.71574E-11 0.71675E-11 0.73730E-11 0.74752E-11
 0.79089E-11 0.80564E-11 0.76552E-11 0.14910E-12 0.13878E-14 -.55511E-16 0.55511E-16 0.27756E-15 0.13323E-14 0.14910E-12
 0.75468E-11 0.81821E-11 0.78011E-11 0.75929E-11 0.72785E-11 0.72529E-11 0.71246E-11 0.71199E-11 0.70507E-11 0.47974E-11
 0.31122E-12 0.23315E-13 0.11507E-12 0.29765E-12 0.47474E-11 0.55744E-10 0.68669E-10 0.69587E-10 0.70414E-10 0.68776E-10
 0.69869E-10 0.70087E-10 0.77215E-10 0.79197E-10 0.84217E-10 0.30253E-11 0.15932E-13 0.94369E-15 0.38858E-15 0.99920E-15
 0.16043E-13 0.30391E-11 0.81834E-10 0.81159E-10 0.75218E-10 0.72270E-10 0.68180E-10 0.70160E-10 0.69668E-10 0.69957E-10
 0.68398E-10 0.56318E-10 0.47297E-11 0.29760E-12 0.12035E-10 0.36734E-10 0.83518E-09 0.42382E-08 0.49330E-08 0.51043E-08
 0.52190E-08 0.42905E-08 0.37290E-08 0.35674E-08 0.50919E-08 0.59506E-08 0.65537E-08 0.10600E-08 0.21330E-11 0.72220E-13
 0.25258E-13 0.72109E-13 0.21320E-11 0.10891E-08 0.60946E-08 0.64758E-08 0.46767E-08 0.38858E-08 0.34708E-08 0.44765E-08
 0.49990E-08 0.53037E-08 0.48060E-08 0.43809E-08 0.82064E-09 0.36798E-10 0.49236E-07 0.20580E-06 0.57019E-05 0.12788E-04
 0.15463E-05 0.12902E-05 0.37984E-05 0.97780E-06 0.12212E-06 0.12007E-06 0.11123E-05 0.25574E-05 0.72352E-06 0.83657E-05
 0.62228E-08 0.98619E-10 0.26979E-10 0.98641E-10 0.61899E-08 0.13033E-04 0.83607E-06 0.19755E-05 0.89485E-06 0.13104E-06
 0.11389E-06 0.11051E-05 0.50474E-05 0.11145E-05 0.16923E-05 0.91698E-05 0.41652E-05 0.21601E-06 0.12497E-04 0.36887E-05
 0.96200E-06 0.57467E-06 0.57911E-06 0.56594E-06 0.78128E-06 0.12873E-01 0.40956E-06 0.44703E-06 0.21399E-02 0.76858E-06
 0.38608E-06 0.31287E-04 0.12213E-07 0.15689E-08 0.84615E-09 0.15689E-08 0.12210E-07 0.32112E-04 0.38744E-06 0.76554E-06
 0.27321E-02 0.44899E-06 0.40802E-06 0.79612E-02 0.78472E-06 0.56392E-06 0.58023E-06 0.57332E-06 0.96700E-06 0.36546E-05
 0.28120E-05 0.21620E-05 0.10005E-05 0.61496E-06 0.60968E-06 0.66961E-06 0.12297E-05 0.53954E-05 0.19986E-06 0.20079E-06
 0.40936E-05 0.14494E-05 0.56758E-06 0.83678E-05 0.20965E-07 0.21114E-08 0.10784E-08 0.21115E-08 0.20964E-07 0.83583E-05
 0.56779E-06 0.14488E-05 0.40909E-05 0.20083E-06 0.19981E-06 0.54014E-05 0.12303E-05 0.66937E-06 0.60980E-06 0.61481E-06
 0.10010E-05 0.21606E-05 0.18562E-05 0.13473E-05 0.74075E-06 0.58937E-06 0.59689E-06 0.50565E-06 0.80136E-06 0.66602E-03
 0.44201E-06 0.42683E-06 0.10662E-03 0.76333E-06 0.51667E-06 0.11606E-04 0.15120E-07 0.18712E-08 0.98659E-09 0.18711E-08
 0.15124E-07 0.11487E-04 0.51522E-06 0.76535E-06 0.10958E-03 0.42554E-06 0.44343E-06 0.60902E-03 0.79908E-06 0.50684E-06
 0.59579E-06 0.59079E-06 0.73870E-06 0.13513E-05 0.11752E-03 0.88672E-05 0.29510E-05 0.12321E-05 0.79287E-06 0.20129E-05
 0.39002E-06 0.34114E-06 0.58903E-06 0.63273E-06 0.21587E-05 0.31911E-05 0.10678E-05 0.52641E-04 0.21844E-07 0.24134E-08
 0.12489E-08 0.24059E-08 0.22150E-07 0.16274E-03 0.90806E-06 0.42426E-05 0.17273E-05 0.75351E-06 0.51030E-06 0.31467E-06
 0.42907E-06 0.25632E-05 0.71297E-06 0.14267E-05 0.24027E-05 0.11506E-04 0.13905E-07 0.14692E-07 0.14399E-07 0.17563E-07
 0.16184E-07 0.39784E-08 0.58781E-09 0.69049E-08 0.64068E-08 0.21110E-08 0.55153E-08 0.49915E-07 0.20435E-07 0.17307E-07
 0.46933E-08 0.13233E-08 0.82057E-09 0.13034E-08 0.48447E-08 0.16182E-07 0.23186E-07 0.41196E-07 0.60136E-08 0.19931E-08
 0.59500E-08 0.64599E-08 0.60337E-09 0.37107E-08 0.17730E-07 0.16284E-07 0.15517E-07 0.14285E-07 0.21910E-09 0.21930E-09
 0.21973E-09 0.23101E-09 0.20802E-09 0.57758E-10 0.18335E-10 0.69271E-09 0.45341E-10 0.43581E-11 0.14086E-10 0.21244E-09
 0.34427E-09 0.34425E-09 0.28393E-09 0.20471E-09 0.17126E-09 0.20161E-09 0.28942E-09 0.33674E-09 0.35714E-09 0.20471E-09
 0.14270E-10 0.43258E-11 0.46143E-10 0.64300E-09 0.18644E-10 0.56318E-10 0.21439E-09 0.22602E-09 0.22250E-09 0.21948E-09
 0.24639E-10 0.24399E-10 0.24365E-10 0.24943E-10 0.21908E-10 0.62593E-11 0.30952E-11 0.11794E-09 0.12538E-11 0.25918E-12
 0.91116E-12 0.14846E-10 0.39648E-10 0.40803E-10 0.38961E-10 0.34949E-10 0.32620E-10 0.34702E-10 0.39384E-10 0.40145E-10
 0.40429E-10 0.14634E-10 0.91610E-12 0.25829E-12 0.12609E-11 0.11080E-09 0.31380E-11 0.61609E-11 0.22223E-10 0.24631E-10
 0.24419E-10 0.24567E-10 0.12339E-10 0.12143E-10 0.12093E-10 0.12385E-10 0.10740E-10 0.31187E-11 0.17947E-11 0.50485E-10
 0.44781E-12 0.10858E-12 0.39191E-12 0.64356E-11 0.19925E-10 0.20820E-10 0.20401E-10 0.18996E-10 0.18096E-10 0.18895E-10
 0.20586E-10 0.20528E-10 0.20257E-10 0.63676E-11 0.39313E-12 0.10797E-12 0.44958E-12 0.47971E-10 0.18179E-11 0.30767E-11
 0.10843E-10 0.12222E-10 0.12110E-10 0.12276E-10 0.24608E-10 0.24377E-10 0.24356E-10 0.24938E-10 0.21909E-10 0.62591E-11
 0.30945E-11 0.11758E-09 0.12529E-11 0.25918E-12 0.91088E-12 0.14837E-10 0.39652E-10 0.40879E-10 0.39150E-10 0.35179E-10
 0.32842E-10 0.34930E-10 0.39576E-10 0.40219E-10 0.40434E-10 0.14626E-10 0.91571E-12 0.25813E-12 0.12603E-11 0.11047E-09
 0.31373E-11 0.61607E-11 0.22223E-10 0.24627E-10 0.24410E-10 0.24545E-10 0.22019E-09 0.22019E-09 0.22019E-09 0.23116E-09
 0.20801E-09 0.57763E-10 0.18347E-10 0.70212E-09 0.45600E-10 0.43658E-11 0.14120E-10 0.21335E-09 0.34406E-09 0.34094E-09
 0.27758E-09 0.19898E-09 0.16641E-09 0.19600E-09 0.28288E-09 0.33353E-09 0.35691E-09 0.20558E-09 0.14304E-10 0.43338E-11
 0.46409E-10 0.65140E-09 0.18657E-10 0.56322E-10 0.21438E-09 0.22617E-09 0.22297E-09 0.22038E-09 0.13200E-07 0.14080E-07
 0.14067E-07 0.17406E-07 0.16202E-07 0.39740E-08 0.58424E-09 0.65069E-08 0.69905E-08 0.20127E-08 0.51997E-08 0.45541E-07
 0.20594E-07 0.19228E-07 0.53456E-08 0.14806E-08 0.91138E-09 0.14571E-08 0.55299E-08 0.17914E-07 0.23378E-07 0.37897E-07
 0.56551E-08 0.19028E-08 0.64712E-08 0.60992E-08 0.59966E-09 0.37067E-08 0.17751E-07 0.16143E-07 0.15146E-07 0.13698E-07
 0.86514E-05 0.33722E-05 0.19400E-05 0.11038E-05 0.80186E-06 0.19423E-05 0.48796E-06 0.60559E-06 0.28134E-06 0.29887E-06
 0.76998E-06 0.15522E-05 0.11394E-05 0.86999E-05 0.15924E-07 0.20114E-08 0.10657E-08 0.20057E-08 0.16114E-07 0.62979E-05
 0.96398E-06 0.18851E-05 0.67199E-06 0.33645E-06 0.25450E-06 0.54417E-06 0.54308E-06 0.24621E-05 0.72063E-06 0.12678E-05
 0.16396E-05 0.39439E-05 0.51577E-05 0.26268E-05 0.97559E-06 0.64552E-06 0.58928E-06 0.51701E-06 0.11431E-05 0.44920E-05
 0.21936E-06 0.20917E-06 0.28863E-05 0.12598E-05 0.49288E-06 0.19345E-04 0.21540E-07 0.22988E-08 0.11807E-08 0.22987E-08
 0.21546E-07 0.19606E-04 0.49152E-06 0.12640E-05 0.28993E-05 0.20872E-06 0.21986E-06 0.44584E-05 0.11392E-05 0.51824E-06
 0.58819E-06 0.64714E-06 0.97249E-06 0.26377E-05 0.13157E-05 0.11888E-05 0.75222E-06 0.55851E-06 0.61817E-06 0.65222E-06
 0.83198E-06 0.62192E-03 0.43737E-06 0.47367E-06 0.23709E-03 0.84198E-06 0.59763E-06 0.27453E-04 0.14529E-07 0.17252E-08
 0.90876E-09 0.17252E-08 0.14528E-07 0.27510E-04 0.59785E-06 0.84169E-06 0.23828E-03 0.47385E-06 0.43721E-06 0.61460E-03
 0.83231E-06 0.65199E-06 0.61829E-06 0.55837E-06 0.75253E-06 0.11882E-05 0.36523E-03 0.11384E-04 0.13658E-05 0.63716E-06
 0.57124E-06 0.58097E-06 0.11753E-05 0.34812E-05 0.17426E-06 0.18609E-06 0.38518E-05 0.12338E-05 0.37153E-06 0.97644E-05
 0.16673E-07 0.18793E-08 0.98482E-09 0.18794E-08 0.16668E-07 0.96249E-05 0.37281E-06 0.12276E-05 0.38144E-05 0.18662E-06
 0.17383E-06 0.35127E-05 0.11816E-05 0.57886E-06 0.57234E-06 0.63558E-06 0.13742E-05 0.11200E-04 0.54315E-07 0.25204E-06
 0.14964E-04 0.83313E-05 0.15798E-05 0.12440E-05 0.19420E-05 0.44059E-05 0.23092E-06 0.22080E-06 0.52541E-05 0.13870E-05
 0.75944E-06 0.14882E-05 0.52047E-08 0.94896E-10 0.26348E-10 0.94916E-10 0.51795E-08 0.17731E-05 0.88081E-06 0.11432E-05
 0.33640E-05 0.24883E-06 0.20993E-06 0.57675E-05 0.23699E-05 0.10773E-05 0.17308E-05 0.63433E-05 0.91988E-05 0.26592E-06
 0.12022E-10 0.36665E-10 0.82956E-09 0.42126E-08 0.49376E-08 0.50947E-08 0.50900E-08 0.40673E-08 0.34698E-08 0.33209E-08
 0.47774E-08 0.57457E-08 0.65843E-08 0.10891E-08 0.21397E-11 0.72109E-13 0.25147E-13 0.71998E-13 0.21383E-11 0.11195E-08
 0.61220E-08 0.62434E-08 0.43994E-08 0.36062E-08 0.32376E-08 0.42388E-08 0.48780E-08 0.52935E-08 0.48104E-08 0.43540E-08
 0.81517E-09 0.36729E-10 0.11535E-12 0.29782E-12 0.47490E-11 0.55769E-10 0.68664E-10 0.69597E-10 0.70565E-10 0.69115E-10
 0.70360E-10 0.70650E-10 0.77702E-10 0.79447E-10 0.84183E-10 0.30221E-11 0.16043E-13 0.94369E-15 0.38858E-15 0.94369E-15
 0.15932E-13 0.30357E-11 0.81802E-10 0.81417E-10 0.75686E-10 0.72859E-10 0.68652E-10 0.70509E-10 0.69816E-10 0.69967E-10
 0.68393E-10 0.56344E-10 0.47314E-11 0.29776E-12 0.96034E-14 0.23259E-13 0.31178E-12 0.47722E-11 0.70730E-11 0.71178E-11
 0.71558E-11 0.71634E-11 0.73659E-11 0.74677E-11 0.79022E-11 0.80534E-11 0.76555E-11 0.14899E-12 0.13323E-14 0.16653E-15
 -.55511E-16 0.33307E-15 0.14433E-14 0.14949E-12 0.75471E-11 0.81787E-11 0.77944E-11 0.75853E-11 0.72715E-11 0.72487E-11
 0.71230E-11 0.71197E-11 0.70506E-11 0.47974E-11 0.31136E-12 0.23481E-13 0.51625E-14 0.12046E-13 0.14727E-12 0.24042E-11
 0.40436E-11 0.42357E-11 0.46363E-11 0.49919E-11 0.56317E-11 0.60355E-11 0.67170E-11 0.71779E-11 0.62901E-11 0.14899E-12
 0.16098E-14 0.16653E-15 0.27756E-16 0.55511E-16 0.16098E-14 0.14899E-12 0.62367E-11 0.72803E-11 0.65949E-11 0.61408E-11
 0.55247E-11 0.50922E-11 0.45626E-11 0.42905E-11 0.40073E-11 0.24048E-11 0.14755E-12 0.12101E-13 0.11602E-13 0.27200E-13
 0.34855E-12 0.54803E-11 0.85773E-11 0.89517E-11 0.98659E-11 0.10545E-10 0.11875E-10 0.12775E-10 0.14332E-10 0.15199E-10
 0.13919E-10 0.37986E-12 0.36637E-14 0.11102E-15 0.11102E-15 0.11102E-15 0.34972E-14 0.38020E-12 0.13746E-10 0.15447E-10
 0.14039E-10 0.13083E-10 0.11599E-10 0.10782E-10 0.96808E-11 0.91067E-11 0.84965E-11 0.54922E-11 0.34828E-12 0.27145E-13
 0.13922E-12 0.35505E-12 0.54187E-11 0.70574E-10 0.90880E-10 0.93438E-10 0.10473E-09 0.11025E-09 0.12626E-09 0.13353E-09
 0.15286E-09 0.16021E-09 0.16154E-09 0.70334E-11 0.50182E-13 0.29976E-14 0.13878E-14 0.27756E-14 0.50127E-13 0.70667E-11
 0.15737E-09 0.16454E-09 0.14760E-09 0.13968E-09 0.12078E-09 0.11490E-09 0.10111E-09 0.96425E-10 0.89295E-10 0.71123E-10
 0.54186E-11 0.35494E-12 0.14450E-10 0.43565E-10 0.11001E-08 0.78820E-08 0.77797E-08 0.75095E-08 0.93059E-08 0.89412E-08
 0.10926E-07 0.10368E-07 0.13559E-07 0.13385E-07 0.16138E-07 0.13267E-08 0.60260E-11 0.24419E-12 0.88374E-13 0.24397E-12
 0.60204E-11 0.13593E-08 0.14893E-07 0.14544E-07 0.12032E-07 0.12010E-07 0.94487E-08 0.10291E-07 0.82276E-08 0.82418E-08
 0.73340E-08 0.81448E-08 0.10910E-08 0.43584E-10 0.25287E-06 0.36356E-04 0.57617E-06 0.11157E-05 0.13624E-05 0.15553E-05
 0.11984E-05 0.25459E-05 0.60260E-05 0.59683E-04 0.44260E-05 0.31447E-05 0.19656E-05 0.30948E-03 0.73983E-08 0.22175E-09
 0.70804E-10 0.22179E-09 0.73580E-08 0.84266E-04 0.23262E-05 0.25066E-05 0.70281E-05 0.15224E-04 0.12303E-04 0.17678E-05
 0.15680E-05 0.12330E-05 0.15725E-05 0.10321E-05 0.61039E-06 0.29548E-04 0.61918E-06 0.67660E-06 0.80078E-06 0.87451E-06
 0.87222E-06 0.88387E-06 0.81357E-06 0.84804E-06 0.10991E-05 0.16662E-05 0.12876E-05 0.94816E-06 0.14951E-05 0.69863E-04
 0.58491E-07 0.67378E-08 0.34395E-08 0.67383E-08 0.58463E-07 0.72183E-04 0.15032E-05 0.94313E-06 0.12985E-05 0.16470E-05
 0.11088E-05 0.84150E-06 0.81909E-06 0.87841E-06 0.87550E-06 0.87242E-06 0.80268E-06 0.67556E-06 0.18657E-05 0.14797E-05
 0.12708E-05 0.11718E-05 0.94232E-06 0.91972E-06 0.99409E-06 0.12909E-05 0.22482E-05 0.45490E-05 0.29934E-05 0.14879E-05
 0.10758E-05 0.85705E-05 0.11896E-06 0.11799E-07 0.59897E-08 0.11800E-07 0.11895E-06 0.85544E-05 0.10767E-05 0.14860E-05
 0.29998E-05 0.45340E-05 0.22535E-05 0.12888E-05 0.99525E-06 0.91885E-06 0.94294E-06 0.11711E-05 0.12716E-05 0.14793E-05
 0.10026E-05 0.10295E-05 0.12144E-05 0.11823E-05 0.11782E-05 0.15562E-05 0.13503E-05 0.10858E-05 0.15534E-05 0.19545E-05
 0.15544E-05 0.13345E-05 0.15796E-05 0.15627E-03 0.93745E-07 0.11057E-07 0.58905E-08 0.11056E-07 0.93771E-07 0.15859E-03
 0.15760E-05 0.13379E-05 0.15496E-05 0.19633E-05 0.15468E-05 0.10892E-05 0.13469E-05 0.15599E-05 0.11761E-05 0.11842E-05
 0.12128E-05 0.10299E-05 0.12532E-05 0.16125E-05 0.17232E-05 0.14746E-05 0.24424E-05 0.10434E-05 0.11680E-05 0.10794E-04
 0.50654E-06 0.30369E-06 0.40511E-05 0.20607E-05 0.17792E-05 0.16406E-04 0.17891E-06 0.17824E-07 0.91875E-08 0.17752E-07
 0.18190E-06 0.19820E-04 0.16273E-05 0.23282E-05 0.49922E-05 0.28488E-06 0.55248E-06 0.77951E-05 0.10730E-05 0.11269E-05
 0.22035E-05 0.15965E-05 0.16247E-05 0.16504E-05 0.63497E-06 0.60704E-06 0.66051E-06 0.67945E-06 0.64744E-06 0.21457E-06
 0.33611E-08 0.26196E-08 0.43514E-08 0.15625E-08 0.44153E-08 0.12845E-06 0.28397E-05 0.83104E-06 0.63269E-07 0.12705E-07
 0.71966E-08 0.12463E-07 0.66608E-07 0.66143E-06 0.57035E-05 0.11041E-06 0.45716E-08 0.15267E-08 0.45105E-08 0.25513E-08
 0.34645E-08 0.17367E-06 0.86522E-06 0.52944E-06 0.82939E-06 0.58349E-06 0.46117E-08 0.46797E-08 0.47653E-08 0.51513E-08
 0.55480E-08 0.65732E-09 0.74446E-10 0.18675E-09 0.17792E-09 0.33136E-10 0.87838E-10 0.15298E-08 0.10760E-07 0.13535E-07
 0.80029E-08 0.42755E-08 0.30890E-08 0.41699E-08 0.84180E-08 0.12403E-07 0.11834E-07 0.14657E-08 0.88933E-10 0.32867E-10
 0.18091E-09 0.18341E-09 0.75491E-10 0.63286E-09 0.59600E-08 0.48571E-08 0.50256E-08 0.46219E-08 0.50181E-09 0.51086E-09
 0.52212E-09 0.57539E-09 0.53648E-09 0.58846E-10 0.12023E-10 0.60016E-10 0.16725E-10 0.30401E-11 0.84090E-11 0.14515E-09
 0.10947E-08 0.14738E-08 0.12431E-08 0.97580E-09 0.83519E-09 0.96250E-09 0.12905E-08 0.13932E-08 0.11531E-08 0.14241E-09
 0.84586E-11 0.30283E-11 0.16860E-10 0.59003E-10 0.12135E-10 0.57700E-10 0.56033E-09 0.55273E-09 0.54041E-09 0.50470E-09
 0.25023E-09 0.25520E-09 0.26182E-09 0.29155E-09 0.25797E-09 0.28473E-10 0.69664E-11 0.43540E-10 0.72124E-11 0.13820E-11
 0.38839E-11 0.66944E-10 0.53504E-09 0.73419E-09 0.66232E-09 0.55988E-09 0.49639E-09 0.55492E-09 0.68488E-09 0.69833E-09
 0.55856E-09 0.66064E-10 0.39008E-11 0.13779E-11 0.72575E-11 0.42825E-10 0.70243E-11 0.28008E-10 0.26730E-09 0.28115E-09
 0.27040E-09 0.25200E-09 0.50147E-09 0.51047E-09 0.52175E-09 0.57518E-09 0.53663E-09 0.58858E-10 0.12024E-10 0.59996E-10
 0.16718E-10 0.30398E-11 0.84073E-11 0.14511E-09 0.10949E-08 0.14774E-08 0.12522E-08 0.98494E-09 0.84083E-09 0.97145E-09
 0.13001E-08 0.13965E-08 0.11533E-08 0.14237E-09 0.84570E-11 0.30281E-11 0.16854E-10 0.58983E-10 0.12136E-10 0.57711E-10
 0.56049E-09 0.55253E-09 0.54003E-09 0.50432E-09 0.46344E-08 0.47027E-08 0.47841E-08 0.51601E-08 0.55406E-08 0.65659E-09
 0.74439E-10 0.18696E-09 0.17835E-09 0.33172E-10 0.87947E-10 0.15335E-08 0.10741E-07 0.13257E-07 0.76614E-08 0.40684E-08
 0.29581E-08 0.39704E-08 0.80499E-08 0.12159E-07 0.11812E-07 0.14693E-08 0.89043E-10 0.32902E-10 0.18134E-09 0.18361E-09
 0.75484E-10 0.63217E-09 0.59518E-08 0.48651E-08 0.50459E-08 0.46445E-08 0.56572E-06 0.54884E-06 0.61126E-06 0.65859E-06
 0.65984E-06 0.22009E-06 0.33642E-08 0.26024E-08 0.42779E-08 0.15450E-08 0.43518E-08 0.12329E-06 0.30038E-05 0.11610E-05
 0.79863E-07 0.14936E-07 0.82804E-08 0.14628E-07 0.84620E-07 0.88884E-06 0.61791E-05 0.10629E-06 0.45047E-08 0.15097E-08
 0.44329E-08 0.25347E-08 0.34677E-08 0.17768E-06 0.88442E-06 0.51506E-06 0.76055E-06 0.52856E-06 0.10120E-05 0.12982E-05
 0.14643E-05 0.13848E-05 0.25836E-05 0.11346E-05 0.11939E-05 0.19700E-04 0.64850E-06 0.37606E-06 0.82318E-05 0.16516E-05
 0.18966E-05 0.10791     0.11170E-06 0.13765E-07 0.73405E-08 0.13716E-07 0.11317E-06 0.26524E-02 0.17297E-05 0.18417E-05
 0.11165E-04 0.35028E-06 0.71563E-06 0.12837E-04 0.10958E-05 0.12294E-05 0.23242E-05 0.14955E-05 0.13869E-05 0.13255E-05
 0.12681E-05 0.12885E-05 0.14526E-05 0.12674E-05 0.11231E-05 0.13799E-05 0.13149E-05 0.13139E-05 0.27179E-05 0.43269E-05
 0.26906E-05 0.17239E-05 0.14640E-05 0.65525E-05 0.16312E-06 0.15029E-07 0.76550E-08 0.15028E-07 0.16318E-06 0.65723E-05
 0.14607E-05 0.17289E-05 0.26796E-05 0.43558E-05 0.27026E-05 0.13184E-05 0.13117E-05 0.13830E-05 0.11212E-05 0.12695E-05
 0.14505E-05 0.12891E-05 0.13356E-05 0.11321E-05 0.10585E-05 0.10866E-05 0.98977E-06 0.10234E-05 0.10191E-05 0.10540E-05
 0.12662E-05 0.17794E-05 0.15549E-05 0.11298E-05 0.11647E-05 0.50018E-03 0.66811E-07 0.84979E-08 0.45253E-08 0.84980E-08
 0.66805E-07 0.50747E-03 0.11658E-05 0.11286E-05 0.15573E-05 0.17757E-05 0.12684E-05 0.10525E-05 0.10203E-05 0.10224E-05
 0.99044E-06 0.10859E-05 0.10591E-05 0.11319E-05 0.78052E-06 0.84494E-06 0.95309E-06 0.93974E-06 0.83228E-06 0.79989E-06
 0.79562E-06 0.10188E-05 0.18307E-05 0.39843E-05 0.23258E-05 0.12393E-05 0.13610E-05 0.11264E-04 0.10536E-06 0.91594E-08
 0.44506E-08 0.91601E-08 0.10529E-06 0.11119E-04 0.13680E-05 0.12318E-05 0.23523E-05 0.39136E-05 0.18518E-05 0.10101E-05
 0.80096E-06 0.79519E-06 0.83534E-06 0.93741E-06 0.95556E-06 0.84350E-06 0.28968E-06 0.11750E-04 0.50174E-06 0.10312E-05
 0.14467E-05 0.18022E-05 0.12345E-05 0.18783E-05 0.24846E-05 0.61413E-05 0.20209E-05 0.20799E-05 0.22052E-05 0.78157E-05
 0.62429E-08 0.21103E-09 0.68484E-10 0.21107E-09 0.62116E-08 0.10708E-04 0.26371E-05 0.17262E-05 0.27291E-05 0.35549E-05
 0.38127E-05 0.13678E-05 0.16222E-05 0.14051E-05 0.16774E-05 0.95674E-06 0.52947E-06 0.10416E-04 0.14440E-10 0.43515E-10
 0.10947E-08 0.78375E-08 0.78097E-08 0.75713E-08 0.93267E-08 0.87889E-08 0.10469E-07 0.98482E-08 0.12894E-07 0.13022E-07
 0.16284E-07 0.13612E-08 0.60524E-11 0.24442E-12 0.88152E-13 0.24425E-12 0.60464E-11 0.13951E-08 0.15023E-07 0.14132E-07
 0.11476E-07 0.11363E-07 0.90803E-08 0.10103E-07 0.82449E-08 0.83128E-08 0.73615E-08 0.80982E-08 0.10857E-08 0.43534E-10
 0.13939E-12 0.35533E-12 0.54203E-11 0.70603E-10 0.90849E-10 0.93369E-10 0.10471E-09 0.11042E-09 0.12676E-09 0.13420E-09
 0.15353E-09 0.16059E-09 0.16143E-09 0.70228E-11 0.49960E-13 0.29976E-14 0.12212E-14 0.29421E-14 0.49905E-13 0.70561E-11
 0.15727E-09 0.16494E-09 0.14823E-09 0.14040E-09 0.12125E-09 0.11508E-09 0.10110E-09 0.96353E-10 0.89265E-10 0.71153E-10
 0.54199E-11 0.35494E-12 0.11324E-13 0.27256E-13 0.34817E-12 0.54797E-11 0.85775E-11 0.89526E-11 0.98661E-11 0.10542E-10
 0.11868E-10 0.12764E-10 0.14321E-10 0.15193E-10 0.13921E-10 0.38003E-12 0.36082E-14 0.11102E-15 0.55511E-16 0.22204E-15
 0.34417E-14 0.38031E-12 0.13748E-10 0.15442E-10 0.14028E-10 0.13072E-10 0.11592E-10 0.10779E-10 0.96811E-11 0.91077E-11
 0.84971E-11 0.54920E-11 0.34822E-12 0.27256E-13 0.23925E-13 0.54734E-13 0.65165E-12 0.10561E-10 0.18377E-10 0.19954E-10
 0.22680E-10 0.24261E-10 0.26826E-10 0.28333E-10 0.31498E-10 0.33813E-10 0.35143E-10 0.11999E-11 0.12101E-13 0.10547E-14
 0.19429E-15 0.80491E-15 0.12046E-13 0.12029E-11 0.34482E-10 0.34749E-10 0.30754E-10 0.28912E-10 0.26311E-10 0.24787E-10
 0.22142E-10 0.20485E-10 0.17963E-10 0.10631E-10 0.65187E-12 0.54734E-13 0.52458E-13 0.12301E-12 0.15509E-11 0.24148E-10
 0.39215E-10 0.42499E-10 0.48758E-10 0.51781E-10 0.57339E-10 0.60410E-10 0.67698E-10 0.71843E-10 0.77176E-10 0.31286E-11
 0.28089E-13 0.16653E-14 0.86042E-15 0.19429E-14 0.28144E-13 0.31405E-11 0.75343E-10 0.73945E-10 0.65801E-10 0.61978E-10
 0.56023E-10 0.53068E-10 0.47372E-10 0.43942E-10 0.38144E-10 0.24378E-10 0.15513E-11 0.12312E-12 0.62317E-12 0.15843E-11
 0.24335E-10 0.30715E-09 0.41633E-09 0.44576E-09 0.52560E-09 0.54550E-09 0.61898E-09 0.63972E-09 0.73418E-09 0.75916E-09
 0.87975E-09 0.67389E-10 0.41350E-12 0.23148E-13 0.94924E-14 0.23426E-13 0.41306E-12 0.68158E-10 0.84153E-09 0.79369E-09
 0.69755E-09 0.66975E-09 0.59218E-09 0.57063E-09 0.49902E-09 0.47396E-09 0.39529E-09 0.31426E-09 0.24316E-10 0.15843E-11