 vasp.5.4.4.18Apr17-6-g9f103f2a35 (build Jun 30 2017 11:15:00) complex          
  
 executed on    STALLO_VASP_5.4.4 date 2019.11.25  09:16:56
 running on   16 total cores
 distrk:  each k-point on   16 cores,    1 groups
 distr:  one band on NCORES_PER_BAND=   4 cores,    4 groups


--------------------------------------------------------------------------------------------------------


 INCAR:
 POTCAR:   PAW_PBE O 08Apr2002                    
 POTCAR:   PAW_PBE Sr_sv 07Sep2000                
 POTCAR:   PAW_PBE Ti 08Apr2002                   
 POTCAR:   PAW_PBE O 08Apr2002                    
   VRHFIN =O: s2p4                                                              
   LEXCH  = PE                                                                  
   EATOM  =   432.3788 eV,   31.7789 Ry                                         
                                                                                
   TITEL  = PAW_PBE O 08Apr2002                                                 
   LULTRA =        F    use ultrasoft PP ?                                      
   IUNSCR =        0    unscreen: 0-lin 1-nonlin 2-no                           
   RPACOR =     .000    partial core radius                                     
   POMASS =   16.000; ZVAL   =    6.000    mass and valenz                      
   RCORE  =    1.520    outmost cutoff radius                                   
   RWIGS  =    1.550; RWIGS  =     .820    wigner-seitz radius (au A)           
   ENMAX  =  400.000; ENMIN  =  300.000 eV                                      
   ICORE  =        2    local potential                                         
   LCOR   =        T    correct aug charges                                     
   LPAW   =        T    paw PP                                                  
   EAUG   =  605.392                                                            
   DEXC   =     .000                                                            
   RMAX   =    2.264    core radius for proj-oper                               
   RAUG   =    1.300    factor for augmentation sphere                          
   RDEP   =    1.550    radius for radial grids                                 
   QCUT   =   -5.520; QGAM   =   11.041    optimization parameters              
                                                                                
   Description                                                                  
     l     E      TYP  RCUT    TYP  RCUT                                        
     0   .000     23  1.200                                                     
     0  -.700     23  1.200                                                     
     1   .000     23  1.520                                                     
     1   .600     23  1.520                                                     
     2   .000      7  1.500                                                     
  local pseudopotential read in
  atomic valenz-charges read in
  non local Contribution for L=           0  read in
    real space projection operators read in
  non local Contribution for L=           0  read in
    real space projection operators read in
  non local Contribution for L=           1  read in
    real space projection operators read in
  non local Contribution for L=           1  read in
    real space projection operators read in
    PAW grid and wavefunctions read in
 
   number of l-projection  operators is LMAX  =           4
   number of lm-projection operators is LMMAX =           8
 
 POTCAR:   PAW_PBE Sr_sv 07Sep2000                
   VRHFIN =Sr: 4s4p5s                                                           
   LEXCH  = PE                                                                  
   EATOM  =   842.4562 eV,   61.9188 Ry                                         
                                                                                
   TITEL  = PAW_PBE Sr_sv 07Sep2000                                             
   LULTRA =        F    use ultrasoft PP ?                                      
   IUNSCR =        1    unscreen: 0-lin 1-nonlin 2-no                           
   RPACOR =    2.200    partial core radius                                     
   POMASS =   87.620; ZVAL   =   10.000    mass and valenz                      
   RCORE  =    2.500    outmost cutoff radius                                   
   RWIGS  =    4.040; RWIGS  =    2.138    wigner-seitz radius (au A)           
   ENMAX  =  229.282; ENMIN  =  171.961 eV                                      
   RCLOC  =    2.201    cutoff for local pot                                    
   LCOR   =        T    correct aug charges                                     
   LPAW   =        T    paw PP                                                  
   EAUG   =  366.804                                                            
   DEXC   =     .000                                                            
   RMAX   =    3.045    core radius for proj-oper                               
   RAUG   =    1.300    factor for augmentation sphere                          
   RDEP   =    2.562    radius for radial grids                                 
   QCUT   =   -4.105; QGAM   =    8.210    optimization parameters              
                                                                                
   Description                                                                  
     l     E      TYP  RCUT    TYP  RCUT                                        
     0   .000     23  2.480                                                     
     0   .000     23  2.480                                                     
     1   .000     23  2.500                                                     
     1   .000     23  2.500                                                     
     2   .000     23  2.500                                                     
     2   .000     23  2.500                                                     
  local pseudopotential read in
  partial core-charges read in
  atomic valenz-charges read in
  non local Contribution for L=           0  read in
    real space projection operators read in
  non local Contribution for L=           0  read in
    real space projection operators read in
  non local Contribution for L=           1  read in
    real space projection operators read in
  non local Contribution for L=           1  read in
    real space projection operators read in
  non local Contribution for L=           2  read in
    real space projection operators read in
  non local Contribution for L=           2  read in
    real space projection operators read in
    PAW grid and wavefunctions read in
 
   number of l-projection  operators is LMAX  =           6
   number of lm-projection operators is LMMAX =          18
 
 POTCAR:   PAW_PBE Ti 08Apr2002                   
   VRHFIN =Ti: d3 s1                                                            
   LEXCH  = PE                                                                  
   EATOM  =    94.7929 eV,    6.9671 Ry                                         
                                                                                
   TITEL  = PAW_PBE Ti 08Apr2002                                                
   LULTRA =        F    use ultrasoft PP ?                                      
   IUNSCR =        1    unscreen: 0-lin 1-nonlin 2-no                           
   RPACOR =    2.200    partial core radius                                     
   POMASS =   47.880; ZVAL   =    4.000    mass and valenz                      
   RCORE  =    2.800    outmost cutoff radius                                   
   RWIGS  =    2.500; RWIGS  =    1.323    wigner-seitz radius (au A)           
   ENMAX  =  178.330; ENMIN  =  133.747 eV                                      
   RCLOC  =    2.215    cutoff for local pot                                    
   LCOR   =        T    correct aug charges                                     
   LPAW   =        T    paw PP                                                  
   EAUG   =  328.883                                                            
   DEXC   =    -.043                                                            
   RMAX   =    3.453    core radius for proj-oper                               
   RAUG   =    1.300    factor for augmentation sphere                          
   RDEP   =    2.885    radius for radial grids                                 
   QCUT   =   -3.620; QGAM   =    7.241    optimization parameters              
                                                                                
   Description                                                                  
     l     E      TYP  RCUT    TYP  RCUT                                        
     2   .000     23  2.800                                                     
     2   .000     23  2.800                                                     
     0   .000     23  2.800                                                     
     0  1.500     23  2.800                                                     
     1  -.400     23  2.800                                                     
     3   .000      7   .000                                                     
  local pseudopotential read in
  partial core-charges read in
  atomic valenz-charges read in
  non local Contribution for L=           2  read in
    real space projection operators read in
  non local Contribution for L=           2  read in
    real space projection operators read in
  non local Contribution for L=           0  read in
    real space projection operators read in
  non local Contribution for L=           0  read in
    real space projection operators read in
  non local Contribution for L=           1  read in
    real space projection operators read in
    PAW grid and wavefunctions read in
 
   number of l-projection  operators is LMAX  =           5
   number of lm-projection operators is LMMAX =          15
 
 Optimization of the real space projectors (new method)

 maximal supplied QI-value         = 24.76
 optimisation between [QCUT,QGAM] = [ 11.39, 22.77] = [ 36.31,145.25] Ry 
 Optimized for a Real-space Cutoff    1.00 Angstroem

   l    n(q)    QCUT    max X(q) W(low)/X(q) W(high)/X(q)  e(spline) 
   0      7    11.387     4.192    0.89E-04    0.26E-03    0.19E-07
   0      7    11.387     8.473    0.42E-03    0.14E-02    0.17E-06
   1      6    11.387     2.474    0.11E-03    0.26E-03    0.18E-07
   1      6    11.387     3.912    0.39E-03    0.87E-03    0.15E-06
 Optimization of the real space projectors (new method)

 maximal supplied QI-value         = 15.12
 optimisation between [QCUT,QGAM] = [ 11.34, 22.83] = [ 36.00,145.93] Ry 
 Optimized for a Real-space Cutoff    1.56 Angstroem

   l    n(q)    QCUT    max X(q) W(low)/X(q) W(high)/X(q)  e(spline) 
   0     11    11.338     6.584    0.15E-04    0.24E-05    0.13E-07
   0     11    11.338    11.383    0.41E-04    0.15E-04    0.15E-06
   1     10    11.338     3.802    0.90E-05    0.33E-06    0.26E-07
   1     10    11.338    39.081    0.19E-03    0.53E-04    0.42E-06
   2     10    11.338     4.950    0.16E-04    0.40E-04    0.77E-07
   2     10    11.338    88.754    0.21E-03    0.41E-03    0.42E-06
 Optimization of the real space projectors (new method)

 maximal supplied QI-value         = 13.42
 optimisation between [QCUT,QGAM] = [ 11.40, 22.81] = [ 36.42,145.68] Ry 
 Optimized for a Real-space Cutoff    1.56 Angstroem

   l    n(q)    QCUT    max X(q) W(low)/X(q) W(high)/X(q)  e(spline) 
   2     10    11.404     5.474    0.19E-04    0.47E-04    0.83E-07
   2     10    11.404    20.898    0.26E-03    0.65E-03    0.73E-06
   0     11    11.404    23.292    0.21E-04    0.14E-04    0.20E-07
   0     11    11.404    27.738    0.14E-03    0.16E-03    0.29E-06
   1     10    11.404     9.492    0.33E-04    0.56E-04    0.16E-06
 PAW_PBE O 08Apr2002                    :
 energy of atom  1       EATOM= -432.3788
 kinetic energy error for atom=    0.0224 (will be added to EATOM!!)
 PAW_PBE Sr_sv 07Sep2000                :
 energy of atom  2       EATOM= -842.4562
 kinetic energy error for atom=    0.0012 (will be added to EATOM!!)
 PAW_PBE Ti 08Apr2002                   :
 energy of atom  3       EATOM=  -94.7929
 kinetic energy error for atom=    0.0002 (will be added to EATOM!!)
 
 
 POSCAR:  O Sr Ti                                
  positions in direct lattice
  velocities in cartesian coordinates
 exchange correlation table for  LEXCH =        8
   RHO(1)=    0.500       N(1)  =     2000
   RHO(2)=  100.500       N(2)  =     4000
 


--------------------------------------------------------------------------------------------------------


 ion  position               nearest neighbor table
   1  0.500  0.000  0.234-  17 2.05  17 2.05  13 2.93  13 2.93
   2  0.242  0.500  0.308-  17 1.79  18 2.47  13 2.50  13 2.50  14 3.42  14 3.42
   3  0.758  0.500  0.308-  17 1.79  18 2.47  13 2.50  13 2.50  14 3.42  14 3.42
   4  0.000  0.000  0.383-  18 2.02  18 2.02  13 2.35  14 2.89  14 2.89
   5  0.747  0.500  0.453-  18 1.78  19 2.47  14 2.53  14 2.53  15 3.37  15 3.37
   6  0.253  0.500  0.453-  18 1.78  19 2.47  14 2.53  14 2.53  15 3.37  15 3.37
   7  0.500  0.000  0.526-  19 2.03  19 2.03  14 2.36  15 2.89  15 2.89
   8  0.246  0.500  0.596-  19 1.78  20 2.43  15 2.53  15 2.53
   9  0.754  0.500  0.596-  19 1.78  20 2.43  15 2.53  15 2.53
  10  0.000  0.000  0.669-  20 2.02  20 2.02  15 2.38  16 2.98  16 2.98
  11  0.748  0.500  0.739-  20 1.79  16 2.45  16 2.45
  12  0.252  0.500  0.739-  20 1.79  16 2.45  16 2.45
  13  0.000  0.000  0.275-   4 2.35   3 2.50   2 2.50   2 2.50   3 2.50   1 2.93   1 2.93  18 3.42
                            18 3.42  17 3.44  17 3.44  17 3.44  17 3.44  14 4.18  14 4.18
  14  0.500  0.000  0.417-   7 2.36   6 2.53   5 2.53   5 2.53   6 2.53   4 2.89   4 2.89   3 3.42
                             2 3.42   3 3.42   2 3.42  18 3.43  18 3.43  18 3.43  18 3.43  19 3.44
  15  0.000  0.000  0.560-  10 2.38   8 2.53   8 2.53   9 2.53   9 2.53   7 2.89   7 2.89   6 3.37
                             5 3.37   6 3.37   5 3.37  20 3.42  20 3.42  19 3.43  19 3.43  19 3.43
  16  0.500  0.000  0.718-  11 2.45  12 2.45  11 2.45  12 2.45  10 2.98  10 2.98  20 3.48  20 3.48
                            20 3.48  20 3.48  15 4.43  15 4.43
  17  0.500  0.500  0.259-   2 1.79   3 1.79   1 2.05   1 2.05  13 3.44  13 3.44  13 3.44  13 3.44
                            14 3.98  14 3.98
  18  0.000  0.500  0.403-   5 1.78   6 1.78   4 2.02   4 2.02   2 2.47   3 2.47  13 3.42  13 3.42
                            14 3.43  14 3.43  14 3.43  14 3.43  15 3.95  15 3.95
  19  0.500  0.500  0.547-   9 1.78   8 1.78   7 2.03   7 2.03   5 2.47   6 2.47  15 3.43  15 3.43
                            15 3.43  15 3.43  14 3.44  14 3.44
  20  0.000  0.500  0.689-  11 1.79  12 1.79  10 2.02  10 2.02   8 2.43   9 2.43  15 3.42  15 3.42
                            16 3.48  16 3.48  16 3.48  16 3.48
 
  LATTYP: Found a simple orthorhombic cell.
 ALAT       =     3.9468463416
 B/A-ratio  =     1.4142135624
 C/A-ratio  =     5.5152758581
  
  Lattice vectors:
  
 A1 = (   0.0000000000,  -3.9468463416,   0.0000000000)
 A2 = (  -5.5816836249,   0.0000000000,   0.0000000000)
 A3 = (   0.0000000000,   0.0000000000, -21.7679463436)


Analysis of symmetry for initial positions (statically):
=====================================================================
 Subroutine PRICEL returns:
 Original cell was already a primitive cell.
 

 Routine SETGRP: Setting up the symmetry group for a 
 simple orthorhombic supercell.


 Subroutine GETGRP returns: Found  4 space group operations
 (whereof  4 operations were pure point group operations)
 out of a pool of  8 trial point group operations.


The static configuration has the point symmetry C_2v.


Analysis of symmetry for dynamics (positions and initial velocities):
=====================================================================
 Subroutine PRICEL returns:
 Original cell was already a primitive cell.
 

 Routine SETGRP: Setting up the symmetry group for a 
 simple orthorhombic supercell.


 Subroutine GETGRP returns: Found  4 space group operations
 (whereof  4 operations were pure point group operations)
 out of a pool of  8 trial point group operations.


The dynamic configuration has the point symmetry C_2v.


 Subroutine INISYM returns: Found  4 space group operations
 (whereof  4 operations are pure point group operations),
 and found     1 'primitive' translations

 
 
 KPOINTS: k-density: 4.0                          

Automatic generation of k-mesh.
Space group operators:
 irot       det(A)        alpha          n_x          n_y          n_z        tau_x        tau_y        tau_z
    1     1.000000     0.000000     1.000000     0.000000     0.000000     0.000000     0.000000     0.000000
    2     1.000000   179.999999     0.000000     0.000000     1.000000     0.000000     0.000000     0.000000
    3    -1.000000   180.000000     1.000000     0.000000     0.000000     0.000000     0.000000     0.000000
    4    -1.000000   180.000000     0.000000     1.000000     0.000000     0.000000     0.000000     0.000000
 
 Subroutine IBZKPT returns following result:
 ===========================================
 
 Found     12 irreducible k-points:
 
 Following reciprocal coordinates:
            Coordinates               Weight
  0.000000  0.000000  0.000000      1.000000
  0.200000  0.000000  0.000000      2.000000
  0.400000  0.000000  0.000000      2.000000
  0.000000  0.142857  0.000000      2.000000
  0.200000  0.142857  0.000000      4.000000
  0.400000  0.142857  0.000000      4.000000
  0.000000  0.285714  0.000000      2.000000
  0.200000  0.285714  0.000000      4.000000
  0.400000  0.285714  0.000000      4.000000
  0.000000  0.428571  0.000000      2.000000
  0.200000  0.428571  0.000000      4.000000
  0.400000  0.428571  0.000000      4.000000
 
 Following cartesian coordinates:
            Coordinates               Weight
  0.000000  0.000000  0.000000      1.000000
  0.035831  0.000000  0.000000      2.000000
  0.071663  0.000000  0.000000      2.000000
  0.000000  0.036195  0.000000      2.000000
  0.035831  0.036195  0.000000      4.000000
  0.071663  0.036195  0.000000      4.000000
  0.000000  0.072391  0.000000      2.000000
  0.035831  0.072391  0.000000      4.000000
  0.071663  0.072391  0.000000      4.000000
  0.000000  0.108586  0.000000      2.000000
  0.035831  0.108586  0.000000      4.000000
  0.071663  0.108586  0.000000      4.000000
 


--------------------------------------------------------------------------------------------------------




 Dimension of arrays:
   k-points           NKPTS =     12   k-points in BZ     NKDIM =     12   number of bands    NBANDS=     76
   number of dos      NEDOS =   2401   number of ions     NIONS =     20
   non local maximal  LDIM  =      6   non local SUM 2l+1 LMDIM =     18
   total plane-waves  NPLWV =  92160
   max r-space proj   IRMAX =   3130   max aug-charges    IRDMAX=  13471
   dimension x,y,z NGX =    32 NGY =   24 NGZ =  120
   dimension x,y,z NGXF=    64 NGYF=   48 NGZF=  240
   support grid    NGXF=    64 NGYF=   48 NGZF=  240
   ions per type =              12   4   4
   NGX,Y,Z   is equivalent  to a cutoff of   9.53, 10.11,  9.16 a.u.
   NGXF,Y,Z  is equivalent  to a cutoff of  19.06, 20.22, 18.33 a.u.

 SYSTEM =  unknown system                          
 POSCAR =   O Sr Ti                                

 Startparameter for this run:
   NWRITE =      2    write-flag & timer
   PREC   = normal    normal or accurate (medium, high low for compatibility)
   ISTART =      0    job   : 0-new  1-cont  2-samecut
   ICHARG =      2    charge: 1-file 2-atom 10-const
   ISPIN  =      1    spin polarized calculation?
   LNONCOLLINEAR =      F non collinear calculations
   LSORBIT =      F    spin-orbit coupling
   INIWAV =      1    electr: 0-lowe 1-rand  2-diag
   LASPH  =      F    aspherical Exc in radial PAW
   METAGGA=      F    non-selfconsistent MetaGGA calc.

 Electronic Relaxation 1
   ENCUT  =  500.0 eV  36.75 Ry    6.06 a.u.  10.18  7.20 39.69*2*pi/ulx,y,z
   ENINI  =  500.0     initial cutoff
   ENAUG  =  605.4 eV  augmentation charge cutoff
   NELM   =     60;   NELMIN=  4; NELMDL= -5     # of ELM steps 
   EDIFF  = 0.1E-05   stopping-criterion for ELM
   LREAL  =      T    real-space projection
   NLSPLINE    = F    spline interpolate recip. space projectors
   LCOMPAT=      F    compatible to vasp.4.4
   GGA_COMPAT  = T    GGA compatible to vasp.4.4-vasp.4.6
   LMAXPAW     = -100 max onsite density
   LMAXMIX     =    2 max onsite mixed and CHGCAR
   VOSKOWN=      0    Vosko Wilk Nusair interpolation
   ROPT   =   -0.00050  -0.00050  -0.00050
 Ionic relaxation
   EDIFFG = 0.1E-04   stopping-criterion for IOM
   NSW    =      0    number of steps for IOM
   NBLOCK =      1;   KBLOCK =      1    inner block; outer block 
   IBRION =     -1    ionic relax: 0-MD 1-quasi-New 2-CG
   NFREE  =      0    steps in history (QN), initial steepest desc. (CG)
   ISIF   =      2    stress and relaxation
   IWAVPR =     10    prediction:  0-non 1-charg 2-wave 3-comb
   ISYM   =      2    0-nonsym 1-usesym 2-fastsym
   LCORR  =      T    Harris-Foulkes like correction to forces

   POTIM  = 0.5000    time-step for ionic-motion
   TEIN   =    0.0    initial temperature
   TEBEG  =    0.0;   TEEND  =   0.0 temperature during run
   SMASS  =  -3.00    Nose mass-parameter (am)
   estimated Nose-frequenzy (Omega)   =  0.10E-29 period in steps =****** mass=  -0.712E-27a.u.
   SCALEE = 1.0000    scale energy and forces
   NPACO  =    256;   APACO  = 16.0  distance and # of slots for P.C.
   PSTRESS=    0.0 pullay stress

  Mass of Ions in am
   POMASS =  16.00 87.62 47.88
  Ionic Valenz
   ZVAL   =   6.00 10.00  4.00
  Atomic Wigner-Seitz radii
   RWIGS  =  -1.00 -1.00 -1.00
  virtual crystal weights 
   VCA    =   1.00  1.00  1.00
   NELECT =     128.0000    total number of electrons
   NUPDOWN=      -1.0000    fix difference up-down

 DOS related values:
   EMIN   = -17.00;   EMAX   = 17.00  energy-range for DOS
   EFERMI =   0.00
   ISMEAR =     0;   SIGMA  =   0.10  broadening in eV -4-tet -1-fermi 0-gaus

 Electronic relaxation 2 (details)
   IALGO  =     68    algorithm
   LDIAG  =      T    sub-space diagonalisation (order eigenvalues)
   LSUBROT=      F    optimize rotation matrix (better conditioning)
   TURBO    =      0    0=normal 1=particle mesh
   IRESTART =      0    0=no restart 2=restart with 2 vectors
   NREBOOT  =      0    no. of reboots
   NMIN     =      0    reboot dimension
   EREF     =   0.00    reference energy to select bands
   IMIX   =      4    mixing-type and parameters
     AMIX     =   0.40;   BMIX     =  1.00
     AMIX_MAG =   1.60;   BMIX_MAG =  1.00
     AMIN     =   0.10
     WC   =   100.;   INIMIX=   1;  MIXPRE=   1;  MAXMIX= -45

 Intra band minimization:
   WEIMIN = 0.0000     energy-eigenvalue tresh-hold
   EBREAK =  0.33E-08  absolut break condition
   DEPER  =   0.30     relativ break condition  

   TIME   =   0.40     timestep for ELM

  volume/ion in A,a.u.               =      23.98       161.81
  Fermi-wavevector in a.u.,A,eV,Ry     =   1.054065  1.991893 15.116780  1.111052
  Thomas-Fermi vector in A             =   2.189210
 
 Write flags
   LWAVE        =      F    write WAVECAR
   LDOWNSAMPLE  =      F    k-point downsampling of WAVECAR
   LCHARG       =      T    write CHGCAR
   LVTOT        =      F    write LOCPOT, total local potential
   LVHAR        =      F    write LOCPOT, Hartree potential only
   LELF         =      T    write electronic localiz. function (ELF)
   LORBIT       =     11    0 simple, 1 ext, 2 COOP (PROOUT), +10 PAW based schemes


 Dipole corrections
   LMONO  =      F    monopole corrections only (constant potential shift)
   LDIPOL =      F    correct potential (dipole corrections)
   IDIPOL =      0    1-x, 2-y, 3-z, 4-all directions 
   EPSILON=  1.0000000 bulk dielectric constant

 Exchange correlation treatment:
   GGA     =    --    GGA type
   LEXCH   =     8    internal setting for exchange type
   VOSKOWN=      0    Vosko Wilk Nusair interpolation
   LHFCALC =     F    Hartree Fock is set to
   LHFONE  =     F    Hartree Fock one center treatment
   AEXX    =    0.0000 exact exchange contribution

 Linear response parameters
   LEPSILON=     F    determine dielectric tensor
   LRPA    =     F    only Hartree local field effects (RPA)
   LNABLA  =     F    use nabla operator in PAW spheres
   LVEL    =     F    velocity operator in full k-point grid
   LINTERFAST=   F  fast interpolation
   KINTER  =     0    interpolate to denser k-point grid
   CSHIFT  =0.1000    complex shift for real part using Kramers Kronig
   OMEGAMAX=  -1.0    maximum frequency
   DEG_THRESHOLD= 0.2000000E-02 threshold for treating states as degnerate
   RTIME   =   -0.100 relaxation time in fs
  (WPLASMAI=    0.000 imaginary part of plasma frequency in eV, 0.658/RTIME)
   DFIELD  = 0.0000000 0.0000000 0.0000000 field for delta impulse in time
 
 Orbital magnetization related:
   ORBITALMAG=     F  switch on orbital magnetization
   LCHIMAG   =     F  perturbation theory with respect to B field
   DQ        =  0.001000  dq finite difference perturbation B field
   LLRAUG    =     F  two centre corrections for induced B field



--------------------------------------------------------------------------------------------------------


 Static calculation
 charge density and potential will be updated during run
 non-spin polarized calculation
 RMM-DIIS sequential band-by-band and
  variant of blocked Davidson during initial phase
 perform sub-space diagonalisation
    before iterative eigenvector-optimisation
 modified Broyden-mixing scheme, WC =      100.0
 initial mixing is a Kerker type mixing with AMIX =  0.4000 and BMIX =      1.0000
 Hartree-type preconditioning will be used
 using additional bands           12
 real space projection scheme for non local part
 use partial core corrections
 calculate Harris-corrections to forces 
   (improved forces if not selfconsistent)
 use gradient corrections 
 use of overlap-Matrix (Vanderbilt PP)
 Gauss-broadening in eV      SIGMA  =   0.10


--------------------------------------------------------------------------------------------------------


  energy-cutoff  :      500.00
  volume of cell :      479.55
      direct lattice vectors                 reciprocal lattice vectors
     5.581683625  0.000000000  0.000000000     0.179157413  0.000000000  0.000000000
     0.000000000  3.946846342  0.000000000     0.000000000  0.253366844  0.000000000
     0.000000000  0.000000000 21.767946344     0.000000000  0.000000000  0.045939106

  length of vectors
     5.581683625  3.946846342 21.767946344     0.179157413  0.253366844  0.045939106


 
 k-points in units of 2pi/SCALE and weight: k-density: 4.0                          
   0.00000000  0.00000000  0.00000000       0.029
   0.03583148  0.00000000  0.00000000       0.057
   0.07166297  0.00000000  0.00000000       0.057
   0.00000000  0.03619526  0.00000000       0.057
   0.03583148  0.03619526  0.00000000       0.114
   0.07166297  0.03619526  0.00000000       0.114
   0.00000000  0.07239053  0.00000000       0.057
   0.03583148  0.07239053  0.00000000       0.114
   0.07166297  0.07239053  0.00000000       0.114
   0.00000000  0.10858579  0.00000000       0.057
   0.03583148  0.10858579  0.00000000       0.114
   0.07166297  0.10858579  0.00000000       0.114
 
 k-points in reciprocal lattice and weights: k-density: 4.0                          
   0.00000000  0.00000000  0.00000000       0.029
   0.20000000  0.00000000  0.00000000       0.057
   0.40000000  0.00000000  0.00000000       0.057
   0.00000000  0.14285714  0.00000000       0.057
   0.20000000  0.14285714  0.00000000       0.114
   0.40000000  0.14285714  0.00000000       0.114
   0.00000000  0.28571429  0.00000000       0.057
   0.20000000  0.28571429  0.00000000       0.114
   0.40000000  0.28571429  0.00000000       0.114
   0.00000000  0.42857143  0.00000000       0.057
   0.20000000  0.42857143  0.00000000       0.114
   0.40000000  0.42857143  0.00000000       0.114
 
 position of ions in fractional coordinates (direct lattice) 
   0.50000000  0.00000000  0.23394657
   0.24188443  0.50000000  0.30763320
   0.75811557  0.50000000  0.30763320
   0.00000000  0.00000000  0.38292780
   0.74699241  0.50000000  0.45291573
   0.25300759  0.50000000  0.45291573
   0.50000000  0.00000000  0.52577737
   0.24557363  0.50000000  0.59649731
   0.75442637  0.50000000  0.59649731
   0.00000000  0.00000000  0.66942300
   0.74756969  0.50000000  0.73914121
   0.25243031  0.50000000  0.73914121
   0.00000000  0.00000000  0.27478477
   0.50000000  0.00000000  0.41746383
   0.00000000  0.00000000  0.56012210
   0.50000000  0.00000000  0.71798099
   0.50000000  0.50000000  0.25863797
   0.00000000  0.50000000  0.40284732
   0.50000000  0.50000000  0.54692444
   0.00000000  0.50000000  0.68858017
 
 position of ions in cartesian coordinates  (Angst):
   2.79084181  0.00000000  5.09253628
   1.35012236  1.97342317  6.69654300
   4.23156126  1.97342317  6.69654300
   0.00000000  0.00000000  8.33555180
   4.16947532  1.97342317  9.85904533
   1.41220830  1.97342317  9.85904533
   2.79084181  0.00000000 11.44509365
   1.37071432  1.97342317 12.98452142
   4.21096931  1.97342317 12.98452142
   0.00000000  0.00000000 14.57196399
   4.17269752  1.97342317 16.08958609
   1.40898610  1.97342317 16.08958609
   0.00000000  0.00000000  5.98150015
   2.79084181  0.00000000  9.08733026
   0.00000000  0.00000000 12.19270791
   2.79084181  0.00000000 15.62897162
   2.79084181  1.97342317  5.63001735
   0.00000000  1.97342317  8.76915876
   2.79084181  1.97342317 11.90542189
   0.00000000  1.97342317 14.98897626
 


--------------------------------------------------------------------------------------------------------


 k-point  1 :   0.0000 0.0000 0.0000  plane waves:   12209
 k-point  2 :   0.2000 0.0000 0.0000  plane waves:   12184
 k-point  3 :   0.4000 0.0000 0.0000  plane waves:   12138
 k-point  4 :   0.0000 0.1429 0.0000  plane waves:   12177
 k-point  5 :   0.2000 0.1429 0.0000  plane waves:   12175
 k-point  6 :   0.4000 0.1429 0.0000  plane waves:   12166
 k-point  7 :   0.0000 0.2857 0.0000  plane waves:   12140
 k-point  8 :   0.2000 0.2857 0.0000  plane waves:   12153
 k-point  9 :   0.4000 0.2857 0.0000  plane waves:   12209
 k-point 10 :   0.0000 0.4286 0.0000  plane waves:   12150
 k-point 11 :   0.2000 0.4286 0.0000  plane waves:   12175
 k-point 12 :   0.4000 0.4286 0.0000  plane waves:   12196

 maximum and minimum number of plane-waves per node :      3083     3013

 maximum number of plane-waves:     12209
 maximum index in each direction: 
   IXMAX=   10   IYMAX=    7   IZMAX=   39
   IXMIN=  -10   IYMIN=   -7   IZMIN=  -39


 real space projection operators:
  total allocation   :       3675.64 KBytes
  max/ min on nodes  :        937.86        911.05


 parallel 3D FFT for wavefunctions:
    minimum data exchange during FFTs selected (reduces bandwidth)
 parallel 3D FFT for charge:
    minimum data exchange during FFTs selected (reduces bandwidth)


 total amount of memory used by VASP MPI-rank0    49788. kBytes
=======================================================================

   base      :      30000. kBytes
   nonlr-proj:       2211. kBytes
   fftplans  :       2256. kBytes
   grid      :       3892. kBytes
   one-center:         77. kBytes
   wavefun   :      11352. kBytes
 
     INWAV:  cpu time    0.0000: real time    0.0000
 Broyden mixing: mesh for mixing (old mesh)
   NGX = 21   NGY = 15   NGZ = 79
  (NGX  = 64   NGY  = 48   NGZ  =240)
  gives a total of  24885 points

 initial charge density was supplied:
 charge density of overlapping atoms calculated
 number of electron     128.0000000 magnetization 
 keeping initial charge density in first step


--------------------------------------------------------------------------------------------------------


 Maximum index for non-local projection operator          763
 Maximum index for augmentation-charges          672 (set IRDMAX)


--------------------------------------------------------------------------------------------------------


 First call to EWALD:  gamma=   0.226
 Maximum number of real-space cells 4x 5x 1
 Maximum number of reciprocal cells 2x 2x 7

    FEWALD:  cpu time    0.0010: real time    0.0017


--------------------------------------- Iteration      1(   1)  ---------------------------------------


    POTLOK:  cpu time    0.0260: real time    0.0361
    SETDIJ:  cpu time    0.0050: real time    0.0047
     EDDAV:  cpu time    1.3648: real time    1.3684
       DOS:  cpu time    0.0020: real time    0.0024
    --------------------------------------------
      LOOP:  cpu time    1.3978: real time    1.4116

 eigenvalue-minimisations  :  1832
 total energy-change (2. order) : 0.1571065E+04  (-0.5480801E+04)
 number of electron     128.0000000 magnetization 
 augmentation part      128.0000000 magnetization 

 Free energy of the ion-electron system (eV)
  ---------------------------------------------------
  alpha Z        PSCENC =       368.42493316
  Ewald energy   TEWEN  =     15539.52254992
  -Hartree energ DENC   =    -23780.97877181
  -exchange      EXHF   =         0.00000000
  -V(xc)+E(xc)   XCENC  =       322.37872802
  PAW double counting   =      5334.45189010    -5139.13784255
  entropy T*S    EENTRO =        -0.04125645
  eigenvalues    EBANDS =       -10.82311715
  atomic energy  EATOM  =      8937.26825017
  Solvation  Ediel_sol  =         0.00000000
  ---------------------------------------------------
  free energy    TOTEN  =      1571.06536342 eV

  energy without entropy =     1571.10661986  energy(sigma->0) =     1571.08599164


--------------------------------------------------------------------------------------------------------




--------------------------------------- Iteration      1(   2)  ---------------------------------------


     EDDAV:  cpu time    1.6897: real time    1.6988
       DOS:  cpu time    0.0020: real time    0.0019
    --------------------------------------------
      LOOP:  cpu time    1.6917: real time    1.7007

 eigenvalue-minimisations  :  2328
 total energy-change (2. order) :-0.1401078E+04  (-0.1355850E+04)
 number of electron     128.0000000 magnetization 
 augmentation part      128.0000000 magnetization 

 Free energy of the ion-electron system (eV)
  ---------------------------------------------------
  alpha Z        PSCENC =       368.42493316
  Ewald energy   TEWEN  =     15539.52254992
  -Hartree energ DENC   =    -23780.97877181
  -exchange      EXHF   =         0.00000000
  -V(xc)+E(xc)   XCENC  =       322.37872802
  PAW double counting   =      5334.45189010    -5139.13784255
  entropy T*S    EENTRO =        -0.01523836
  eigenvalues    EBANDS =     -1411.92761020
  atomic energy  EATOM  =      8937.26825017
  Solvation  Ediel_sol  =         0.00000000
  ---------------------------------------------------
  free energy    TOTEN  =       169.98688845 eV

  energy without entropy =      170.00212681  energy(sigma->0) =      169.99450763


--------------------------------------------------------------------------------------------------------




--------------------------------------- Iteration      1(   3)  ---------------------------------------


     EDDAV:  cpu time    1.7277: real time    1.7379
       DOS:  cpu time    0.0020: real time    0.0017
    --------------------------------------------
      LOOP:  cpu time    1.7297: real time    1.7396

 eigenvalue-minimisations  :  2384
 total energy-change (2. order) :-0.3477536E+03  (-0.3435682E+03)
 number of electron     128.0000000 magnetization 
 augmentation part      128.0000000 magnetization 

 Free energy of the ion-electron system (eV)
  ---------------------------------------------------
  alpha Z        PSCENC =       368.42493316
  Ewald energy   TEWEN  =     15539.52254992
  -Hartree energ DENC   =    -23780.97877181
  -exchange      EXHF   =         0.00000000
  -V(xc)+E(xc)   XCENC  =       322.37872802
  PAW double counting   =      5334.45189010    -5139.13784255
  entropy T*S    EENTRO =        -0.00000000
  eigenvalues    EBANDS =     -1759.69648819
  atomic energy  EATOM  =      8937.26825017
  Solvation  Ediel_sol  =         0.00000000
  ---------------------------------------------------
  free energy    TOTEN  =      -177.76675117 eV

  energy without entropy =     -177.76675117  energy(sigma->0) =     -177.76675117


--------------------------------------------------------------------------------------------------------




--------------------------------------- Iteration      1(   4)  ---------------------------------------


     EDDAV:  cpu time    1.7677: real time    1.7766
       DOS:  cpu time    0.0010: real time    0.0016
    --------------------------------------------
      LOOP:  cpu time    1.7687: real time    1.7781

 eigenvalue-minimisations  :  2456
 total energy-change (2. order) :-0.2183576E+02  (-0.2176202E+02)
 number of electron     128.0000000 magnetization 
 augmentation part      128.0000000 magnetization 

 Free energy of the ion-electron system (eV)
  ---------------------------------------------------
  alpha Z        PSCENC =       368.42493316
  Ewald energy   TEWEN  =     15539.52254992
  -Hartree energ DENC   =    -23780.97877181
  -exchange      EXHF   =         0.00000000
  -V(xc)+E(xc)   XCENC  =       322.37872802
  PAW double counting   =      5334.45189010    -5139.13784255
  entropy T*S    EENTRO =        -0.00000000
  eigenvalues    EBANDS =     -1781.53224722
  atomic energy  EATOM  =      8937.26825017
  Solvation  Ediel_sol  =         0.00000000
  ---------------------------------------------------
  free energy    TOTEN  =      -199.60251021 eV

  energy without entropy =     -199.60251021  energy(sigma->0) =     -199.60251021


--------------------------------------------------------------------------------------------------------




--------------------------------------- Iteration      1(   5)  ---------------------------------------


     EDDAV:  cpu time    2.2477: real time    2.2518
       DOS:  cpu time    0.0020: real time    0.0016
    CHARGE:  cpu time    0.0690: real time    0.0695
    MIXING:  cpu time    0.0010: real time    0.0012
    --------------------------------------------
      LOOP:  cpu time    2.3196: real time    2.3241

 eigenvalue-minimisations  :  3272
 total energy-change (2. order) :-0.1220485E+01  (-0.1219340E+01)
 number of electron     127.9999897 magnetization 
 augmentation part       13.7137678 magnetization 

 Broyden mixing:
  rms(total) = 0.37927E+01    rms(broyden)= 0.37921E+01
  rms(prec ) = 0.41765E+01
  weight for this iteration     100.00

 Free energy of the ion-electron system (eV)
  ---------------------------------------------------
  alpha Z        PSCENC =       368.42493316
  Ewald energy   TEWEN  =     15539.52254992
  -Hartree energ DENC   =    -23780.97877181
  -exchange      EXHF   =         0.00000000
  -V(xc)+E(xc)   XCENC  =       322.37872802
  PAW double counting   =      5334.45189010    -5139.13784255
  entropy T*S    EENTRO =        -0.00000000
  eigenvalues    EBANDS =     -1782.75273263
  atomic energy  EATOM  =      8937.26825017
  Solvation  Ediel_sol  =         0.00000000
  ---------------------------------------------------
  free energy    TOTEN  =      -200.82299562 eV

  energy without entropy =     -200.82299562  energy(sigma->0) =     -200.82299562


--------------------------------------------------------------------------------------------------------




--------------------------------------- Iteration      1(   6)  ---------------------------------------


    POTLOK:  cpu time    0.0240: real time    0.0325
    SETDIJ:  cpu time    0.0040: real time    0.0036
    EDDIAG:  cpu time    0.2110: real time    0.2128
  RMM-DIIS:  cpu time    1.0098: real time    1.0093
    ORTHCH:  cpu time    0.0430: real time    0.0431
       DOS:  cpu time    0.0020: real time    0.0019
    CHARGE:  cpu time    0.0880: real time    0.0884
    MIXING:  cpu time    0.0020: real time    0.0016
    --------------------------------------------
      LOOP:  cpu time    1.3838: real time    1.3932

 eigenvalue-minimisations  :  2305
 total energy-change (2. order) : 0.3679443E+02  (-0.3812821E+02)
 number of electron     127.9999942 magnetization 
 augmentation part       15.4932656 magnetization 

 Broyden mixing:
  rms(total) = 0.22621E+01    rms(broyden)= 0.22606E+01
  rms(prec ) = 0.25214E+01
  weight for this iteration     100.00

 eigenvalues of (default mixing * dielectric matrix)
  average eigenvalue GAMMA=   0.6381
  0.6381

 Free energy of the ion-electron system (eV)
  ---------------------------------------------------
  alpha Z        PSCENC =       368.42493316
  Ewald energy   TEWEN  =     15539.52254992
  -Hartree energ DENC   =    -24082.68473129
  -exchange      EXHF   =         0.00000000
  -V(xc)+E(xc)   XCENC  =       343.55660040
  PAW double counting   =      5977.45581958    -5794.50881053
  entropy T*S    EENTRO =        -0.03391251
  eigenvalues    EBANDS =     -1453.02925958
  atomic energy  EATOM  =      8937.26825017
  Solvation  Ediel_sol  =         0.00000000
  ---------------------------------------------------
  free energy    TOTEN  =      -164.02856069 eV

  energy without entropy =     -163.99464818  energy(sigma->0) =     -164.01160444


--------------------------------------------------------------------------------------------------------




--------------------------------------- Iteration      1(   7)  ---------------------------------------


    POTLOK:  cpu time    0.0270: real time    0.0384
    SETDIJ:  cpu time    0.0050: real time    0.0048
    EDDIAG:  cpu time    0.2460: real time    0.2462
  RMM-DIIS:  cpu time    0.8679: real time    0.8674
    ORTHCH:  cpu time    0.0340: real time    0.0346
       DOS:  cpu time    0.0020: real time    0.0019
    CHARGE:  cpu time    0.0700: real time    0.0704
    MIXING:  cpu time    0.0010: real time    0.0010
    --------------------------------------------
      LOOP:  cpu time    1.2528: real time    1.2648

 eigenvalue-minimisations  :  1978
 total energy-change (2. order) : 0.6726949E+01  (-0.6014517E+01)
 number of electron     127.9999929 magnetization 
 augmentation part       13.2972427 magnetization 

 Broyden mixing:
  rms(total) = 0.91847E+00    rms(broyden)= 0.91808E+00
  rms(prec ) = 0.10305E+01
  weight for this iteration     100.00

 eigenvalues of (default mixing * dielectric matrix)
  average eigenvalue GAMMA=   0.5808
  0.6800  0.4816

 Free energy of the ion-electron system (eV)
  ---------------------------------------------------
  alpha Z        PSCENC =       368.42493316
  Ewald energy   TEWEN  =     15539.52254992
  -Hartree energ DENC   =    -24049.38934078
  -exchange      EXHF   =         0.00000000
  -V(xc)+E(xc)   XCENC  =       337.54547570
  PAW double counting   =      5945.70936885    -5767.02157990
  entropy T*S    EENTRO =        -0.00000000
  eigenvalues    EBANDS =     -1469.36126852
  atomic energy  EATOM  =      8937.26825017
  Solvation  Ediel_sol  =         0.00000000
  ---------------------------------------------------
  free energy    TOTEN  =      -157.30161139 eV

  energy without entropy =     -157.30161139  energy(sigma->0) =     -157.30161139


--------------------------------------------------------------------------------------------------------




--------------------------------------- Iteration      1(   8)  ---------------------------------------


    POTLOK:  cpu time    0.0240: real time    0.0342
    SETDIJ:  cpu time    0.0040: real time    0.0036
    EDDIAG:  cpu time    0.2100: real time    0.2112
  RMM-DIIS:  cpu time    1.0748: real time    1.0746
    ORTHCH:  cpu time    0.0350: real time    0.0346
       DOS:  cpu time    0.0020: real time    0.0019
    CHARGE:  cpu time    0.0700: real time    0.0698
    MIXING:  cpu time    0.0000: real time    0.0010
    --------------------------------------------
      LOOP:  cpu time    1.4198: real time    1.4310

 eigenvalue-minimisations  :  2482
 total energy-change (2. order) : 0.1339304E+01  (-0.4723938E+00)
 number of electron     127.9999928 magnetization 
 augmentation part       13.3887980 magnetization 

 Broyden mixing:
  rms(total) = 0.68462E+00    rms(broyden)= 0.68454E+00
  rms(prec ) = 0.79326E+00
  weight for this iteration     100.00

 eigenvalues of (default mixing * dielectric matrix)
  average eigenvalue GAMMA=   1.1132
  0.7448  0.7448  1.8499

 Free energy of the ion-electron system (eV)
  ---------------------------------------------------
  alpha Z        PSCENC =       368.42493316
  Ewald energy   TEWEN  =     15539.52254992
  -Hartree energ DENC   =    -24063.79001976
  -exchange      EXHF   =         0.00000000
  -V(xc)+E(xc)   XCENC  =       338.01833290
  PAW double counting   =      6000.83399142    -5823.78240470
  entropy T*S    EENTRO =        -0.00000000
  eigenvalues    EBANDS =     -1452.45794050
  atomic energy  EATOM  =      8937.26825017
  Solvation  Ediel_sol  =         0.00000000
  ---------------------------------------------------
  free energy    TOTEN  =      -155.96230738 eV

  energy without entropy =     -155.96230738  energy(sigma->0) =     -155.96230738


--------------------------------------------------------------------------------------------------------




--------------------------------------- Iteration      1(   9)  ---------------------------------------


    POTLOK:  cpu time    0.0240: real time    0.0351
    SETDIJ:  cpu time    0.0040: real time    0.0036
    EDDIAG:  cpu time    0.2110: real time    0.2108
  RMM-DIIS:  cpu time    0.9539: real time    0.9539
    ORTHCH:  cpu time    0.0340: real time    0.0346
       DOS:  cpu time    0.0020: real time    0.0020
    CHARGE:  cpu time    0.0740: real time    0.0736
    MIXING:  cpu time    0.0010: real time    0.0011
    --------------------------------------------
      LOOP:  cpu time    1.3038: real time    1.3147

 eigenvalue-minimisations  :  2181
 total energy-change (2. order) :-0.3598893E+01  (-0.3119048E+01)
 number of electron     127.9999922 magnetization 
 augmentation part       15.7201887 magnetization 

 Broyden mixing:
  rms(total) = 0.24507E+01    rms(broyden)= 0.24502E+01
  rms(prec ) = 0.34426E+01
  weight for this iteration     100.00

 eigenvalues of (default mixing * dielectric matrix)
  average eigenvalue GAMMA=   0.8581
  1.9278  0.7575  0.6939  0.0532

 Free energy of the ion-electron system (eV)
  ---------------------------------------------------
  alpha Z        PSCENC =       368.42493316
  Ewald energy   TEWEN  =     15539.52254992
  -Hartree energ DENC   =    -24129.02298602
  -exchange      EXHF   =         0.00000000
  -V(xc)+E(xc)   XCENC  =       341.06711456
  PAW double counting   =      6190.56222364    -6018.14972097
  entropy T*S    EENTRO =        -0.05217099
  eigenvalues    EBANDS =     -1389.18139412
  atomic energy  EATOM  =      8937.26825017
  Solvation  Ediel_sol  =         0.00000000
  ---------------------------------------------------
  free energy    TOTEN  =      -159.56120064 eV

  energy without entropy =     -159.50902965  energy(sigma->0) =     -159.53511514


--------------------------------------------------------------------------------------------------------




--------------------------------------- Iteration      1(  10)  ---------------------------------------


    POTLOK:  cpu time    0.0230: real time    0.0303
    SETDIJ:  cpu time    0.0040: real time    0.0036
    EDDIAG:  cpu time    0.2110: real time    0.2121
  RMM-DIIS:  cpu time    1.1588: real time    1.1575
    ORTHCH:  cpu time    0.0340: real time    0.0346
       DOS:  cpu time    0.0020: real time    0.0021
    CHARGE:  cpu time    0.0740: real time    0.0737
    MIXING:  cpu time    0.0010: real time    0.0016
    --------------------------------------------
      LOOP:  cpu time    1.5078: real time    1.5155

 eigenvalue-minimisations  :  2684
 total energy-change (2. order) : 0.3258884E+01  (-0.2650552E+00)
 number of electron     127.9999926 magnetization 
 augmentation part       15.1089262 magnetization 

 Broyden mixing:
  rms(total) = 0.16362E+01    rms(broyden)= 0.16361E+01
  rms(prec ) = 0.20520E+01
  weight for this iteration     100.00

 eigenvalues of (default mixing * dielectric matrix)
  average eigenvalue GAMMA=   0.8033
  2.2894  0.8090  0.5268  0.2340  0.1574

 Free energy of the ion-electron system (eV)
  ---------------------------------------------------
  alpha Z        PSCENC =       368.42493316
  Ewald energy   TEWEN  =     15539.52254992
  -Hartree energ DENC   =    -24129.09067103
  -exchange      EXHF   =         0.00000000
  -V(xc)+E(xc)   XCENC  =       340.92183493
  PAW double counting   =      6197.97614871    -6025.96177520
  entropy T*S    EENTRO =        -0.05636328
  eigenvalues    EBANDS =     -1385.30722381
  atomic energy  EATOM  =      8937.26825017
  Solvation  Ediel_sol  =         0.00000000
  ---------------------------------------------------
  free energy    TOTEN  =      -156.30231644 eV

  energy without entropy =     -156.24595316  energy(sigma->0) =     -156.27413480


--------------------------------------------------------------------------------------------------------




--------------------------------------- Iteration      1(  11)  ---------------------------------------


    POTLOK:  cpu time    0.0230: real time    0.0314
    SETDIJ:  cpu time    0.0040: real time    0.0036
    EDDIAG:  cpu time    0.2110: real time    0.2120
  RMM-DIIS:  cpu time    1.0268: real time    1.0261
    ORTHCH:  cpu time    0.0340: real time    0.0343
       DOS:  cpu time    0.0030: real time    0.0021
    CHARGE:  cpu time    0.0730: real time    0.0735
    MIXING:  cpu time    0.0010: real time    0.0012
    --------------------------------------------
      LOOP:  cpu time    1.3758: real time    1.3842

 eigenvalue-minimisations  :  2342
 total energy-change (2. order) : 0.1725847E+01  (-0.1651734E+00)
 number of electron     127.9999936 magnetization 
 augmentation part       14.2438115 magnetization 

 Broyden mixing:
  rms(total) = 0.55996E+00    rms(broyden)= 0.55889E+00
  rms(prec ) = 0.62296E+00
  weight for this iteration     100.00

 eigenvalues of (default mixing * dielectric matrix)
  average eigenvalue GAMMA=   0.7497
  2.3106  0.8843  0.4864  0.4864  0.2010  0.1295

 Free energy of the ion-electron system (eV)
  ---------------------------------------------------
  alpha Z        PSCENC =       368.42493316
  Ewald energy   TEWEN  =     15539.52254992
  -Hartree energ DENC   =    -24130.03256938
  -exchange      EXHF   =         0.00000000
  -V(xc)+E(xc)   XCENC  =       340.27850792
  PAW double counting   =      6209.25610271    -6037.96761861
  entropy T*S    EENTRO =        -0.01964003
  eigenvalues    EBANDS =     -1381.30698541
  atomic energy  EATOM  =      8937.26825017
  Solvation  Ediel_sol  =         0.00000000
  ---------------------------------------------------
  free energy    TOTEN  =      -154.57646956 eV

  energy without entropy =     -154.55682953  energy(sigma->0) =     -154.56664954


--------------------------------------------------------------------------------------------------------




--------------------------------------- Iteration      1(  12)  ---------------------------------------


    POTLOK:  cpu time    0.0230: real time    0.0324
    SETDIJ:  cpu time    0.0040: real time    0.0036
    EDDIAG:  cpu time    0.2130: real time    0.2132
  RMM-DIIS:  cpu time    1.0068: real time    1.0069
    ORTHCH:  cpu time    0.0340: real time    0.0348
       DOS:  cpu time    0.0020: real time    0.0020
    CHARGE:  cpu time    0.0740: real time    0.0733
    MIXING:  cpu time    0.0010: real time    0.0012
    --------------------------------------------
      LOOP:  cpu time    1.3578: real time    1.3673

 eigenvalue-minimisations  :  2302
 total energy-change (2. order) : 0.3388986E+00  (-0.2490567E+00)
 number of electron     127.9999933 magnetization 
 augmentation part       13.9112639 magnetization 

 Broyden mixing:
  rms(total) = 0.19519E+00    rms(broyden)= 0.19481E+00
  rms(prec ) = 0.26866E+00
  weight for this iteration     100.00

 eigenvalues of (default mixing * dielectric matrix)
  average eigenvalue GAMMA=   0.8057
  2.3846  0.8111  0.8111  0.6396  0.6396  0.2136  0.1404

 Free energy of the ion-electron system (eV)
  ---------------------------------------------------
  alpha Z        PSCENC =       368.42493316
  Ewald energy   TEWEN  =     15539.52254992
  -Hartree energ DENC   =    -24126.99898318
  -exchange      EXHF   =         0.00000000
  -V(xc)+E(xc)   XCENC  =       339.44661312
  PAW double counting   =      6202.73037252    -6031.72757861
  entropy T*S    EENTRO =        -0.00000001
  eigenvalues    EBANDS =     -1382.90372804
  atomic energy  EATOM  =      8937.26825017
  Solvation  Ediel_sol  =         0.00000000
  ---------------------------------------------------
  free energy    TOTEN  =      -154.23757095 eV

  energy without entropy =     -154.23757094  energy(sigma->0) =     -154.23757095


--------------------------------------------------------------------------------------------------------




--------------------------------------- Iteration      1(  13)  ---------------------------------------


    POTLOK:  cpu time    0.0230: real time    0.0319
    SETDIJ:  cpu time    0.0040: real time    0.0036
    EDDIAG:  cpu time    0.2110: real time    0.2119
  RMM-DIIS:  cpu time    1.0568: real time    1.0566
    ORTHCH:  cpu time    0.0340: real time    0.0345
       DOS:  cpu time    0.0030: real time    0.0020
    CHARGE:  cpu time    0.0690: real time    0.0698
    MIXING:  cpu time    0.0020: real time    0.0013
    --------------------------------------------
      LOOP:  cpu time    1.4028: real time    1.4116

 eigenvalue-minimisations  :  2440
 total energy-change (2. order) :-0.5742434E-01  (-0.9406958E-01)
 number of electron     127.9999931 magnetization 
 augmentation part       13.7580489 magnetization 

 Broyden mixing:
  rms(total) = 0.15965E+00    rms(broyden)= 0.15958E+00
  rms(prec ) = 0.25178E+00
  weight for this iteration     100.00

 eigenvalues of (default mixing * dielectric matrix)
  average eigenvalue GAMMA=   0.8735
  2.3747  1.1747  1.1747  0.7302  0.5913  0.5913  0.2110  0.1405

 Free energy of the ion-electron system (eV)
  ---------------------------------------------------
  alpha Z        PSCENC =       368.42493316
  Ewald energy   TEWEN  =     15539.52254992
  -Hartree energ DENC   =    -24137.53895457
  -exchange      EXHF   =         0.00000000
  -V(xc)+E(xc)   XCENC  =       339.30373192
  PAW double counting   =      6210.90461402    -6040.20493831
  entropy T*S    EENTRO =        -0.00000000
  eigenvalues    EBANDS =     -1371.97518161
  atomic energy  EATOM  =      8937.26825017
  Solvation  Ediel_sol  =         0.00000000
  ---------------------------------------------------
  free energy    TOTEN  =      -154.29499529 eV

  energy without entropy =     -154.29499529  energy(sigma->0) =     -154.29499529


--------------------------------------------------------------------------------------------------------




--------------------------------------- Iteration      1(  14)  ---------------------------------------


    POTLOK:  cpu time    0.0230: real time    0.0337
    SETDIJ:  cpu time    0.0040: real time    0.0036
    EDDIAG:  cpu time    0.2110: real time    0.2115
  RMM-DIIS:  cpu time    1.0968: real time    1.0959
    ORTHCH:  cpu time    0.0340: real time    0.0345
       DOS:  cpu time    0.0020: real time    0.0019
    CHARGE:  cpu time    0.0700: real time    0.0701
    MIXING:  cpu time    0.0010: real time    0.0013
    --------------------------------------------
      LOOP:  cpu time    1.4418: real time    1.4526

 eigenvalue-minimisations  :  2464
 total energy-change (2. order) : 0.1475852E-01  (-0.8835421E-02)
 number of electron     127.9999931 magnetization 
 augmentation part       13.7186885 magnetization 

 Broyden mixing:
  rms(total) = 0.16519E+00    rms(broyden)= 0.16519E+00
  rms(prec ) = 0.25587E+00
  weight for this iteration     100.00

 eigenvalues of (default mixing * dielectric matrix)
  average eigenvalue GAMMA=   0.9602
  2.4524  2.1559  0.8322  0.8322  0.7906  0.6131  0.6131  0.2120  0.1404

 Free energy of the ion-electron system (eV)
  ---------------------------------------------------
  alpha Z        PSCENC =       368.42493316
  Ewald energy   TEWEN  =     15539.52254992
  -Hartree energ DENC   =    -24151.73330927
  -exchange      EXHF   =         0.00000000
  -V(xc)+E(xc)   XCENC  =       339.53950904
  PAW double counting   =      6215.76462689    -6045.07538995
  entropy T*S    EENTRO =        -0.00000000
  eigenvalues    EBANDS =     -1357.99140673
  atomic energy  EATOM  =      8937.26825017
  Solvation  Ediel_sol  =         0.00000000
  ---------------------------------------------------
  free energy    TOTEN  =      -154.28023678 eV

  energy without entropy =     -154.28023678  energy(sigma->0) =     -154.28023678


--------------------------------------------------------------------------------------------------------




--------------------------------------- Iteration      1(  15)  ---------------------------------------


    POTLOK:  cpu time    0.0230: real time    0.0338
    SETDIJ:  cpu time    0.0040: real time    0.0036
    EDDIAG:  cpu time    0.2130: real time    0.2139
  RMM-DIIS:  cpu time    1.0628: real time    1.0626
    ORTHCH:  cpu time    0.0340: real time    0.0345
       DOS:  cpu time    0.0020: real time    0.0019
    CHARGE:  cpu time    0.0710: real time    0.0706
    MIXING:  cpu time    0.0010: real time    0.0014
    --------------------------------------------
      LOOP:  cpu time    1.4108: real time    1.4223

 eigenvalue-minimisations  :  2364
 total energy-change (2. order) : 0.2221838E-01  (-0.3837442E-02)
 number of electron     127.9999931 magnetization 
 augmentation part       13.6847005 magnetization 

 Broyden mixing:
  rms(total) = 0.16789E+00    rms(broyden)= 0.16789E+00
  rms(prec ) = 0.25716E+00
  weight for this iteration     100.00

 eigenvalues of (default mixing * dielectric matrix)
  average eigenvalue GAMMA=   0.9468
  2.4149  2.4149  0.9041  0.9041  0.7369  0.5800  0.5800  0.5807  0.2117  0.1404

 Free energy of the ion-electron system (eV)
  ---------------------------------------------------
  alpha Z        PSCENC =       368.42493316
  Ewald energy   TEWEN  =     15539.52254992
  -Hartree energ DENC   =    -24165.78239627
  -exchange      EXHF   =         0.00000000
  -V(xc)+E(xc)   XCENC  =       339.67957792
  PAW double counting   =      6216.22603166    -6045.45638879
  entropy T*S    EENTRO =        -0.00000000
  eigenvalues    EBANDS =     -1344.14057617
  atomic energy  EATOM  =      8937.26825017
  Solvation  Ediel_sol  =         0.00000000
  ---------------------------------------------------
  free energy    TOTEN  =      -154.25801840 eV

  energy without entropy =     -154.25801840  energy(sigma->0) =     -154.25801840


--------------------------------------------------------------------------------------------------------




--------------------------------------- Iteration      1(  16)  ---------------------------------------


    POTLOK:  cpu time    0.0240: real time    0.0333
    SETDIJ:  cpu time    0.0030: real time    0.0036
    EDDIAG:  cpu time    0.2140: real time    0.2132
  RMM-DIIS:  cpu time    1.1708: real time    1.1714
    ORTHCH:  cpu time    0.0340: real time    0.0342
       DOS:  cpu time    0.0020: real time    0.0020
    CHARGE:  cpu time    0.0720: real time    0.0730
    MIXING:  cpu time    0.0020: real time    0.0018
    --------------------------------------------
      LOOP:  cpu time    1.5218: real time    1.5325

 eigenvalue-minimisations  :  2644
 total energy-change (2. order) : 0.7093846E-01  (-0.2339285E-02)
 number of electron     127.9999931 magnetization 
 augmentation part       13.6924697 magnetization 

 Broyden mixing:
  rms(total) = 0.14581E+00    rms(broyden)= 0.14581E+00
  rms(prec ) = 0.23472E+00
  weight for this iteration     100.00

 eigenvalues of (default mixing * dielectric matrix)
  average eigenvalue GAMMA=   1.0325
  2.9142  2.4032  1.1174  1.1174  0.8325  0.6995  0.6995  0.6106  0.6106  0.2118
  0.1404

 Free energy of the ion-electron system (eV)
  ---------------------------------------------------
  alpha Z        PSCENC =       368.42493316
  Ewald energy   TEWEN  =     15539.52254992
  -Hartree energ DENC   =    -24172.89575373
  -exchange      EXHF   =         0.00000000
  -V(xc)+E(xc)   XCENC  =       339.76858021
  PAW double counting   =      6214.14578628    -6043.24939586
  entropy T*S    EENTRO =        -0.00000002
  eigenvalues    EBANDS =     -1337.17203008
  atomic energy  EATOM  =      8937.26825017
  Solvation  Ediel_sol  =         0.00000000
  ---------------------------------------------------
  free energy    TOTEN  =      -154.18707994 eV

  energy without entropy =     -154.18707992  energy(sigma->0) =     -154.18707993


--------------------------------------------------------------------------------------------------------




--------------------------------------- Iteration      1(  17)  ---------------------------------------


    POTLOK:  cpu time    0.0230: real time    0.0332
    SETDIJ:  cpu time    0.0040: real time    0.0036
    EDDIAG:  cpu time    0.2130: real time    0.2132
  RMM-DIIS:  cpu time    1.0748: real time    1.0742
    ORTHCH:  cpu time    0.0340: real time    0.0345
       DOS:  cpu time    0.0020: real time    0.0021
    CHARGE:  cpu time    0.0740: real time    0.0737
    MIXING:  cpu time    0.0010: real time    0.0015
    --------------------------------------------
      LOOP:  cpu time    1.4258: real time    1.4361

 eigenvalue-minimisations  :  2442
 total energy-change (2. order) : 0.9657062E-01  (-0.2918895E-02)
 number of electron     127.9999932 magnetization 
 augmentation part       13.7130799 magnetization 

 Broyden mixing:
  rms(total) = 0.12372E+00    rms(broyden)= 0.12372E+00
  rms(prec ) = 0.20951E+00
  weight for this iteration     100.00

 eigenvalues of (default mixing * dielectric matrix)
  average eigenvalue GAMMA=   1.1415
  3.4527  2.2107  1.5962  1.5962  1.0174  0.6052  0.6052  0.7757  0.7757  0.7106
  0.2118  0.1404

 Free energy of the ion-electron system (eV)
  ---------------------------------------------------
  alpha Z        PSCENC =       368.42493316
  Ewald energy   TEWEN  =     15539.52254992
  -Hartree energ DENC   =    -24180.10669810
  -exchange      EXHF   =         0.00000000
  -V(xc)+E(xc)   XCENC  =       339.81385156
  PAW double counting   =      6212.55166354    -6041.55816247
  entropy T*S    EENTRO =        -0.00025335
  eigenvalues    EBANDS =     -1330.00664375
  atomic energy  EATOM  =      8937.26825017
  Solvation  Ediel_sol  =         0.00000000
  ---------------------------------------------------
  free energy    TOTEN  =      -154.09050932 eV

  energy without entropy =     -154.09025597  energy(sigma->0) =     -154.09038265


--------------------------------------------------------------------------------------------------------




--------------------------------------- Iteration      1(  18)  ---------------------------------------


    POTLOK:  cpu time    0.0230: real time    0.0317
    SETDIJ:  cpu time    0.0040: real time    0.0036
    EDDIAG:  cpu time    0.2120: real time    0.2132
  RMM-DIIS:  cpu time    1.0908: real time    1.0896
    ORTHCH:  cpu time    0.0330: real time    0.0344
       DOS:  cpu time    0.0030: real time    0.0021
    CHARGE:  cpu time    0.0740: real time    0.0738
    MIXING:  cpu time    0.0010: real time    0.0016
    --------------------------------------------
      LOOP:  cpu time    1.4408: real time    1.4500

 eigenvalue-minimisations  :  2478
 total energy-change (2. order) : 0.7394242E-01  (-0.2210939E-02)
 number of electron     127.9999931 magnetization 
 augmentation part       13.7309255 magnetization 

 Broyden mixing:
  rms(total) = 0.97589E-01    rms(broyden)= 0.97577E-01
  rms(prec ) = 0.15610E+00
  weight for this iteration     100.00

 eigenvalues of (default mixing * dielectric matrix)
  average eigenvalue GAMMA=   1.0859
  3.4424  2.3156  1.6247  1.6247  0.9016  0.8020  0.8020  0.6945  0.6030  0.6030
  0.1404  0.2118  0.3515

 Free energy of the ion-electron system (eV)
  ---------------------------------------------------
  alpha Z        PSCENC =       368.42493316
  Ewald energy   TEWEN  =     15539.52254992
  -Hartree energ DENC   =    -24184.05273424
  -exchange      EXHF   =         0.00000000
  -V(xc)+E(xc)   XCENC  =       339.76510737
  PAW double counting   =      6211.28525348    -6040.27144760
  entropy T*S    EENTRO =        -0.01272900
  eigenvalues    EBANDS =     -1325.94575016
  atomic energy  EATOM  =      8937.26825017
  Solvation  Ediel_sol  =         0.00000000
  ---------------------------------------------------
  free energy    TOTEN  =      -154.01656689 eV

  energy without entropy =     -154.00383790  energy(sigma->0) =     -154.01020240


--------------------------------------------------------------------------------------------------------




--------------------------------------- Iteration      1(  19)  ---------------------------------------


    POTLOK:  cpu time    0.0230: real time    0.0314
    SETDIJ:  cpu time    0.0050: real time    0.0036
    EDDIAG:  cpu time    0.2120: real time    0.2132
  RMM-DIIS:  cpu time    1.1528: real time    1.1521
    ORTHCH:  cpu time    0.0340: real time    0.0343
       DOS:  cpu time    0.0020: real time    0.0021
    CHARGE:  cpu time    0.0730: real time    0.0732
    MIXING:  cpu time    0.0020: real time    0.0017
    --------------------------------------------
      LOOP:  cpu time    1.5038: real time    1.5116

 eigenvalue-minimisations  :  2621
 total energy-change (2. order) : 0.1113924E-01  (-0.3735709E-03)
 number of electron     127.9999931 magnetization 
 augmentation part       13.7427419 magnetization 

 Broyden mixing:
  rms(total) = 0.80407E-01    rms(broyden)= 0.80395E-01
  rms(prec ) = 0.12221E+00
  weight for this iteration     100.00

 eigenvalues of (default mixing * dielectric matrix)
  average eigenvalue GAMMA=   1.0719
  3.5229  2.3161  1.6475  1.6475  0.9518  0.7732  0.7732  0.7840  0.6037  0.6037
  0.5793  0.2118  0.1404  0.4512

 Free energy of the ion-electron system (eV)
  ---------------------------------------------------
  alpha Z        PSCENC =       368.42493316
  Ewald energy   TEWEN  =     15539.52254992
  -Hartree energ DENC   =    -24183.75342565
  -exchange      EXHF   =         0.00000000
  -V(xc)+E(xc)   XCENC  =       339.75093930
  PAW double counting   =      6210.24040559    -6039.19614216
  entropy T*S    EENTRO =        -0.01830252
  eigenvalues    EBANDS =     -1326.24463546
  atomic energy  EATOM  =      8937.26825017
  Solvation  Ediel_sol  =         0.00000000
  ---------------------------------------------------
  free energy    TOTEN  =      -154.00542765 eV

  energy without entropy =     -153.98712513  energy(sigma->0) =     -153.99627639


--------------------------------------------------------------------------------------------------------




--------------------------------------- Iteration      1(  20)  ---------------------------------------


    POTLOK:  cpu time    0.0220: real time    0.0308
    SETDIJ:  cpu time    0.0050: real time    0.0036
    EDDIAG:  cpu time    0.2130: real time    0.2139
  RMM-DIIS:  cpu time    1.3708: real time    1.3708
    ORTHCH:  cpu time    0.0340: real time    0.0349
       DOS:  cpu time    0.0030: real time    0.0021
    CHARGE:  cpu time    0.0740: real time    0.0738
    MIXING:  cpu time    0.0010: real time    0.0018
    --------------------------------------------
      LOOP:  cpu time    1.7227: real time    1.7316

 eigenvalue-minimisations  :  3170
 total energy-change (2. order) : 0.2091565E-02  (-0.7355263E-04)
 number of electron     127.9999930 magnetization 
 augmentation part       13.7469796 magnetization 

 Broyden mixing:
  rms(total) = 0.78017E-01    rms(broyden)= 0.78014E-01
  rms(prec ) = 0.11361E+00
  weight for this iteration     100.00

 eigenvalues of (default mixing * dielectric matrix)
  average eigenvalue GAMMA=   1.1176
  3.3593  2.4258  1.7469  1.7469  1.1242  1.1242  0.1404  0.2118  0.9246  0.7659
  0.7659  0.6049  0.6049  0.6088  0.6088

 Free energy of the ion-electron system (eV)
  ---------------------------------------------------
  alpha Z        PSCENC =       368.42493316
  Ewald energy   TEWEN  =     15539.52254992
  -Hartree energ DENC   =    -24184.15525565
  -exchange      EXHF   =         0.00000000
  -V(xc)+E(xc)   XCENC  =       339.75450190
  PAW double counting   =      6210.18658531    -6039.14104319
  entropy T*S    EENTRO =        -0.01980261
  eigenvalues    EBANDS =     -1325.84405509
  atomic energy  EATOM  =      8937.26825017
  Solvation  Ediel_sol  =         0.00000000
  ---------------------------------------------------
  free energy    TOTEN  =      -154.00333609 eV

  energy without entropy =     -153.98353348  energy(sigma->0) =     -153.99343478


--------------------------------------------------------------------------------------------------------




--------------------------------------- Iteration      1(  21)  ---------------------------------------


    POTLOK:  cpu time    0.0240: real time    0.0318
    SETDIJ:  cpu time    0.0040: real time    0.0036
    EDDIAG:  cpu time    0.2100: real time    0.2118
  RMM-DIIS:  cpu time    0.9589: real time    0.9577
    ORTHCH:  cpu time    0.0350: real time    0.0347
       DOS:  cpu time    0.0020: real time    0.0021
    CHARGE:  cpu time    0.0740: real time    0.0738
    MIXING:  cpu time    0.0020: real time    0.0018
    --------------------------------------------
      LOOP:  cpu time    1.3098: real time    1.3173

 eigenvalue-minimisations  :  2213
 total energy-change (2. order) :-0.2547370E-01  (-0.2664211E-02)
 number of electron     127.9999926 magnetization 
 augmentation part       13.9003967 magnetization 

 Broyden mixing:
  rms(total) = 0.28060E+00    rms(broyden)= 0.28039E+00
  rms(prec ) = 0.38982E+00
  weight for this iteration     100.00

 eigenvalues of (default mixing * dielectric matrix)
  average eigenvalue GAMMA=   1.0745
  3.2832  2.4064  1.5649  1.5649  1.4636  1.4636  0.9043  0.6053  0.6053  0.7446
  0.7446  0.6655  0.6655  0.2118  0.1404  0.1578

 Free energy of the ion-electron system (eV)
  ---------------------------------------------------
  alpha Z        PSCENC =       368.42493316
  Ewald energy   TEWEN  =     15539.52254992
  -Hartree energ DENC   =    -24181.29722024
  -exchange      EXHF   =         0.00000000
  -V(xc)+E(xc)   XCENC  =       339.68210000
  PAW double counting   =      6208.45851685    -6037.32999608
  entropy T*S    EENTRO =        -0.06160536
  eigenvalues    EBANDS =     -1328.69633820
  atomic energy  EATOM  =      8937.26825017
  Solvation  Ediel_sol  =         0.00000000
  ---------------------------------------------------
  free energy    TOTEN  =      -154.02880978 eV

  energy without entropy =     -153.96720442  energy(sigma->0) =     -153.99800710


--------------------------------------------------------------------------------------------------------




--------------------------------------- Iteration      1(  22)  ---------------------------------------


    POTLOK:  cpu time    0.0230: real time    0.0312
    SETDIJ:  cpu time    0.0040: real time    0.0036
    EDDIAG:  cpu time    0.2120: real time    0.2128
  RMM-DIIS:  cpu time    1.0878: real time    1.0878
    ORTHCH:  cpu time    0.0350: real time    0.0346
       DOS:  cpu time    0.0020: real time    0.0022
    CHARGE:  cpu time    0.0740: real time    0.0740
    MIXING:  cpu time    0.0020: real time    0.0020
    --------------------------------------------
      LOOP:  cpu time    1.4398: real time    1.4481

 eigenvalue-minimisations  :  2491
 total energy-change (2. order) : 0.1092564E-01  (-0.3020988E-03)
 number of electron     127.9999927 magnetization 
 augmentation part       13.8869160 magnetization 

 Broyden mixing:
  rms(total) = 0.24930E+00    rms(broyden)= 0.24930E+00
  rms(prec ) = 0.34454E+00
  weight for this iteration     100.00

 eigenvalues of (default mixing * dielectric matrix)
  average eigenvalue GAMMA=   1.0631
  3.0288  2.4997  2.2318  2.2318  1.2885  1.2885  0.8735  0.7563  0.7563  0.6051
  0.6051  0.6249  0.6249  0.2118  0.1404  0.1529  0.1529

 Free energy of the ion-electron system (eV)
  ---------------------------------------------------
  alpha Z        PSCENC =       368.42493316
  Ewald energy   TEWEN  =     15539.52254992
  -Hartree energ DENC   =    -24180.93046848
  -exchange      EXHF   =         0.00000000
  -V(xc)+E(xc)   XCENC  =       339.68008091
  PAW double counting   =      6208.38633464    -6037.25625175
  entropy T*S    EENTRO =        -0.06010402
  eigenvalues    EBANDS =     -1329.05320869
  atomic energy  EATOM  =      8937.26825017
  Solvation  Ediel_sol  =         0.00000000
  ---------------------------------------------------
  free energy    TOTEN  =      -154.01788414 eV

  energy without entropy =     -153.95778013  energy(sigma->0) =     -153.98783213


--------------------------------------------------------------------------------------------------------




--------------------------------------- Iteration      1(  23)  ---------------------------------------


    POTLOK:  cpu time    0.0230: real time    0.0337
    SETDIJ:  cpu time    0.0040: real time    0.0036
    EDDIAG:  cpu time    0.2110: real time    0.2114
  RMM-DIIS:  cpu time    1.0678: real time    1.0688
    ORTHCH:  cpu time    0.0350: real time    0.0347
       DOS:  cpu time    0.0030: real time    0.0022
    CHARGE:  cpu time    0.0730: real time    0.0739
    MIXING:  cpu time    0.0020: real time    0.0021
    --------------------------------------------
      LOOP:  cpu time    1.4188: real time    1.4303

 eigenvalue-minimisations  :  2477
 total energy-change (2. order) :-0.2612431E-01  (-0.3666693E-03)
 number of electron     127.9999926 magnetization 
 augmentation part       13.9452494 magnetization 

 Broyden mixing:
  rms(total) = 0.33929E+00    rms(broyden)= 0.33927E+00
  rms(prec ) = 0.48996E+00
  weight for this iteration     100.00

 eigenvalues of (default mixing * dielectric matrix)
  average eigenvalue GAMMA=   1.0467
  2.6360  2.6360  2.3601  2.3601  1.3480  1.3480  0.9427  0.6053  0.6053  0.7337
  0.7337  0.7171  0.6431  0.1404  0.3687  0.2386  0.2118  0.2111

 Free energy of the ion-electron system (eV)
  ---------------------------------------------------
  alpha Z        PSCENC =       368.42493316
  Ewald energy   TEWEN  =     15539.52254992
  -Hartree energ DENC   =    -24179.63631025
  -exchange      EXHF   =         0.00000000
  -V(xc)+E(xc)   XCENC  =       339.66564373
  PAW double counting   =      6208.20601332    -6037.05124013
  entropy T*S    EENTRO =        -0.06876316
  eigenvalues    EBANDS =     -1330.37508522
  atomic energy  EATOM  =      8937.26825017
  Solvation  Ediel_sol  =         0.00000000
  ---------------------------------------------------
  free energy    TOTEN  =      -154.04400845 eV

  energy without entropy =     -153.97524529  energy(sigma->0) =     -154.00962687


--------------------------------------------------------------------------------------------------------




--------------------------------------- Iteration      1(  24)  ---------------------------------------


    POTLOK:  cpu time    0.0240: real time    0.0325
    SETDIJ:  cpu time    0.0040: real time    0.0036
    EDDIAG:  cpu time    0.2100: real time    0.2112
  RMM-DIIS:  cpu time    1.1288: real time    1.1274
    ORTHCH:  cpu time    0.0340: real time    0.0350
       DOS:  cpu time    0.0030: real time    0.0021
    CHARGE:  cpu time    0.0730: real time    0.0741
    MIXING:  cpu time    0.0020: real time    0.0022
    --------------------------------------------
      LOOP:  cpu time    1.4788: real time    1.4881

 eigenvalue-minimisations  :  2614
 total energy-change (2. order) :-0.1138708E-01  (-0.1207126E-03)
 number of electron     127.9999925 magnetization 
 augmentation part       13.9682480 magnetization 

 Broyden mixing:
  rms(total) = 0.37356E+00    rms(broyden)= 0.37355E+00
  rms(prec ) = 0.54324E+00
  weight for this iteration     100.00

 eigenvalues of (default mixing * dielectric matrix)
  average eigenvalue GAMMA=   1.1370
  3.3486  3.3486  2.7450  2.0623  1.3147  1.3147  0.7336  0.7336  1.0314  0.8514
  0.7284  0.7284  0.6051  0.6051  0.5911  0.1404  0.2118  0.3381  0.1706

 Free energy of the ion-electron system (eV)
  ---------------------------------------------------
  alpha Z        PSCENC =       368.42493316
  Ewald energy   TEWEN  =     15539.52254992
  -Hartree energ DENC   =    -24179.29650494
  -exchange      EXHF   =         0.00000000
  -V(xc)+E(xc)   XCENC  =       339.66493181
  PAW double counting   =      6208.14814857    -6036.99216020
  entropy T*S    EENTRO =        -0.07084469
  eigenvalues    EBANDS =     -1330.72469934
  atomic energy  EATOM  =      8937.26825017
  Solvation  Ediel_sol  =         0.00000000
  ---------------------------------------------------
  free energy    TOTEN  =      -154.05539553 eV

  energy without entropy =     -153.98455084  energy(sigma->0) =     -154.01997319


--------------------------------------------------------------------------------------------------------




--------------------------------------- Iteration      1(  25)  ---------------------------------------


    POTLOK:  cpu time    0.0240: real time    0.0342
    SETDIJ:  cpu time    0.0040: real time    0.0036
    EDDIAG:  cpu time    0.2110: real time    0.2110
  RMM-DIIS:  cpu time    0.9769: real time    0.9768
    ORTHCH:  cpu time    0.0350: real time    0.0349
       DOS:  cpu time    0.0020: real time    0.0021
    CHARGE:  cpu time    0.0740: real time    0.0741
    MIXING:  cpu time    0.0020: real time    0.0023
    --------------------------------------------
      LOOP:  cpu time    1.3288: real time    1.3389

 eigenvalue-minimisations  :  2256
 total energy-change (2. order) :-0.1265283E-01  (-0.4206983E-03)
 number of electron     127.9999925 magnetization 
 augmentation part       13.9882404 magnetization 

 Broyden mixing:
  rms(total) = 0.39577E+00    rms(broyden)= 0.39576E+00
  rms(prec ) = 0.59442E+00
  weight for this iteration     100.00

 eigenvalues of (default mixing * dielectric matrix)
  average eigenvalue GAMMA=   1.1201
  3.1020  3.1020  2.6019  2.6019  1.3186  1.3186  0.9603  0.9603  0.9437  0.7954
  0.7954  0.6040  0.6040  0.1404  0.2118  0.6476  0.6476  0.5297  0.3512  0.1653

 Free energy of the ion-electron system (eV)
  ---------------------------------------------------
  alpha Z        PSCENC =       368.42493316
  Ewald energy   TEWEN  =     15539.52254992
  -Hartree energ DENC   =    -24179.73277847
  -exchange      EXHF   =         0.00000000
  -V(xc)+E(xc)   XCENC  =       339.65218495
  PAW double counting   =      6208.58458218    -6037.41334155
  entropy T*S    EENTRO =        -0.07442361
  eigenvalues    EBANDS =     -1330.30000513
  atomic energy  EATOM  =      8937.26825017
[...]
     23     -15.2717      2.00000
     24     -14.7911      2.00000
     25     -14.6410      2.00000
     26     -14.5590      2.00000
     27     -14.5479      2.00000
     28     -13.4607      2.00000
     29      -6.7196      2.00000
     30      -6.2923      2.00000
     31      -5.9458      2.00000
     32      -5.8039      2.00000
     33      -5.7506      2.00000
     34      -5.5152      2.00000
     35      -5.5076      2.00000
     36      -5.1833      2.00000
     37      -4.9530      2.00000
     38      -4.9358      2.00000
     39      -4.6685      2.00000
     40      -4.5550      2.00000
     41      -4.2649      2.00000
     42      -4.1277      2.00000
     43      -4.0510      2.00000
     44      -3.8772      2.00000
     45      -3.8096      2.00000
     46      -3.5598      2.00000
     47      -3.5369      2.00000
     48      -3.1622      2.00000
     49      -3.1319      2.00000
     50      -3.0252      2.00000
     51      -2.9592      2.00000
     52      -2.8710      2.00000
     53      -2.8263      2.00000
     54      -2.4558      2.00000
     55      -2.3291      2.00000
     56      -1.8923      2.00000
     57      -1.7623      2.00000
     58      -1.7113      2.00000
     59      -1.6193      2.00000
     60      -1.4015      2.00000
     61      -1.2747      2.00000
     62      -0.4475      2.00000
     63      -0.4274      2.00000
     64      -0.1716      1.71775
     65      -0.1292      1.36583
     66       0.4131      0.00000
     67       0.9951      0.00000
     68       1.1506      0.00000
     69       1.4266      0.00000
     70       1.7381      0.00000
     71       2.6587      0.00000
     72       2.8671      0.00000
     73       3.4412      0.00000
     74       3.9597      0.00000
     75       4.5683      0.00000
     76       5.7019      0.00000

 k-point    11 :       0.2000    0.4286    0.0000
  band No.  band energies     occupation 
      1     -35.6193      2.00000
      2     -34.3986      2.00000
      3     -33.0807      2.00000
      4     -32.4688      2.00000
      5     -20.2965      2.00000
      6     -19.3496      2.00000
      7     -19.0437      2.00000
      8     -18.9129      2.00000
      9     -18.9017      2.00000
     10     -18.0597      2.00000
     11     -17.7379      2.00000
     12     -17.6680      2.00000
     13     -17.5581      2.00000
     14     -17.2111      2.00000
     15     -17.0739      2.00000
     16     -16.6901      2.00000
     17     -16.6417      2.00000
     18     -16.5201      2.00000
     19     -16.3485      2.00000
     20     -15.9609      2.00000
     21     -15.8857      2.00000
     22     -15.5483      2.00000
     23     -15.1907      2.00000
     24     -14.7909      2.00000
     25     -14.7030      2.00000
     26     -14.5965      2.00000
     27     -14.4240      2.00000
     28     -13.4454      2.00000
     29      -6.6844      2.00000
     30      -6.2989      2.00000
     31      -6.1200      2.00000
     32      -5.9290      2.00000
     33      -5.7469      2.00000
     34      -5.5427      2.00000
     35      -5.4875      2.00000
     36      -5.1674      2.00000
     37      -5.0190      2.00000
     38      -4.8369      2.00000
     39      -4.6750      2.00000
     40      -4.5205      2.00000
     41      -4.2316      2.00000
     42      -4.1408      2.00000
     43      -4.0060      2.00000
     44      -3.9086      2.00000
     45      -3.7719      2.00000
     46      -3.6497      2.00000
     47      -3.4925      2.00000
     48      -3.3290      2.00000
     49      -3.0860      2.00000
     50      -2.9691      2.00000
     51      -2.9403      2.00000
     52      -2.7948      2.00000
     53      -2.7521      2.00000
     54      -2.5524      2.00000
     55      -2.2131      2.00000
     56      -2.0222      2.00000
     57      -1.7724      2.00000
     58      -1.5951      2.00000
     59      -1.5804      2.00000
     60      -1.4304      2.00000
     61      -1.1680      2.00000
     62      -0.4639      2.00000
     63      -0.3923      1.99997
     64      -0.2176      1.91551
     65      -0.0603      0.61776
     66       0.4427      0.00000
     67       0.6422      0.00000
     68       1.0851      0.00000
     69       1.2895      0.00000
     70       1.4746      0.00000
     71       1.9711      0.00000
     72       2.5843      0.00000
     73       2.7484      0.00000
     74       3.8496      0.00000
     75       4.0468      0.00000
     76       5.9839      0.00000

 k-point    12 :       0.4000    0.4286    0.0000
  band No.  band energies     occupation 
      1     -35.6192      2.00000
      2     -34.3985      2.00000
      3     -33.0806      2.00000
      4     -32.4687      2.00000
      5     -20.2245      2.00000
      6     -19.4500      2.00000
      7     -19.0458      2.00000
      8     -18.9919      2.00000
      9     -18.8397      2.00000
     10     -18.1497      2.00000
     11     -17.6978      2.00000
     12     -17.6288      2.00000
     13     -17.4879      2.00000
     14     -17.2652      2.00000
     15     -17.0667      2.00000
     16     -16.7781      2.00000
     17     -16.5898      2.00000
     18     -16.4088      2.00000
     19     -16.3661      2.00000
     20     -15.9888      2.00000
     21     -15.9029      2.00000
     22     -15.6225      2.00000
     23     -15.0753      2.00000
     24     -14.7946      2.00000
     25     -14.7640      2.00000
     26     -14.5883      2.00000
     27     -14.3294      2.00000
     28     -13.4218      2.00000
     29      -6.6186      2.00000
     30      -6.3349      2.00000
     31      -6.2948      2.00000
     32      -6.1056      2.00000
     33      -5.8256      2.00000
     34      -5.5669      2.00000
     35      -5.4081      2.00000
     36      -5.1421      2.00000
     37      -5.0412      2.00000
     38      -4.8476      2.00000
     39      -4.8205      2.00000
     40      -4.3805      2.00000
     41      -4.1340      2.00000
     42      -4.1095      2.00000
     43      -4.0318      2.00000
     44      -3.9204      2.00000
     45      -3.7049      2.00000
     46      -3.6827      2.00000
     47      -3.5577      2.00000
     48      -3.4754      2.00000
     49      -3.0154      2.00000
     50      -2.9295      2.00000
     51      -2.8771      2.00000
     52      -2.7951      2.00000
     53      -2.6394      2.00000
     54      -2.4771      2.00000
     55      -2.2130      2.00000
     56      -2.0658      2.00000
     57      -1.8983      2.00000
     58      -1.5100      2.00000
     59      -1.4825      2.00000
     60      -1.4627      2.00000
     61      -0.9406      2.00000
     62      -0.5330      2.00000
     63      -0.3265      1.99891
     64      -0.2678      1.98515
     65       0.0464      0.04463
     66       0.1391      0.00090
     67       0.5295      0.00000
     68       1.0251      0.00000
     69       1.4396      0.00000
     70       1.4916      0.00000
     71       1.8053      0.00000
     72       2.0153      0.00000
     73       2.7501      0.00000
     74       3.2650      0.00000
     75       3.7354      0.00000
     76       5.2481      0.00000


--------------------------------------------------------------------------------------------------------


 soft charge-density along one line, spin component           1
         0         1         2         3         4         5         6         7         8         9
 total charge-density along one line
 
 pseudopotential strength for first ion, spin component:           1
 13.213  -0.433   0.000  -0.014  -0.000  -0.000   0.001   0.000
 -0.433   0.101  -0.000   0.002   0.000   0.000  -0.000  -0.000
  0.000  -0.000  -9.713  -0.000  -0.000   0.095   0.000   0.000
 -0.014   0.002  -0.000  -9.660  -0.000   0.000   0.087   0.000
 -0.000   0.000  -0.000  -0.000  -9.669   0.000   0.000   0.088
 -0.000   0.000   0.095   0.000   0.000   0.188  -0.000  -0.000
  0.001  -0.000   0.000   0.087   0.000  -0.000   0.191  -0.000
  0.000  -0.000   0.000   0.000   0.088  -0.000  -0.000   0.190
 total augmentation occupancy for first ion, spin component:           1
  1.864   0.126   0.000  -0.012   0.000   0.000   0.008   0.000
  0.126   0.010   0.000   0.019   0.000   0.000   0.003   0.000
  0.000   0.000   1.493   0.000   0.000   0.149   0.000   0.000
 -0.012   0.019   0.000   1.538   0.000   0.000   0.108   0.000
  0.000   0.000   0.000   0.000   1.514   0.000   0.000   0.115
  0.000   0.000   0.149   0.000   0.000   0.015   0.000   0.000
  0.008   0.003   0.000   0.108   0.000   0.000   0.008   0.000
  0.000   0.000   0.000   0.000   0.115   0.000   0.000   0.010


------------------------ aborting loop because EDIFF is reached ----------------------------------------


 


 total charge     
 
# of ion       s       p       d       tot
------------------------------------------
    1        1.561   3.385   0.000   4.945
    2        1.577   3.435   0.000   5.012
    3        1.577   3.435   0.000   5.012
    4        1.562   3.462   0.000   5.024
    5        1.577   3.435   0.000   5.012
    6        1.577   3.435   0.000   5.012
    7        1.562   3.460   0.000   5.022
    8        1.578   3.434   0.000   5.011
    9        1.578   3.434   0.000   5.011
   10        1.564   3.450   0.000   5.014
   11        1.582   3.410   0.000   4.992
   12        1.582   3.410   0.000   4.992
   13        2.011   5.793   0.269   8.073
   14        2.008   5.791   0.255   8.053
   15        2.007   5.791   0.249   8.046
   16        1.999   5.795   0.211   8.005
   17        0.558   0.860   2.856   4.274
   18        0.572   0.938   2.865   4.375
   19        0.568   0.934   2.855   4.357
   20        0.572   0.944   2.837   4.353
--------------------------------------------------
tot         29.171  68.029  12.398 109.598
 
    CHARGE:  cpu time    0.0710: real time    0.0713
    FORLOC:  cpu time    0.0060: real time    0.0058
    FORNL :  cpu time    0.2990: real time    0.2993
    STRESS:  cpu time    0.9159: real time    0.9164
    FORCOR:  cpu time    0.0250: real time    0.0254
    FORHAR:  cpu time    0.0100: real time    0.0095
    MIXING:  cpu time    0.0040: real time    0.0043
    OFIELD:  cpu time    0.0000: real time    0.0000

  FORCE on cell =-STRESS in cart. coord.  units (eV):
  Direction    XX          YY          ZZ          XY          YZ          ZX
  --------------------------------------------------------------------------------------
  Alpha Z   368.42493   368.42493   368.42493
  Ewald   20300.18288 20538.98927-25299.66303    -0.00000     0.00000     0.00000
  Hartree 22740.54050 22895.28874-21452.07514    -0.00000    -0.00000    -0.00000
  E(xc)    -579.95427  -574.72778  -577.11198    -0.00000    -0.00000     0.00000
  Local  -44677.71326-45090.12412 45102.61348     0.00000    -0.00000    -0.00000
  n-local  -484.37488  -487.92691  -495.38762    -0.16900    -0.00000    -0.00000
  augment   115.21628   115.11747   115.44928     0.00000     0.00000     0.00000
  Kinetic  2225.93439  2228.94960  2238.85994     0.20821    -0.00001     0.00002
  Fock        0.00000     0.00000     0.00000     0.00000     0.00000     0.00000
  -------------------------------------------------------------------------------------
  Total       8.25658    -6.00879     1.10987     0.00000     0.00000     0.00000
  in kB      27.58532   -20.07544     3.70808     0.00000     0.00000     0.00000
  external pressure =        3.74 kB  Pullay stress =        0.00 kB


 VOLUME and BASIS-vectors are now :
 -----------------------------------------------------------------------------
  energy-cutoff  :      500.00
  volume of cell :      479.55
      direct lattice vectors                 reciprocal lattice vectors
     5.581683625  0.000000000  0.000000000     0.179157413  0.000000000  0.000000000
     0.000000000  3.946846342  0.000000000     0.000000000  0.253366844  0.000000000
     0.000000000  0.000000000 21.767946344     0.000000000  0.000000000  0.045939106

  length of vectors
     5.581683625  3.946846342 21.767946344     0.179157413  0.253366844  0.045939106


 FORCES acting on ions
    electron-ion (+dipol)            ewald-force                    non-local-force                 convergence-correction
 -----------------------------------------------------------------------------------------------
   0.198E-12 0.136E-12 0.113E+04   -.187E-13 -.276E-14 -.114E+04   0.000E+00 0.000E+00 0.551E+01   -.923E-13 0.103E-13 -.464E-02
   -.390E+02 0.130E-12 0.828E+03   0.302E+02 -.470E-14 -.818E+03   0.882E+01 0.000E+00 -.103E+02   0.695E-02 -.141E-13 -.135E-01
   0.390E+02 0.763E-12 0.828E+03   -.302E+02 -.706E-14 -.818E+03   -.882E+01 0.000E+00 -.103E+02   -.695E-02 -.235E-13 -.135E-01
   0.493E-14 -.137E-12 0.470E+03   -.309E-13 -.548E-14 -.469E+03   0.000E+00 0.000E+00 -.104E+01   -.409E-13 0.157E-13 -.107E-01
   -.231E+02 0.205E-12 0.153E+03   0.142E+02 0.101E-13 -.143E+03   0.899E+01 0.000E+00 -.106E+02   -.139E-03 -.259E-13 -.109E-01
   0.231E+02 0.360E-13 0.153E+03   -.142E+02 0.904E-14 -.143E+03   -.899E+01 0.000E+00 -.106E+02   0.139E-03 -.170E-13 -.109E-01
   0.234E-12 -.432E-13 -.199E+03   0.858E-14 0.159E-14 0.200E+03   0.000E+00 0.000E+00 -.738E+00   0.223E-14 0.346E-14 -.104E-01
   -.355E+02 0.720E-13 -.515E+03   0.269E+02 -.127E-14 0.525E+03   0.857E+01 0.173E-17 -.105E+02   0.160E-03 -.208E-13 -.103E-01
   0.355E+02 0.641E-12 -.515E+03   -.269E+02 -.169E-14 0.525E+03   -.857E+01 -.173E-17 -.105E+02   -.160E-03 0.168E-13 -.103E-01
   0.414E-13 -.389E-12 -.833E+03   -.308E-13 0.107E-14 0.834E+03   0.000E+00 0.000E+00 -.837E+00   0.662E-13 -.759E-14 -.706E-02
   -.939E+01 0.346E-12 -.112E+04   0.445E+00 0.758E-14 0.113E+04   0.892E+01 0.000E+00 -.135E+02   -.397E-03 -.132E-13 0.260E-02
   0.939E+01 0.209E-12 -.112E+04   -.445E+00 0.635E-14 0.113E+04   -.892E+01 0.000E+00 -.135E+02   0.397E-03 0.324E-13 0.260E-02
   0.392E-14 0.595E-13 0.178E+04   0.101E-13 0.599E-14 -.177E+04   0.000E+00 0.000E+00 -.719E+01   0.386E-13 0.145E-13 -.133E-01
   0.897E-13 -.740E-14 0.719E+03   0.296E-15 -.118E-13 -.713E+03   0.000E+00 0.000E+00 -.689E+01   0.289E-14 0.312E-13 -.191E-01
   0.199E-12 -.627E-13 -.395E+03   -.294E-13 0.652E-14 0.402E+03   0.000E+00 0.000E+00 -.669E+01   0.657E-13 0.326E-13 -.168E-01
   0.100E-12 -.437E-13 -.160E+04   -.455E-13 -.183E-13 0.160E+04   0.000E+00 0.000E+00 -.209E+01   0.296E-13 0.272E-13 -.205E-02
   -.562E-14 -.297E-13 0.748E+03   0.275E-13 0.396E-14 -.746E+03   0.000E+00 0.000E+00 -.214E+01   -.197E-13 -.313E-14 -.532E-02
   -.202E-14 -.270E-14 0.302E+03   -.365E-13 -.106E-14 -.301E+03   0.000E+00 0.000E+00 -.136E+01   -.729E-14 -.104E-13 -.731E-02
   0.558E-12 0.450E-14 -.150E+03   -.157E-13 -.461E-14 0.151E+03   0.000E+00 0.000E+00 -.137E+01   -.232E-13 -.102E-13 -.699E-02
   0.529E-13 -.738E-13 -.561E+03   -.141E-12 -.359E-14 0.562E+03   0.000E+00 0.000E+00 -.130E+01   0.104E-13 -.396E-14 -.484E-02
 -----------------------------------------------------------------------------------------------
   0.966E-10 0.181E-11 0.116E+03   -.227E-13 -.102E-13 -.114E-12   0.000E+00 0.000E+00 -.116E+03   -.378E-13 0.342E-13 -.173E+00
 
 
 POSITION                                       TOTAL-FORCE (eV/Angst)
 -----------------------------------------------------------------------------------
      2.79084      0.00000      5.09254        -0.000000     -0.000000     -0.018944
      1.35012      1.97342      6.69654         0.026853      0.000000     -0.093238
      4.23156      1.97342      6.69654        -0.026853     -0.000000     -0.093238
      0.00000      0.00000      8.33555        -0.000000     -0.000000     -0.076156
      4.16948      1.97342      9.85905         0.029499     -0.000000     -0.033744
      1.41221      1.97342      9.85905        -0.029499      0.000000     -0.033744
      2.79084      0.00000     11.44509        -0.000000     -0.000000     -0.028187
      1.37071      1.97342     12.98452         0.028681      0.000000     -0.005933
      4.21097      1.97342     12.98452        -0.028681     -0.000000     -0.005933
      0.00000      0.00000     14.57196        -0.000000     -0.000000     -0.002560
      4.17270      1.97342     16.08959        -0.032915     -0.000000      0.051435
      1.40899      1.97342     16.08959         0.032915     -0.000000      0.051435
      0.00000      0.00000      5.98150        -0.000000     -0.000000     -0.012322
      2.79084      0.00000      9.08733        -0.000000     -0.000000      0.036327
      0.00000      0.00000     12.19271        -0.000000     -0.000000      0.083177
      2.79084      0.00000     15.62897        -0.000000     -0.000000      0.022822
      2.79084      1.97342      5.63002        -0.000000     -0.000000      0.052516
      0.00000      1.97342      8.76916        -0.000000     -0.000000      0.044889
      2.79084      1.97342     11.90542        -0.000000     -0.000000      0.074093
      0.00000      1.97342     14.98898        -0.000000     -0.000000     -0.012696
 -----------------------------------------------------------------------------------
    total drift:                                0.000000      0.000000      0.033634


--------------------------------------------------------------------------------------------------------



  FREE ENERGIE OF THE ION-ELECTRON SYSTEM (eV)
  ---------------------------------------------------
  free  energy   TOTEN  =      -153.98777810 eV

  energy  without entropy=     -153.95418878  energy(sigma->0) =     -153.97098344
 


--------------------------------------------------------------------------------------------------------


    POTLOK:  cpu time    0.0260: real time    0.0263


--------------------------------------------------------------------------------------------------------


     LOOP+:  cpu time   59.6439: real time   60.0652
    4ORBIT:  cpu time    0.0000: real time    0.0000
 


 total charge     
 
# of ion       s       p       d       tot
------------------------------------------
    1        1.561   3.385   0.000   4.945
    2        1.577   3.435   0.000   5.012
    3        1.577   3.435   0.000   5.012
    4        1.562   3.462   0.000   5.024
    5        1.577   3.435   0.000   5.012
    6        1.577   3.435   0.000   5.012
    7        1.562   3.460   0.000   5.022
    8        1.578   3.434   0.000   5.011
    9        1.578   3.434   0.000   5.011
   10        1.564   3.450   0.000   5.014
   11        1.582   3.410   0.000   4.992
   12        1.582   3.410   0.000   4.992
   13        2.011   5.793   0.269   8.073
   14        2.008   5.791   0.255   8.053
   15        2.007   5.791   0.249   8.046
   16        1.999   5.795   0.211   8.005
   17        0.558   0.860   2.856   4.274
   18        0.572   0.938   2.865   4.375
   19        0.568   0.934   2.855   4.357
   20        0.572   0.944   2.837   4.353
--------------------------------------------------
tot         29.171  68.029  12.398 109.598
 

 total amount of memory used by VASP MPI-rank0    49788. kBytes
=======================================================================

   base      :      30000. kBytes
   nonlr-proj:       2211. kBytes
   fftplans  :       2256. kBytes
   grid      :       3892. kBytes
   one-center:         77. kBytes
   wavefun   :      11352. kBytes
 
  
  
 General timing and accounting informations for this job:
 ========================================================
  
                  Total CPU time used (sec):       62.634
                            User time (sec):       62.080
                          System time (sec):        0.555
                         Elapsed time (sec):       63.492
  
                   Maximum memory used (kb):       66488.
                   Average memory used (kb):           0.
  
                          Minor page faults:        22181
                          Major page faults:           73
                 Voluntary context switches:         4353
