unknown system                          
           1
     5.581684    0.000000    0.000000
     0.000000    3.946846    0.000000
     0.000000    0.000000   21.767946
   O    Sr   Ti
  12   4   4
Direct configuration=     1
   0.50000000  0.00000000  0.23394657
   0.24188443  0.50000000  0.30763320
   0.75811557  0.50000000  0.30763320
   0.00000000  0.00000000  0.38292780
   0.74699241  0.50000000  0.45291573
   0.25300759  0.50000000  0.45291573
   0.50000000  0.00000000  0.52577737
   0.24557363  0.50000000  0.59649731
   0.75442637  0.50000000  0.59649731
   0.00000000  0.00000000  0.66942300
   0.74756969  0.50000000  0.73914121
   0.25243031  0.50000000  0.73914121
   0.00000000  0.00000000  0.27478477
   0.50000000  0.00000000  0.41746383
   0.00000000  0.00000000  0.56012210
   0.50000000  0.00000000  0.71798099
   0.50000000  0.50000000  0.25863797
   0.00000000  0.50000000  0.40284732
   0.50000000  0.50000000  0.54692444
   0.00000000  0.50000000  0.68858017
