unknown system                          
   1.00000000000000     
     5.431010    0.000000    0.000000
     0.000000    5.431010    0.000000
     0.000000    0.000000   14.791010
   Si
    10
Direct
  0.000000  0.000000  0.000000
  0.499999  0.499999  0.000000
  0.250000  0.250000  0.091796
  0.750000  0.750000  0.091796
  0.000000  0.499999  0.183591
  0.499999  0.000000  0.183591
  0.250000  0.750000  0.275388
  0.750000  0.250000  0.275388
  0.000000  0.000000  0.367183
  0.499999  0.499999  0.367183
 
   48   48  120
 -77.668     -61.029     -16.291      43.128      100.81      143.13      163.20      161.69      145.01      121.99    
  99.159      78.637      61.322      47.400      36.595      28.406      22.281      17.723      14.339      11.837    
  10.012      8.7198      7.8633      7.3763      7.2186      7.3763      7.8633      8.7198      10.012      11.837    
  14.339      17.723      22.281      28.406      36.595      47.400      61.322      78.637      99.159      121.99    
  145.01      161.69      163.20      143.13      100.81      43.128     -16.291     -61.029     -61.029     -44.869    
 -1.5230      56.332      112.64      153.75      172.59      169.76      151.83      127.83      104.17      82.908    
  64.924      50.405      39.077      30.440      23.937      19.067      15.426      12.711      10.708      9.2622    
  8.2692      7.6558      7.3763      7.4120      7.7718      8.4896      9.6239      11.263      13.537      16.637    
  20.836      26.506      34.122      44.216      57.278      73.589      92.991      114.65      136.65      153.20    
  156.17      139.52      102.24      50.237     -4.1771     -45.617     -16.291     -1.5230      36.667      87.204    
  135.68      169.71      182.96      176.34      156.37      131.70      107.72      86.197      67.953      53.153    
  41.529      32.595      25.812      20.688      16.822      13.913      11.739      10.143      9.0123      8.2692    
  7.8633      7.7718      7.9985      8.5712      9.5403      10.983      13.016      15.811      19.614      24.768    
  31.713      40.947      52.940      67.982      85.972      106.20      127.14      144.34      150.83      141.12    
  113.78      73.216      29.518     -4.1771      43.128      56.332      87.204      126.75      163.12      186.22    
  191.22      179.65      157.81      133.19      109.55      88.342      70.312      55.592      43.930      34.877    
  27.930      22.624      18.577      15.495      13.161      11.415      10.143      9.2622      8.7198      8.4896    
  8.5712      8.9867      9.7783      11.012      12.789      15.259      18.639      23.234      29.437      37.702    
  48.470      62.039      78.386      96.974      116.64      134.54      145.20      143.88      128.82      102.79    
  73.216      50.237      100.81      112.64      135.68      163.12      186.09      197.32      193.92      178.11    
  155.69      132.08      109.51      89.259      71.948      57.695      46.281      37.310      30.334      24.935    
  20.761      17.537      15.056      13.161      11.739      10.708      10.012      9.6239      9.5403      9.7783    
  10.373      11.379      12.882      15.008      17.945      21.952      27.369      34.597      44.035      55.986    
  70.505      87.240      105.33      123.22      137.29      143.63      140.36      128.82      113.78      102.24    
  143.13      153.75      169.71      186.22      197.32      198.57      188.98      171.27      150.12      128.38    
  107.64      88.961      72.865      59.468      48.598      39.931      33.086      27.704      23.473      20.148    
  17.537      15.495      13.913      12.711      11.837      11.263      10.983      11.012      11.379      12.129    
  13.333      15.096      17.570      20.972      25.584      31.744      39.804      50.055      62.615      77.305    
  93.550      110.39      126.09      137.78      143.63      143.88      141.12      139.52      163.20      172.59    
  182.96      191.22      193.92      188.98      176.84      160.20      141.53      122.43      104.15      87.568    
  73.130      60.954      50.927      42.800      36.270      31.038      26.843      23.473      20.761      18.577    
  16.822      15.426      14.339      13.537      13.016      12.789      12.882      13.333      14.201      15.569    
  17.561      20.346      24.150      29.247      35.931      44.466      55.012      67.521      81.658      96.787    
  112.06      126.09      137.29      145.20      150.83      156.17      161.69      169.76      176.34      179.65    
  178.11      171.27      160.20      146.26      130.71      114.75      99.381      85.289      72.863      62.232    
  53.337      46.001      39.993      35.076      31.038      27.704      24.935      22.624      20.688      19.067    
  17.723      16.637      15.811      15.259      15.008      15.096      15.569      16.497      17.972      20.125    
  23.128      27.190      32.543      39.416      47.975      58.261      70.115      83.148      96.787      110.39    
  123.22      134.54      144.34      153.20      145.01      151.83      156.37      157.81      155.69      150.12    
  141.53      130.71      118.56      105.99      93.756      82.392      72.234      63.419      55.930      49.647    
  44.396      39.993      36.270      33.086      30.334      27.930      25.812      23.937      22.281      20.836    
  19.614      18.639      17.945      17.570      17.561      17.972      18.876      20.368      22.570      25.633    
  29.730      35.042      41.723      49.854      59.389      70.115      81.658      93.550      105.33      116.64    
  127.14      136.65      121.99      127.83      131.70      133.19      132.08      128.38      122.43      114.75    
  105.99      96.797      87.714      79.170      71.441      64.660      58.832      53.873      49.647      46.001    
  42.800      39.931      37.310      34.877      32.595      30.440      28.406      26.506      24.768      23.234    
  21.952      20.972      20.346      20.125      20.368      21.139      22.522      24.616      27.540      31.423    
  36.390      42.530      49.854      58.261      67.521      77.305      87.240      96.974      106.20      114.65    
  99.159      104.17      107.72      109.55      109.51      107.64      104.15      99.381      93.756      87.714    
  81.656      75.905      70.686      66.110      62.184      58.832      55.930      53.337      50.927      48.598    
  46.281      43.930      41.529      39.077      36.595      34.122      31.713      29.437      27.369      25.584    
  24.150      23.128      22.570      22.522      23.036      24.167      25.985      28.573      32.017      36.390    
  41.723      47.975      55.012      62.615      70.505      78.386      85.972      92.991      78.637      82.908    
  86.197      88.342      89.259      88.961      87.568      85.289      82.392      79.170      75.905      72.841    
  70.149      67.910      66.110      64.660      63.419      62.232      60.954      59.468      57.695      55.592    
  53.153      50.405      47.400      44.216      40.947      37.702      34.597      31.744      29.247      27.190    
  25.633      24.616      24.167      24.306      25.061      26.467      28.573      31.423      35.042      39.416    
  44.466      50.055      55.986      62.039      67.982      73.589      61.322      64.924      67.953      70.312    
  71.948      72.865      73.130      72.863      72.234      71.441      70.686      70.149      69.956      70.149    
  70.686      71.441      72.234      72.863      73.130      72.865      71.948      70.312      67.953      64.924    
  61.322      57.278      52.940      48.470      44.035      39.804      35.931      32.543      29.730      27.540    
  25.985      25.061      24.754      25.061      25.985      27.540      29.730      32.543      35.931      39.804    
  44.035      48.470      52.940      57.278      47.400      50.405      53.153      55.592      57.695      59.468    
  60.954      62.232      63.419      64.660      66.110      67.910      70.149      72.841      75.905      79.170    
  82.392      85.289      87.568      88.961      89.259      88.342      86.197      82.908      78.637      73.589    
  67.982      62.039      55.986      50.055      44.466      39.416      35.042      31.423      28.573      26.467    
  25.061      24.306      24.167      24.616      25.633      27.190      29.247      31.744      34.597      37.702    
  40.947      44.216      36.595      39.077      41.529      43.930      46.281      48.598      50.927      53.337    
  55.930      58.832      62.184      66.110      70.686      75.905      81.656      87.714      93.756      99.381    
  104.15      107.64      109.51      109.55      107.72      104.17      99.159      92.991      85.972      78.386    
  70.505      62.615      55.012      47.975      41.723      36.390      32.017      28.573      25.985      24.167    
  23.036      22.522      22.570      23.128      24.150      25.584      27.369      29.437      31.713      34.122    
  28.406      30.440      32.595      34.877      37.310      39.931      42.800      46.001      49.647      53.873    
  58.832      64.660      71.441      79.170      87.714      96.797      105.99      114.75      122.43      128.38    
  132.08      133.19      131.70      127.83      121.99      114.65      106.20      96.974      87.240      77.305    
  67.521      58.261      49.854      42.530      36.390      31.423      27.540      24.616      22.522      21.139    
  20.368      20.125      20.346      20.972      21.952      23.234      24.768      26.506      22.281      23.937    
  25.812      27.930      30.334      33.086      36.270      39.993      44.396      49.647      55.930      63.419    
  72.234      82.392      93.756      105.99      118.56      130.71      141.53      150.12      155.69      157.81    
  156.37      151.83      145.01      136.65      127.14      116.64      105.33      93.550      81.658      70.115    
  59.389      49.854      41.723      35.042      29.730      25.633      22.570      20.368      18.876      17.972    
  17.561      17.570      17.945      18.639      19.614      20.836      17.723      19.067      20.688      22.624    
  24.935      27.704      31.038      35.076      39.993      46.001      53.337      62.232      72.863      85.289    
  99.381      114.75      130.71      146.26      160.20      171.27      178.11      179.65      176.34      169.76    
  161.69      153.20      144.34      134.54      123.22      110.39      96.787      83.148      70.115      58.261    
  47.975      39.416      32.543      27.190      23.128      20.125      17.972      16.497      15.569      15.096    
  15.008      15.259      15.811      16.637      14.339      15.426      16.822      18.577      20.761      23.473    
  26.843      31.038      36.270      42.800      50.927      60.954      73.130      87.568      104.15      122.43    
  141.53      160.20      176.84      188.98      193.92      191.22      182.96      172.59      163.20      156.17    
  150.83      145.20      137.29      126.09      112.06      96.787      81.658      67.521      55.012      44.466    
  35.931      29.247      24.150      20.346      17.561      15.569      14.201      13.333      12.882      12.789    
  13.016      13.537      11.837      12.711      13.913      15.495      17.537      20.148      23.473      27.704    
  33.086      39.931      48.598      59.468      72.865      88.961      107.64      128.38      150.12      171.27    
  188.98      198.57      197.32      186.21      169.71      153.75      143.13      139.52      141.11      143.88    
  143.63      137.78      126.09      110.39      93.550      77.305      62.615      50.055      39.804      31.744    
  25.584      20.972      17.570      15.096      13.333      12.129      11.379      11.012      10.983      11.263    
  10.012      10.708      11.739      13.161      15.056      17.537      20.761      24.935      30.334      37.310    
  46.281      57.695      71.948      89.259      109.51      132.08      155.69      178.11      193.92      197.32    
  186.09      163.12      135.68      112.64      100.80      102.24      113.78      128.82      140.36      143.63    
  137.29      123.22      105.33      87.240      70.505      55.986      44.035      34.597      27.369      21.952    
  17.945      15.008      12.882      11.379      10.373      9.7783      9.5403      9.6239      8.7198      9.2622    
  10.143      11.415      13.161      15.495      18.577      22.624      27.930      34.877      43.930      55.592    
  70.312      88.342      109.55      133.19      157.81      179.65      191.22      186.21      163.12      126.74    
  87.201      56.329      43.126      50.236      73.216      102.79      128.82      143.88      145.20      134.54    
  116.64      96.974      78.386      62.039      48.470      37.702      29.437      23.234      18.639      15.259    
  12.789      11.012      9.7783      8.9867      8.5712      8.4896      7.8633      8.2692      9.0123      10.143    
  11.739      13.913      16.822      20.688      25.812      32.595      41.529      53.153      67.953      86.197    
  107.72      131.70      156.37      176.34      182.96      169.71      135.68      87.201      36.664     -1.5256    
 -16.293     -4.1779      29.518      73.217      113.78      141.12      150.83      144.34      127.14      106.20    
  85.972      67.982      52.940      40.947      31.713      24.768      19.614      15.811      13.016      10.983    
  9.5403      8.5712      7.9985      7.7718      7.3763      7.6558      8.2692      9.2622      10.708      12.711    
  15.426      19.067      23.937      30.440      39.077      50.405      64.924      82.908      104.17      127.83    
  151.83      169.76      172.59      153.75      112.64      56.329     -1.5256     -44.871     -61.030     -45.617    
 -4.1763      50.238      102.25      139.53      156.17      153.20      136.65      114.65      92.991      73.589    
  57.278      44.216      34.122      26.506      20.836      16.637      13.537      11.263      9.6239      8.4896    
  7.7718      7.4120      7.2186      7.3763      7.8633      8.7198      10.012      11.837      14.339      17.723    
  22.281      28.406      36.595      47.400      61.322      78.637      99.159      121.99      145.01      161.69    
  163.20      143.13      100.80      43.126     -16.293     -61.030     -77.668     -61.028     -16.289      43.130    
  100.81      143.13      163.20      161.69      145.01      121.99      99.159      78.637      61.322      47.400    
  36.595      28.406      22.281      17.723      14.339      11.837      10.012      8.7198      7.8633      7.3763    
  7.3763      7.4120      7.7718      8.4896      9.6239      11.263      13.537      16.637      20.836      26.506    
  34.122      44.216      57.278      73.589      92.991      114.65      136.65      153.20      156.17      139.52    
  102.24      50.236     -4.1779     -45.617     -61.028     -44.867     -1.5205      56.335      112.64      153.75    
  172.59      169.76      151.83      127.83      104.17      82.908      64.924      50.405      39.077      30.440    
  23.937      19.067      15.426      12.711      10.708      9.2622      8.2692      7.6558      7.8633      7.7718    
  7.9985      8.5712      9.5403      10.983      13.016      15.811      19.614      24.768      31.713      40.947    
  52.940      67.982      85.972      106.20      127.14      144.34      150.83      141.11      113.78      73.216    
  29.518     -4.1763     -16.289     -1.5205      36.670      87.207      135.68      169.72      182.96      176.34    
  156.37      131.70      107.72      86.197      67.953      53.153      41.529      32.595      25.812      20.688    
  16.822      13.913      11.739      10.143      9.0123      8.2692      8.7198      8.4896      8.5712      8.9867    
  9.7783      11.012      12.789      15.259      18.639      23.234      29.437      37.702      48.470      62.039    
  78.386      96.974      116.64      134.54      145.20      143.88      128.82      102.79      73.217      50.238    
  43.130      56.335      87.207      126.75      163.12      186.22      191.22      179.65      157.81      133.19    
  109.55      88.342      70.312      55.592      43.930      34.877      27.930      22.624      18.577      15.495    
  13.161      11.415      10.143      9.2622      10.012      9.6239      9.5403      9.7783      10.373      11.379    
  12.882      15.008      17.945      21.952      27.369      34.597      44.035      55.986      70.505      87.240    
  105.33      123.22      137.29      143.63      140.36      128.82      113.78      102.25      100.81      112.64    
  135.68      163.12      186.09      197.32      193.92      178.11      155.69      132.08      109.51      89.259    
  71.948      57.695      46.281      37.310      30.334      24.935      20.761      17.537      15.056      13.161    
  11.739      10.708      11.837      11.263      10.983      11.012      11.379      12.129      13.333      15.096    
  17.570      20.972      25.584      31.744      39.804      50.055      62.615      77.305      93.550      110.39    
  126.09      137.78      143.63      143.88      141.12      139.53      143.13      153.75      169.72      186.22    
  197.32      198.57      188.98      171.27      150.12      128.38      107.64      88.961      72.865      59.468    
  48.598      39.931      33.086      27.704      23.473      20.148      17.537      15.495      13.913      12.711    
  14.339      13.537      13.016      12.789      12.882      13.333      14.201      15.569      17.561      20.346    
  24.150      29.247      35.931      44.466      55.012      67.521      81.658      96.787      112.06      126.09    
  137.29      145.20      150.83      156.17      163.20      172.59      182.96      191.22      193.92      188.98    
  176.84      160.20      141.53      122.43      104.15      87.568      73.130      60.954      50.927      42.800    
  36.270      31.038      26.843      23.473      20.761      18.577      16.822      15.426      17.723      16.637    
  15.811      15.259      15.008      15.096      15.569      16.497      17.972      20.125      23.128      27.190    
  32.543      39.416      47.975      58.261      70.115      83.148      96.787      110.39      123.22      134.54    
  144.34      153.20      161.69      169.76      176.34      179.65      178.11      171.27      160.20      146.26    
  130.71      114.75      99.381      85.289      72.863      62.232      53.337      46.001      39.993      35.076    
  31.038      27.704      24.935      22.624      20.688      19.067      22.281      20.836      19.614      18.639    
  17.945      17.570      17.561      17.972      18.876      20.368      22.570      25.633      29.730      35.042    
  41.723      49.854      59.389      70.115      81.658      93.550      105.33      116.64      127.14      136.65    
  145.01      151.83      156.37      157.81      155.69      150.12      141.53      130.71      118.56      105.99    
  93.756      82.392      72.234      63.419      55.930      49.647      44.396      39.993      36.270      33.086    
  30.334      27.930      25.812      23.937      28.406      26.506      24.768      23.234      21.952      20.972    
  20.346      20.125      20.368      21.139      22.522      24.616      27.540      31.423      36.390      42.530    
  49.854      58.261      67.521      77.305      87.240      96.974      106.20      114.65      121.99      127.83    
  131.70      133.19      132.08      128.38      122.43      114.75      105.99      96.797      87.714      79.170    
  71.441      64.660      58.832      53.873      49.647      46.001      42.800      39.931      37.310      34.877    
  32.595      30.440      36.595      34.122      31.713      29.437      27.369      25.584      24.150      23.128    
  22.570      22.522      23.036      24.167      25.985      28.573      32.017      36.390      41.723      47.975    
  55.012      62.615      70.505      78.386      85.972      92.991      99.159      104.17      107.72      109.55    
  109.51      107.64      104.15      99.381      93.756      87.714      81.656      75.905      70.686      66.110    
  62.184      58.832      55.930      53.337      50.927      48.598      46.281      43.930      41.529      39.077    
  47.400      44.216      40.947      37.702      34.597      31.744      29.247      27.190      25.633      24.616    
  24.167      24.306      25.061      26.467      28.573      31.423      35.042      39.416      44.466      50.055    
  55.986      62.039      67.982      73.589      78.637      82.908      86.197      88.342      89.259      88.961    
  87.568      85.289      82.392      79.170      75.905      72.841      70.149      67.910      66.110      64.660    
  63.419      62.232      60.954      59.468      57.695      55.592      53.153      50.405      61.322      57.278    
  52.940      48.470      44.035      39.804      35.931      32.543      29.730      27.540      25.985      25.061    
  24.754      25.061      25.985      27.540      29.730      32.543      35.931      39.804      44.035      48.470    
  52.940      57.278      61.322      64.924      67.953      70.312      71.948      72.865      73.130      72.863    
  72.234      71.441      70.686      70.149      69.956      70.149      70.686      71.441      72.234      72.863    
  73.130      72.865      71.948      70.312      67.953      64.924      78.637      73.589      67.982      62.039    
  55.986      50.055      44.466      39.416      35.042      31.423      28.573      26.467      25.061      24.306    
  24.167      24.616      25.633      27.190      29.247      31.744      34.597      37.702      40.947      44.216    
  47.400      50.405      53.153      55.592      57.695      59.468      60.954      62.232      63.419      64.660    
  66.110      67.910      70.149      72.841      75.905      79.170      82.392      85.289      87.568      88.961    
  89.259      88.342      86.197      82.908      99.159      92.991      85.972      78.386      70.505      62.615    
  55.012      47.975      41.723      36.390      32.017      28.573      25.985      24.167      23.036      22.522    
  22.570      23.128      24.150      25.584      27.369      29.437      31.713      34.122      36.595      39.077    
  41.529      43.930      46.281      48.598      50.927      53.337      55.930      58.832      62.184      66.110    
  70.686      75.905      81.656      87.714      93.756      99.381      104.15      107.64      109.51      109.55    
  107.72      104.17      121.99      114.65      106.20      96.974      87.240      77.305      67.521      58.261    
  49.854      42.530      36.390      31.423      27.540      24.616      22.522      21.139      20.368      20.125    
  20.346      20.972      21.952      23.234      24.768      26.506      28.406      30.440      32.595      34.877    
  37.310      39.931      42.800      46.001      49.647      53.873      58.832      64.660      71.441      79.170    
  87.714      96.797      105.99      114.75      122.43      128.38      132.08      133.19      131.70      127.83    
  145.01      136.65      127.14      116.64      105.33      93.550      81.658      70.115      59.389      49.854    
  41.723      35.042      29.730      25.633      22.570      20.368      18.876      17.972      17.561      17.570    
  17.945      18.639      19.614      20.836      22.281      23.937      25.812      27.930      30.334      33.086    
  36.270      39.993      44.396      49.647      55.930      63.419      72.234      82.392      93.756      105.99    
  118.56      130.71      141.53      150.12      155.69      157.81      156.37      151.83      161.69      153.20    
  144.34      134.54      123.22      110.39      96.787      83.148      70.115      58.261      47.975      39.416    
  32.543      27.190      23.128      20.125      17.972      16.497      15.569      15.096      15.008      15.259    
  15.811      16.637      17.723      19.067      20.688      22.624      24.935      27.704      31.038      35.076    
  39.993      46.001      53.337      62.232      72.863      85.289      99.381      114.75      130.71      146.26    
  160.20      171.27      178.11      179.65      176.34      169.76      163.20      156.17      150.83      145.20    
  137.29      126.09      112.06      96.787      81.658      67.521      55.012      44.466      35.931      29.247    
  24.150      20.346      17.561      15.569      14.201      13.333      12.882      12.789      13.016      13.537    
  14.339      15.426      16.822      18.577      20.761      23.473      26.843      31.038      36.270      42.800    
  50.927      60.954      73.130      87.568      104.15      122.43      141.53      160.20      176.84      188.98    
  193.92      191.22      182.96      172.59      143.13      139.52      141.12      143.88      143.63      137.78    
  126.09      110.39      93.550      77.305      62.615      50.055      39.804      31.744      25.584      20.972    
  17.570      15.096      13.333      12.129      11.379      11.012      10.983      11.263      11.837      12.711    
  13.913      15.495      17.537      20.148      23.473      27.704      33.086      39.931      48.598      59.468    
  72.865      88.961      107.64      128.38      150.12      171.27      188.98      198.57      197.32      186.22    
  169.71      153.75      100.81      102.24      113.78      128.82      140.36      143.63      137.29      123.22    
  105.33      87.240      70.505      55.986      44.035      34.597      27.369      21.952      17.945      15.008    
  12.882      11.379      10.373      9.7783      9.5403      9.6239      10.012      10.708      11.739      13.161    
  15.056      17.537      20.761      24.935      30.334      37.310      46.281      57.695      71.948      89.259    
  109.51      132.08      155.69      178.11      193.92      197.32      186.09      163.12      135.68      112.64    
  43.128      50.237      73.216      102.79      128.82      143.88      145.20      134.54      116.64      96.974    
  78.386      62.039      48.470      37.702      29.437      23.234      18.639      15.259      12.789      11.012    
  9.7783      8.9867      8.5712      8.4896      8.7198      9.2622      10.143      11.415      13.161      15.495    
  18.577      22.624      27.930      34.877      43.930      55.592      70.312      88.342      109.55      133.19    
  157.81      179.65      191.22      186.22      163.12      126.75      87.204      56.332     -16.291     -4.1771    
  29.518      73.216      113.78      141.12      150.83      144.34      127.14      106.20      85.972      67.982    
  52.940      40.947      31.713      24.768      19.614      15.811      13.016      10.983      9.5403      8.5712    
  7.9985      7.7718      7.8633      8.2692      9.0123      10.143      11.739      13.913      16.822      20.688    
  25.812      32.595      41.529      53.153      67.953      86.197      107.72      131.70      156.37      176.34    
  182.96      169.71      135.68      87.204      36.667     -1.5230     -61.029     -45.617     -4.1771      50.237    
  102.24      139.52      156.17      153.20      136.65      114.65      92.991      73.589      57.278      44.216    
  34.122      26.506      20.836      16.637      13.537      11.263      9.6239      8.4896      7.7718      7.4120    
  7.3763      7.6558      8.2692      9.2622      10.708      12.711      15.426      19.067      23.937      30.440    
  39.077      50.405      64.924      82.908      104.17      127.83      151.83      169.76      172.59      153.75    
  112.64      56.332     -1.5230     -44.869     -58.030     -42.159     0.42487      56.726      110.96      150.18    
  168.03      165.36      148.41      125.63      102.99      82.501      65.057      50.872      39.725      31.167    
  24.689      19.821      16.176      13.460      11.465      10.042      9.0921      8.5492      8.3728      8.5492    
  9.0921      10.042      11.465      13.460      16.176      19.821      24.689      31.167      39.725      50.872    
  65.057      82.501      102.99      125.63      148.41      165.36      168.03      150.18      110.96      56.726    
 0.42487     -42.159     -42.159     -25.073      17.543      73.223      126.50      164.53      180.90      176.56    
  158.01      133.90      110.11      88.578      70.186      55.153      43.257      34.055      27.035      21.714    
  17.695      14.671      12.417      10.772      9.6251      8.9003      8.5492      8.5512      8.9138      9.6690    
  10.873      12.613      15.019      18.284      22.675      28.557      36.376      46.624      59.736      75.942    
  95.050      116.22      137.63      153.97      157.56      142.59      108.06      59.563      8.9132     -29.140    
 0.42487      17.543      56.358      105.82      152.03      183.40      194.36      186.21      165.47      140.42    
  116.00      93.895      74.950      59.363      46.925      37.212      29.725      23.992      19.616      16.285    
  13.767      11.892      10.540      9.6251      9.0921      8.9138      9.0909      9.6480      10.631      12.115    