   10   10    1    1
  0.4362737E+02  0.5431010E-09  0.5431010E-09  0.1479101E-08  0.5000000E-15
  1.000000000000000E-004
  CAR 
 unknown system                          
     40      6     26
 
  0.0000000E+00  0.0000000E+00  0.0000000E+00  0.4000000E-01
    1      -11.425087   1.000000
    2       -9.800484   1.000000
    3       -7.824486   1.000000
    4       -7.682022   1.000000
    5       -7.681869   1.000000
    6       -7.448910   1.000000
    7       -6.871168   1.000000
    8       -6.697837   1.000000
    9       -4.503027   1.000000
   10       -3.350285   1.000000
   11       -3.252482   1.000000
   12       -3.252409   1.000000
   13       -2.368222   1.000000
   14       -2.368206   1.000000
   15       -1.372793   1.000000
   16       -1.370958   1.000000
   17       -1.012055   1.000000
   18       -1.012030   1.000000
   19       -0.747285   1.000000
   20       -0.747162   1.000000
   21       -0.359372   0.957658
   22        0.198999   0.000000
   23        1.217579   0.000000
   24        1.321311   0.000000
   25        1.950529   0.000000
   26        2.036911   0.000000
 
  0.2000000E+00  0.0000000E+00  0.0000000E+00  0.1600000E+00
    1      -11.257969   1.000000
    2       -9.661014   1.000000
    3       -8.905054   1.000000
    4       -8.029048   1.000000
    5       -7.387017   1.000000
    6       -7.290108   1.000000
    7       -6.417633   1.000000
    8       -6.042412   1.000000
    9       -4.673305   1.000000
   10       -3.640651   1.000000
   11       -3.429725   1.000000
   12       -2.887181   1.000000
   13       -2.693624   1.000000
   14       -2.658650   1.000000
   15       -2.077853   1.000000
   16       -1.502411   1.000000
   17       -1.203085   1.000000
   18       -0.667514   1.000000
   19       -0.574938   0.999999
   20       -0.555062   0.999996
   21       -0.343209   0.932614
   22        0.066890   0.000008
   23        1.424833   0.000000
   24        1.789602   0.000000
   25        2.062584   0.000000
   26        2.176975   0.000000
 
  0.4000000E+00  0.0000000E+00  0.0000000E+00  0.1600000E+00
    1      -10.763091   1.000000
    2       -9.962212   1.000000
    3       -9.261126   1.000000
    4       -8.667367   1.000000
    5       -7.260780   1.000000
    6       -7.209590   1.000000
    7       -5.859102   1.000000
    8       -5.199938   1.000000
    9       -4.728020   1.000000
   10       -3.640516   1.000000
   11       -3.615657   1.000000
   12       -3.522845   1.000000
   13       -3.237472   1.000000
   14       -3.102145   1.000000
   15       -2.214947   1.000000
   16       -2.008643   1.000000
   17       -0.828159   1.000000
   18       -0.587917   1.000000
   19       -0.519462   0.999967
   20       -0.329128   0.902582
   21       -0.247280   0.555239
   22        0.429148   0.000000
   23        0.625318   0.000000
   24        1.554603   0.000000
   25        2.760186   0.000000
   26        3.244218   0.000000
 
  0.2000000E+00  0.2000000E+00  0.0000000E+00  0.1600000E+00
    1      -11.095076   1.000000
    2       -9.539984   1.000000
    3       -9.020707   1.000000
    4       -8.663011   1.000000
    5       -7.363455   1.000000
    6       -7.036054   1.000000
    7       -6.485617   1.000000
    8       -5.605809   1.000000
    9       -4.996205   1.000000
   10       -3.548767   1.000000
   11       -3.531692   1.000000
   12       -3.186302   1.000000
   13       -2.743191   1.000000
   14       -2.713987   1.000000
   15       -2.126668   1.000000
   16       -0.950540   1.000000
   17       -0.923933   1.000000
   18       -0.830273   1.000000
   19       -0.698155   1.000000
   20       -0.656281   1.000000
   21       -0.286570   0.756331
   22        0.254976   0.000000
   23        1.063927   0.000000
   24        1.796410   0.000000
   25        2.071861   0.000000
   26        2.541136   0.000000
 
  0.4000000E+00  0.2000000E+00  0.0000000E+00  0.3200000E+00
    1      -10.615506   1.000000
    2       -9.856297   1.000000
    3       -9.221890   1.000000
    4       -8.888869   1.000000
    5       -7.353521   1.000000
    6       -7.316771   1.000000
    7       -5.990234   1.000000
    8       -5.540490   1.000000
    9       -5.035815   1.000000
   10       -4.376406   1.000000
   11       -3.122649   1.000000
   12       -3.006405   1.000000
   13       -2.993293   1.000000
   14       -2.356529   1.000000
   15       -2.240174   1.000000
   16       -1.450640   1.000000
   17       -1.142498   1.000000
   18       -1.120837   1.000000
   19       -0.420306   0.995143
   20       -0.197828   0.287586
   21       -0.096619   0.023198
   22        0.478900   0.000000
   23        1.012171   0.000000
   24        1.804207   0.000000
   25        2.690510   0.000000
   26        2.916148   0.000000
 
  0.4000000E+00  0.4000000E+00  0.0000000E+00  0.1600000E+00
    1      -10.197243   1.000000
    2       -9.708794   1.000000
    3       -9.353416   1.000000
    4       -9.236124   1.000000
    5       -7.482440   1.000000
    6       -7.395334   1.000000
    7       -6.236560   1.000000
    8       -5.978826   1.000000
    9       -5.126659   1.000000
   10       -5.001532   1.000000
   11       -2.967543   1.000000
   12       -2.921809   1.000000
   13       -1.880459   1.000000
   14       -1.853590   1.000000
   15       -1.575570   1.000000
   16       -1.529999   1.000000
   17       -1.202006   1.000000
   18       -0.940510   1.000000
   19       -0.391286   0.985202
   20       -0.086204   0.016215
   21       -0.004495   0.000493
   22        0.028654   0.000084
   23        1.831453   0.000000
   24        2.309928   0.000000
   25        2.596983   0.000000
   26        3.122770   0.000000
