unknown system                          
   1.00000000000000     
     5.431010    0.000000    0.000000
     0.000000    5.431010    0.000000
     0.000000    0.000000   14.791010
   Si
    10
Direct
  0.000000  0.000000  0.000000
  0.499999  0.499999  0.000000
  0.250000  0.250000  0.091796
  0.750000  0.750000  0.091796
  0.000000  0.499999  0.183591
  0.499999  0.000000  0.183591
  0.250000  0.750000  0.275388
  0.750000  0.250000  0.275388
  0.000000  0.000000  0.367183
  0.499999  0.499999  0.367183
 
   24   24   60
 0.12393     0.21317     0.47766     0.69522     0.76541     0.72696     0.59202     0.39450     0.20707     0.89920E-01
 0.39162E-01 0.21380E-01 0.17185E-01 0.21390E-01 0.39147E-01 0.89982E-01 0.20698     0.39461     0.59196     0.72700    
 0.76540     0.69523     0.47766     0.21317     0.21317     0.36652     0.62455     0.77378     0.80751     0.75480    
 0.61546     0.41732     0.23020     0.11004     0.53131E-01 0.29722E-01 0.21390E-01 0.22026E-01 0.34579E-01 0.75084E-01
 0.17686     0.35524     0.55396     0.69494     0.73695     0.66861     0.47309     0.26040     0.47766     0.62455    
 0.77210     0.83736     0.83328     0.76040     0.61087     0.41383     0.24023     0.13326     0.79724E-01 0.53093E-01
 0.39147E-01 0.34579E-01 0.42006E-01 0.72397E-01 0.15289     0.30994     0.50663     0.66189     0.72763     0.70075    
 0.59207     0.47309     0.69522     0.77378     0.83736     0.85528     0.82273     0.72841     0.57075     0.39058    
 0.25145     0.17235     0.13331     0.11008     0.89982E-01 0.75084E-01 0.72397E-01 0.89926E-01 0.14508     0.26532    
 0.44364     0.61046     0.70803     0.73009     0.70074     0.66861     0.76541     0.80751     0.83328     0.82273    
 0.76475     0.65307     0.50534     0.37174     0.28835     0.25142     0.24019     0.23011     0.20698     0.17686    
 0.15289     0.14508     0.16574     0.23472     0.36495     0.52189     0.64446     0.70806     0.72764     0.73697    
 0.72696     0.75480     0.76040     0.72841     0.65307     0.54577     0.44349     0.38355     0.37176     0.39061    
 0.41388     0.41739     0.39461     0.35524     0.30994     0.26532     0.23472     0.23971     0.29675     0.40323    
 0.52184     0.61043     0.66184     0.69491     0.59202     0.61546     0.61087     0.57075     0.50534     0.44349    
 0.41814     0.44349     0.50533     0.57073     0.61084     0.61540     0.59196     0.55396     0.50663     0.44364    
 0.36495     0.29675     0.27070     0.29677     0.36497     0.44371     0.50669     0.55404     0.39450     0.41732    
 0.41383     0.39058     0.37174     0.38355     0.44349     0.54578     0.65307     0.72842     0.76042     0.75482    
 0.72700     0.69494     0.66189     0.61046     0.52189     0.40323     0.29677     0.23970     0.23469     0.26527    
 0.30985     0.35514     0.20707     0.23020     0.24023     0.25145     0.28835     0.37176     0.50533     0.65307    
 0.76474     0.82272     0.83328     0.80750     0.76540     0.73695     0.72763     0.70803     0.64446     0.52184    
 0.36497     0.23469     0.16576     0.14511     0.15294     0.17695     0.89920E-01 0.11004     0.13326     0.17235    
 0.25142     0.39061     0.57073     0.72842     0.82272     0.85529     0.83736     0.77379     0.69523     0.66861    
 0.70075     0.73009     0.70806     0.61043     0.44371     0.26527     0.14511     0.89902E-01 0.72375E-01 0.75048E-01
 0.39162E-01 0.53131E-01 0.79724E-01 0.13331     0.24019     0.41388     0.61084     0.76042     0.83328     0.83736    
 0.77210     0.62455     0.47766     0.47309     0.59207     0.70074     0.72764     0.66184     0.50669     0.30985    
 0.15294     0.72375E-01 0.42023E-01 0.34592E-01 0.21380E-01 0.29722E-01 0.53093E-01 0.11008     0.23011     0.41739    
 0.61540     0.75482     0.80750     0.77379     0.62455     0.36651     0.21317     0.26040     0.47309     0.66861    
 0.73697     0.69491     0.55404     0.35514     0.17695     0.75048E-01 0.34592E-01 0.22018E-01 0.17185E-01 0.21390E-01
 0.39147E-01 0.89982E-01 0.20698     0.39461     0.59196     0.72700     0.76540     0.69523     0.47766     0.21317    
 0.12393     0.21317     0.47766     0.69522     0.76541     0.72696     0.59202     0.39450     0.20707     0.89920E-01
 0.39162E-01 0.21380E-01 0.21390E-01 0.22026E-01 0.34579E-01 0.75084E-01 0.17686     0.35524     0.55396     0.69494    
 0.73695     0.66861     0.47309     0.26040     0.21317     0.36652     0.62455     0.77378     0.80751     0.75480    
 0.61546     0.41732     0.23020     0.11004     0.53131E-01 0.29722E-01 0.39147E-01 0.34579E-01 0.42006E-01 0.72397E-01
 0.15289     0.30994     0.50663     0.66189     0.72763     0.70075     0.59207     0.47309     0.47766     0.62455    
 0.77210     0.83736     0.83328     0.76040     0.61087     0.41383     0.24023     0.13326     0.79724E-01 0.53093E-01
 0.89982E-01 0.75084E-01 0.72397E-01 0.89926E-01 0.14508     0.26532     0.44364     0.61046     0.70803     0.73009    
 0.70074     0.66861     0.69522     0.77378     0.83736     0.85528     0.82273     0.72841     0.57075     0.39058    
 0.25145     0.17235     0.13331     0.11008     0.20698     0.17686     0.15289     0.14508     0.16574     0.23472    
 0.36495     0.52189     0.64446     0.70806     0.72764     0.73697     0.76541     0.80751     0.83328     0.82273    
 0.76475     0.65307     0.50534     0.37174     0.28835     0.25142     0.24019     0.23011     0.39461     0.35524    
 0.30994     0.26532     0.23472     0.23971     0.29675     0.40323     0.52184     0.61043     0.66184     0.69491    
 0.72696     0.75480     0.76040     0.72841     0.65307     0.54577     0.44349     0.38355     0.37176     0.39061    
 0.41388     0.41739     0.59196     0.55396     0.50663     0.44364     0.36495     0.29675     0.27070     0.29677    
 0.36497     0.44371     0.50669     0.55404     0.59202     0.61546     0.61087     0.57075     0.50534     0.44349    
 0.41814     0.44349     0.50533     0.57073     0.61084     0.61540     0.72700     0.69494     0.66189     0.61046    
 0.52189     0.40323     0.29677     0.23970     0.23469     0.26527     0.30985     0.35514     0.39450     0.41732    
 0.41383     0.39058     0.37174     0.38355     0.44349     0.54578     0.65307     0.72842     0.76042     0.75482    
 0.76540     0.73695     0.72763     0.70803     0.64446     0.52184     0.36497     0.23469     0.16576     0.14511    
 0.15294     0.17695     0.20707     0.23020     0.24023     0.25145     0.28835     0.37176     0.50533     0.65307    
 0.76474     0.82272     0.83328     0.80750     0.69523     0.66861     0.70075     0.73009     0.70806     0.61043    
 0.44371     0.26527     0.14511     0.89902E-01 0.72375E-01 0.75048E-01 0.89920E-01 0.11004     0.13326     0.17235    
 0.25142     0.39061     0.57073     0.72842     0.82272     0.85529     0.83736     0.77379     0.47766     0.47309    
 0.59207     0.70074     0.72764     0.66184     0.50669     0.30985     0.15294     0.72375E-01 0.42023E-01 0.34592E-01
 0.39162E-01 0.53131E-01 0.79724E-01 0.13331     0.24019     0.41388     0.61084     0.76042     0.83328     0.83736    
 0.77210     0.62455     0.21317     0.26040     0.47309     0.66861     0.73697     0.69491     0.55404     0.35514    
 0.17695     0.75048E-01 0.34592E-01 0.22018E-01 0.21380E-01 0.29722E-01 0.53093E-01 0.11008     0.23011     0.41739    
 0.61540     0.75482     0.80750     0.77379     0.62455     0.36651     0.12231     0.21807     0.49827     0.71106    
 0.77024     0.72471     0.59423     0.41104     0.23184     0.11162     0.53001E-01 0.29792E-01 0.23896E-01 0.29797E-01
 0.52998E-01 0.11165     0.23182     0.41108     0.59422     0.72472     0.77024     0.71106     0.49828     0.21807    
 0.21807     0.44628     0.71796     0.82994     0.84181     0.78443     0.65767     0.47569     0.28890     0.15537    
 0.81971E-01 0.45793E-01 0.29797E-01 0.27036E-01 0.38723E-01 0.78166E-01 0.17254     0.33292     0.51354     0.64878    
 0.68903     0.60561     0.39529     0.21439     0.49827     0.71796     0.85118     0.88964     0.87567     0.81298    
 0.69145     0.51446     0.33413     0.20476     0.12781     0.81947E-01 0.52998E-01 0.38723E-01 0.40360E-01 0.64199E-01
 0.13049     0.26124     0.43167     0.57490     0.63358     0.58728     0.46692     0.39529     0.71106     0.82994    
 0.88964     0.90002     0.87488     0.81043     0.69177     0.52754     0.37618     0.27197     0.20480     0.15537    
 0.11165     0.78166E-01 0.64199E-01 0.73405E-01 0.11532     0.20991     0.35537     0.50035     0.58990     0.60769    
 0.58727     0.60562     0.77024     0.84181     0.87567     0.87488     0.84419     0.77447     0.65636     0.52531    
 0.43214     0.37615     0.33413     0.28886     0.23182     0.17254     0.13049     0.11532     0.13010     0.18468    
 0.28734     0.41422     0.52155     0.58993     0.63358     0.68904     0.72471     0.78443     0.81298     0.81043    
 0.77447     0.69738     0.60057     0.53833     0.52533     0.52755     0.51449     0.47571     0.41108     0.33292    
 0.26124     0.20991     0.18468     0.19153     0.23746     0.31936     0.41416     0.50034     0.57487     0.64877    
 0.59423     0.65767     0.69145     0.69177     0.65636     0.60057     0.57193     0.60057     0.65635     0.69175    
 0.69144     0.65765     0.59422     0.51354     0.43167     0.35537     0.28734     0.23746     0.21909     0.23748    
 0.28736     0.35543     0.43170     0.51358     0.41104     0.47569     0.51446     0.52754     0.52531     0.53833    
 0.60057     0.69738     0.77448     0.81043     0.81299     0.78444     0.72472     0.64878     0.57490     0.50035    
 0.41422     0.31936     0.23748     0.19152     0.18466     0.20989     0.26119     0.33290     0.23184     0.28890    
 0.33413     0.37618     0.43214     0.52533     0.65635     0.77448     0.84418     0.87488     0.87567     0.84181    
 0.77024     0.68903     0.63358     0.58990     0.52155     0.41416     0.28736     0.18466     0.13011     0.11534    
 0.13051     0.17259     0.11162     0.15537     0.20476     0.27197     0.37615     0.52755     0.69175     0.81043    
 0.87488     0.90002     0.88964     0.82994     0.71106     0.60561     0.58728     0.60769     0.58993     0.50034    
 0.35543     0.20989     0.11534     0.73394E-01 0.64189E-01 0.78159E-01 0.53001E-01 0.81971E-01 0.12781     0.20480    
 0.33413     0.51449     0.69144     0.81299     0.87567     0.88964     0.85118     0.71796     0.49828     0.39529    
 0.46692     0.58727     0.63358     0.57487     0.43170     0.26119     0.13051     0.64189E-01 0.40365E-01 0.38729E-01
 0.29792E-01 0.45793E-01 0.81947E-01 0.15537     0.28886     0.47571     0.65765     0.78444     0.84181     0.82994    
 0.71796     0.44627     0.21807     0.21439     0.39529     0.60562     0.68904     0.64877     0.51358     0.33290    
 0.17259     0.78159E-01 0.38729E-01 0.27034E-01 0.23896E-01 0.29797E-01 0.52998E-01 0.11165     0.23182     0.41108    
 0.59422     0.72472     0.77024     0.71106     0.49828     0.21807     0.12231     0.21807     0.49827     0.71106    
 0.77024     0.72471     0.59423     0.41104     0.23184     0.11162     0.53001E-01 0.29792E-01 0.29797E-01 0.27036E-01
 0.38723E-01 0.78166E-01 0.17254     0.33292     0.51354     0.64878     0.68903     0.60561     0.39529     0.21439    
 0.21807     0.44628     0.71796     0.82994     0.84181     0.78443     0.65767     0.47569     0.28890     0.15537    
 0.81971E-01 0.45793E-01 0.52998E-01 0.38723E-01 0.40360E-01 0.64199E-01 0.13049     0.26124     0.43167     0.57490    
 0.63358     0.58728     0.46692     0.39529     0.49827     0.71796     0.85118     0.88964     0.87567     0.81298    
 0.69145     0.51446     0.33413     0.20476     0.12781     0.81947E-01 0.11165     0.78166E-01 0.64199E-01 0.73405E-01
 0.11532     0.20991     0.35537     0.50035     0.58990     0.60769     0.58727     0.60562     0.71106     0.82994    
 0.88964     0.90002     0.87488     0.81043     0.69177     0.52754     0.37618     0.27197     0.20480     0.15537    
 0.23182     0.17254     0.13049     0.11532     0.13010     0.18468     0.28734     0.41422     0.52155     0.58993    
 0.63358     0.68904     0.77024     0.84181     0.87567     0.87488     0.84419     0.77447     0.65636     0.52531    
 0.43214     0.37615     0.33413     0.28886     0.41108     0.33292     0.26124     0.20991     0.18468     0.19153    
 0.23746     0.31936     0.41416     0.50034     0.57487     0.64877     0.72471     0.78443     0.81298     0.81043    
 0.77447     0.69738     0.60057     0.53833     0.52533     0.52755     0.51449     0.47571     0.59422     0.51354    
 0.43167     0.35537     0.28734     0.23746     0.21909     0.23748     0.28736     0.35543     0.43170     0.51358    
 0.59423     0.65767     0.69145     0.69177     0.65636     0.60057     0.57193     0.60057     0.65635     0.69175    
 0.69144     0.65765     0.72472     0.64878     0.57490     0.50035     0.41422     0.31936     0.23748     0.19152    
 0.18466     0.20989     0.26119     0.33290     0.41104     0.47569     0.51446     0.52754     0.52531     0.53833    
 0.60057     0.69738     0.77448     0.81043     0.81299     0.78444     0.77024     0.68903     0.63358     0.58990    
 0.52155     0.41416     0.28736     0.18466     0.13011     0.11534     0.13051     0.17259     0.23184     0.28890    
 0.33413     0.37618     0.43214     0.52533     0.65635     0.77448     0.84418     0.87488     0.87567     0.84181    
 0.71106     0.60561     0.58728     0.60769     0.58993     0.50034     0.35543     0.20989     0.11534     0.73394E-01
 0.64189E-01 0.78159E-01 0.11162     0.15537     0.20476     0.27197     0.37615     0.52755     0.69175     0.81043    
 0.87488     0.90002     0.88964     0.82994     0.49828     0.39529     0.46692     0.58727     0.63358     0.57487    
 0.43170     0.26119     0.13051     0.64189E-01 0.40365E-01 0.38729E-01 0.53001E-01 0.81971E-01 0.12781     0.20480    
 0.33413     0.51449     0.69144     0.81299     0.87567     0.88964     0.85118     0.71796     0.21807     0.21439    
 0.39529     0.60562     0.68904     0.64877     0.51358     0.33290     0.17259     0.78159E-01 0.38729E-01 0.27034E-01
 0.29792E-01 0.45793E-01 0.81947E-01 0.15537     0.28886     0.47571     0.65765     0.78444     0.84181     0.82994    
 0.71796     0.44627     0.28680     0.39442     0.62186     0.75968     0.78246     0.72261     0.59721     0.42783    
 0.26051     0.14230     0.76952E-01 0.47429E-01 0.39341E-01 0.47426E-01 0.76958E-01 0.14230     0.26055     0.42783    
 0.59724     0.72261     0.78247     0.75968     0.62186     0.39442     0.39442     0.62654     0.81161     0.87202    
 0.86430     0.80622     0.69522     0.53142     0.35397     0.21512     0.12592     0.74043E-01 0.47426E-01 0.39540E-01
 0.49905E-01 0.88055E-01 0.17343     0.31453     0.47633     0.60572     0.66152     0.61414     0.46891     0.34421    
 0.62186     0.81161     0.89823     0.91658     0.90042     0.85291     0.75755     0.60277     0.43255     0.29573    
 0.19662     0.12592     0.76958E-01 0.49905E-01 0.44340E-01 0.61340E-01 0.11346     0.21745     0.35815     0.48497    
 0.55088     0.53331     0.46879     0.46891     0.75968     0.87202     0.91658     0.92369     0.91005     0.86924    
 0.77387     0.62252     0.48175     0.38072     0.29575     0.21509     0.14230     0.88055E-01 0.61340E-01 0.60864E-01
 0.88266E-01 0.15597     0.26551     0.38219     0.46681     0.50687     0.53331     0.61414     0.78246     0.86430    
 0.90042     0.91005     0.89844     0.84758     0.73295     0.59697     0.51850     0.48173     0.43257     0.35396    
 0.26055     0.17343     0.11346     0.88266E-01 0.93571E-01 0.13057     0.20371     0.29789     0.38719     0.46684    
 0.55087     0.66153     0.72261     0.80622     0.85291     0.86924     0.84758     0.76860     0.65042     0.58373    
 0.59698     0.62252     0.60278     0.53139     0.42783     0.31453     0.21745     0.15597     0.13057     0.13473    
 0.16741     0.22553     0.29783     0.38219     0.48495     0.60574     0.59721     0.69522     0.75755     0.77387    
 0.73295     0.65042     0.60403     0.65041     0.73295     0.77386     0.75756     0.69521     0.59724     0.47633    
 0.35815     0.26551     0.20371     0.16741     0.15497     0.16743     0.20372     0.26555     0.35813     0.47633    
 0.42783     0.53142     0.60277     0.62252     0.59697     0.58373     0.65041     0.76861     0.84759     0.86924    
 0.85291     0.80621     0.72261     0.60572     0.48497     0.38219     0.29789     0.22553     0.16743     0.13472    
 0.13055     0.15597     0.21743     0.31457     0.26051     0.35397     0.43255     0.48175     0.51850     0.59698    
 0.73295     0.84759     0.89844     0.91005     0.90042     0.86430     0.78247     0.66152     0.55088     0.46681    
 0.38719     0.29783     0.20372     0.13055     0.93576E-01 0.88275E-01 0.11345     0.17343     0.14230     0.21512    
 0.29573     0.38072     0.48173     0.62252     0.77386     0.86924     0.91005     0.92369     0.91658     0.87202    
 0.75968     0.61414     0.53331     0.50687     0.46684     0.38219     0.26555     0.15597     0.88275E-01 0.60862E-01
 0.61337E-01 0.88066E-01 0.76952E-01 0.12592     0.19662     0.29575     0.43257     0.60278     0.75756     0.85291    
 0.90042     0.91658     0.89823     0.81161     0.62186     0.46891     0.46879     0.53331     0.55087     0.48495    
 0.35813     0.21743     0.11345     0.61337E-01 0.44340E-01 0.49904E-01 0.47429E-01 0.74043E-01 0.12592     0.21509    
 0.35396     0.53139     0.69521     0.80621     0.86430     0.87202     0.81161     0.62654     0.39442     0.34421    
 0.46891     0.61414     0.66153     0.60574     0.47633     0.31457     0.17343     0.88066E-01 0.49904E-01 0.39541E-01
 0.39341E-01 0.47426E-01 0.76958E-01 0.14230     0.26055     0.42783     0.59724     0.72261     0.78247     0.75968    
 0.62186     0.39442     0.28680     0.39442     0.62186     0.75968     0.78246     0.72261     0.59721     0.42783    
 0.26051     0.14230     0.76952E-01 0.47429E-01 0.47426E-01 0.39540E-01 0.49905E-01 0.88055E-01 0.17343     0.31453    
 0.47633     0.60572     0.66152     0.61414     0.46891     0.34421     0.39442     0.62654     0.81161     0.87202    
 0.86430     0.80622     0.69522     0.53142     0.35397     0.21512     0.12592     0.74043E-01 0.76958E-01 0.49905E-01
 0.44340E-01 0.61340E-01 0.11346     0.21745     0.35815     0.48497     0.55088     0.53331     0.46879     0.46891    
 0.62186     0.81161     0.89823     0.91658     0.90042     0.85291     0.75755     0.60277     0.43255     0.29573    
 0.19662     0.12592     0.14230     0.88055E-01 0.61340E-01 0.60864E-01 0.88266E-01 0.15597     0.26551     0.38219    
 0.46681     0.50687     0.53331     0.61414     0.75968     0.87202     0.91658     0.92369     0.91005     0.86924    
 0.77387     0.62252     0.48175     0.38072     0.29575     0.21509     0.26055     0.17343     0.11346     0.88266E-01
 0.93571E-01 0.13057     0.20371     0.29789     0.38719     0.46684     0.55087     0.66153     0.78246     0.86430    
 0.90042     0.91005     0.89844     0.84758     0.73295     0.59697     0.51850     0.48173     0.43257     0.35396    
 0.42783     0.31453     0.21745     0.15597     0.13057     0.13473     0.16741     0.22553     0.29783     0.38219    
 0.48495     0.60574     0.72261     0.80622     0.85291     0.86924     0.84758     0.76860     0.65042     0.58373    
 0.59698     0.62252     0.60278     0.53139     0.59724     0.47633     0.35815     0.26551     0.20371     0.16741    
 0.15497     0.16743     0.20372     0.26555     0.35813     0.47633     0.59721     0.69522     0.75755     0.77387    
 0.73295     0.65042     0.60403     0.65041     0.73295     0.77386     0.75756     0.69521     0.72261     0.60572    
 0.48497     0.38219     0.29789     0.22553     0.16743     0.13472     0.13055     0.15597     0.21743     0.31457    
 0.42783     0.53142     0.60277     0.62252     0.59697     0.58373     0.65041     0.76861     0.84759     0.86924    
 0.85291     0.80621     0.78247     0.66152     0.55088     0.46681     0.38719     0.29783     0.20372     0.13055    
 0.93576E-01 0.88275E-01 0.11345     0.17343     0.26051     0.35397     0.43255     0.48175     0.51850     0.59698    
 0.73295     0.84759     0.89844     0.91005     0.90042     0.86430     0.75968     0.61414     0.53331     0.50687    
 0.46684     0.38219     0.26555     0.15597     0.88275E-01 0.60862E-01 0.61337E-01 0.88066E-01 0.14230     0.21512    
 0.29573     0.38072     0.48173     0.62252     0.77386     0.86924     0.91005     0.92369     0.91658     0.87202    
 0.62186     0.46891     0.46879     0.53331     0.55087     0.48495     0.35813     0.21743     0.11345     0.61337E-01
 0.44340E-01 0.49904E-01 0.76952E-01 0.12592     0.19662     0.29575     0.43257     0.60278     0.75756     0.85291    
 0.90042     0.91658     0.89823     0.81161     0.39442     0.34421     0.46891     0.61414     0.66153     0.60574    
 0.47633     0.31457     0.17343     0.88066E-01 0.49904E-01 0.39541E-01 0.47429E-01 0.74043E-01 0.12592     0.21509    
 0.35396     0.53139     0.69521     0.80621     0.86430     0.87202     0.81161     0.62654     0.48215     0.55522    
 0.69079     0.76653     0.76436     0.70229     0.59044     0.44320     0.30100     0.19388     0.12405     0.86939E-01
 0.75835E-01 0.86930E-01 0.12406     0.19387     0.30104     0.44319     0.59047     0.70229     0.76437     0.76653    
 0.69079     0.55522     0.55522     0.71725     0.83455     0.87157     0.85897     0.80920     0.71461     0.57539    
 0.42804     0.30241     0.20248     0.13030     0.86930E-01 0.69787E-01 0.76929E-01 0.11220     0.18460     0.30024    
 0.43791     0.55286     0.61679     0.61200     0.54481     0.49115     0.69079     0.83455     0.90015     0.91551    
 0.90581     0.86936     0.78407     0.64843     0.51411     0.40422     0.30084     0.20251     0.12406     0.76929E-01
 0.60241E-01 0.69172E-01 0.10715     0.18443     0.29406     0.39798     0.46591     0.48918     0.49168     0.54481    
 0.76653     0.87157     0.91551     0.92916     0.92419     0.88703     0.78463     0.63296     0.52689     0.47133    
 0.40422     0.30239     0.19387     0.11220     0.69172E-01 0.57948E-01 0.71960E-01 0.11563     0.19146     0.27752    
 0.35112     0.41457     0.48918     0.61200     0.76436     0.85897     0.90581     0.92419     0.91522     0.85438    
 0.70297     0.54459     0.50381     0.52689     0.51413     0.42805     0.30104     0.18460     0.10715     0.71960E-01
 0.67647E-01 0.88065E-01 0.13417     0.19790     0.26737     0.35114     0.46590     0.61679     0.70229     0.80920    
 0.86936     0.88703     0.85438     0.73606     0.55333     0.47749     0.54459     0.63296     0.64843     0.57536    
 0.44319     0.30024     0.18443     0.11563     0.88065E-01 0.87154E-01 0.10669     0.14428     0.19787     0.27752    
 0.39797     0.55289     0.59044     0.71461     0.78407     0.78463     0.70297     0.55333     0.47073     0.55333    
 0.70297     0.78462     0.78408     0.71461     0.59047     0.43791     0.29406     0.19146     0.13417     0.10669    
 0.98243E-01 0.10669     0.13417     0.19148     0.29404     0.43790     0.44320     0.57539     0.64843     0.63296    
 0.54459     0.47749     0.55333     0.73606     0.85438     0.88703     0.86936     0.80919     0.70229     0.55286    
 0.39798     0.27752     0.19790     0.14428     0.10669     0.87154E-01 0.88058E-01 0.11563     0.18443     0.30028    
 0.30100     0.42804     0.51411     0.52689     0.50381     0.54459     0.70297     0.85438     0.91522     0.92419    
 0.90581     0.85897     0.76437     0.61679     0.46591     0.35112     0.26737     0.19787     0.13417     0.88058E-01
 0.67647E-01 0.71965E-01 0.10714     0.18460     0.19388     0.30241     0.40422     0.47133     0.52689     0.63296    
 0.78462     0.88703     0.92419     0.92916     0.91551     0.87157     0.76653     0.61200     0.48918     0.41457    
 0.35114     0.27752     0.19148     0.11563     0.71965E-01 0.57948E-01 0.69171E-01 0.11221     0.12405     0.20248    
 0.30084     0.40422     0.51413     0.64843     0.78408     0.86936     0.90581     0.91551     0.90015     0.83455    
 0.69079     0.54481     0.49168     0.48918     0.46590     0.39797     0.29404     0.18443     0.10714     0.69171E-01
 0.60242E-01 0.76925E-01 0.86939E-01 0.13030     0.20251     0.30239     0.42805     0.57536     0.71461     0.80919    
 0.85897     0.87157     0.83455     0.71725     0.55522     0.49115     0.54481     0.61200     0.61679     0.55289    
 0.43790     0.30028     0.18460     0.11221     0.76925E-01 0.69785E-01 0.75835E-01 0.86930E-01 0.12406     0.19387    
 0.30104     0.44319     0.59047     0.70229     0.76437     0.76653     0.69079     0.55522     0.48215     0.55522    
 0.69079     0.76653     0.76436     0.70229     0.59044     0.44320     0.30100     0.19388     0.12405     0.86939E-01
 0.86930E-01 0.69787E-01 0.76929E-01 0.11220     0.18460     0.30024     0.43791     0.55286     0.61679     0.61200    
 0.54481     0.49115     0.55522     0.71725     0.83455     0.87157     0.85897     0.80920     0.71461     0.57539    
 0.42804     0.30241     0.20248     0.13030     0.12406     0.76929E-01 0.60241E-01 0.69172E-01 0.10715     0.18443    
 0.29406     0.39798     0.46591     0.48918     0.49168     0.54481     0.69079     0.83455     0.90015     0.91551    
 0.90581     0.86936     0.78407     0.64843     0.51411     0.40422     0.30084     0.20251     0.19387     0.11220    
 0.69172E-01 0.57948E-01 0.71960E-01 0.11563     0.19146     0.27752     0.35112     0.41457     0.48918     0.61200    
 0.76653     0.87157     0.91551     0.92916     0.92419     0.88703     0.78463     0.63296     0.52689     0.47133    
 0.40422     0.30239     0.30104     0.18460     0.10715     0.71960E-01 0.67647E-01 0.88065E-01 0.13417     0.19790    
 0.26737     0.35114     0.46590     0.61679     0.76436     0.85897     0.90581     0.92419     0.91522     0.85438    
 0.70297     0.54459     0.50381     0.52689     0.51413     0.42805     0.44319     0.30024     0.18443     0.11563    
 0.88065E-01 0.87154E-01 0.10669     0.14428     0.19787     0.27752     0.39797     0.55289     0.70229     0.80920    
 0.86936     0.88703     0.85438     0.73606     0.55333     0.47749     0.54459     0.63296     0.64843     0.57536    
 0.59047     0.43791     0.29406     0.19146     0.13417     0.10669     0.98243E-01 0.10669     0.13417     0.19148    
 0.29404     0.43790     0.59044     0.71461     0.78407     0.78463     0.70297     0.55333     0.47073     0.55333    
 0.70297     0.78462     0.78408     0.71461     0.70229     0.55286     0.39798     0.27752     0.19790     0.14428    
 0.10669     0.87154E-01 0.88058E-01 0.11563     0.18443     0.30028     0.44320     0.57539     0.64843     0.63296    
 0.54459     0.47749     0.55333     0.73606     0.85438     0.88703     0.86936     0.80919     0.76437     0.61679    
 0.46591     0.35112     0.26737     0.19787     0.13417     0.88058E-01 0.67647E-01 0.71965E-01 0.10714     0.18460    
 0.30100     0.42804     0.51411     0.52689     0.50381     0.54459     0.70297     0.85438     0.91522     0.92419    
 0.90581     0.85897     0.76653     0.61200     0.48918     0.41457     0.35114     0.27752     0.19148     0.11563    
 0.71965E-01 0.57948E-01 0.69171E-01 0.11221     0.19388     0.30241     0.40422     0.47133     0.52689     0.63296    
 0.78462     0.88703     0.92419     0.92916     0.91551     0.87157     0.69079     0.54481     0.49168     0.48918    
 0.46590     0.39797     0.29404     0.18443     0.10714     0.69171E-01 0.60242E-01 0.76925E-01 0.12405     0.20248    
 0.30084     0.40422     0.51413     0.64843     0.78408     0.86936     0.90581     0.91551     0.90015     0.83455    
 0.55522     0.49115     0.54481     0.61200     0.61679     0.55289     0.43790     0.30028     0.18460     0.11221    
 0.76925E-01 0.69785E-01 0.86939E-01 0.13030     0.20251     0.30239     0.42805     0.57536     0.71461     0.80919    
 0.85897     0.87157     0.83455     0.71725     0.54521     0.58662     0.66604     0.71364     0.70934     0.65851    
 0.56844     0.46239     0.36698     0.28570     0.21666     0.17046     0.15491     0.17045     0.21666     0.28570    
 0.36700     0.46238     0.56845     0.65850     0.70935     0.71364     0.66604     0.58662     0.58662     0.70377    
 0.79590     0.83283     0.82796     0.78564     0.70385     0.60392     0.51439     0.42962     0.33428     0.23959    
 0.17045     0.13709     0.13701     0.16591     0.21948     0.29794     0.39601     0.48549     0.53852     0.54917    
 0.52935     0.52362     0.66604     0.79590     0.86707     0.89328     0.88944     0.84843     0.75946     0.65571    
 0.58686     0.53453     0.45279     0.33430     0.21666     0.13701     0.10071     0.97249E-01 0.11962     0.16827    
 0.24116     0.31617     0.37003     0.40692     0.44793     0.52934     0.71364     0.83283     0.89328     0.91620    
 0.90809     0.85100     0.72046     0.58934     0.55366     0.56458     0.53453     0.42961     0.28570     0.16591    
 0.97249E-01 0.70561E-01 0.71031E-01 0.93711E-01 0.13857     0.19480     0.24947     0.31296     0.40693     0.54917    
 0.70934     0.82796     0.88944     0.90809     0.88431     0.77758     0.55852     0.41817     0.45547     0.55366    
 0.58686     0.51440     0.36700     0.21948     0.11962     0.71031E-01 0.56529E-01 0.63055E-01 0.87233E-01 0.12554    
 0.17507     0.24948     0.37002     0.53851     0.65851     0.78564     0.84843     0.85100     0.77758     0.56403    