Starting job 28277512 ("jobname") on c15-30 at Fri Oct 4 09:45:24 CEST 2019
 running on    4 total cores
 distrk:  each k-point on    4 cores,    1 groups
 distr:  one band on    2 cores,    2 groups
 using from now: INCAR     
 vasp.5.4.1 05Feb16 (build Mar 02 2016 14:09:44) complex                        
  
 POSCAR found type information on POSCAR  Si
 POSCAR found :  1 types and      10 ions
 LDA part: xc-table for Pade appr. of Perdew
 POSCAR, INCAR and KPOINTS ok, starting setup
 WARNING: small aliasing (wrap around) errors must be expected
 FFT: planning ...
 WAVECAR not read
 WARNING: random wavefunctions but no delay for mixing, default for NELMDL
 entering main loop
       N       E                     dE             d eps       ncg     rms          rms(c)
DAV:   1     0.111146556868E+03    0.11115E+03   -0.94897E+03   312   0.651E+02
DAV:   2    -0.364470928009E+02   -0.14759E+03   -0.14503E+03   392   0.145E+02
DAV:   3    -0.472802404223E+02   -0.10833E+02   -0.10667E+02   392   0.407E+01
DAV:   4    -0.476337109324E+02   -0.35347E+00   -0.35226E+00   512   0.866E+00
DAV:   5    -0.476381862040E+02   -0.44753E-02   -0.44735E-02   438   0.927E-01    0.593E+00
RMM:   6    -0.466104228525E+02    0.10278E+01   -0.24018E+00   328   0.358E+00    0.324E+00
RMM:   7    -0.464287133168E+02    0.18171E+00   -0.11820E+00   343   0.297E+00    0.100E+00
RMM:   8    -0.464100848115E+02    0.18629E-01   -0.13813E-01   351   0.134E+00    0.231E-01
RMM:   9    -0.464095471051E+02    0.53771E-03   -0.18606E-02   388   0.477E-01    0.108E-01
RMM:  10    -0.464090703439E+02    0.47676E-03   -0.35278E-03   355   0.207E-01    0.451E-02
RMM:  11    -0.464093726008E+02   -0.30226E-03   -0.11213E-03   364   0.116E-01    0.321E-02
RMM:  12    -0.464099842822E+02   -0.61168E-03   -0.25064E-03   344   0.111E-01    0.375E-02
RMM:  13    -0.464101110459E+02   -0.12676E-03   -0.47928E-04   352   0.690E-02    0.997E-03
RMM:  14    -0.464101651923E+02   -0.54146E-04   -0.95302E-05   383   0.313E-02    0.782E-03
RMM:  15    -0.464101774497E+02   -0.12257E-04   -0.67109E-05   358   0.224E-02    0.391E-03
RMM:  16    -0.464101821301E+02   -0.46804E-05   -0.49032E-06   277   0.809E-03    0.262E-03
RMM:  17    -0.464101817508E+02    0.37930E-06   -0.22050E-06   255   0.427E-03
   1 F= -.46410182E+02 E0= -.46388304E+02  d E =-.437558E-01

Currently Loaded Modulefiles:
  1) Anaconda3/5.1.0       3) vesta/3.3.8           5) intel/2016.1
  2) gnuplot/5.0.4         4) imagemagick/6.7.9-0   6) vasp/5.4.1.Feb16

Job script resource usage:
       JobID  MaxVMSize     MaxRSS 
------------ ---------- ---------- 
28277512.ba+    216884K      2298K 

Job step resource usage:
       JobID    JobName  AllocCPUS  MaxVMSize     MaxRSS    Elapsed ExitCode 
------------ ---------- ---------- ---------- ---------- ---------- -------- 
28277512        jobname          4                         00:00:09      0:0 
28277512.0    pmi_proxy          1    279832K       515K   00:00:07      0:0 

Job 28277512 ("jobname") completed on c15-30 at Fri Oct 4 09:45:31 CEST 2019
