<?xml version="1.0" encoding="ISO-8859-1"?>
<modeling>
 <generator>
  <i name="program" type="string">vasp </i>
  <i name="version" type="string">5.4.1  </i>
  <i name="subversion" type="string">05Feb16 (build Mar 02 2016 14:09:44) complex                          parallel </i>
  <i name="platform" type="string">Abel-impi-ifc-cuda </i>
  <i name="date" type="string">2019 10 04 </i>
  <i name="time" type="string">09:45:24 </i>
 </generator>
 <incar>
  <i type="string" name="PREC">normal    ! low/normal/accurate</i>
  <i type="string" name="ALGO"> Fast      ! Algorithm for electronic re</i>
  <i type="int" name="ISPIN">     1</i>
  <i type="int" name="NELMIN">     4</i>
  <i name="EDIFF">      0.00000100</i>
  <i type="int" name="NSW">     0</i>
  <i name="ENCUT">    250.00000000</i>
  <i type="int" name="NEDOS">  2401</i>
  <i type="string" name="LREAL"> Auto      ! Projection in reciprocal sp</i>
  <i name="EMIN">    -17.00000000</i>
  <i name="EMAX">      7.00000000</i>
  <i type="int" name="ISMEAR">     0</i>
  <i name="SIGMA">      0.10000000</i>
  <i type="logical" name="LWAVE"> F  </i>
  <i type="logical" name="LORBIT"> F  </i>
  <i type="logical" name="LELF"> T  </i>
  <v type="int" name="KPOINT_BSE">    -1     0     0     0</v>
 </incar>
 <kpoints>
  <generation param="Gamma">
   <v type="int" name="divisions">       5        5        1 </v>
   <v name="usershift">      0.00000000       0.00000000       0.00000000 </v>
   <v name="genvec1">      0.20000000       0.00000000       0.00000000 </v>
   <v name="genvec2">      0.00000000       0.20000000       0.00000000 </v>
   <v name="genvec3">      0.00000000       0.00000000       1.00000000 </v>
   <v name="shift">      0.00000000       0.00000000       0.00000000 </v>
  </generation>
  <varray name="kpointlist" >
   <v>       0.00000000       0.00000000       0.00000000 </v>
   <v>       0.20000000       0.00000000       0.00000000 </v>
   <v>       0.40000000       0.00000000       0.00000000 </v>
   <v>       0.20000000       0.20000000       0.00000000 </v>
   <v>       0.40000000       0.20000000       0.00000000 </v>
   <v>       0.40000000       0.40000000       0.00000000 </v>
  </varray>
  <varray name="weights" >
   <v>       0.04000000 </v>
   <v>       0.16000000 </v>
   <v>       0.16000000 </v>
   <v>       0.16000000 </v>
   <v>       0.32000000 </v>
   <v>       0.16000000 </v>
  </varray>
 </kpoints>
 <parameters>
  <separator name="general" >
   <i type="string" name="SYSTEM">unknown system</i>
   <i type="logical" name="LCOMPAT"> F  </i>
  </separator>
  <separator name="electronic" >
   <i type="string" name="PREC">normal</i>
   <i name="ENMAX">    250.00000000</i>
   <i name="ENAUG">    322.06900000</i>
   <i name="EDIFF">      0.00000100</i>
   <i type="int" name="IALGO">    68</i>
   <i type="int" name="IWAVPR">    10</i>
   <i type="int" name="NBANDS">    26</i>
   <i name="NELECT">     40.00000000</i>
   <i type="int" name="TURBO">     0</i>
   <i type="int" name="IRESTART">     0</i>
   <i type="int" name="NREBOOT">     0</i>
   <i type="int" name="NMIN">     0</i>
   <i name="EREF">      0.00000000</i>
   <separator name="electronic smearing" >
    <i type="int" name="ISMEAR">     0</i>
    <i name="SIGMA">      0.10000000</i>
    <i name="KSPACING">      0.50000000</i>
    <i type="logical" name="KGAMMA"> T  </i>
   </separator>
   <separator name="electronic projectors" >
    <i type="logical" name="LREAL"> T  </i>
    <v name="ROPT">     -0.00050000</v>
    <i type="int" name="LMAXPAW">  -100</i>
    <i type="int" name="LMAXMIX">     2</i>
    <i type="logical" name="NLSPLINE"> F  </i>
   </separator>
   <separator name="electronic startup" >
    <i type="int" name="ISTART">     0</i>
    <i type="int" name="ICHARG">     2</i>
    <i type="int" name="INIWAV">     1</i>
   </separator>
   <separator name="electronic spin" >
    <i type="int" name="ISPIN">     1</i>
    <i type="logical" name="LNONCOLLINEAR"> F  </i>
    <v name="MAGMOM">      1.00000000      1.00000000      1.00000000      1.00000000      1.00000000      1.00000000      1.00000000      1.00000000      1.00000000      1.00000000</v>
    <i name="NUPDOWN">     -1.00000000</i>
    <i type="logical" name="LSORBIT"> F  </i>
    <v name="SAXIS">      0.00000000      0.00000000      1.00000000</v>
    <i type="logical" name="LSPIRAL"> F  </i>
    <v name="QSPIRAL">      0.00000000      0.00000000      0.00000000</v>
    <i type="logical" name="LZEROZ"> F  </i>
   </separator>
   <separator name="electronic exchange-correlation" >
    <i type="logical" name="LASPH"> F  </i>
    <i type="logical" name="LMETAGGA"> F  </i>
   </separator>
   <separator name="electronic convergence" >
    <i type="int" name="NELM">    60</i>
    <i type="int" name="NELMDL">     0</i>
    <i type="int" name="NELMIN">     4</i>
    <i name="ENINI">    250.00000000</i>
    <separator name="electronic convergence detail" >
     <i type="logical" name="LDIAG"> T  </i>
     <i type="logical" name="LSUBROT"> F  </i>
     <i name="WEIMIN">      0.00000000</i>
     <i name="EBREAK">      0.00000001</i>
     <i name="DEPER">      0.30000000</i>
     <i type="int" name="NRMM">     4</i>
     <i name="TIME">      0.40000000</i>
    </separator>
   </separator>
   <separator name="electronic mixer" >
    <i name="AMIX">      0.40000000</i>
    <i name="BMIX">      1.00000000</i>
    <i name="AMIN">      0.10000000</i>
    <i name="AMIX_MAG">      1.60000000</i>
    <i name="BMIX_MAG">      1.00000000</i>
    <separator name="electronic mixer details" >
     <i type="int" name="IMIX">     4</i>
     <i type="logical" name="MIXFIRST"> F  </i>
     <i type="int" name="MAXMIX">   -45</i>
     <i name="WC">    100.00000000</i>
     <i type="int" name="INIMIX">     1</i>
     <i type="int" name="MIXPRE">     1</i>
     <i type="int" name="MREMOVE">     5</i>
    </separator>
   </separator>
   <separator name="electronic dipolcorrection" >
    <i type="logical" name="LDIPOL"> F  </i>
    <i type="logical" name="LMONO"> F  </i>
    <i type="int" name="IDIPOL">     0</i>
    <i name="EPSILON">      1.00000000</i>
    <v name="DIPOL">   -100.00000000   -100.00000000   -100.00000000</v>
    <i name="EFIELD">      0.00000000</i>
   </separator>
  </separator>
  <separator name="grids" >
   <i type="int" name="NGX">    24</i>
   <i type="int" name="NGY">    24</i>
   <i type="int" name="NGZ">    60</i>
   <i type="int" name="NGXF">    48</i>
   <i type="int" name="NGYF">    48</i>
   <i type="int" name="NGZF">   120</i>
   <i type="logical" name="ADDGRID"> F  </i>
  </separator>
  <separator name="ionic" >
   <i type="int" name="NSW">     0</i>
   <i type="int" name="IBRION">    -1</i>
   <i type="int" name="ISIF">     2</i>
   <i name="PSTRESS">      0.00000000</i>
   <i name="EDIFFG">      0.00001000</i>
   <i type="int" name="NFREE">     0</i>
   <i name="POTIM">      0.50000000</i>
   <i name="SMASS">     -3.00000000</i>
   <i name="SCALEE">      1.00000000</i>
  </separator>
  <separator name="ionic md" >
   <i name="TEBEG">      0.00010000</i>
   <i name="TEEND">      0.00010000</i>
   <i type="int" name="NBLOCK">     1</i>
   <i type="int" name="KBLOCK">     1</i>
   <i type="int" name="NPACO">   256</i>
   <i name="APACO">     16.00000000</i>
  </separator>
  <separator name="symmetry" >
   <i type="int" name="ISYM">     2</i>
   <i name="SYMPREC">      0.00001000</i>
  </separator>
  <separator name="dos" >
   <i type="logical" name="LORBIT"> F  </i>
   <v name="RWIGS">     -1.00000000</v>
   <i type="int" name="NEDOS">  2401</i>
   <i name="EMIN">    -17.00000000</i>
   <i name="EMAX">      7.00000000</i>
   <i name="EFERMI">      0.00000000</i>
  </separator>
  <separator name="writing" >
   <i type="int" name="NWRITE">     2</i>
   <i type="logical" name="LWAVE"> F  </i>
   <i type="logical" name="LCHARG"> T  </i>
   <i type="logical" name="LPARD"> F  </i>
   <i type="logical" name="LVTOT"> F  </i>
   <i type="logical" name="LVHAR"> F  </i>
   <i type="logical" name="LELF"> T  </i>
   <i type="logical" name="LOPTICS"> F  </i>
   <v name="STM">      0.00000000      0.00000000      0.00000000      0.00000000      0.00000000      0.00000000      0.00000000</v>
  </separator>
  <separator name="performance" >
   <i type="int" name="NPAR">     2</i>
   <i type="int" name="NSIM">     4</i>
   <i type="int" name="NBLK">    -1</i>
   <i type="logical" name="LPLANE"> T  </i>
   <i type="logical" name="LSCALAPACK"> F  </i>
   <i type="logical" name="LSCAAWARE"> F  </i>
   <i type="logical" name="LSCALU"> F  </i>
   <i type="logical" name="LASYNC"> F  </i>
   <i type="logical" name="LORBITALREAL"> F  </i>
  </separator>
  <separator name="miscellaneous" >
   <i type="int" name="IDIOT">     3</i>
   <i type="logical" name="LMUSIC"> F  </i>
   <v name="POMASS">     28.08500000</v>
   <v name="DARWINR">      0.00000000</v>
   <v name="DARWINV">      1.00000000</v>
   <i type="logical" name="LCORR"> T  </i>
  </separator>
  <i type="logical" name="GGA_COMPAT"> T  </i>
  <i type="logical" name="LBERRY"> F  </i>
  <i type="int" name="ICORELEVEL">     0</i>
  <i type="logical" name="LDAU"> F  </i>
  <i type="int" name="I_CONSTRAINED_M">     0</i>
  <separator name="electronic exchange-correlation" >
   <i type="string" name="GGA">--</i>
   <i type="int" name="VOSKOWN">     0</i>
   <i type="logical" name="LHFCALC"> F  </i>
   <i type="string" name="PRECFOCK"></i>
   <i type="logical" name="LSYMGRAD"> F  </i>
   <i type="logical" name="LHFONE"> F  </i>
   <i type="logical" name="LRHFCALC"> F  </i>
   <i type="logical" name="LTHOMAS"> F  </i>
   <i type="logical" name="LMODELHF"> F  </i>
   <i name="ENCUT4O">     -1.00000000</i>
   <i type="int" name="EXXOEP">     0</i>
   <i type="int" name="FOURORBIT">     0</i>
   <i name="AEXX">      0.00000000</i>
   <i name="HFALPHA">      0.00000000</i>
   <i name="MCALPHA">      0.00000000</i>
   <i name="ALDAX">      1.00000000</i>
   <i name="AGGAX">      1.00000000</i>
   <i name="ALDAC">      1.00000000</i>
   <i name="AGGAC">      1.00000000</i>
   <i type="int" name="NKREDX">     1</i>
   <i type="int" name="NKREDY">     1</i>
   <i type="int" name="NKREDZ">     1</i>
   <i type="logical" name="SHIFTRED"> F  </i>
   <i type="logical" name="ODDONLY"> F  </i>
   <i type="logical" name="EVENONLY"> F  </i>
   <i type="int" name="LMAXFOCK">     0</i>
   <i type="int" name="NMAXFOCKAE">     0</i>
   <i type="logical" name="LFOCKAEDFT"> F  </i>
   <i name="HFSCREEN">      0.00000000</i>
   <i name="HFSCREENC">      0.00000000</i>
   <i type="int" name="NBANDSGWLOW">     0</i>
  </separator>
  <separator name="vdW DFT" >
   <i type="logical" name="LUSE_VDW"> F  </i>
   <i name="Zab_VDW">     -0.84910000</i>
   <i name="PARAM1">      0.12340000</i>
   <i name="PARAM2">      1.00000000</i>
   <i name="PARAM3">      0.00000000</i>
  </separator>
  <separator name="model GW" >
   <i type="int" name="MODEL_GW">     0</i>
   <i name="MODEL_EPS0">     26.17642215</i>
   <i name="MODEL_ALPHA">      1.00000000</i>
  </separator>
  <separator name="linear response parameters" >
   <i type="logical" name="LEPSILON"> F  </i>
   <i type="logical" name="LRPA"> F  </i>
   <i type="logical" name="LNABLA"> F  </i>
   <i type="logical" name="LVEL"> F  </i>
   <i type="int" name="KINTER">     0</i>
   <i name="CSHIFT">      0.10000000</i>
   <i name="OMEGAMAX">     -1.00000000</i>
   <i name="DEG_THRESHOLD">      0.00200000</i>
  </separator>
  <separator name="orbital magnetization" >
   <i type="logical" name="NUCIND"> F  </i>
   <v name="MAGPOS">      0.00000000      0.00000000      0.00000000</v>
   <i type="logical" name="LNICSALL"> T  </i>
   <i type="logical" name="ORBITALMAG"> F  </i>
   <i type="logical" name="LMAGBLOCH"> F  </i>
   <i type="logical" name="LCHIMAG"> F  </i>
   <i type="logical" name="LGAUGE"> T  </i>
   <i type="int" name="MAGATOM">     0</i>
   <v name="MAGDIPOL">      0.00000000      0.00000000      0.00000000</v>
   <v name="AVECCONST">      0.00000000      0.00000000      0.00000000</v>
  </separator>
  <separator name="response functions" >
   <i type="logical" name="LADDER"> F  </i>
   <i type="logical" name="LFXC"> F  </i>
   <i type="logical" name="LHARTREE"> T  </i>
   <i type="int" name="IBSE">     0</i>
   <v type="int" name="KPOINT">    -1     0     0     0</v>
   <i type="logical" name="LTCTE"> F  </i>
   <i type="logical" name="LTETE"> F  </i>
   <i type="logical" name="LTRIPLET"> F  </i>
   <i type="logical" name="LFXCEPS"> F  </i>
   <i type="logical" name="LFXHEG"> F  </i>
   <i type="int" name="NATURALO">     0</i>
   <i type="logical" name="L2ORDER"> F  </i>
   <i type="logical" name="LUSEW"> F  </i>
   <i name="ENCUTGW">     -2.00000000</i>
   <i name="ENCUTGWSOFT">     -2.00000000</i>
   <i name="ENCUTLF">     -1.00000000</i>
   <i type="int" name="LMAXMP2">    -1</i>
   <i name="SCISSOR">      0.00000000</i>
   <i type="int" name="NOMEGA">     0</i>
   <i type="int" name="NOMEGAR">     0</i>
   <i type="int" name="NBANDSGW">    -1</i>
   <i type="int" name="NBANDSO">    -1</i>
   <i type="int" name="NBANDSV">    -1</i>
   <i type="int" name="NELM">     1</i>
   <i type="int" name="NELMHF">     1</i>
   <i type="int" name="DIM">     3</i>
   <i type="int" name="ANTIRES">     0</i>
   <i name="OMEGAMAX">    -30.00000000</i>
   <i name="OMEGAMIN">    -30.00000000</i>
   <i name="OMEGATL">   -200.00000000</i>
   <i type="int" name="OMEGAGRID">     0</i>
   <i name="CSHIFT">     -0.10000000</i>
   <i type="logical" name="SELFENERGY"> F  </i>
   <i type="logical" name="LSPECTRAL"> F  </i>
   <i type="logical" name="LSPECTRALGW"> F  </i>
   <i type="logical" name="LSINGLES"> F  </i>
   <i type="logical" name="LFERMIGW"> F  </i>
   <i type="logical" name="ODDONLYGW"> F  </i>
   <i type="logical" name="EVENONLYGW"> F  </i>
   <i type="int" name="NKREDLFX">     1</i>
   <i type="int" name="NKREDLFY">     1</i>
   <i type="int" name="NKREDLFZ">     1</i>
   <i type="int" name="MAXMEM">  1800</i>
   <i type="int" name="TELESCOPE">     0</i>
   <i type="int" name="TAUPAR">     1</i>
   <i type="int" name="OMEGAPAR">    -1</i>
   <i name="LAMBDA">      1.00000000</i>
  </separator>
  <separator name="External order field" >
   <i name="OFIELD_KAPPA">      0.00000000</i>
   <v name="OFIELD_K">      0.00000000      0.00000000      0.00000000</v>
   <i name="OFIELD_Q6_NEAR">      0.00000000</i>
   <i name="OFIELD_Q6_FAR">      0.00000000</i>
   <i name="OFIELD_A">      0.00000000</i>
  </separator>
 </parameters>
 <atominfo>
  <atoms>      10 </atoms>
  <types>       1 </types>
  <array name="atoms" >
   <dimension dim="1">ion</dimension>
   <field type="string">element</field>
   <field type="int">atomtype</field>
   <set>
    <rc><c>Si</c><c>   1</c></rc>
    <rc><c>Si</c><c>   1</c></rc>
    <rc><c>Si</c><c>   1</c></rc>
    <rc><c>Si</c><c>   1</c></rc>
    <rc><c>Si</c><c>   1</c></rc>
    <rc><c>Si</c><c>   1</c></rc>
    <rc><c>Si</c><c>   1</c></rc>
    <rc><c>Si</c><c>   1</c></rc>
    <rc><c>Si</c><c>   1</c></rc>
    <rc><c>Si</c><c>   1</c></rc>
   </set>
  </array>
  <array name="atomtypes" >
   <dimension dim="1">type</dimension>
   <field type="int">atomspertype</field>
   <field type="string">element</field>
   <field>mass</field>
   <field>valence</field>
   <field type="string">pseudopotential</field>
   <set>
    <rc><c>  10</c><c>Si</c><c>     28.08500000</c><c>      4.00000000</c><c> PAW_PBE Si 05Jan2001                   </c></rc>
   </set>
  </array>
 </atominfo>
 <structure name="initialpos" >
  <crystal>
   <varray name="basis" >
    <v>       5.43101000       0.00000000       0.00000000 </v>
    <v>       0.00000000       5.43101000       0.00000000 </v>
    <v>       0.00000000       0.00000000      14.79101000 </v>
   </varray>
   <i name="volume">    436.27370251 </i>
   <varray name="rec_basis" >
    <v>       0.18412781       0.00000000       0.00000000 </v>
    <v>       0.00000000       0.18412781       0.00000000 </v>
    <v>       0.00000000       0.00000000       0.06760864 </v>
   </varray>
  </crystal>
  <varray name="positions" >
   <v>       0.00000000       0.00000000       0.00000000 </v>
   <v>       0.49999908       0.49999908       0.00000000 </v>
   <v>       0.24999954       0.24999954       0.09179562 </v>
   <v>       0.75000046       0.75000046       0.09179562 </v>
   <v>       0.00000000       0.49999908       0.18359125 </v>
   <v>       0.49999908       0.00000000       0.18359125 </v>
   <v>       0.24999954       0.75000046       0.27538755 </v>
   <v>       0.75000046       0.24999954       0.27538755 </v>
   <v>       0.00000000       0.00000000       0.36718317 </v>
   <v>       0.49999908       0.49999908       0.36718317 </v>
  </varray>
 </structure>
 <calculation>
  <scstep>
   <time name="dav">    0.22    0.23</time>
   <time name="total">    0.27    0.28</time>
   <energy>
    <i name="alphaZ">      7.71604573 </i>
    <i name="ewald">    709.75113596 </i>
    <i name="hartreedc">  -1656.69319015 </i>
    <i name="XCdc">    -96.54898294 </i>
    <i name="pawpsdc">    329.77604058 </i>
    <i name="pawaedc">   -153.84263392 </i>
    <i name="eentropy">     -0.01501945 </i>
    <i name="bandstr">    -59.61433508 </i>
    <i name="atom">   1030.61749613 </i>
    <i name="e_fr_energy">    111.14655687 </i>
    <i name="e_wo_entrp">    111.16157632 </i>
    <i name="e_0_energy">    111.15406659 </i>
   </energy>
  </scstep>
  <scstep>
   <time name="dav">    0.26    0.26</time>
   <time name="total">    0.26    0.27</time>
   <energy>
    <i name="e_fr_energy">    -36.44709280 </i>
    <i name="e_wo_entrp">    -36.39765759 </i>
    <i name="e_0_energy">    -36.42237519 </i>
   </energy>
  </scstep>
  <scstep>
   <time name="dav">    0.25    0.25</time>
   <time name="total">    0.26    0.26</time>
   <energy>
    <i name="e_fr_energy">    -47.28024042 </i>
    <i name="e_wo_entrp">    -47.23376228 </i>
    <i name="e_0_energy">    -47.25700135 </i>
   </energy>
  </scstep>
  <scstep>
   <time name="dav">    0.32    0.32</time>
   <time name="total">    0.32    0.33</time>
   <energy>
    <i name="e_fr_energy">    -47.63371093 </i>
    <i name="e_wo_entrp">    -47.58721892 </i>
    <i name="e_0_energy">    -47.61046493 </i>
   </energy>
  </scstep>
  <scstep>
   <time name="dav">    0.28    0.28</time>
   <time name="total">    0.30    0.31</time>
   <energy>
    <i name="e_fr_energy">    -47.63818620 </i>
    <i name="e_wo_entrp">    -47.59170006 </i>
    <i name="e_0_energy">    -47.61494313 </i>
   </energy>
  </scstep>
  <scstep>
   <time name="diag">    0.04    0.04</time>
   <time name="diis">    0.15    0.15</time>
   <time name="orth">    0.00    0.01</time>
   <time name="total">    0.26    0.26</time>
   <energy>
    <i name="e_fr_energy">    -46.61042285 </i>
    <i name="e_wo_entrp">    -46.56394690 </i>
    <i name="e_0_energy">    -46.58718487 </i>
   </energy>
  </scstep>
  <scstep>
   <time name="diag">    0.04    0.04</time>
   <time name="diis">    0.15    0.15</time>
   <time name="orth">    0.00    0.01</time>
   <time name="total">    0.26    0.27</time>
   <energy>
    <i name="e_fr_energy">    -46.42871332 </i>
    <i name="e_wo_entrp">    -46.38542154 </i>
    <i name="e_0_energy">    -46.40706743 </i>
   </energy>
  </scstep>
  <scstep>
   <time name="diag">    0.04    0.04</time>
   <time name="diis">    0.16    0.16</time>
   <time name="orth">    0.00    0.01</time>
   <time name="total">    0.26    0.27</time>
   <energy>
    <i name="e_fr_energy">    -46.41008481 </i>
    <i name="e_wo_entrp">    -46.36630095 </i>
    <i name="e_0_energy">    -46.38819288 </i>
   </energy>
  </scstep>
  <scstep>
   <time name="diag">    0.04    0.04</time>
   <time name="diis">    0.17    0.17</time>
   <time name="orth">    0.00    0.01</time>
   <time name="total">    0.28    0.29</time>
   <energy>
    <i name="e_fr_energy">    -46.40954711 </i>
    <i name="e_wo_entrp">    -46.36630359 </i>
    <i name="e_0_energy">    -46.38792535 </i>
   </energy>
  </scstep>
  <scstep>
   <time name="diag">    0.04    0.04</time>
   <time name="diis">    0.16    0.16</time>
   <time name="orth">    0.00    0.01</time>
   <time name="total">    0.27    0.27</time>
   <energy>
    <i name="e_fr_energy">    -46.40907034 </i>
    <i name="e_wo_entrp">    -46.36552123 </i>
    <i name="e_0_energy">    -46.38729579 </i>
   </energy>
  </scstep>
  <scstep>
   <time name="diag">    0.04    0.04</time>
   <time name="diis">    0.16    0.16</time>
   <time name="orth">    0.00    0.01</time>
   <time name="total">    0.27    0.27</time>
   <energy>
    <i name="e_fr_energy">    -46.40937260 </i>
    <i name="e_wo_entrp">    -46.36562108 </i>
    <i name="e_0_energy">    -46.38749684 </i>
   </energy>
  </scstep>
  <scstep>
   <time name="diag">    0.04    0.04</time>
   <time name="diis">    0.15    0.15</time>
   <time name="orth">    0.01    0.01</time>
   <time name="total">    0.26    0.27</time>
   <energy>
    <i name="e_fr_energy">    -46.40998428 </i>
    <i name="e_wo_entrp">    -46.36632922 </i>
    <i name="e_0_energy">    -46.38815675 </i>
   </energy>
  </scstep>
  <scstep>
   <time name="diag">    0.04    0.04</time>
   <time name="diis">    0.16    0.16</time>
   <time name="orth">    0.00    0.01</time>
   <time name="total">    0.26    0.27</time>
   <energy>
    <i name="e_fr_energy">    -46.41011105 </i>
    <i name="e_wo_entrp">    -46.36637056 </i>
    <i name="e_0_energy">    -46.38824081 </i>
   </energy>
  </scstep>
  <scstep>
   <time name="diag">    0.04    0.04</time>
   <time name="diis">    0.17    0.17</time>
   <time name="orth">    0.00    0.01</time>
   <time name="total">    0.28    0.28</time>
   <energy>
    <i name="e_fr_energy">    -46.41016519 </i>
    <i name="e_wo_entrp">    -46.36640777 </i>
    <i name="e_0_energy">    -46.38828648 </i>
   </energy>
  </scstep>
  <scstep>
   <time name="diag">    0.04    0.04</time>
   <time name="diis">    0.16    0.16</time>
   <time name="orth">    0.00    0.01</time>
   <time name="total">    0.27    0.27</time>
   <energy>
    <i name="e_fr_energy">    -46.41017745 </i>
    <i name="e_wo_entrp">    -46.36642947 </i>
    <i name="e_0_energy">    -46.38830346 </i>
   </energy>
  </scstep>
  <scstep>
   <time name="diag">    0.04    0.04</time>
   <time name="diis">    0.13    0.13</time>
   <time name="orth">    0.00    0.01</time>
   <time name="total">    0.24    0.24</time>
   <energy>
    <i name="e_fr_energy">    -46.41018213 </i>
    <i name="e_wo_entrp">    -46.36642529 </i>
    <i name="e_0_energy">    -46.38830371 </i>
   </energy>
  </scstep>
  <scstep>
   <time name="diag">    0.04    0.04</time>
   <time name="diis">    0.12    0.12</time>
   <time name="orth">    0.00    0.01</time>
   <time name="total">    0.20    0.21</time>
   <energy>
    <i name="alphaZ">      7.71604573 </i>
    <i name="ewald">    709.75113596 </i>
    <i name="hartreedc">  -1691.70588463 </i>
    <i name="XCdc">    -94.06991288 </i>
    <i name="pawpsdc">    362.51020926 </i>
    <i name="pawaedc">   -187.37716269 </i>
    <i name="eentropy">     -0.04375582 </i>
    <i name="bandstr">   -183.80835281 </i>
    <i name="atom">   1030.61749613 </i>
    <i name="e_fr_energy">    -46.41018175 </i>
    <i name="e_wo_entrp">    -46.36642593 </i>
    <i name="e_0_energy">    -46.38830384 </i>
   </energy>
  </scstep>
  <structure>
   <crystal>
    <varray name="basis" >
     <v>       5.43101000       0.00000000       0.00000000 </v>
     <v>       0.00000000       5.43101000       0.00000000 </v>
     <v>       0.00000000       0.00000000      14.79101000 </v>
    </varray>
    <i name="volume">    436.27370251 </i>
    <varray name="rec_basis" >
     <v>       0.18412781       0.00000000       0.00000000 </v>
     <v>       0.00000000       0.18412781       0.00000000 </v>
     <v>       0.00000000       0.00000000       0.06760864 </v>
    </varray>
   </crystal>
   <varray name="positions" >
    <v>       0.00000000       0.00000000       0.00000000 </v>
    <v>       0.49999908       0.49999908       0.00000000 </v>
    <v>       0.24999954       0.24999954       0.09179562 </v>
    <v>       0.75000046       0.75000046       0.09179562 </v>
    <v>       0.00000000       0.49999908       0.18359125 </v>
    <v>       0.49999908       0.00000000       0.18359125 </v>
    <v>       0.24999954       0.75000046       0.27538755 </v>
    <v>       0.75000046       0.24999954       0.27538755 </v>
    <v>       0.00000000       0.00000000       0.36718317 </v>
    <v>       0.49999908       0.49999908       0.36718317 </v>
   </varray>
  </structure>
  <varray name="forces" >
   <v>       0.00000000      -0.00000000       0.13509157 </v>
   <v>       0.00000000       0.00000000       0.13509157 </v>
   <v>       0.00000000      -0.00000000      -0.25402409 </v>
   <v>       0.00000000      -0.00000000      -0.25402409 </v>
   <v>       0.00000000       0.00000000       0.00000000 </v>
   <v>       0.00000000      -0.00000000       0.00000000 </v>
   <v>       0.00000000      -0.00000000       0.25402409 </v>
   <v>       0.00000000      -0.00000000       0.25402409 </v>
   <v>       0.00000000      -0.00000000      -0.13509157 </v>
   <v>      -0.00000000      -0.00000000      -0.13509157 </v>
  </varray>
  <varray name="stress" >
   <v>      -8.87948987       0.00000000       0.00000000 </v>
   <v>      -0.00000000      -8.87948987       0.00000000 </v>
   <v>       0.00000000       0.00000000      -1.98078196 </v>
  </varray>
  <energy>
   <i name="e_fr_energy">    -46.41018175 </i>
   <i name="e_wo_entrp">    -46.38830384 </i>
   <i name="e_0_energy">     -0.04375582 </i>
  </energy>
  <time name="totalsc">    5.16    5.26</time>
  <eigenvalues>
   <array>
    <dimension dim="1">band</dimension>
    <dimension dim="2">kpoint</dimension>
    <dimension dim="3">spin</dimension>
    <field>eigene</field>
    <field>occ</field>
    <set>
     <set comment="spin 1">
      <set comment="kpoint 1">
       <r>  -11.4251    1.0000 </r>
       <r>   -9.8005    1.0000 </r>
       <r>   -7.8245    1.0000 </r>
       <r>   -7.6820    1.0000 </r>
       <r>   -7.6819    1.0000 </r>
       <r>   -7.4489    1.0000 </r>
       <r>   -6.8712    1.0000 </r>
       <r>   -6.6978    1.0000 </r>
       <r>   -4.5030    1.0000 </r>
       <r>   -3.3503    1.0000 </r>
       <r>   -3.2525    1.0000 </r>
       <r>   -3.2524    1.0000 </r>
       <r>   -2.3682    1.0000 </r>
       <r>   -2.3682    1.0000 </r>
       <r>   -1.3728    1.0000 </r>
       <r>   -1.3710    1.0000 </r>
       <r>   -1.0121    1.0000 </r>
       <r>   -1.0120    1.0000 </r>
       <r>   -0.7473    1.0000 </r>
       <r>   -0.7472    1.0000 </r>
       <r>   -0.3594    0.9577 </r>
       <r>    0.1990    0.0000 </r>
       <r>    1.2176    0.0000 </r>
       <r>    1.3213    0.0000 </r>
       <r>    1.9505    0.0000 </r>
       <r>    2.0369    0.0000 </r>
      </set>
      <set comment="kpoint 2">
       <r>  -11.2580    1.0000 </r>
       <r>   -9.6610    1.0000 </r>
       <r>   -8.9051    1.0000 </r>
       <r>   -8.0290    1.0000 </r>
       <r>   -7.3870    1.0000 </r>
       <r>   -7.2901    1.0000 </r>
       <r>   -6.4176    1.0000 </r>
       <r>   -6.0424    1.0000 </r>
       <r>   -4.6733    1.0000 </r>
       <r>   -3.6407    1.0000 </r>
       <r>   -3.4297    1.0000 </r>
       <r>   -2.8872    1.0000 </r>
       <r>   -2.6936    1.0000 </r>
       <r>   -2.6587    1.0000 </r>
       <r>   -2.0779    1.0000 </r>
       <r>   -1.5024    1.0000 </r>
       <r>   -1.2031    1.0000 </r>
       <r>   -0.6675    1.0000 </r>
       <r>   -0.5749    1.0000 </r>
       <r>   -0.5551    1.0000 </r>
       <r>   -0.3432    0.9326 </r>
       <r>    0.0669    0.0000 </r>
       <r>    1.4248    0.0000 </r>
       <r>    1.7896    0.0000 </r>
       <r>    2.0626    0.0000 </r>
       <r>    2.1770    0.0000 </r>
      </set>
      <set comment="kpoint 3">
       <r>  -10.7631    1.0000 </r>
       <r>   -9.9622    1.0000 </r>
       <r>   -9.2611    1.0000 </r>
       <r>   -8.6674    1.0000 </r>
       <r>   -7.2608    1.0000 </r>
       <r>   -7.2096    1.0000 </r>
       <r>   -5.8591    1.0000 </r>
       <r>   -5.1999    1.0000 </r>
       <r>   -4.7280    1.0000 </r>
       <r>   -3.6405    1.0000 </r>
       <r>   -3.6157    1.0000 </r>
       <r>   -3.5228    1.0000 </r>
       <r>   -3.2375    1.0000 </r>
       <r>   -3.1021    1.0000 </r>
       <r>   -2.2149    1.0000 </r>
       <r>   -2.0086    1.0000 </r>
       <r>   -0.8282    1.0000 </r>
       <r>   -0.5879    1.0000 </r>
       <r>   -0.5195    1.0000 </r>
       <r>   -0.3291    0.9026 </r>
       <r>   -0.2473    0.5552 </r>
       <r>    0.4291    0.0000 </r>
       <r>    0.6253    0.0000 </r>
       <r>    1.5546    0.0000 </r>
       <r>    2.7602    0.0000 </r>
       <r>    3.2442    0.0000 </r>
      </set>
      <set comment="kpoint 4">
       <r>  -11.0951    1.0000 </r>
       <r>   -9.5400    1.0000 </r>
       <r>   -9.0207    1.0000 </r>
       <r>   -8.6630    1.0000 </r>
       <r>   -7.3635    1.0000 </r>
       <r>   -7.0361    1.0000 </r>
       <r>   -6.4856    1.0000 </r>
       <r>   -5.6058    1.0000 </r>
       <r>   -4.9962    1.0000 </r>
       <r>   -3.5488    1.0000 </r>
       <r>   -3.5317    1.0000 </r>
       <r>   -3.1863    1.0000 </r>
       <r>   -2.7432    1.0000 </r>
       <r>   -2.7140    1.0000 </r>
       <r>   -2.1267    1.0000 </r>
       <r>   -0.9505    1.0000 </r>
       <r>   -0.9239    1.0000 </r>
       <r>   -0.8303    1.0000 </r>
       <r>   -0.6982    1.0000 </r>
       <r>   -0.6563    1.0000 </r>
       <r>   -0.2866    0.7563 </r>
       <r>    0.2550    0.0000 </r>
       <r>    1.0639    0.0000 </r>
       <r>    1.7964    0.0000 </r>
       <r>    2.0719    0.0000 </r>
       <r>    2.5411    0.0000 </r>
      </set>
      <set comment="kpoint 5">
       <r>  -10.6155    1.0000 </r>
       <r>   -9.8563    1.0000 </r>
       <r>   -9.2219    1.0000 </r>
       <r>   -8.8889    1.0000 </r>
       <r>   -7.3535    1.0000 </r>
       <r>   -7.3168    1.0000 </r>
       <r>   -5.9902    1.0000 </r>
       <r>   -5.5405    1.0000 </r>
       <r>   -5.0358    1.0000 </r>
       <r>   -4.3764    1.0000 </r>
       <r>   -3.1226    1.0000 </r>
       <r>   -3.0064    1.0000 </r>
       <r>   -2.9933    1.0000 </r>
       <r>   -2.3565    1.0000 </r>
       <r>   -2.2402    1.0000 </r>
       <r>   -1.4506    1.0000 </r>
       <r>   -1.1425    1.0000 </r>
       <r>   -1.1208    1.0000 </r>
       <r>   -0.4203    0.9951 </r>
       <r>   -0.1978    0.2876 </r>
       <r>   -0.0966    0.0232 </r>
       <r>    0.4789    0.0000 </r>
       <r>    1.0122    0.0000 </r>
       <r>    1.8042    0.0000 </r>
       <r>    2.6905    0.0000 </r>
       <r>    2.9161    0.0000 </r>
      </set>
      <set comment="kpoint 6">
       <r>  -10.1972    1.0000 </r>
       <r>   -9.7088    1.0000 </r>
       <r>   -9.3534    1.0000 </r>
       <r>   -9.2361    1.0000 </r>
       <r>   -7.4824    1.0000 </r>
       <r>   -7.3953    1.0000 </r>
       <r>   -6.2366    1.0000 </r>
       <r>   -5.9788    1.0000 </r>
       <r>   -5.1267    1.0000 </r>
       <r>   -5.0015    1.0000 </r>
       <r>   -2.9675    1.0000 </r>
       <r>   -2.9218    1.0000 </r>
       <r>   -1.8805    1.0000 </r>
       <r>   -1.8536    1.0000 </r>
       <r>   -1.5756    1.0000 </r>
       <r>   -1.5300    1.0000 </r>
       <r>   -1.2020    1.0000 </r>
       <r>   -0.9405    1.0000 </r>
       <r>   -0.3913    0.9852 </r>
       <r>   -0.0862    0.0162 </r>
       <r>   -0.0045    0.0005 </r>
       <r>    0.0287    0.0001 </r>
       <r>    1.8315    0.0000 </r>
       <r>    2.3099    0.0000 </r>
       <r>    2.5970    0.0000 </r>
       <r>    3.1228    0.0000 </r>
      </set>
     </set>
    </set>
   </array>
  </eigenvalues>
  <separator name="orbital magnetization" >
   <v name="MAGDIPOLOUT">      0.00000000      0.00000000      0.00000000</v>
  </separator>
  <dos>
   <i name="efermi">     -0.23745796 </i>
   <total>
    <array>
     <dimension dim="1">gridpoints</dimension>
     <dimension dim="2">spin</dimension>
     <field>energy</field>
     <field>total</field>
     <field>integrated</field>
     <set>
      <set comment="spin 1">
       <r>   -17.0000     0.0000     0.0000 </r>
       <r>   -16.9900     0.0000     0.0000 </r>
       <r>   -16.9800     0.0000     0.0000 </r>
       <r>   -16.9700     0.0000     0.0000 </r>
       <r>   -16.9600     0.0000     0.0000 </r>
       <r>   -16.9500     0.0000     0.0000 </r>
       <r>   -16.9400     0.0000     0.0000 </r>
       <r>   -16.9300     0.0000     0.0000 </r>
       <r>   -16.9200     0.0000     0.0000 </r>
       <r>   -16.9100     0.0000     0.0000 </r>
       <r>   -16.9000     0.0000     0.0000 </r>
       <r>   -16.8900     0.0000     0.0000 </r>
       <r>   -16.8800     0.0000     0.0000 </r>
       <r>   -16.8700     0.0000     0.0000 </r>
       <r>   -16.8600     0.0000     0.0000 </r>
       <r>   -16.8500     0.0000     0.0000 </r>
       <r>   -16.8400     0.0000     0.0000 </r>
       <r>   -16.8300     0.0000     0.0000 </r>
       <r>   -16.8200     0.0000     0.0000 </r>
       <r>   -16.8100     0.0000     0.0000 </r>
       <r>   -16.8000     0.0000     0.0000 </r>
       <r>   -16.7900     0.0000     0.0000 </r>
       <r>   -16.7800     0.0000     0.0000 </r>
       <r>   -16.7700     0.0000     0.0000 </r>
       <r>   -16.7600     0.0000     0.0000 </r>
       <r>   -16.7500     0.0000     0.0000 </r>
       <r>   -16.7400     0.0000     0.0000 </r>
       <r>   -16.7300     0.0000     0.0000 </r>
       <r>   -16.7200     0.0000     0.0000 </r>
       <r>   -16.7100     0.0000     0.0000 </r>
       <r>   -16.7000     0.0000     0.0000 </r>
       <r>   -16.6900     0.0000     0.0000 </r>
       <r>   -16.6800     0.0000     0.0000 </r>
       <r>   -16.6700     0.0000     0.0000 </r>
       <r>   -16.6600     0.0000     0.0000 </r>
       <r>   -16.6500     0.0000     0.0000 </r>
       <r>   -16.6400     0.0000     0.0000 </r>
       <r>   -16.6300     0.0000     0.0000 </r>
       <r>   -16.6200     0.0000     0.0000 </r>
       <r>   -16.6100     0.0000     0.0000 </r>
       <r>   -16.6000     0.0000     0.0000 </r>
       <r>   -16.5900     0.0000     0.0000 </r>
       <r>   -16.5800     0.0000     0.0000 </r>
       <r>   -16.5700     0.0000     0.0000 </r>
       <r>   -16.5600     0.0000     0.0000 </r>
       <r>   -16.5500     0.0000     0.0000 </r>
       <r>   -16.5400     0.0000     0.0000 </r>
       <r>   -16.5300     0.0000     0.0000 </r>
       <r>   -16.5200     0.0000     0.0000 </r>
       <r>   -16.5100     0.0000     0.0000 </r>
       <r>   -16.5000     0.0000     0.0000 </r>
       <r>   -16.4900     0.0000     0.0000 </r>
       <r>   -16.4800     0.0000     0.0000 </r>
       <r>   -16.4700     0.0000     0.0000 </r>
       <r>   -16.4600     0.0000     0.0000 </r>
       <r>   -16.4500     0.0000     0.0000 </r>
       <r>   -16.4400     0.0000     0.0000 </r>
       <r>   -16.4300     0.0000     0.0000 </r>
       <r>   -16.4200     0.0000     0.0000 </r>
       <r>   -16.4100     0.0000     0.0000 </r>
       <r>   -16.4000     0.0000     0.0000 </r>
       <r>   -16.3900     0.0000     0.0000 </r>
       <r>   -16.3800     0.0000     0.0000 </r>
       <r>   -16.3700     0.0000     0.0000 </r>
       <r>   -16.3600     0.0000     0.0000 </r>
       <r>   -16.3500     0.0000     0.0000 </r>
       <r>   -16.3400     0.0000     0.0000 </r>
       <r>   -16.3300     0.0000     0.0000 </r>
       <r>   -16.3200     0.0000     0.0000 </r>
       <r>   -16.3100     0.0000     0.0000 </r>
       <r>   -16.3000     0.0000     0.0000 </r>
       <r>   -16.2900     0.0000     0.0000 </r>
       <r>   -16.2800     0.0000     0.0000 </r>
       <r>   -16.2700     0.0000     0.0000 </r>
       <r>   -16.2600     0.0000     0.0000 </r>
       <r>   -16.2500     0.0000     0.0000 </r>
       <r>   -16.2400     0.0000     0.0000 </r>
       <r>   -16.2300     0.0000     0.0000 </r>
       <r>   -16.2200     0.0000     0.0000 </r>
       <r>   -16.2100     0.0000     0.0000 </r>
       <r>   -16.2000     0.0000     0.0000 </r>
       <r>   -16.1900     0.0000     0.0000 </r>
       <r>   -16.1800     0.0000     0.0000 </r>
       <r>   -16.1700     0.0000     0.0000 </r>
       <r>   -16.1600     0.0000     0.0000 </r>
       <r>   -16.1500     0.0000     0.0000 </r>
       <r>   -16.1400     0.0000     0.0000 </r>
       <r>   -16.1300     0.0000     0.0000 </r>
       <r>   -16.1200     0.0000     0.0000 </r>
       <r>   -16.1100     0.0000     0.0000 </r>
       <r>   -16.1000     0.0000     0.0000 </r>
       <r>   -16.0900     0.0000     0.0000 </r>
       <r>   -16.0800     0.0000     0.0000 </r>
       <r>   -16.0700     0.0000     0.0000 </r>
       <r>   -16.0600     0.0000     0.0000 </r>
       <r>   -16.0500     0.0000     0.0000 </r>
       <r>   -16.0400     0.0000     0.0000 </r>
       <r>   -16.0300     0.0000     0.0000 </r>
       <r>   -16.0200     0.0000     0.0000 </r>
       <r>   -16.0100     0.0000     0.0000 </r>
       <r>   -16.0000     0.0000     0.0000 </r>
       <r>   -15.9900     0.0000     0.0000 </r>
       <r>   -15.9800     0.0000     0.0000 </r>
       <r>   -15.9700     0.0000     0.0000 </r>
       <r>   -15.9600     0.0000     0.0000 </r>
       <r>   -15.9500     0.0000     0.0000 </r>
       <r>   -15.9400     0.0000     0.0000 </r>
       <r>   -15.9300     0.0000     0.0000 </r>
       <r>   -15.9200     0.0000     0.0000 </r>
       <r>   -15.9100     0.0000     0.0000 </r>
       <r>   -15.9000     0.0000     0.0000 </r>
       <r>   -15.8900     0.0000     0.0000 </r>
       <r>   -15.8800     0.0000     0.0000 </r>
       <r>   -15.8700     0.0000     0.0000 </r>
       <r>   -15.8600     0.0000     0.0000 </r>
       <r>   -15.8500     0.0000     0.0000 </r>
       <r>   -15.8400     0.0000     0.0000 </r>
       <r>   -15.8300     0.0000     0.0000 </r>
       <r>   -15.8200     0.0000     0.0000 </r>
       <r>   -15.8100     0.0000     0.0000 </r>
       <r>   -15.8000     0.0000     0.0000 </r>
       <r>   -15.7900     0.0000     0.0000 </r>
       <r>   -15.7800     0.0000     0.0000 </r>
       <r>   -15.7700     0.0000     0.0000 </r>
       <r>   -15.7600     0.0000     0.0000 </r>
       <r>   -15.7500     0.0000     0.0000 </r>
       <r>   -15.7400     0.0000     0.0000 </r>
       <r>   -15.7300     0.0000     0.0000 </r>
       <r>   -15.7200     0.0000     0.0000 </r>
       <r>   -15.7100     0.0000     0.0000 </r>
       <r>   -15.7000     0.0000     0.0000 </r>
       <r>   -15.6900     0.0000     0.0000 </r>
       <r>   -15.6800     0.0000     0.0000 </r>
       <r>   -15.6700     0.0000     0.0000 </r>
       <r>   -15.6600     0.0000     0.0000 </r>
       <r>   -15.6500     0.0000     0.0000 </r>
       <r>   -15.6400     0.0000     0.0000 </r>
       <r>   -15.6300     0.0000     0.0000 </r>
       <r>   -15.6200     0.0000     0.0000 </r>
       <r>   -15.6100     0.0000     0.0000 </r>
       <r>   -15.6000     0.0000     0.0000 </r>
       <r>   -15.5900     0.0000     0.0000 </r>
       <r>   -15.5800     0.0000     0.0000 </r>
       <r>   -15.5700     0.0000     0.0000 </r>
       <r>   -15.5600     0.0000     0.0000 </r>
       <r>   -15.5500     0.0000     0.0000 </r>
       <r>   -15.5400     0.0000     0.0000 </r>
       <r>   -15.5300     0.0000     0.0000 </r>
       <r>   -15.5200     0.0000     0.0000 </r>
       <r>   -15.5100     0.0000     0.0000 </r>
       <r>   -15.5000     0.0000     0.0000 </r>
       <r>   -15.4900     0.0000     0.0000 </r>
       <r>   -15.4800     0.0000     0.0000 </r>
       <r>   -15.4700     0.0000     0.0000 </r>
       <r>   -15.4600     0.0000     0.0000 </r>
       <r>   -15.4500     0.0000     0.0000 </r>
       <r>   -15.4400     0.0000     0.0000 </r>
       <r>   -15.4300     0.0000     0.0000 </r>
       <r>   -15.4200     0.0000     0.0000 </r>
       <r>   -15.4100     0.0000     0.0000 </r>
       <r>   -15.4000     0.0000     0.0000 </r>
       <r>   -15.3900     0.0000     0.0000 </r>
       <r>   -15.3800     0.0000     0.0000 </r>
       <r>   -15.3700     0.0000     0.0000 </r>
       <r>   -15.3600     0.0000     0.0000 </r>
       <r>   -15.3500     0.0000     0.0000 </r>
       <r>   -15.3400     0.0000     0.0000 </r>
       <r>   -15.3300     0.0000     0.0000 </r>
       <r>   -15.3200     0.0000     0.0000 </r>
       <r>   -15.3100     0.0000     0.0000 </r>
       <r>   -15.3000     0.0000     0.0000 </r>
       <r>   -15.2900     0.0000     0.0000 </r>
       <r>   -15.2800     0.0000     0.0000 </r>
       <r>   -15.2700     0.0000     0.0000 </r>
       <r>   -15.2600     0.0000     0.0000 </r>
       <r>   -15.2500     0.0000     0.0000 </r>
       <r>   -15.2400     0.0000     0.0000 </r>
       <r>   -15.2300     0.0000     0.0000 </r>
       <r>   -15.2200     0.0000     0.0000 </r>
       <r>   -15.2100     0.0000     0.0000 </r>
       <r>   -15.2000     0.0000     0.0000 </r>
       <r>   -15.1900     0.0000     0.0000 </r>
       <r>   -15.1800     0.0000     0.0000 </r>
       <r>   -15.1700     0.0000     0.0000 </r>
       <r>   -15.1600     0.0000     0.0000 </r>
       <r>   -15.1500     0.0000     0.0000 </r>
       <r>   -15.1400     0.0000     0.0000 </r>
       <r>   -15.1300     0.0000     0.0000 </r>
       <r>   -15.1200     0.0000     0.0000 </r>
       <r>   -15.1100     0.0000     0.0000 </r>
       <r>   -15.1000     0.0000     0.0000 </r>
       <r>   -15.0900     0.0000     0.0000 </r>
       <r>   -15.0800     0.0000     0.0000 </r>
       <r>   -15.0700     0.0000     0.0000 </r>
       <r>   -15.0600     0.0000     0.0000 </r>
       <r>   -15.0500     0.0000     0.0000 </r>
       <r>   -15.0400     0.0000     0.0000 </r>
       <r>   -15.0300     0.0000     0.0000 </r>
       <r>   -15.0200     0.0000     0.0000 </r>
       <r>   -15.0100     0.0000     0.0000 </r>
       <r>   -15.0000     0.0000     0.0000 </r>
       <r>   -14.9900     0.0000     0.0000 </r>
       <r>   -14.9800     0.0000     0.0000 </r>
       <r>   -14.9700     0.0000     0.0000 </r>
       <r>   -14.9600     0.0000     0.0000 </r>
       <r>   -14.9500     0.0000     0.0000 </r>
       <r>   -14.9400     0.0000     0.0000 </r>
       <r>   -14.9300     0.0000     0.0000 </r>
       <r>   -14.9200     0.0000     0.0000 </r>
       <r>   -14.9100     0.0000     0.0000 </r>
       <r>   -14.9000     0.0000     0.0000 </r>
       <r>   -14.8900     0.0000     0.0000 </r>
       <r>   -14.8800     0.0000     0.0000 </r>
       <r>   -14.8700     0.0000     0.0000 </r>
       <r>   -14.8600     0.0000     0.0000 </r>
       <r>   -14.8500     0.0000     0.0000 </r>
       <r>   -14.8400     0.0000     0.0000 </r>
       <r>   -14.8300     0.0000     0.0000 </r>
       <r>   -14.8200     0.0000     0.0000 </r>
       <r>   -14.8100     0.0000     0.0000 </r>
       <r>   -14.8000     0.0000     0.0000 </r>
       <r>   -14.7900     0.0000     0.0000 </r>
       <r>   -14.7800     0.0000     0.0000 </r>
       <r>   -14.7700     0.0000     0.0000 </r>
       <r>   -14.7600     0.0000     0.0000 </r>
       <r>   -14.7500     0.0000     0.0000 </r>
       <r>   -14.7400     0.0000     0.0000 </r>
       <r>   -14.7300     0.0000     0.0000 </r>
       <r>   -14.7200     0.0000     0.0000 </r>
       <r>   -14.7100     0.0000     0.0000 </r>
       <r>   -14.7000     0.0000     0.0000 </r>
       <r>   -14.6900     0.0000     0.0000 </r>
       <r>   -14.6800     0.0000     0.0000 </r>
       <r>   -14.6700     0.0000     0.0000 </r>
       <r>   -14.6600     0.0000     0.0000 </r>
       <r>   -14.6500     0.0000     0.0000 </r>
       <r>   -14.6400     0.0000     0.0000 </r>
       <r>   -14.6300     0.0000     0.0000 </r>
       <r>   -14.6200     0.0000     0.0000 </r>
       <r>   -14.6100     0.0000     0.0000 </r>
       <r>   -14.6000     0.0000     0.0000 </r>
       <r>   -14.5900     0.0000     0.0000 </r>
       <r>   -14.5800     0.0000     0.0000 </r>
       <r>   -14.5700     0.0000     0.0000 </r>
       <r>   -14.5600     0.0000     0.0000 </r>
       <r>   -14.5500     0.0000     0.0000 </r>
       <r>   -14.5400     0.0000     0.0000 </r>
       <r>   -14.5300     0.0000     0.0000 </r>
       <r>   -14.5200     0.0000     0.0000 </r>
       <r>   -14.5100     0.0000     0.0000 </r>
       <r>   -14.5000     0.0000     0.0000 </r>
       <r>   -14.4900     0.0000     0.0000 </r>
       <r>   -14.4800     0.0000     0.0000 </r>
       <r>   -14.4700     0.0000     0.0000 </r>
       <r>   -14.4600     0.0000     0.0000 </r>
       <r>   -14.4500     0.0000     0.0000 </r>
       <r>   -14.4400     0.0000     0.0000 </r>
       <r>   -14.4300     0.0000     0.0000 </r>
       <r>   -14.4200     0.0000     0.0000 </r>
       <r>   -14.4100     0.0000     0.0000 </r>
       <r>   -14.4000     0.0000     0.0000 </r>
       <r>   -14.3900     0.0000     0.0000 </r>
       <r>   -14.3800     0.0000     0.0000 </r>
       <r>   -14.3700     0.0000     0.0000 </r>
       <r>   -14.3600     0.0000     0.0000 </r>
       <r>   -14.3500     0.0000     0.0000 </r>
       <r>   -14.3400     0.0000     0.0000 </r>
       <r>   -14.3300     0.0000     0.0000 </r>
       <r>   -14.3200     0.0000     0.0000 </r>
       <r>   -14.3100     0.0000     0.0000 </r>
       <r>   -14.3000     0.0000     0.0000 </r>
       <r>   -14.2900     0.0000     0.0000 </r>
       <r>   -14.2800     0.0000     0.0000 </r>
       <r>   -14.2700     0.0000     0.0000 </r>
       <r>   -14.2600     0.0000     0.0000 </r>
       <r>   -14.2500     0.0000     0.0000 </r>
       <r>   -14.2400     0.0000     0.0000 </r>
       <r>   -14.2300     0.0000     0.0000 </r>
       <r>   -14.2200     0.0000     0.0000 </r>
       <r>   -14.2100     0.0000     0.0000 </r>
       <r>   -14.2000     0.0000     0.0000 </r>
       <r>   -14.1900     0.0000     0.0000 </r>
       <r>   -14.1800     0.0000     0.0000 </r>
       <r>   -14.1700     0.0000     0.0000 </r>
       <r>   -14.1600     0.0000     0.0000 </r>
       <r>   -14.1500     0.0000     0.0000 </r>
       <r>   -14.1400     0.0000     0.0000 </r>
       <r>   -14.1300     0.0000     0.0000 </r>
       <r>   -14.1200     0.0000     0.0000 </r>
       <r>   -14.1100     0.0000     0.0000 </r>
       <r>   -14.1000     0.0000     0.0000 </r>
       <r>   -14.0900     0.0000     0.0000 </r>
       <r>   -14.0800     0.0000     0.0000 </r>
       <r>   -14.0700     0.0000     0.0000 </r>
       <r>   -14.0600     0.0000     0.0000 </r>
       <r>   -14.0500     0.0000     0.0000 </r>
       <r>   -14.0400     0.0000     0.0000 </r>
       <r>   -14.0300     0.0000     0.0000 </r>
       <r>   -14.0200     0.0000     0.0000 </r>
       <r>   -14.0100     0.0000     0.0000 </r>
       <r>   -14.0000     0.0000     0.0000 </r>
       <r>   -13.9900     0.0000     0.0000 </r>
       <r>   -13.9800     0.0000     0.0000 </r>
       <r>   -13.9700     0.0000     0.0000 </r>
       <r>   -13.9600     0.0000     0.0000 </r>
       <r>   -13.9500     0.0000     0.0000 </r>
       <r>   -13.9400     0.0000     0.0000 </r>
       <r>   -13.9300     0.0000     0.0000 </r>
       <r>   -13.9200     0.0000     0.0000 </r>
       <r>   -13.9100     0.0000     0.0000 </r>
       <r>   -13.9000     0.0000     0.0000 </r>
       <r>   -13.8900     0.0000     0.0000 </r>
       <r>   -13.8800     0.0000     0.0000 </r>
       <r>   -13.8700     0.0000     0.0000 </r>
       <r>   -13.8600     0.0000     0.0000 </r>
       <r>   -13.8500     0.0000     0.0000 </r>
       <r>   -13.8400     0.0000     0.0000 </r>
       <r>   -13.8300     0.0000     0.0000 </r>
       <r>   -13.8200     0.0000     0.0000 </r>
       <r>   -13.8100     0.0000     0.0000 </r>
       <r>   -13.8000     0.0000     0.0000 </r>
       <r>   -13.7900     0.0000     0.0000 </r>
       <r>   -13.7800     0.0000     0.0000 </r>
       <r>   -13.7700     0.0000     0.0000 </r>
       <r>   -13.7600     0.0000     0.0000 </r>
       <r>   -13.7500     0.0000     0.0000 </r>
       <r>   -13.7400     0.0000     0.0000 </r>
       <r>   -13.7300     0.0000     0.0000 </r>
       <r>   -13.7200     0.0000     0.0000 </r>
       <r>   -13.7100     0.0000     0.0000 </r>
       <r>   -13.7000     0.0000     0.0000 </r>
       <r>   -13.6900     0.0000     0.0000 </r>
       <r>   -13.6800     0.0000     0.0000 </r>
       <r>   -13.6700     0.0000     0.0000 </r>
       <r>   -13.6600     0.0000     0.0000 </r>
       <r>   -13.6500     0.0000     0.0000 </r>
       <r>   -13.6400     0.0000     0.0000 </r>
       <r>   -13.6300     0.0000     0.0000 </r>
       <r>   -13.6200     0.0000     0.0000 </r>
       <r>   -13.6100     0.0000     0.0000 </r>
       <r>   -13.6000     0.0000     0.0000 </r>
       <r>   -13.5900     0.0000     0.0000 </r>
       <r>   -13.5800     0.0000     0.0000 </r>
       <r>   -13.5700     0.0000     0.0000 </r>
       <r>   -13.5600     0.0000     0.0000 </r>
       <r>   -13.5500     0.0000     0.0000 </r>
       <r>   -13.5400     0.0000     0.0000 </r>
       <r>   -13.5300     0.0000     0.0000 </r>
       <r>   -13.5200     0.0000     0.0000 </r>
       <r>   -13.5100     0.0000     0.0000 </r>
       <r>   -13.5000     0.0000     0.0000 </r>
       <r>   -13.4900     0.0000     0.0000 </r>
       <r>   -13.4800     0.0000     0.0000 </r>
       <r>   -13.4700     0.0000     0.0000 </r>
       <r>   -13.4600     0.0000     0.0000 </r>
       <r>   -13.4500     0.0000     0.0000 </r>
       <r>   -13.4400     0.0000     0.0000 </r>
       <r>   -13.4300     0.0000     0.0000 </r>
       <r>   -13.4200     0.0000     0.0000 </r>
       <r>   -13.4100     0.0000     0.0000 </r>
       <r>   -13.4000     0.0000     0.0000 </r>
       <r>   -13.3900     0.0000     0.0000 </r>
       <r>   -13.3800     0.0000     0.0000 </r>
       <r>   -13.3700     0.0000     0.0000 </r>
       <r>   -13.3600     0.0000     0.0000 </r>
       <r>   -13.3500     0.0000     0.0000 </r>
       <r>   -13.3400     0.0000     0.0000 </r>
       <r>   -13.3300     0.0000     0.0000 </r>
       <r>   -13.3200     0.0000     0.0000 </r>
       <r>   -13.3100     0.0000     0.0000 </r>
       <r>   -13.3000     0.0000     0.0000 </r>
       <r>   -13.2900     0.0000     0.0000 </r>
       <r>   -13.2800     0.0000     0.0000 </r>
       <r>   -13.2700     0.0000     0.0000 </r>
       <r>   -13.2600     0.0000     0.0000 </r>
       <r>   -13.2500     0.0000     0.0000 </r>
       <r>   -13.2400     0.0000     0.0000 </r>
       <r>   -13.2300     0.0000     0.0000 </r>
       <r>   -13.2200     0.0000     0.0000 </r>
       <r>   -13.2100     0.0000     0.0000 </r>
       <r>   -13.2000     0.0000     0.0000 </r>
       <r>   -13.1900     0.0000     0.0000 </r>
       <r>   -13.1800     0.0000     0.0000 </r>
       <r>   -13.1700     0.0000     0.0000 </r>
       <r>   -13.1600     0.0000     0.0000 </r>
       <r>   -13.1500     0.0000     0.0000 </r>
       <r>   -13.1400     0.0000     0.0000 </r>
       <r>   -13.1300     0.0000     0.0000 </r>
       <r>   -13.1200     0.0000     0.0000 </r>
       <r>   -13.1100     0.0000     0.0000 </r>
       <r>   -13.1000     0.0000     0.0000 </r>
       <r>   -13.0900     0.0000     0.0000 </r>
       <r>   -13.0800     0.0000     0.0000 </r>
       <r>   -13.0700     0.0000     0.0000 </r>
       <r>   -13.0600     0.0000     0.0000 </r>
       <r>   -13.0500     0.0000     0.0000 </r>
       <r>   -13.0400     0.0000     0.0000 </r>
       <r>   -13.0300     0.0000     0.0000 </r>
       <r>   -13.0200     0.0000     0.0000 </r>
       <r>   -13.0100     0.0000     0.0000 </r>
       <r>   -13.0000     0.0000     0.0000 </r>
       <r>   -12.9900     0.0000     0.0000 </r>
       <r>   -12.9800     0.0000     0.0000 </r>
       <r>   -12.9700     0.0000     0.0000 </r>
       <r>   -12.9600     0.0000     0.0000 </r>
       <r>   -12.9500     0.0000     0.0000 </r>
       <r>   -12.9400     0.0000     0.0000 </r>
       <r>   -12.9300     0.0000     0.0000 </r>
       <r>   -12.9200     0.0000     0.0000 </r>
       <r>   -12.9100     0.0000     0.0000 </r>
       <r>   -12.9000     0.0000     0.0000 </r>
       <r>   -12.8900     0.0000     0.0000 </r>
       <r>   -12.8800     0.0000     0.0000 </r>
       <r>   -12.8700     0.0000     0.0000 </r>
       <r>   -12.8600     0.0000     0.0000 </r>
       <r>   -12.8500     0.0000     0.0000 </r>
       <r>   -12.8400     0.0000     0.0000 </r>
       <r>   -12.8300     0.0000     0.0000 </r>
       <r>   -12.8200     0.0000     0.0000 </r>
       <r>   -12.8100     0.0000     0.0000 </r>
       <r>   -12.8000     0.0000     0.0000 </r>
       <r>   -12.7900     0.0000     0.0000 </r>
       <r>   -12.7800     0.0000     0.0000 </r>
       <r>   -12.7700     0.0000     0.0000 </r>
       <r>   -12.7600     0.0000     0.0000 </r>
       <r>   -12.7500     0.0000     0.0000 </r>
       <r>   -12.7400     0.0000     0.0000 </r>
       <r>   -12.7300     0.0000     0.0000 </r>
       <r>   -12.7200     0.0000     0.0000 </r>
       <r>   -12.7100     0.0000     0.0000 </r>
       <r>   -12.7000     0.0000     0.0000 </r>
       <r>   -12.6900     0.0000     0.0000 </r>
       <r>   -12.6800     0.0000     0.0000 </r>
       <r>   -12.6700     0.0000     0.0000 </r>
       <r>   -12.6600     0.0000     0.0000 </r>
       <r>   -12.6500     0.0000     0.0000 </r>
       <r>   -12.6400     0.0000     0.0000 </r>
       <r>   -12.6300     0.0000     0.0000 </r>
       <r>   -12.6200     0.0000     0.0000 </r>
       <r>   -12.6100     0.0000     0.0000 </r>
       <r>   -12.6000     0.0000     0.0000 </r>
       <r>   -12.5900     0.0000     0.0000 </r>
       <r>   -12.5800     0.0000     0.0000 </r>
       <r>   -12.5700     0.0000     0.0000 </r>
       <r>   -12.5600     0.0000     0.0000 </r>
       <r>   -12.5500     0.0000     0.0000 </r>
       <r>   -12.5400     0.0000     0.0000 </r>
       <r>   -12.5300     0.0000     0.0000 </r>
       <r>   -12.5200     0.0000     0.0000 </r>
       <r>   -12.5100     0.0000     0.0000 </r>
       <r>   -12.5000     0.0000     0.0000 </r>
       <r>   -12.4900     0.0000     0.0000 </r>
       <r>   -12.4800     0.0000     0.0000 </r>
       <r>   -12.4700     0.0000     0.0000 </r>
       <r>   -12.4600     0.0000     0.0000 </r>
       <r>   -12.4500     0.0000     0.0000 </r>
       <r>   -12.4400     0.0000     0.0000 </r>
       <r>   -12.4300     0.0000     0.0000 </r>
       <r>   -12.4200     0.0000     0.0000 </r>
       <r>   -12.4100     0.0000     0.0000 </r>
       <r>   -12.4000     0.0000     0.0000 </r>
       <r>   -12.3900     0.0000     0.0000 </r>
       <r>   -12.3800     0.0000     0.0000 </r>
       <r>   -12.3700     0.0000     0.0000 </r>
       <r>   -12.3600     0.0000     0.0000 </r>
       <r>   -12.3500     0.0000     0.0000 </r>
       <r>   -12.3400     0.0000     0.0000 </r>
       <r>   -12.3300     0.0000     0.0000 </r>
       <r>   -12.3200     0.0000     0.0000 </r>
       <r>   -12.3100     0.0000     0.0000 </r>
       <r>   -12.3000     0.0000     0.0000 </r>
       <r>   -12.2900     0.0000     0.0000 </r>
       <r>   -12.2800     0.0000     0.0000 </r>
       <r>   -12.2700     0.0000     0.0000 </r>
       <r>   -12.2600     0.0000     0.0000 </r>
       <r>   -12.2500     0.0000     0.0000 </r>
       <r>   -12.2400     0.0000     0.0000 </r>
       <r>   -12.2300     0.0000     0.0000 </r>
       <r>   -12.2200     0.0000     0.0000 </r>
       <r>   -12.2100     0.0000     0.0000 </r>
       <r>   -12.2000     0.0000     0.0000 </r>
       <r>   -12.1900     0.0000     0.0000 </r>
       <r>   -12.1800     0.0000     0.0000 </r>
       <r>   -12.1700     0.0000     0.0000 </r>
       <r>   -12.1600     0.0000     0.0000 </r>
       <r>   -12.1500     0.0000     0.0000 </r>
       <r>   -12.1400     0.0000     0.0000 </r>
       <r>   -12.1300     0.0000     0.0000 </r>
       <r>   -12.1200     0.0000     0.0000 </r>
       <r>   -12.1100     0.0000     0.0000 </r>
       <r>   -12.1000     0.0000     0.0000 </r>
       <r>   -12.0900     0.0000     0.0000 </r>
       <r>   -12.0800     0.0000     0.0000 </r>
       <r>   -12.0700     0.0000     0.0000 </r>
       <r>   -12.0600     0.0000     0.0000 </r>
       <r>   -12.0500     0.0000     0.0000 </r>
       <r>   -12.0400     0.0000     0.0000 </r>
       <r>   -12.0300     0.0000     0.0000 </r>
       <r>   -12.0200     0.0000     0.0000 </r>
       <r>   -12.0100     0.0000     0.0000 </r>
       <r>   -12.0000     0.0000     0.0000 </r>
       <r>   -11.9900     0.0000     0.0000 </r>
       <r>   -11.9800     0.0000     0.0000 </r>
       <r>   -11.9700     0.0000     0.0000 </r>
       <r>   -11.9600     0.0000     0.0000 </r>
       <r>   -11.9500     0.0000     0.0000 </r>
       <r>   -11.9400     0.0000     0.0000 </r>
       <r>   -11.9300     0.0000     0.0000 </r>
       <r>   -11.9200     0.0000     0.0000 </r>
       <r>   -11.9100     0.0000     0.0000 </r>
       <r>   -11.9000     0.0000     0.0000 </r>
       <r>   -11.8900     0.0000     0.0000 </r>
       <r>   -11.8800     0.0000     0.0000 </r>
       <r>   -11.8700     0.0000     0.0000 </r>
       <r>   -11.8600     0.0000     0.0000 </r>
       <r>   -11.8500     0.0000     0.0000 </r>
       <r>   -11.8400     0.0000     0.0000 </r>
       <r>   -11.8300     0.0000     0.0000 </r>
       <r>   -11.8200     0.0000     0.0000 </r>
       <r>   -11.8100     0.0000     0.0000 </r>
       <r>   -11.8000     0.0000     0.0000 </r>
       <r>   -11.7900     0.0000     0.0000 </r>
       <r>   -11.7800     0.0000     0.0000 </r>
       <r>   -11.7700     0.0000     0.0000 </r>
       <r>   -11.7600     0.0000     0.0000 </r>
       <r>   -11.7500     0.0000     0.0000 </r>
       <r>   -11.7400     0.0000     0.0000 </r>
       <r>   -11.7300     0.0000     0.0000 </r>
       <r>   -11.7200     0.0001     0.0000 </r>
       <r>   -11.7100     0.0001     0.0000 </r>
       <r>   -11.7000     0.0002     0.0000 </r>
       <r>   -11.6900     0.0003     0.0000 </r>
       <r>   -11.6800     0.0005     0.0000 </r>
       <r>   -11.6700     0.0009     0.0000 </r>
       <r>   -11.6600     0.0014     0.0000 </r>
       <r>   -11.6500     0.0023     0.0001 </r>
       <r>   -11.6400     0.0036     0.0001 </r>
       <r>   -11.6300     0.0055     0.0002 </r>
       <r>   -11.6200     0.0083     0.0002 </r>
       <r>   -11.6100     0.0123     0.0004 </r>
       <r>   -11.6000     0.0178     0.0005 </r>
       <r>   -11.5900     0.0253     0.0008 </r>
       <r>   -11.5800     0.0352     0.0011 </r>
       <r>   -11.5700     0.0479     0.0016 </r>
       <r>   -11.5600     0.0640     0.0023 </r>
       <r>   -11.5500     0.0839     0.0031 </r>
       <r>   -11.5400     0.1078     0.0042 </r>
       <r>   -11.5300     0.1359     0.0055 </r>
       <r>   -11.5200     0.1679     0.0072 </r>
       <r>   -11.5100     0.2037     0.0093 </r>
       <r>   -11.5000     0.2425     0.0117 </r>
       <r>   -11.4900     0.2835     0.0145 </r>
       <r>   -11.4800     0.3257     0.0178 </r>
       <r>   -11.4700     0.3680     0.0214 </r>
       <r>   -11.4600     0.4097     0.0255 </r>
       <r>   -11.4500     0.4499     0.0300 </r>
       <r>   -11.4400     0.4884     0.0349 </r>
       <r>   -11.4300     0.5255     0.0402 </r>
       <r>   -11.4200     0.5623     0.0458 </r>
       <r>   -11.4100     0.6003     0.0518 </r>
       <r>   -11.4000     0.6417     0.0582 </r>
       <r>   -11.3900     0.6890     0.0651 </r>
       <r>   -11.3800     0.7448     0.0726 </r>
       <r>   -11.3700     0.8114     0.0807 </r>
       <r>   -11.3600     0.8906     0.0896 </r>
       <r>   -11.3500     0.9830     0.0994 </r>
       <r>   -11.3400     1.0881     0.1103 </r>
       <r>   -11.3300     1.2039     0.1223 </r>
       <r>   -11.3200     1.3270     0.1356 </r>
       <r>   -11.3100     1.4527     0.1501 </r>
       <r>   -11.3000     1.5755     0.1659 </r>
       <r>   -11.2900     1.6897     0.1828 </r>
       <r>   -11.2800     1.7898     0.2007 </r>
       <r>   -11.2700     1.8712     0.2194 </r>
       <r>   -11.2600     1.9309     0.2387 </r>
       <r>   -11.2500     1.9678     0.2584 </r>
       <r>   -11.2400     1.9828     0.2782 </r>
       <r>   -11.2300     1.9791     0.2980 </r>
       <r>   -11.2200     1.9611     0.3176 </r>
       <r>   -11.2100     1.9349     0.3370 </r>
       <r>   -11.2000     1.9067     0.3560 </r>
       <r>   -11.1900     1.8822     0.3748 </r>
       <r>   -11.1800     1.8662     0.3935 </r>
       <r>   -11.1700     1.8615     0.4121 </r>
       <r>   -11.1600     1.8689     0.4308 </r>
       <r>   -11.1500     1.8867     0.4497 </r>
       <r>   -11.1400     1.9112     0.4688 </r>
       <r>   -11.1300     1.9373     0.4882 </r>
       <r>   -11.1200     1.9585     0.5077 </r>
       <r>   -11.1100     1.9683     0.5274 </r>
       <r>   -11.1000     1.9607     0.5470 </r>
       <r>   -11.0900     1.9312     0.5664 </r>
       <r>   -11.0800     1.8768     0.5851 </r>
       <r>   -11.0700     1.7967     0.6031 </r>
       <r>   -11.0600     1.6922     0.6200 </r>
       <r>   -11.0500     1.5665     0.6357 </r>
       <r>   -11.0400     1.4245     0.6499 </r>
       <r>   -11.0300     1.2719     0.6626 </r>
       <r>   -11.0200     1.1148     0.6738 </r>
       <r>   -11.0100     0.9592     0.6834 </r>
       <r>   -11.0000     0.8107     0.6915 </r>
       <r>   -10.9900     0.6739     0.6982 </r>
       <r>   -10.9800     0.5524     0.7037 </r>
       <r>   -10.9700     0.4486     0.7082 </r>
       <r>   -10.9600     0.3643     0.7119 </r>
       <r>   -10.9500     0.3003     0.7149 </r>
       <r>   -10.9400     0.2569     0.7174 </r>
       <r>   -10.9300     0.2343     0.7198 </r>
       <r>   -10.9200     0.2325     0.7221 </r>
       <r>   -10.9100     0.2515     0.7246 </r>
       <r>   -10.9000     0.2914     0.7275 </r>
       <r>   -10.8900     0.3522     0.7311 </r>
       <r>   -10.8800     0.4337     0.7354 </r>
       <r>   -10.8700     0.5354     0.7408 </r>
       <r>   -10.8600     0.6560     0.7473 </r>
       <r>   -10.8500     0.7937     0.7553 </r>
       <r>   -10.8400     0.9456     0.7647 </r>
       <r>   -10.8300     1.1080     0.7758 </r>
       <r>   -10.8200     1.2767     0.7886 </r>
       <r>   -10.8100     1.4470     0.8030 </r>
       <r>   -10.8000     1.6143     0.8192 </r>
       <r>   -10.7900     1.7744     0.8369 </r>
       <r>   -10.7800     1.9246     0.8562 </r>
       <r>   -10.7700     2.0633     0.8768 </r>
       <r>   -10.7600     2.1908     0.8987 </r>
       <r>   -10.7500     2.3093     0.9218 </r>
       <r>   -10.7400     2.4223     0.9460 </r>
       <r>   -10.7300     2.5345     0.9714 </r>
       <r>   -10.7200     2.6507     0.9979 </r>
       <r>   -10.7100     2.7749     1.0256 </r>
       <r>   -10.7000     2.9097     1.0547 </r>
       <r>   -10.6900     3.0553     1.0853 </r>
       <r>   -10.6800     3.2090     1.1174 </r>
       <r>   -10.6700     3.3652     1.1510 </r>
       <r>   -10.6600     3.5154     1.1862 </r>
       <r>   -10.6500     3.6495     1.2227 </r>
       <r>   -10.6400     3.7560     1.2602 </r>
       <r>   -10.6300     3.8241     1.2985 </r>
       <r>   -10.6200     3.8443     1.3369 </r>
       <r>   -10.6100     3.8097     1.3750 </r>
       <r>   -10.6000     3.7171     1.4122 </r>
       <r>   -10.5900     3.5669     1.4478 </r>
       <r>   -10.5800     3.3638     1.4815 </r>
       <r>   -10.5700     3.1155     1.5126 </r>
       <r>   -10.5600     2.8326     1.5410 </r>
       <r>   -10.5500     2.5272     1.5662 </r>
       <r>   -10.5400     2.2120     1.5884 </r>
       <r>   -10.5300     1.8990     1.6073 </r>
       <r>   -10.5200     1.5989     1.6233 </r>
       <r>   -10.5100     1.3200     1.6365 </r>
       <r>   -10.5000     1.0685     1.6472 </r>
       <r>   -10.4900     0.8481     1.6557 </r>
       <r>   -10.4800     0.6601     1.6623 </r>
       <r>   -10.4700     0.5039     1.6673 </r>
       <r>   -10.4600     0.3776     1.6711 </r>
       <r>   -10.4500     0.2781     1.6739 </r>
       <r>   -10.4400     0.2020     1.6759 </r>
       <r>   -10.4300     0.1459     1.6774 </r>
       <r>   -10.4200     0.1065     1.6784 </r>
       <r>   -10.4100     0.0811     1.6792 </r>
       <r>   -10.4000     0.0675     1.6799 </r>
       <r>   -10.3900     0.0645     1.6806 </r>
       <r>   -10.3800     0.0714     1.6813 </r>
       <r>   -10.3700     0.0882     1.6822 </r>
       <r>   -10.3600     0.1155     1.6833 </r>
       <r>   -10.3500     0.1545     1.6849 </r>
       <r>   -10.3400     0.2064     1.6869 </r>
       <r>   -10.3300     0.2727     1.6897 </r>
       <r>   -10.3200     0.3544     1.6932 </r>
       <r>   -10.3100     0.4523     1.6977 </r>
       <r>   -10.3000     0.5662     1.7034 </r>
       <r>   -10.2900     0.6950     1.7103 </r>
       <r>   -10.2800     0.8363     1.7187 </r>
       <r>   -10.2700     0.9866     1.7286 </r>
       <r>   -10.2600     1.1409     1.7400 </r>
       <r>   -10.2500     1.2933     1.7529 </r>
       <r>   -10.2400     1.4372     1.7673 </r>
       <r>   -10.2300     1.5657     1.7829 </r>
       <r>   -10.2200     1.6722     1.7997 </r>
       <r>   -10.2100     1.7511     1.8172 </r>
       <r>   -10.2000     1.7981     1.8351 </r>
       <r>   -10.1900     1.8111     1.8533 </r>
       <r>   -10.1800     1.7899     1.8712 </r>
       <r>   -10.1700     1.7367     1.8885 </r>
       <r>   -10.1600     1.6561     1.9051 </r>
       <r>   -10.1500     1.5542     1.9206 </r>
       <r>   -10.1400     1.4387     1.9350 </r>
       <r>   -10.1300     1.3184     1.9482 </r>
       <r>   -10.1200     1.2020     1.9602 </r>
       <r>   -10.1100     1.0982     1.9712 </r>
       <r>   -10.1000     1.0146     1.9813 </r>
       <r>   -10.0900     0.9578     1.9909 </r>
       <r>   -10.0800     0.9329     2.0003 </r>
       <r>   -10.0700     0.9431     2.0097 </r>
       <r>   -10.0600     0.9901     2.0196 </r>
       <r>   -10.0500     1.0738     2.0303 </r>
       <r>   -10.0400     1.1927     2.0423 </r>
       <r>   -10.0300     1.3439     2.0557 </r>
       <r>   -10.0200     1.5238     2.0709 </r>
       <r>   -10.0100     1.7279     2.0882 </r>
       <r>   -10.0000     1.9516     2.1077 </r>
       <r>    -9.9900     2.1902     2.1296 </r>
       <r>    -9.9800     2.4392     2.1540 </r>
       <r>    -9.9700     2.6946     2.1810 </r>
       <r>    -9.9600     2.9528     2.2105 </r>
       <r>    -9.9500     3.2100     2.2426 </r>
       <r>    -9.9400     3.4627     2.2772 </r>
       <r>    -9.9300     3.7072     2.3143 </r>
       <r>    -9.9200     3.9389     2.3537 </r>
       <r>    -9.9100     4.1528     2.3952 </r>
       <r>    -9.9000     4.3434     2.4386 </r>
       <r>    -9.8900     4.5051     2.4837 </r>
       <r>    -9.8800     4.6322     2.5300 </r>
       <r>    -9.8700     4.7204     2.5772 </r>
       <r>    -9.8600     4.7668     2.6249 </r>
       <r>    -9.8500     4.7707     2.6726 </r>
       <r>    -9.8400     4.7345     2.7199 </r>
       <r>    -9.8300     4.6630     2.7666 </r>
       <r>    -9.8200     4.5640     2.8122 </r>
       <r>    -9.8100     4.4469     2.8567 </r>
       <r>    -9.8000     4.3226     2.8999 </r>
       <r>    -9.7900     4.2019     2.9419 </r>
       <r>    -9.7800     4.0942     2.9829 </r>
       <r>    -9.7700     4.0071     3.0229 </r>
       <r>    -9.7600     3.9450     3.0624 </r>
       <r>    -9.7500     3.9092     3.1015 </r>
       <r>    -9.7400     3.8973     3.1404 </r>
       <r>    -9.7300     3.9041     3.1795 </r>
       <r>    -9.7200     3.9223     3.2187 </r>
       <r>    -9.7100     3.9433     3.2581 </r>
       <r>    -9.7000     3.9584     3.2977 </r>
       <r>    -9.6900     3.9598     3.3373 </r>
       <r>    -9.6800     3.9417     3.3767 </r>
       <r>    -9.6700     3.9006     3.4158 </r>
       <r>    -9.6600     3.8356     3.4541 </r>
       <r>    -9.6500     3.7483     3.4916 </r>
       <r>    -9.6400     3.6424     3.5280 </r>
       <r>    -9.6300     3.5231     3.5632 </r>
       <r>    -9.6200     3.3957     3.5972 </r>
       <r>    -9.6100     3.2656     3.6299 </r>
       <r>    -9.6000     3.1368     3.6612 </r>
       <r>    -9.5900     3.0122     3.6913 </r>
       <r>    -9.5800     2.8926     3.7203 </r>
       <r>    -9.5700     2.7777     3.7481 </r>
       <r>    -9.5600     2.6657     3.7747 </r>
       <r>    -9.5500     2.5544     3.8003 </r>
       <r>    -9.5400     2.4418     3.8247 </r>
       <r>    -9.5300     2.3265     3.8479 </r>
       <r>    -9.5200     2.2086     3.8700 </r>
       <r>    -9.5100     2.0897     3.8909 </r>
       <r>    -9.5000     1.9731     3.9107 </r>
       <r>    -9.4900     1.8638     3.9293 </r>
       <r>    -9.4800     1.7676     3.9470 </r>
       <r>    -9.4700     1.6913     3.9639 </r>
       <r>    -9.4600     1.6412     3.9803 </r>
       <r>    -9.4500     1.6233     3.9965 </r>
       <r>    -9.4400     1.6425     4.0129 </r>
       <r>    -9.4300     1.7022     4.0300 </r>
       <r>    -9.4200     1.8044     4.0480 </r>
       <r>    -9.4100     1.9500     4.0675 </r>
       <r>    -9.4000     2.1384     4.0889 </r>
       <r>    -9.3900     2.3684     4.1126 </r>
       <r>    -9.3800     2.6384     4.1390 </r>
       <r>    -9.3700     2.9463     4.1684 </r>
       <r>    -9.3600     3.2900     4.2013 </r>
       <r>    -9.3500     3.6666     4.2380 </r>
       <r>    -9.3400     4.0725     4.2787 </r>
       <r>    -9.3300     4.5029     4.3237 </r>
       <r>    -9.3200     4.9507     4.3733 </r>
       <r>    -9.3100     5.4064     4.4273 </r>
       <r>    -9.3000     5.8576     4.4859 </r>
       <r>    -9.2900     6.2894     4.5488 </r>
       <r>    -9.2800     6.6843     4.6156 </r>
       <r>    -9.2700     7.0240     4.6859 </r>
       <r>    -9.2600     7.2901     4.7588 </r>
       <r>    -9.2500     7.4658     4.8334 </r>
       <r>    -9.2400     7.5381     4.9088 </r>
       <r>    -9.2300     7.4987     4.9838 </r>
       <r>    -9.2200     7.3455     5.0573 </r>
       <r>    -9.2100     7.0831     5.1281 </r>
       <r>    -9.2000     6.7225     5.1953 </r>
       <r>    -9.1900     6.2810     5.2581 </r>
       <r>    -9.1800     5.7800     5.3159 </r>
       <r>    -9.1700     5.2442     5.3684 </r>
       <r>    -9.1600     4.6991     5.4154 </r>
       <r>    -9.1500     4.1693     5.4570 </r>
       <r>    -9.1400     3.6766     5.4938 </r>
       <r>    -9.1300     3.2390     5.5262 </r>
       <r>    -9.1200     2.8698     5.5549 </r>
       <r>    -9.1100     2.5768     5.5807 </r>
       <r>    -9.1000     2.3633     5.6043 </r>
       <r>    -9.0900     2.2278     5.6266 </r>
       <r>    -9.0800     2.1657     5.6482 </r>
       <r>    -9.0700     2.1697     5.6699 </r>
       <r>    -9.0600     2.2316     5.6922 </r>
       <r>    -9.0500     2.3427     5.7157 </r>
       <r>    -9.0400     2.4954     5.7406 </r>
       <r>    -9.0300     2.6829     5.7675 </r>
       <r>    -9.0200     2.9001     5.7965 </r>
       <r>    -9.0100     3.1430     5.8279 </r>
       <r>    -9.0000     3.4084     5.8620 </r>
       <r>    -8.9900     3.6931     5.8989 </r>
       <r>    -8.9800     3.9931     5.9388 </r>
       <r>    -8.9700     4.3024     5.9819 </r>
       <r>    -8.9600     4.6131     6.0280 </r>
       <r>    -8.9500     4.9146     6.0771 </r>
       <r>    -8.9400     5.1940     6.1291 </r>
       <r>    -8.9300     5.4369     6.1834 </r>
       <r>    -8.9200     5.6285     6.2397 </r>
       <r>    -8.9100     5.7550     6.2973 </r>
       <r>    -8.9000     5.8050     6.3553 </r>
       <r>    -8.8900     5.7712     6.4130 </r>
       <r>    -8.8800     5.6514     6.4696 </r>
       <r>    -8.8700     5.4489     6.5240 </r>
       <r>    -8.8600     5.1728     6.5758 </r>
       <r>    -8.8500     4.8376     6.6241 </r>
       <r>    -8.8400     4.4618     6.6688 </r>
       <r>    -8.8300     4.0665     6.7094 </r>
       <r>    -8.8200     3.6740     6.7462 </r>
       <r>    -8.8100     3.3061     6.7792 </r>
       <r>    -8.8000     2.9822     6.8091 </r>
       <r>    -8.7900     2.7181     6.8362 </r>
       <r>    -8.7800     2.5252     6.8615 </r>
       <r>    -8.7700     2.4096     6.8856 </r>
       <r>    -8.7600     2.3721     6.9093 </r>
       <r>    -8.7500     2.4080     6.9334 </r>
       <r>    -8.7400     2.5080     6.9585 </r>
       <r>    -8.7300     2.6583     6.9850 </r>
       <r>    -8.7200     2.8423     7.0135 </r>
       <r>    -8.7100     3.0411     7.0439 </r>
       <r>    -8.7000     3.2355     7.0762 </r>
       <r>    -8.6900     3.4070     7.1103 </r>
       <r>    -8.6800     3.5389     7.1457 </r>
       <r>    -8.6700     3.6183     7.1819 </r>
       <r>    -8.6600     3.6360     7.2182 </r>
       <r>    -8.6500     3.5878     7.2541 </r>
       <r>    -8.6400     3.4741     7.2889 </r>
       <r>    -8.6300     3.2998     7.3219 </r>
       <r>    -8.6200     3.0737     7.3526 </r>
       <r>    -8.6100     2.8074     7.3807 </r>
       <r>    -8.6000     2.5139     7.4058 </r>
       <r>    -8.5900     2.2070     7.4279 </r>
       <r>    -8.5800     1.8993     7.4469 </r>
       <r>    -8.5700     1.6024     7.4629 </r>
       <r>    -8.5600     1.3252     7.4761 </r>
       <r>    -8.5500     1.0743     7.4869 </r>
       <r>    -8.5400     0.8538     7.4954 </r>
       <r>    -8.5300     0.6651     7.5021 </r>
       <r>    -8.5200     0.5079     7.5072 </r>
       <r>    -8.5100     0.3802     7.5110 </r>
       <r>    -8.5000     0.2789     7.5137 </r>
       <r>    -8.4900     0.2006     7.5158 </r>
       <r>    -8.4800     0.1415     7.5172 </r>
       <r>    -8.4700     0.0978     7.5181 </r>
       <r>    -8.4600     0.0662     7.5188 </r>
       <r>    -8.4500     0.0440     7.5192 </r>
       <r>    -8.4400     0.0286     7.5195 </r>
       <r>    -8.4300     0.0183     7.5197 </r>
       <r>    -8.4200     0.0114     7.5198 </r>
       <r>    -8.4100     0.0070     7.5199 </r>
       <r>    -8.4000     0.0042     7.5199 </r>
       <r>    -8.3900     0.0025     7.5200 </r>
       <r>    -8.3800     0.0014     7.5200 </r>
       <r>    -8.3700     0.0008     7.5200 </r>
       <r>    -8.3600     0.0005     7.5200 </r>
       <r>    -8.3500     0.0003     7.5200 </r>
       <r>    -8.3400     0.0002     7.5200 </r>
       <r>    -8.3300     0.0002     7.5200 </r>
       <r>    -8.3200     0.0003     7.5200 </r>
       <r>    -8.3100     0.0005     7.5200 </r>
       <r>    -8.3000     0.0009     7.5200 </r>
       <r>    -8.2900     0.0016     7.5200 </r>
       <r>    -8.2800     0.0026     7.5201 </r>
       <r>    -8.2700     0.0043     7.5201 </r>
       <r>    -8.2600     0.0070     7.5202 </r>
       <r>    -8.2500     0.0110     7.5203 </r>
       <r>    -8.2400     0.0171     7.5205 </r>
       <r>    -8.2300     0.0261     7.5207 </r>
       <r>    -8.2200     0.0390     7.5211 </r>
       <r>    -8.2100     0.0571     7.5217 </r>
       <r>    -8.2000     0.0820     7.5225 </r>
       <r>    -8.1900     0.1154     7.5237 </r>
       <r>    -8.1800     0.1591     7.5252 </r>
       <r>    -8.1700     0.2151     7.5274 </r>
       <r>    -8.1600     0.2850     7.5302 </r>
       <r>    -8.1500     0.3702     7.5339 </r>
       <r>    -8.1400     0.4713     7.5387 </r>
       <r>    -8.1300     0.5882     7.5445 </r>
       <r>    -8.1200     0.7196     7.5517 </r>
       <r>    -8.1100     0.8629     7.5604 </r>
       <r>    -8.1000     1.0143     7.5705 </r>
       <r>    -8.0900     1.1688     7.5822 </r>
       <r>    -8.0800     1.3202     7.5954 </r>
       <r>    -8.0700     1.4619     7.6100 </r>
       <r>    -8.0600     1.5869     7.6259 </r>
       <r>    -8.0500     1.6888     7.6428 </r>
       <r>    -8.0400     1.7622     7.6604 </r>
       <r>    -8.0300     1.8029     7.6784 </r>
       <r>    -8.0200     1.8091     7.6965 </r>
       <r>    -8.0100     1.7808     7.7143 </r>
       <r>    -8.0000     1.7202     7.7315 </r>
       <r>    -7.9900     1.6316     7.7478 </r>
       <r>    -7.9800     1.5208     7.7631 </r>
       <r>    -7.9700     1.3947     7.7770 </r>
       <r>    -7.9600     1.2608     7.7896 </r>
       <r>    -7.9500     1.1263     7.8009 </r>
       <r>    -7.9400     0.9978     7.8108 </r>
       <r>    -7.9300     0.8807     7.8197 </r>
       <r>    -7.9200     0.7791     7.8274 </r>
       <r>    -7.9100     0.6954     7.8344 </r>
       <r>    -7.9000     0.6306     7.8407 </r>
       <r>    -7.8900     0.5842     7.8465 </r>
       <r>    -7.8800     0.5549     7.8521 </r>
       <r>    -7.8700     0.5402     7.8575 </r>
       <r>    -7.8600     0.5375     7.8629 </r>
       <r>    -7.8500     0.5440     7.8683 </r>
       <r>    -7.8400     0.5572     7.8739 </r>
       <r>    -7.8300     0.5751     7.8796 </r>
       <r>    -7.8200     0.5962     7.8856 </r>
       <r>    -7.8100     0.6196     7.8918 </r>
       <r>    -7.8000     0.6452     7.8982 </r>
       <r>    -7.7900     0.6730     7.9050 </r>
       <r>    -7.7800     0.7033     7.9120 </r>
       <r>    -7.7700     0.7364     7.9194 </r>
       <r>    -7.7600     0.7721     7.9271 </r>
       <r>    -7.7500     0.8100     7.9352 </r>
       <r>    -7.7400     0.8490     7.9437 </r>
       <r>    -7.7300     0.8873     7.9526 </r>
       <r>    -7.7200     0.9230     7.9618 </r>
       <r>    -7.7100     0.9538     7.9713 </r>
       <r>    -7.7000     0.9775     7.9811 </r>
       <r>    -7.6900     0.9927     7.9910 </r>
       <r>    -7.6800     0.9983     8.0010 </r>
       <r>    -7.6700     0.9948     8.0110 </r>
       <r>    -7.6600     0.9836     8.0208 </r>
       <r>    -7.6500     0.9677     8.0305 </r>
       <r>    -7.6400     0.9512     8.0400 </r>
       <r>    -7.6300     0.9395     8.0494 </r>
       <r>    -7.6200     0.9388     8.0588 </r>
       <r>    -7.6100     0.9555     8.0683 </r>
       <r>    -7.6000     0.9964     8.0783 </r>
       <r>    -7.5900     1.0679     8.0890 </r>
       <r>    -7.5800     1.1760     8.1007 </r>
       <r>    -7.5700     1.3258     8.1140 </r>
       <r>    -7.5600     1.5215     8.1292 </r>
       <r>    -7.5500     1.7667     8.1469 </r>
       <r>    -7.5400     2.0640     8.1675 </r>
       <r>    -7.5300     2.4157     8.1917 </r>
       <r>    -7.5200     2.8235     8.2199 </r>
       <r>    -7.5100     3.2889     8.2528 </r>
       <r>    -7.5000     3.8130     8.2909 </r>
       <r>    -7.4900     4.3968     8.3349 </r>
       <r>    -7.4800     5.0401     8.3853 </r>
       <r>    -7.4700     5.7415     8.4427 </r>
       <r>    -7.4600     6.4977     8.5077 </r>
       <r>    -7.4500     7.3024     8.5807 </r>
       <r>    -7.4400     8.1463     8.6622 </r>
       <r>    -7.4300     9.0161     8.7523 </r>
       <r>    -7.4200     9.8946     8.8513 </r>
       <r>    -7.4100    10.7612     8.9589 </r>
       <r>    -7.4000    11.5925     9.0748 </r>
       <r>    -7.3900    12.3633     9.1984 </r>
       <r>    -7.3800    13.0484     9.3289 </r>
       <r>    -7.3700    13.6240     9.4652 </r>
       <r>    -7.3600    14.0694     9.6059 </r>
       <r>    -7.3500    14.3684     9.7495 </r>
       <r>    -7.3400    14.5108     9.8947 </r>
       <r>    -7.3300    14.4923    10.0396 </r>
       <r>    -7.3200    14.3153    10.1827 </r>
       <r>    -7.3100    13.9882    10.3226 </r>
       <r>    -7.3000    13.5249    10.4579 </r>
[...]
        <r>  0.0000  0.0013  0.0000  0.0013  0.0000  0.0000  0.0000  0.0000  0.0000 </r>
        <r>  0.0000  0.0148  0.0000  0.0148  0.0000  0.0000  0.0000  0.0000  0.0000 </r>
        <r>  0.0000  0.0148  0.0000  0.0148  0.0000  0.0000  0.0000  0.0000  0.0000 </r>
        <r>  0.0556  0.0002  0.0195  0.0002  0.0000  0.0000  0.0000  0.0000  0.0000 </r>
        <r>  0.0556  0.0002  0.0195  0.0002  0.0000  0.0000  0.0000  0.0000  0.0000 </r>
        <r>  0.0713  0.0001  0.0134  0.0001  0.0000  0.0000  0.0000  0.0000  0.0000 </r>
        <r>  0.0713  0.0001  0.0134  0.0001  0.0000  0.0000  0.0000  0.0000  0.0000 </r>
        <r>  0.0000  0.0122  0.0000  0.0122  0.0000  0.0000  0.0000  0.0000  0.0000 </r>
        <r>  0.0000  0.0122  0.0000  0.0122  0.0000  0.0000  0.0000  0.0000  0.0000 </r>
       </set>
       <set comment="band 8">
        <r>  0.0107  0.0107  0.0004  0.0107  0.0000  0.0000  0.0000  0.0000  0.0000 </r>
        <r>  0.0107  0.0107  0.0004  0.0107  0.0000  0.0000  0.0000  0.0000  0.0000 </r>
        <r>  0.0587  0.0042  0.0089  0.0042  0.0000  0.0000  0.0000  0.0000  0.0000 </r>
        <r>  0.0587  0.0042  0.0089  0.0042  0.0000  0.0000  0.0000  0.0000  0.0000 </r>
        <r>  0.0311  0.0023  0.0158  0.0023  0.0000  0.0000  0.0000  0.0000  0.0000 </r>
        <r>  0.0311  0.0023  0.0158  0.0023  0.0000  0.0000  0.0000  0.0000  0.0000 </r>
        <r>  0.0012  0.0079  0.0107  0.0079  0.0000  0.0000  0.0000  0.0000  0.0000 </r>
        <r>  0.0012  0.0079  0.0107  0.0079  0.0000  0.0000  0.0000  0.0000  0.0000 </r>
        <r>  0.0306  0.0006  0.0000  0.0006  0.0000  0.0000  0.0000  0.0000  0.0000 </r>
        <r>  0.0306  0.0006  0.0000  0.0006  0.0000  0.0000  0.0000  0.0000  0.0000 </r>
       </set>
       <set comment="band 9">
        <r>  0.0920  0.0000  0.0011  0.0000  0.0000  0.0000  0.0000  0.0000  0.0000 </r>
        <r>  0.0919  0.0000  0.0011  0.0000  0.0000  0.0000  0.0000  0.0000  0.0000 </r>
        <r>  0.0327  0.0007  0.0389  0.0007  0.0000  0.0000  0.0000  0.0000  0.0000 </r>
        <r>  0.0327  0.0007  0.0389  0.0007  0.0000  0.0000  0.0000  0.0000  0.0000 </r>
        <r>  0.0000  0.0199  0.0000  0.0199  0.0000  0.0000  0.0000  0.0000  0.0000 </r>
        <r>  0.0000  0.0199  0.0000  0.0199  0.0000  0.0000  0.0000  0.0000  0.0000 </r>
        <r>  0.0000  0.0000  0.0000  0.0000  0.0000  0.0000  0.0000  0.0000  0.0000 </r>
        <r>  0.0000  0.0000  0.0000  0.0000  0.0000  0.0000  0.0000  0.0000  0.0000 </r>
        <r>  0.0196  0.0000  0.0002  0.0000  0.0000  0.0000  0.0000  0.0000  0.0000 </r>
        <r>  0.0196  0.0000  0.0002  0.0000  0.0000  0.0000  0.0000  0.0000  0.0000 </r>
       </set>
       <set comment="band 10">
        <r>  0.0247  0.0008  0.0002  0.0008  0.0000  0.0000  0.0000  0.0000  0.0000 </r>
        <r>  0.0247  0.0008  0.0002  0.0008  0.0000  0.0000  0.0000  0.0000  0.0000 </r>
        <r>  0.0047  0.0000  0.0003  0.0000  0.0000  0.0000  0.0000  0.0000  0.0000 </r>
        <r>  0.0047  0.0000  0.0003  0.0000  0.0000  0.0000  0.0000  0.0000  0.0000 </r>
        <r>  0.0044  0.0184  0.0043  0.0184  0.0000  0.0000  0.0000  0.0000  0.0000 </r>
        <r>  0.0044  0.0184  0.0043  0.0184  0.0000  0.0000  0.0000  0.0000  0.0000 </r>
        <r>  0.0299  0.0071  0.0290  0.0071  0.0000  0.0000  0.0000  0.0000  0.0000 </r>
        <r>  0.0299  0.0071  0.0290  0.0071  0.0000  0.0000  0.0000  0.0000  0.0000 </r>
        <r>  0.0549  0.0016  0.0018  0.0016  0.0000  0.0000  0.0000  0.0000  0.0000 </r>
        <r>  0.0550  0.0016  0.0018  0.0016  0.0000  0.0000  0.0000  0.0000  0.0000 </r>
       </set>
       <set comment="band 11">
        <r>  0.0000  0.0108  0.0000  0.0108  0.0000  0.0000  0.0000  0.0000  0.0000 </r>
        <r>  0.0000  0.0108  0.0000  0.0108  0.0000  0.0000  0.0000  0.0000  0.0000 </r>
        <r>  0.0000  0.0135  0.0000  0.0135  0.0000  0.0000  0.0000  0.0000  0.0000 </r>
        <r>  0.0000  0.0135  0.0000  0.0135  0.0000  0.0000  0.0000  0.0000  0.0000 </r>
        <r>  0.0118  0.0001  0.0332  0.0001  0.0000  0.0000  0.0000  0.0000  0.0000 </r>
        <r>  0.0118  0.0001  0.0332  0.0001  0.0000  0.0000  0.0000  0.0000  0.0000 </r>
        <r>  0.0004  0.0018  0.0414  0.0018  0.0000  0.0000  0.0000  0.0000  0.0000 </r>
        <r>  0.0004  0.0018  0.0414  0.0018  0.0000  0.0000  0.0000  0.0000  0.0000 </r>
        <r>  0.0000  0.0156  0.0000  0.0156  0.0000  0.0000  0.0000  0.0000  0.0000 </r>
        <r>  0.0000  0.0156  0.0000  0.0156  0.0000  0.0000  0.0000  0.0000  0.0000 </r>
       </set>
       <set comment="band 12">
        <r>  0.0005  0.0175  0.0028  0.0175  0.0000  0.0000  0.0000  0.0000  0.0000 </r>
        <r>  0.0005  0.0174  0.0028  0.0174  0.0000  0.0000  0.0000  0.0000  0.0000 </r>
        <r>  0.0000  0.0026  0.0449  0.0026  0.0000  0.0000  0.0000  0.0000  0.0000 </r>
        <r>  0.0000  0.0026  0.0449  0.0026  0.0000  0.0000  0.0000  0.0000  0.0000 </r>
        <r>  0.0075  0.0000  0.0299  0.0000  0.0000  0.0000  0.0000  0.0000  0.0000 </r>
        <r>  0.0075  0.0000  0.0299  0.0000  0.0000  0.0000  0.0000  0.0000  0.0000 </r>
        <r>  0.0068  0.0104  0.0013  0.0104  0.0000  0.0000  0.0000  0.0000  0.0000 </r>
        <r>  0.0068  0.0104  0.0013  0.0104  0.0000  0.0000  0.0000  0.0000  0.0000 </r>
        <r>  0.0124  0.0065  0.0015  0.0065  0.0000  0.0000  0.0000  0.0000  0.0000 </r>
        <r>  0.0124  0.0065  0.0015  0.0065  0.0000  0.0000  0.0000  0.0000  0.0000 </r>
       </set>
       <set comment="band 13">
        <r>  0.0000  0.0007  0.0000  0.0007  0.0000  0.0000  0.0000  0.0000  0.0000 </r>
        <r>  0.0000  0.0007  0.0000  0.0007  0.0000  0.0000  0.0000  0.0000  0.0000 </r>
        <r>  0.0000  0.0002  0.0000  0.0002  0.0000  0.0000  0.0000  0.0000  0.0000 </r>
        <r>  0.0000  0.0002  0.0000  0.0002  0.0000  0.0000  0.0000  0.0000  0.0000 </r>
        <r>  0.0073  0.0459  0.0005  0.0459  0.0000  0.0000  0.0000  0.0000  0.0000 </r>
        <r>  0.0073  0.0459  0.0005  0.0459  0.0000  0.0000  0.0000  0.0000  0.0000 </r>
        <r>  0.0081  0.0391  0.0160  0.0391  0.0000  0.0000  0.0000  0.0000  0.0000 </r>
        <r>  0.0081  0.0391  0.0160  0.0391  0.0000  0.0000  0.0000  0.0000  0.0000 </r>
        <r>  0.0000  0.0019  0.0000  0.0019  0.0000  0.0000  0.0000  0.0000  0.0000 </r>
        <r>  0.0000  0.0019  0.0000  0.0019  0.0000  0.0000  0.0000  0.0000  0.0000 </r>
       </set>
       <set comment="band 14">
        <r>  0.0185  0.0249  0.0007  0.0249  0.0000  0.0000  0.0000  0.0000  0.0000 </r>
        <r>  0.0185  0.0249  0.0007  0.0249  0.0000  0.0000  0.0000  0.0000  0.0000 </r>
        <r>  0.0251  0.0256  0.0068  0.0256  0.0000  0.0000  0.0000  0.0000  0.0000 </r>
        <r>  0.0251  0.0256  0.0068  0.0256  0.0000  0.0000  0.0000  0.0000  0.0000 </r>
        <r>  0.0000  0.0017  0.0000  0.0017  0.0000  0.0000  0.0000  0.0000  0.0000 </r>
        <r>  0.0000  0.0017  0.0000  0.0017  0.0000  0.0000  0.0000  0.0000  0.0000 </r>
        <r>  0.0000  0.0066  0.0000  0.0066  0.0000  0.0000  0.0000  0.0000  0.0000 </r>
        <r>  0.0000  0.0066  0.0000  0.0066  0.0000  0.0000  0.0000  0.0000  0.0000 </r>
        <r>  0.0163  0.0000  0.0191  0.0000  0.0000  0.0000  0.0000  0.0000  0.0000 </r>
        <r>  0.0163  0.0000  0.0191  0.0000  0.0000  0.0000  0.0000  0.0000  0.0000 </r>
       </set>
       <set comment="band 15">
        <r>  0.0261  0.0002  0.0441  0.0002  0.0000  0.0000  0.0000  0.0000  0.0000 </r>
        <r>  0.0261  0.0001  0.0441  0.0002  0.0000  0.0000  0.0000  0.0000  0.0000 </r>
        <r>  0.0024  0.0119  0.0010  0.0119  0.0000  0.0000  0.0000  0.0000  0.0000 </r>
        <r>  0.0024  0.0119  0.0010  0.0119  0.0000  0.0000  0.0000  0.0000  0.0000 </r>
        <r>  0.0064  0.0026  0.0001  0.0026  0.0000  0.0000  0.0000  0.0000  0.0000 </r>
        <r>  0.0064  0.0026  0.0001  0.0026  0.0000  0.0000  0.0000  0.0000  0.0000 </r>
        <r>  0.0159  0.0009  0.0011  0.0009  0.0000  0.0000  0.0000  0.0000  0.0000 </r>
        <r>  0.0159  0.0009  0.0011  0.0009  0.0000  0.0000  0.0000  0.0000  0.0000 </r>
        <r>  0.0085  0.0090  0.0108  0.0090  0.0000  0.0000  0.0000  0.0000  0.0000 </r>
        <r>  0.0085  0.0090  0.0108  0.0090  0.0000  0.0000  0.0000  0.0000  0.0000 </r>
       </set>
       <set comment="band 16">
        <r>  0.0000  0.0007  0.0000  0.0007  0.0000  0.0000  0.0000  0.0000  0.0000 </r>
        <r>  0.0000  0.0007  0.0000  0.0007  0.0000  0.0000  0.0000  0.0000  0.0000 </r>
        <r>  0.0000  0.0366  0.0000  0.0366  0.0000  0.0000  0.0000  0.0000  0.0000 </r>
        <r>  0.0000  0.0366  0.0000  0.0366  0.0000  0.0000  0.0000  0.0000  0.0000 </r>
        <r>  0.0000  0.0418  0.0000  0.0418  0.0000  0.0000  0.0000  0.0000  0.0000 </r>
        <r>  0.0000  0.0418  0.0000  0.0418  0.0000  0.0000  0.0000  0.0000  0.0000 </r>
        <r>  0.0000  0.0168  0.0000  0.0168  0.0000  0.0000  0.0000  0.0000  0.0000 </r>
        <r>  0.0000  0.0168  0.0000  0.0168  0.0000  0.0000  0.0000  0.0000  0.0000 </r>
        <r>  0.0000  0.0113  0.0000  0.0113  0.0000  0.0000  0.0000  0.0000  0.0000 </r>
        <r>  0.0000  0.0113  0.0000  0.0113  0.0000  0.0000  0.0000  0.0000  0.0000 </r>
       </set>
       <set comment="band 17">
        <r>  0.0034  0.0190  0.0212  0.0190  0.0000  0.0000  0.0000  0.0000  0.0000 </r>
        <r>  0.0034  0.0190  0.0212  0.0190  0.0000  0.0000  0.0000  0.0000  0.0000 </r>
        <r>  0.0035  0.0227  0.0023  0.0227  0.0000  0.0000  0.0000  0.0000  0.0000 </r>
        <r>  0.0035  0.0227  0.0023  0.0227  0.0000  0.0000  0.0000  0.0000  0.0000 </r>
        <r>  0.0000  0.0004  0.0000  0.0004  0.0000  0.0000  0.0000  0.0000  0.0000 </r>
        <r>  0.0000  0.0004  0.0000  0.0004  0.0000  0.0000  0.0000  0.0000  0.0000 </r>
        <r>  0.0000  0.0096  0.0000  0.0096  0.0000  0.0000  0.0000  0.0000  0.0000 </r>
        <r>  0.0000  0.0096  0.0000  0.0096  0.0000  0.0000  0.0000  0.0000  0.0000 </r>
        <r>  0.0157  0.0000  0.0371  0.0000  0.0000  0.0000  0.0000  0.0000  0.0000 </r>
        <r>  0.0157  0.0000  0.0371  0.0000  0.0000  0.0000  0.0000  0.0000  0.0000 </r>
       </set>
       <set comment="band 18">
        <r>  0.0000  0.0003  0.0000  0.0003  0.0000  0.0000  0.0000  0.0000  0.0000 </r>
        <r>  0.0000  0.0003  0.0000  0.0003  0.0000  0.0000  0.0000  0.0000  0.0000 </r>
        <r>  0.0000  0.0168  0.0000  0.0168  0.0000  0.0000  0.0000  0.0000  0.0000 </r>
        <r>  0.0000  0.0168  0.0000  0.0168  0.0000  0.0000  0.0000  0.0000  0.0000 </r>
        <r>  0.0000  0.0124  0.0000  0.0124  0.0000  0.0000  0.0000  0.0000  0.0000 </r>
        <r>  0.0000  0.0124  0.0000  0.0124  0.0000  0.0000  0.0000  0.0000  0.0000 </r>
        <r>  0.0000  0.0413  0.0000  0.0413  0.0000  0.0000  0.0000  0.0000  0.0000 </r>
        <r>  0.0000  0.0413  0.0000  0.0413  0.0000  0.0000  0.0000  0.0000  0.0000 </r>
        <r>  0.0000  0.0406  0.0000  0.0406  0.0000  0.0000  0.0000  0.0000  0.0000 </r>
        <r>  0.0000  0.0406  0.0000  0.0406  0.0000  0.0000  0.0000  0.0000  0.0000 </r>
       </set>
       <set comment="band 19">
        <r>  0.0000  0.0379  0.0000  0.0379  0.0000  0.0000  0.0000  0.0000  0.0000 </r>
        <r>  0.0000  0.0379  0.0000  0.0379  0.0000  0.0000  0.0000  0.0000  0.0000 </r>
        <r>  0.0000  0.0020  0.0000  0.0020  0.0000  0.0000  0.0000  0.0000  0.0000 </r>
        <r>  0.0000  0.0020  0.0000  0.0020  0.0000  0.0000  0.0000  0.0000  0.0000 </r>
        <r>  0.0096  0.0012  0.0327  0.0012  0.0000  0.0000  0.0000  0.0000  0.0000 </r>
        <r>  0.0096  0.0012  0.0327  0.0012  0.0000  0.0000  0.0000  0.0000  0.0000 </r>
        <r>  0.0034  0.0061  0.0087  0.0061  0.0000  0.0000  0.0000  0.0000  0.0000 </r>
        <r>  0.0034  0.0061  0.0087  0.0061  0.0000  0.0000  0.0000  0.0000  0.0000 </r>
        <r>  0.0000  0.0045  0.0000  0.0045  0.0000  0.0000  0.0000  0.0000  0.0000 </r>
        <r>  0.0000  0.0045  0.0000  0.0045  0.0000  0.0000  0.0000  0.0000  0.0000 </r>
       </set>
       <set comment="band 20">
        <r>  0.0025  0.0046  0.0161  0.0046  0.0000  0.0000  0.0000  0.0000  0.0000 </r>
        <r>  0.0025  0.0046  0.0161  0.0046  0.0000  0.0000  0.0000  0.0000  0.0000 </r>
        <r>  0.0054  0.0028  0.0163  0.0028  0.0000  0.0000  0.0000  0.0000  0.0000 </r>
        <r>  0.0054  0.0028  0.0163  0.0028  0.0000  0.0000  0.0000  0.0000  0.0000 </r>
        <r>  0.0105  0.0007  0.0262  0.0007  0.0000  0.0000  0.0000  0.0000  0.0000 </r>
        <r>  0.0105  0.0007  0.0262  0.0007  0.0000  0.0000  0.0000  0.0000  0.0000 </r>
        <r>  0.0009  0.0027  0.0006  0.0027  0.0000  0.0000  0.0000  0.0000  0.0000 </r>
        <r>  0.0009  0.0027  0.0006  0.0027  0.0000  0.0000  0.0000  0.0000  0.0000 </r>
        <r>  0.0022  0.0324  0.0008  0.0324  0.0000  0.0000  0.0000  0.0000  0.0000 </r>
        <r>  0.0022  0.0324  0.0008  0.0324  0.0000  0.0000  0.0000  0.0000  0.0000 </r>
       </set>
       <set comment="band 21">
        <r>  0.0006  0.0009  0.0275  0.0009  0.0000  0.0000  0.0000  0.0000  0.0000 </r>
        <r>  0.0006  0.0009  0.0273  0.0009  0.0000  0.0000  0.0000  0.0000  0.0000 </r>
        <r>  0.0045  0.0035  0.0008  0.0035  0.0000  0.0000  0.0000  0.0000  0.0000 </r>
        <r>  0.0045  0.0035  0.0008  0.0035  0.0000  0.0000  0.0000  0.0000  0.0000 </r>
        <r>  0.0049  0.0105  0.0001  0.0104  0.0000  0.0000  0.0000  0.0000  0.0000 </r>
        <r>  0.0049  0.0104  0.0001  0.0105  0.0000  0.0000  0.0000  0.0000  0.0000 </r>
        <r>  0.0057  0.0001  0.0306  0.0001  0.0000  0.0000  0.0000  0.0000  0.0000 </r>
        <r>  0.0057  0.0001  0.0306  0.0001  0.0000  0.0000  0.0000  0.0000  0.0000 </r>
        <r>  0.0141  0.0003  0.0710  0.0003  0.0000  0.0000  0.0000  0.0000  0.0000 </r>
        <r>  0.0141  0.0003  0.0708  0.0003  0.0000  0.0000  0.0000  0.0000  0.0000 </r>
       </set>
       <set comment="band 22">
        <r>  0.0152  0.0006  0.0667  0.0006  0.0000  0.0000  0.0000  0.0000  0.0000 </r>
        <r>  0.0153  0.0006  0.0668  0.0006  0.0000  0.0000  0.0000  0.0000  0.0000 </r>
        <r>  0.0046  0.0010  0.0310  0.0010  0.0000  0.0000  0.0000  0.0000  0.0000 </r>
        <r>  0.0046  0.0010  0.0310  0.0010  0.0000  0.0000  0.0000  0.0000  0.0000 </r>
        <r>  0.0000  0.0114  0.0000  0.0115  0.0000  0.0000  0.0000  0.0000  0.0000 </r>
        <r>  0.0000  0.0115  0.0000  0.0114  0.0000  0.0000  0.0000  0.0000  0.0000 </r>
        <r>  0.0000  0.0055  0.0000  0.0055  0.0000  0.0000  0.0000  0.0000  0.0000 </r>
        <r>  0.0000  0.0055  0.0000  0.0055  0.0000  0.0000  0.0000  0.0000  0.0000 </r>
        <r>  0.0012  0.0012  0.0325  0.0012  0.0000  0.0000  0.0000  0.0000  0.0000 </r>
        <r>  0.0012  0.0012  0.0327  0.0012  0.0000  0.0000  0.0000  0.0000  0.0000 </r>
       </set>
       <set comment="band 23">
        <r>  0.0000  0.0001  0.0057  0.0001  0.0000  0.0000  0.0000  0.0000  0.0000 </r>
        <r>  0.0000  0.0001  0.0057  0.0001  0.0000  0.0000  0.0000  0.0000  0.0000 </r>
        <r>  0.0006  0.0000  0.0022  0.0000  0.0000  0.0000  0.0000  0.0000  0.0000 </r>
        <r>  0.0006  0.0000  0.0022  0.0000  0.0000  0.0000  0.0000  0.0000  0.0000 </r>
        <r>  0.0000  0.0000  0.0000  0.0000  0.0000  0.0000  0.0000  0.0000  0.0000 </r>
        <r>  0.0000  0.0000  0.0000  0.0000  0.0000  0.0000  0.0000  0.0000  0.0000 </r>
        <r>  0.0000  0.0001  0.0000  0.0001  0.0000  0.0000  0.0000  0.0000  0.0000 </r>
        <r>  0.0000  0.0001  0.0000  0.0001  0.0000  0.0000  0.0000  0.0000  0.0000 </r>
        <r>  0.0039  0.0763  0.0006  0.0764  0.0000  0.0000  0.0000  0.0000  0.0000 </r>
        <r>  0.0039  0.0764  0.0006  0.0763  0.0000  0.0000  0.0000  0.0000  0.0000 </r>
       </set>
       <set comment="band 24">
        <r>  0.0000  0.0004  0.0038  0.0011  0.0000  0.0000  0.0000  0.0000  0.0000 </r>
        <r>  0.0000  0.0004  0.0038  0.0011  0.0000  0.0000  0.0000  0.0000  0.0000 </r>
        <r>  0.0168  0.0000  0.0136  0.0000  0.0000  0.0000  0.0000  0.0000  0.0000 </r>
        <r>  0.0168  0.0000  0.0136  0.0000  0.0000  0.0000  0.0000  0.0000  0.0000 </r>
        <r>  0.0192  0.0000  0.0208  0.0001  0.0000  0.0000  0.0000  0.0000  0.0000 </r>
        <r>  0.0193  0.0000  0.0208  0.0001  0.0000  0.0000  0.0000  0.0000  0.0000 </r>
        <r>  0.0236  0.0000  0.0123  0.0000  0.0000  0.0000  0.0000  0.0000  0.0000 </r>
        <r>  0.0237  0.0000  0.0122  0.0000  0.0000  0.0000  0.0000  0.0000  0.0000 </r>
        <r>  0.0181  0.0007  0.0065  0.0007  0.0000  0.0000  0.0000  0.0000  0.0000 </r>
        <r>  0.0181  0.0007  0.0065  0.0007  0.0000  0.0000  0.0000  0.0000  0.0000 </r>
       </set>
       <set comment="band 25">
        <r>  0.0017  0.0054  0.0018  0.0013  0.0000  0.0000  0.0000  0.0000  0.0000 </r>
        <r>  0.0012  0.0049  0.0014  0.0016  0.0000  0.0000  0.0000  0.0000  0.0000 </r>
        <r>  0.0312  0.0004  0.0068  0.0003  0.0000  0.0000  0.0000  0.0000  0.0000 </r>
        <r>  0.0270  0.0003  0.0078  0.0001  0.0000  0.0000  0.0000  0.0000  0.0000 </r>
        <r>  0.0170  0.0000  0.0174  0.0005  0.0000  0.0000  0.0000  0.0000  0.0000 </r>
        <r>  0.0178  0.0000  0.0168  0.0006  0.0000  0.0000  0.0000  0.0000  0.0000 </r>
        <r>  0.0314  0.0000  0.0057  0.0000  0.0000  0.0000  0.0000  0.0000  0.0000 </r>
        <r>  0.0278  0.0000  0.0063  0.0000  0.0000  0.0000  0.0000  0.0000  0.0000 </r>
        <r>  0.0228  0.0005  0.0318  0.0006  0.0000  0.0000  0.0000  0.0000  0.0000 </r>
        <r>  0.0225  0.0005  0.0308  0.0006  0.0000  0.0000  0.0000  0.0000  0.0000 </r>
       </set>
       <set comment="band 26">
        <r>  0.0012  0.0001  0.0010  0.0016  0.0000  0.0000  0.0000  0.0000  0.0000 </r>
        <r>  0.0010  0.0048  0.0009  0.0025  0.0000  0.0000  0.0000  0.0000  0.0000 </r>
        <r>  0.0014  0.0004  0.0005  0.0001  0.0000  0.0000  0.0000  0.0000  0.0000 </r>
        <r>  0.0018  0.0003  0.0004  0.0004  0.0000  0.0000  0.0000  0.0000  0.0000 </r>
        <r>  0.0374  0.0143  0.0265  0.0109  0.0000  0.0000  0.0000  0.0000  0.0000 </r>
        <r>  0.0346  0.0108  0.0289  0.0143  0.0000  0.0000  0.0000  0.0000  0.0000 </r>
        <r>  0.0474  0.0036  0.0152  0.0038  0.0000  0.0000  0.0000  0.0000  0.0000 </r>
        <r>  0.0520  0.0038  0.0141  0.0037  0.0000  0.0000  0.0000  0.0000  0.0000 </r>
        <r>  0.0001  0.0000  0.0005  0.0001  0.0000  0.0000  0.0000  0.0000  0.0000 </r>
        <r>  0.0000  0.0000  0.0001  0.0001  0.0000  0.0000  0.0000  0.0000  0.0000 </r>
       </set>
      </set>
     </set>
    </set>
   </array>
  </projected>
 </calculation>
 <structure name="finalpos" >
  <crystal>
   <varray name="basis" >
    <v>       5.43101000       0.00000000       0.00000000 </v>
    <v>       0.00000000       5.43101000       0.00000000 </v>
    <v>       0.00000000       0.00000000      14.79101000 </v>
   </varray>
   <i name="volume">    436.27370251 </i>
   <varray name="rec_basis" >
    <v>       0.18412781       0.00000000       0.00000000 </v>
    <v>       0.00000000       0.18412781       0.00000000 </v>
    <v>       0.00000000       0.00000000       0.06760864 </v>
   </varray>
  </crystal>
  <varray name="positions" >
   <v>       0.00000000       0.00000000       0.00000000 </v>
   <v>       0.49999908       0.49999908       0.00000000 </v>
   <v>       0.24999954       0.24999954       0.09179562 </v>
   <v>       0.75000046       0.75000046       0.09179562 </v>
   <v>       0.00000000       0.49999908       0.18359125 </v>
   <v>       0.49999908       0.00000000       0.18359125 </v>
   <v>       0.24999954       0.75000046       0.27538755 </v>
   <v>       0.75000046       0.24999954       0.27538755 </v>
   <v>       0.00000000       0.00000000       0.36718317 </v>
   <v>       0.49999908       0.49999908       0.36718317 </v>
  </varray>
 </structure>
</modeling>
