unknown system                          
           1
     5.431010    0.000000    0.000000
     0.000000    5.431010    0.000000
     0.000000    0.000000   14.791010
   Si
  10
Direct configuration=     1
   0.00000000  0.00000000  0.00000000
   0.49999908  0.49999908  0.00000000
   0.24999954  0.24999954  0.09179562
   0.75000046  0.75000046  0.09179562
   0.00000000  0.49999908  0.18359125
   0.49999908  0.00000000  0.18359125
   0.24999954  0.75000046  0.27538755
   0.75000046  0.24999954  0.27538755
   0.00000000  0.00000000  0.36718317
   0.49999908  0.49999908  0.36718317
