  20  20   0   0
  0.1957362E+02  0.3905268E-09  0.3905268E-09  0.2566844E-08  0.5000000E-15
  1.000000000000000E-004
  CAR 
 unknown system                          
      9.67353118    -35.85136273  301      0.60648981      1.00000000
    -35.851  0.0000E+00  0.0000E+00
    -35.700  0.0000E+00  0.0000E+00
    -35.548  0.0000E+00  0.0000E+00
    -35.396  0.0000E+00  0.0000E+00
    -35.244  0.0000E+00  0.0000E+00
    -35.093  0.0000E+00  0.0000E+00
    -34.941  0.0000E+00  0.0000E+00
    -34.789  0.0000E+00  0.0000E+00
    -34.637  0.0000E+00  0.0000E+00
    -34.486  0.0000E+00  0.0000E+00
    -34.334  0.0000E+00  0.0000E+00
    -34.182  0.0000E+00  0.0000E+00
    -34.030  0.0000E+00  0.0000E+00
    -33.879  0.0000E+00  0.0000E+00
    -33.727  0.0000E+00  0.2000E+01
    -33.575  0.0000E+00  0.2000E+01
    -33.423  0.0000E+00  0.2000E+01
    -33.272  0.0000E+00  0.2000E+01
    -33.120  0.0000E+00  0.2000E+01
    -32.968  0.0000E+00  0.2000E+01
    -32.816  0.0000E+00  0.2000E+01
    -32.665  0.0000E+00  0.6000E+01
    -32.513  0.0000E+00  0.8000E+01
    -32.361  0.0000E+00  0.8000E+01
    -32.209  0.0000E+00  0.8000E+01
    -32.058  0.0000E+00  0.8000E+01
    -31.906  0.0000E+00  0.8000E+01
    -31.754  0.0000E+00  0.8000E+01
    -31.602  0.0000E+00  0.8000E+01
    -31.451  0.0000E+00  0.8000E+01
    -31.299  0.0000E+00  0.8000E+01
    -31.147  0.0000E+00  0.8000E+01
    -30.995  0.0000E+00  0.8000E+01
    -30.844  0.0000E+00  0.8000E+01
    -30.692  0.0000E+00  0.8000E+01
    -30.540  0.0000E+00  0.8000E+01
    -30.388  0.0000E+00  0.8000E+01
    -30.237  0.0000E+00  0.8000E+01
    -30.085  0.0000E+00  0.8000E+01
    -29.933  0.0000E+00  0.8000E+01
    -29.781  0.0000E+00  0.8000E+01
    -29.630  0.0000E+00  0.8000E+01
    -29.478  0.0000E+00  0.8000E+01
    -29.326  0.0000E+00  0.8000E+01
    -29.174  0.0000E+00  0.8000E+01
    -29.023  0.0000E+00  0.8000E+01
    -28.871  0.0000E+00  0.8000E+01
    -28.719  0.0000E+00  0.8000E+01
    -28.567  0.0000E+00  0.8000E+01
    -28.416  0.0000E+00  0.8000E+01
    -28.264  0.0000E+00  0.8000E+01
    -28.112  0.0000E+00  0.8000E+01
    -27.960  0.0000E+00  0.8000E+01
    -27.809  0.0000E+00  0.8000E+01
    -27.657  0.0000E+00  0.8000E+01
    -27.505  0.0000E+00  0.8000E+01
    -27.353  0.0000E+00  0.8000E+01
    -27.202  0.0000E+00  0.8000E+01
    -27.050  0.0000E+00  0.8000E+01
    -26.898  0.0000E+00  0.8000E+01
    -26.746  0.0000E+00  0.8000E+01
    -26.595  0.0000E+00  0.8000E+01
    -26.443  0.0000E+00  0.8000E+01
    -26.291  0.0000E+00  0.8000E+01
    -26.139  0.0000E+00  0.8000E+01
    -25.988  0.0000E+00  0.8000E+01
    -25.836  0.0000E+00  0.8000E+01
    -25.684  0.0000E+00  0.8000E+01
    -25.532  0.0000E+00  0.8000E+01
    -25.381  0.0000E+00  0.8000E+01
    -25.229  0.0000E+00  0.8000E+01
    -25.077  0.0000E+00  0.8000E+01
    -24.925  0.0000E+00  0.8000E+01
    -24.774  0.0000E+00  0.8000E+01
    -24.622  0.0000E+00  0.8000E+01
    -24.470  0.0000E+00  0.8000E+01
    -24.318  0.0000E+00  0.8000E+01
    -24.167  0.0000E+00  0.8000E+01
    -24.015  0.0000E+00  0.8000E+01
    -23.863  0.0000E+00  0.8000E+01
    -23.711  0.0000E+00  0.8000E+01
    -23.560  0.0000E+00  0.8000E+01
    -23.408  0.0000E+00  0.8000E+01
    -23.256  0.0000E+00  0.8000E+01
    -23.104  0.0000E+00  0.8000E+01
    -22.953  0.0000E+00  0.8000E+01
    -22.801  0.0000E+00  0.8000E+01
    -22.649  0.0000E+00  0.8000E+01
    -22.497  0.0000E+00  0.8000E+01
    -22.346  0.0000E+00  0.8000E+01
    -22.194  0.0000E+00  0.8000E+01
    -22.042  0.0000E+00  0.8000E+01
    -21.890  0.0000E+00  0.8000E+01
    -21.739  0.0000E+00  0.8000E+01
    -21.587  0.0000E+00  0.8000E+01
    -21.435  0.0000E+00  0.8000E+01
    -21.283  0.0000E+00  0.8000E+01
    -21.132  0.0000E+00  0.8000E+01
    -20.980  0.0000E+00  0.8000E+01
    -20.828  0.0000E+00  0.8000E+01
    -20.676  0.0000E+00  0.8000E+01
    -20.525  0.0000E+00  0.8000E+01
    -20.373  0.0000E+00  0.8000E+01
    -20.221  0.0000E+00  0.8000E+01
    -20.069  0.0000E+00  0.8000E+01
    -19.918  0.0000E+00  0.8000E+01
    -19.766  0.0000E+00  0.8000E+01
    -19.614  0.0000E+00  0.8000E+01
    -19.462  0.0000E+00  0.8000E+01
    -19.311  0.0000E+00  0.8000E+01
    -19.159  0.0000E+00  0.8000E+01
    -19.007  0.0000E+00  0.8000E+01
    -18.855  0.0000E+00  0.8000E+01
    -18.704  0.0000E+00  0.8000E+01
    -18.552  0.0000E+00  0.8000E+01
    -18.400  0.0000E+00  0.8000E+01
    -18.248  0.0000E+00  0.8000E+01
    -18.097  0.0000E+00  0.8000E+01
    -17.945  0.0000E+00  0.8000E+01
    -17.793  0.0000E+00  0.8000E+01
    -17.641  0.5405E+01  0.8154E+01
    -17.490  0.1043E+02  0.9648E+01
    -17.338  0.8080E+01  0.1133E+02
    -17.186  0.7703E+01  0.1242E+02
    -17.034  0.1731E+02  0.1350E+02
    -16.883  0.7602E+01  0.1484E+02
    -16.731  0.3496E+01  0.1557E+02
    -16.579  0.4497E+02  0.1937E+02
    -16.427  0.3629E+02  0.2521E+02
    -16.276  0.6264E+01  0.2678E+02
    -16.124  0.9008E+01  0.2886E+02
    -15.972  0.2579E+01  0.2986E+02
    -15.820  0.9591E+01  0.3242E+02
    -15.669  0.1387E+02  0.3439E+02
    -15.517  0.1403E+00  0.3601E+02
    -15.365  0.9826E+00  0.3610E+02
    -15.213  0.2036E+01  0.3631E+02
    -15.062  0.4350E+01  0.3671E+02
    -14.910  0.1581E+02  0.3803E+02
    -14.758  0.2513E+02  0.4162E+02
    -14.606  0.2859E+02  0.4745E+02
    -14.455  0.3010E+02  0.5196E+02
    -14.303  0.9352E+01  0.5582E+02
    -14.151  0.0000E+00  0.5600E+02
    -13.999  0.0000E+00  0.5600E+02
    -13.848  0.0000E+00  0.5600E+02
    -13.696  0.0000E+00  0.5600E+02
    -13.544  0.0000E+00  0.5600E+02
    -13.392  0.0000E+00  0.5600E+02
    -13.241  0.0000E+00  0.5600E+02
    -13.089  0.0000E+00  0.5600E+02
    -12.937  0.0000E+00  0.5600E+02
    -12.785  0.0000E+00  0.5600E+02
    -12.634  0.0000E+00  0.5600E+02
    -12.482  0.0000E+00  0.5600E+02
    -12.330  0.0000E+00  0.5600E+02
    -12.178  0.0000E+00  0.5600E+02
    -12.027  0.0000E+00  0.5600E+02
    -11.875  0.0000E+00  0.5600E+02
    -11.723  0.0000E+00  0.5600E+02
    -11.571  0.0000E+00  0.5600E+02
    -11.420  0.0000E+00  0.5600E+02
    -11.268  0.0000E+00  0.5600E+02
    -11.116  0.0000E+00  0.5600E+02
    -10.964  0.0000E+00  0.5600E+02
    -10.813  0.0000E+00  0.5600E+02
    -10.661  0.0000E+00  0.5600E+02
    -10.509  0.0000E+00  0.5600E+02
    -10.357  0.0000E+00  0.5600E+02
    -10.206  0.0000E+00  0.5600E+02
    -10.054  0.0000E+00  0.5600E+02
     -9.902  0.0000E+00  0.5600E+02
     -9.750  0.0000E+00  0.5600E+02
     -9.599  0.0000E+00  0.5600E+02
     -9.447  0.0000E+00  0.5600E+02
     -9.295  0.0000E+00  0.5600E+02
     -9.143  0.0000E+00  0.5600E+02
     -8.992  0.0000E+00  0.5600E+02
     -8.840  0.0000E+00  0.5600E+02
     -8.688  0.0000E+00  0.5600E+02
     -8.536  0.0000E+00  0.5600E+02
     -8.385  0.0000E+00  0.5600E+02
     -8.233  0.0000E+00  0.5600E+02
     -8.081  0.0000E+00  0.5600E+02
     -7.929  0.0000E+00  0.5600E+02
     -7.778  0.0000E+00  0.5600E+02
     -7.626  0.0000E+00  0.5600E+02
     -7.474  0.0000E+00  0.5600E+02
     -7.322  0.0000E+00  0.5600E+02
     -7.171  0.0000E+00  0.5600E+02
     -7.019  0.0000E+00  0.5600E+02
     -6.867  0.0000E+00  0.5600E+02
     -6.715  0.0000E+00  0.5600E+02
     -6.564  0.0000E+00  0.5600E+02
     -6.412  0.0000E+00  0.5600E+02
     -6.260  0.0000E+00  0.5600E+02
     -6.108  0.0000E+00  0.5600E+02
     -5.957  0.0000E+00  0.5600E+02
     -5.805  0.0000E+00  0.5600E+02
     -5.653  0.0000E+00  0.5600E+02
     -5.501  0.0000E+00  0.5600E+02
     -5.350  0.0000E+00  0.5600E+02
     -5.198  0.0000E+00  0.5600E+02
     -5.046  0.0000E+00  0.5600E+02
     -4.894  0.0000E+00  0.5600E+02
     -4.743  0.0000E+00  0.5600E+02
     -4.591  0.1656E+01  0.5606E+02
     -4.439  0.9931E+01  0.5725E+02
     -4.287  0.1570E+02  0.5960E+02
     -4.136  0.1635E+02  0.6209E+02
     -3.984  0.1378E+02  0.6447E+02
     -3.832  0.1302E+02  0.6673E+02
     -3.680  0.1465E+02  0.6905E+02
     -3.529  0.1555E+02  0.7155E+02
     -3.377  0.1930E+02  0.7459E+02
     -3.225  0.2205E+02  0.7770E+02
     -3.073  0.2715E+02  0.8160E+02
     -2.922  0.1973E+02  0.8518E+02
     -2.770  0.1169E+02  0.8759E+02
     -2.618  0.1368E+02  0.8975E+02
     -2.466  0.1223E+02  0.9173E+02
     -2.315  0.1287E+02  0.9362E+02
     -2.163  0.1124E+02  0.9559E+02
     -2.011  0.1036E+02  0.9725E+02
     -1.859  0.1047E+02  0.9881E+02
     -1.708  0.1146E+02  0.1004E+03
     -1.556  0.1748E+02  0.1025E+03
     -1.404  0.2651E+02  0.1048E+03
     -1.252  0.2324E+02  0.1082E+03
     -1.101  0.2458E+02  0.1111E+03
     -0.949  0.2177E+02  0.1149E+03
     -0.797  0.1006E+02  0.1177E+03
     -0.645  0.2403E+02  0.1204E+03
     -0.494  0.1652E+02  0.1233E+03
     -0.342  0.1328E+02  0.1253E+03
     -0.190  0.6732E+01  0.1269E+03
     -0.038  0.1286E+01  0.1274E+03
      0.113  0.1151E+01  0.1276E+03
      0.265  0.9495E+00  0.1278E+03
      0.417  0.7024E+00  0.1279E+03
      0.569  0.0000E+00  0.1280E+03
      0.720  0.0000E+00  0.1280E+03
      0.872  0.0000E+00  0.1280E+03
      1.024  0.0000E+00  0.1280E+03
      1.176  0.0000E+00  0.1280E+03
      1.327  0.0000E+00  0.1280E+03
      1.479  0.0000E+00  0.1280E+03
      1.631  0.1837E+00  0.1280E+03
      1.783  0.1906E+01  0.1281E+03
      1.934  0.3629E+01  0.1286E+03
      2.086  0.4638E+01  0.1292E+03
      2.238  0.4045E+01  0.1299E+03
      2.390  0.7678E+01  0.1307E+03
      2.541  0.7514E+01  0.1319E+03
      2.693  0.6481E+01  0.1329E+03
      2.845  0.9055E+01  0.1340E+03
      2.997  0.1051E+02  0.1355E+03
      3.148  0.1040E+02  0.1371E+03
      3.300  0.1326E+02  0.1388E+03
      3.452  0.2026E+02  0.1412E+03
      3.604  0.1831E+02  0.1439E+03
      3.755  0.1074E+02  0.1461E+03
      3.907  0.4321E+01  0.1476E+03
      4.059  0.1728E+01  0.1483E+03
      4.211  0.1106E+01  0.1485E+03
      4.362  0.1080E+01  0.1486E+03
      4.514  0.1055E+01  0.1488E+03
      4.666  0.1030E+01  0.1490E+03
      4.818  0.1004E+01  0.1491E+03
      4.969  0.9791E+00  0.1493E+03
      5.121  0.9538E+00  0.1494E+03
      5.273  0.9285E+00  0.1496E+03
      5.425  0.9031E+00  0.1497E+03
      5.576  0.9107E+00  0.1498E+03
      5.728  0.9856E+00  0.1500E+03
      5.880  0.1006E+01  0.1501E+03
      6.032  0.8660E+00  0.1503E+03
      6.183  0.1012E+01  0.1504E+03
      6.335  0.1212E+01  0.1506E+03
      6.487  0.9820E+00  0.1508E+03
      6.639  0.9327E+00  0.1509E+03
      6.790  0.8960E+00  0.1510E+03
      6.942  0.9230E+00  0.1512E+03
      7.094  0.9186E+00  0.1513E+03
      7.246  0.9740E+00  0.1515E+03
      7.397  0.1758E+01  0.1517E+03
      7.549  0.1061E+01  0.1519E+03
      7.701  0.0000E+00  0.1520E+03
      7.853  0.0000E+00  0.1520E+03
      8.004  0.0000E+00  0.1520E+03
      8.156  0.0000E+00  0.1520E+03
      8.308  0.0000E+00  0.1520E+03
      8.460  0.0000E+00  0.1520E+03
      8.611  0.0000E+00  0.1520E+03
      8.763  0.0000E+00  0.1520E+03
      8.915  0.0000E+00  0.1520E+03
      9.067  0.0000E+00  0.1520E+03
      9.218  0.0000E+00  0.1520E+03
      9.370  0.0000E+00  0.1520E+03
      9.522  0.0000E+00  0.1520E+03
      9.674  0.0000E+00  0.1520E+03
