       N       E                     dE             d eps       ncg     rms          rms(c)
DAV:   1     0.156122096989E+04    0.15612E+04   -0.54880E+04  1840   0.145E+03
DAV:   2     0.169385842067E+03   -0.13918E+04   -0.13449E+04  2296   0.373E+02
DAV:   3    -0.176410871599E+03   -0.34580E+03   -0.33751E+03  2484   0.185E+02
DAV:   4    -0.198208059251E+03   -0.21797E+02   -0.21734E+02  2364   0.560E+01
DAV:   5    -0.199455536226E+03   -0.12475E+01   -0.12468E+01  3144   0.116E+01    0.374E+01
RMM:   6    -0.163947292157E+03    0.35508E+02   -0.33862E+02  1936   0.529E+01    0.282E+01
RMM:   7    -0.160040270361E+03    0.39070E+01   -0.76369E+01  1921   0.296E+01    0.128E+01
RMM:   8    -0.156439934610E+03    0.36003E+01   -0.43541E+00  2227   0.734E+00    0.995E+00
RMM:   9    -0.156625829251E+03   -0.18589E+00   -0.35230E+01  1922   0.116E+01    0.174E+01
RMM:  10    -0.154632267518E+03    0.19936E+01   -0.20338E+00  2115   0.448E+00    0.105E+01
RMM:  11    -0.154793965502E+03   -0.16170E+00   -0.45111E-01  2453   0.165E+00    0.114E+01
RMM:  12    -0.153610765254E+03    0.11832E+01   -0.27929E+00  2054   0.296E+00    0.367E+00
RMM:  13    -0.153511885475E+03    0.98880E-01   -0.15130E+00  2090   0.239E+00    0.632E-01
RMM:  14    -0.153510058820E+03    0.18267E-02   -0.21361E-01  2191   0.970E-01    0.736E-01
RMM:  15    -0.153499336173E+03    0.10723E-01   -0.48698E-02  2106   0.543E-01    0.235E-01
RMM:  16    -0.153503381308E+03   -0.40451E-02   -0.18833E-02  2127   0.414E-01    0.386E-01
RMM:  17    -0.153502197294E+03    0.11840E-02   -0.67485E-03  2174   0.230E-01    0.209E-01
RMM:  18    -0.153501567315E+03    0.62998E-03   -0.53053E-03  2105   0.169E-01    0.480E-02
RMM:  19    -0.153501690810E+03   -0.12350E-03   -0.53050E-04  2374   0.577E-02    0.284E-02
RMM:  20    -0.153501921819E+03   -0.23101E-03   -0.24461E-04  2037   0.449E-02    0.249E-02
RMM:  21    -0.153502077701E+03   -0.15588E-03   -0.20973E-04  1986   0.379E-02    0.209E-02
RMM:  22    -0.153502203313E+03   -0.12561E-03   -0.10249E-04  1694   0.279E-02    0.711E-03
RMM:  23    -0.153502276234E+03   -0.72921E-04   -0.32526E-05  1265   0.168E-02    0.109E-02
RMM:  24    -0.153502379096E+03   -0.10286E-03   -0.14127E-05  1118   0.134E-02    0.110E-02
RMM:  25    -0.153502473750E+03   -0.94654E-04   -0.39865E-05  1196   0.171E-02    0.100E-02
RMM:  26    -0.153502496094E+03   -0.22345E-04   -0.62291E-06  1022   0.104E-02    0.330E-03
RMM:  27    -0.153502517801E+03   -0.21707E-04   -0.53694E-06  1012   0.717E-03    0.213E-03
RMM:  28    -0.153502523574E+03   -0.57724E-05   -0.18867E-06   875   0.540E-03
   1 F= -.15350252E+03 E0= -.15350243E+03  d E =-.153503E+03
       N       E                     dE             d eps       ncg     rms          rms(c)
DAV:   1    -0.152654926608E+03    0.84759E+00   -0.50479E+02  1872   0.760E+01    0.696E+00
RMM:   2    -0.159571549317E+03   -0.69166E+01   -0.31332E+01  1844   0.179E+01    0.164E+01
RMM:   3    -0.156600535526E+03    0.29710E+01   -0.37275E+00  1833   0.751E+00    0.114E+01
RMM:   4    -0.154454081531E+03    0.21465E+01   -0.93546E+00  1998   0.855E+00    0.491E+00
RMM:   5    -0.154094771295E+03    0.35931E+00   -0.24095E+00  2158   0.368E+00    0.338E+00
RMM:   6    -0.153651962599E+03    0.44281E+00   -0.19091E+00  1836   0.419E+00    0.232E+00
RMM:   7    -0.153541172368E+03    0.11079E+00   -0.32969E-01  2008   0.198E+00    0.128E+00
RMM:   8    -0.153525472721E+03    0.15700E-01   -0.15911E-01  1879   0.146E+00    0.854E-01
RMM:   9    -0.153509250049E+03    0.16223E-01   -0.64608E-02  1903   0.899E-01    0.457E-01
RMM:  10    -0.153507951722E+03    0.12983E-02   -0.37087E-02  1968   0.572E-01    0.214E-01
RMM:  11    -0.153510131410E+03   -0.21797E-02   -0.63896E-03  2164   0.285E-01    0.325E-01
RMM:  12    -0.153507171192E+03    0.29602E-02   -0.39228E-03  1951   0.202E-01    0.190E-01
RMM:  13    -0.153506420331E+03    0.75086E-03   -0.33528E-03  2102   0.158E-01    0.727E-02
RMM:  14    -0.153506384900E+03    0.35430E-04   -0.12429E-03  2017   0.994E-02    0.491E-02
RMM:  15    -0.153506366063E+03    0.18837E-04   -0.43835E-04  1929   0.513E-02    0.292E-02
RMM:  16    -0.153506379997E+03   -0.13933E-04   -0.14919E-04  1701   0.380E-02    0.153E-02
RMM:  17    -0.153506383611E+03   -0.36147E-05   -0.15259E-05  1079   0.153E-02
   2 F= -.15350638E+03 E0= -.15350638E+03  d E =-.386004E-02
       N       E                     dE             d eps       ncg     rms          rms(c)
DAV:   1    -0.155193309573E+03   -0.16869E+01   -0.34891E+02  1824   0.660E+01    0.526E+00
RMM:   2    -0.155850021229E+03   -0.65671E+00   -0.17499E+01  1824   0.147E+01    0.514E+00
RMM:   3    -0.155399519032E+03    0.45050E+00   -0.18414E+00  1851   0.475E+00    0.320E+00
RMM:   4    -0.155262720342E+03    0.13680E+00   -0.36912E-01  1878   0.197E+00    0.205E+00
RMM:   5    -0.155217862044E+03    0.44858E-01   -0.56695E-01  1852   0.270E+00    0.161E+00
RMM:   6    -0.155190333505E+03    0.27529E-01   -0.85634E-02  2401   0.795E-01    0.142E+00
RMM:   7    -0.155127664275E+03    0.62669E-01   -0.33820E-01  1946   0.113E+00    0.471E-01
RMM:   8    -0.155123959524E+03    0.37048E-02   -0.45149E-02  2034   0.560E-01    0.501E-01
RMM:   9    -0.155122159399E+03    0.18001E-02   -0.27087E-02  2246   0.366E-01    0.211E-01
RMM:  10    -0.155121526735E+03    0.63266E-03   -0.55386E-03  2120   0.241E-01    0.104E-01
RMM:  11    -0.155121796801E+03   -0.27007E-03   -0.12374E-03  2541   0.928E-02    0.111E-01
RMM:  12    -0.155121659428E+03    0.13737E-03   -0.10226E-03  2321   0.694E-02    0.635E-02
RMM:  13    -0.155121678752E+03   -0.19324E-04   -0.10447E-03  2017   0.900E-02    0.345E-02
RMM:  14    -0.155121684040E+03   -0.52872E-05   -0.22684E-04  1768   0.415E-02    0.135E-02
RMM:  15    -0.155121693122E+03   -0.90826E-05   -0.45698E-05  1330   0.170E-02
   3 F= -.15512169E+03 E0= -.15512169E+03  d E =-.161531E+01
       N       E                     dE             d eps       ncg     rms          rms(c)
DAV:   1    -0.155511611358E+03   -0.38993E+00   -0.65605E+01  1824   0.313E+01    0.152E+00
RMM:   2    -0.155815607485E+03   -0.30400E+00   -0.30929E+00  1831   0.688E+00    0.209E+00
RMM:   3    -0.155693105155E+03    0.12250E+00   -0.94414E-01  1824   0.363E+00    0.150E+00
RMM:   4    -0.155636824548E+03    0.56281E-01   -0.25055E-01  1895   0.147E+00    0.882E-01
RMM:   5    -0.155610552359E+03    0.26272E-01   -0.20580E-01  1860   0.154E+00    0.751E-01
RMM:   6    -0.155613883507E+03   -0.33311E-02   -0.30430E-02  1864   0.595E-01    0.817E-01
RMM:   7    -0.155602666188E+03    0.11217E-01   -0.23822E-02  1902   0.403E-01    0.397E-01
RMM:   8    -0.155598455823E+03    0.42104E-02   -0.24739E-02  1935   0.408E-01    0.447E-02
RMM:   9    -0.155598627829E+03   -0.17201E-03   -0.15280E-03  2322   0.106E-01    0.425E-02
RMM:  10    -0.155598752035E+03   -0.12421E-03   -0.96653E-04  2140   0.830E-02    0.452E-02
RMM:  11    -0.155598683584E+03    0.68452E-04   -0.20917E-04  1865   0.436E-02    0.185E-02
RMM:  12    -0.155598679438E+03    0.41462E-05   -0.87610E-05  1711   0.282E-02
   4 F= -.15559868E+03 E0= -.15559868E+03  d E =-.476986E+00
       N       E                     dE             d eps       ncg     rms          rms(c)
DAV:   1    -0.155717850819E+03   -0.11917E+00   -0.18553E+01  1848   0.167E+01    0.896E-01
RMM:   2    -0.155812407361E+03   -0.94557E-01   -0.79950E-01  1824   0.380E+00    0.128E+00
RMM:   3    -0.155788850029E+03    0.23557E-01   -0.38872E-01  1844   0.184E+00    0.108E+00
RMM:   4    -0.155761294118E+03    0.27556E-01   -0.22679E-01  1887   0.143E+00    0.723E-01
RMM:   5    -0.155752831926E+03    0.84622E-02   -0.24993E-02  2029   0.460E-01    0.366E-01
RMM:   6    -0.155756261574E+03   -0.34296E-02   -0.44835E-02  1945   0.532E-01    0.478E-01
RMM:   7    -0.155748251002E+03    0.80106E-02   -0.20636E-02  1827   0.410E-01    0.990E-02
RMM:   8    -0.155748587699E+03   -0.33670E-03   -0.26365E-03  2013   0.127E-01    0.661E-02
RMM:   9    -0.155748518172E+03    0.69527E-04   -0.54179E-04  1926   0.536E-02    0.327E-02
RMM:  10    -0.155748516653E+03    0.15192E-05   -0.93023E-05  1442   0.314E-02
   5 F= -.15574852E+03 E0= -.15574852E+03  d E =-.149837E+00
       N       E                     dE             d eps       ncg     rms          rms(c)
DAV:   1    -0.155780702773E+03   -0.32185E-01   -0.81396E+01  1840   0.341E+01    0.142E+00
RMM:   2    -0.155999346710E+03   -0.21864E+00   -0.26466E+00  1824   0.652E+00    0.141E+00
RMM:   3    -0.156072678319E+03   -0.73332E-01   -0.10975E+00  1894   0.300E+00    0.174E+00
RMM:   4    -0.155961760622E+03    0.11092E+00   -0.24131E-01  1832   0.144E+00    0.895E-01
RMM:   5    -0.155955532300E+03    0.62283E-02   -0.96654E-02  1863   0.896E-01    0.301E-01
RMM:   6    -0.155954413034E+03    0.11193E-02   -0.10509E-02  2006   0.374E-01    0.209E-01
RMM:   7    -0.155954279796E+03    0.13324E-03   -0.43762E-03  2113   0.185E-01    0.193E-01
RMM:   8    -0.155953605257E+03    0.67454E-03   -0.49050E-03  2222   0.168E-01    0.441E-02
RMM:   9    -0.155953639434E+03   -0.34178E-04   -0.10177E-03  2232   0.829E-02    0.516E-02
RMM:  10    -0.155953613242E+03    0.26192E-04   -0.36653E-04  1975   0.535E-02    0.214E-02
RMM:  11    -0.155953612143E+03    0.10987E-05   -0.48759E-05  1463   0.249E-02
   6 F= -.15595361E+03 E0= -.15595361E+03  d E =-.205095E+00
       N       E                     dE             d eps       ncg     rms          rms(c)
DAV:   1    -0.155982122821E+03   -0.28510E-01   -0.10449E+01  1840   0.129E+01    0.563E-01
RMM:   2    -0.156057810793E+03   -0.75688E-01   -0.54513E-01  1835   0.281E+00    0.133E+00
RMM:   3    -0.156026858426E+03    0.30952E-01   -0.58716E-02  1991   0.852E-01    0.107E+00
RMM:   4    -0.156002913083E+03    0.23945E-01   -0.13116E-01  1858   0.103E+00    0.315E-01
RMM:   5    -0.156002883827E+03    0.29256E-04   -0.14251E-02  1994   0.374E-01    0.150E-01
RMM:   6    -0.156002780124E+03    0.10370E-03   -0.58667E-03  2515   0.174E-01    0.863E-02
RMM:   7    -0.156002765745E+03    0.14378E-04   -0.10300E-03  2336   0.755E-02    0.864E-02
RMM:   8    -0.156002663803E+03    0.10194E-03   -0.12636E-03  1971   0.938E-02    0.327E-02
RMM:   9    -0.156002675206E+03   -0.11403E-04   -0.14133E-04  1751   0.408E-02    0.141E-02
RMM:  10    -0.156002681846E+03   -0.66399E-05   -0.36523E-05  1261   0.182E-02
   7 F= -.15600268E+03 E0= -.15600268E+03  d E =-.490697E-01
       N       E                     dE             d eps       ncg     rms          rms(c)
DAV:   1    -0.156028242287E+03   -0.25567E-01   -0.84907E+00  1864   0.115E+01    0.431E-01
RMM:   2    -0.156049201110E+03   -0.20959E-01   -0.23778E-01  1824   0.199E+00    0.412E-01
RMM:   3    -0.156047235882E+03    0.19652E-02   -0.32196E-02  2006   0.660E-01    0.122E-01
RMM:   4    -0.156047216169E+03    0.19712E-04   -0.44037E-03  2390   0.208E-01    0.937E-02
RMM:   5    -0.156047365923E+03   -0.14975E-03   -0.17747E-03  2411   0.119E-01    0.116E-01
RMM:   6    -0.156047127691E+03    0.23823E-03   -0.17567E-03  2290   0.104E-01    0.204E-02
RMM:   7    -0.156047128959E+03   -0.12685E-05   -0.21518E-04  2197   0.397E-02    0.155E-02
RMM:   8    -0.156047134806E+03   -0.58473E-05   -0.55593E-05  1538   0.194E-02
   8 F= -.15604713E+03 E0= -.15604713E+03  d E =-.444530E-01
       N       E                     dE             d eps       ncg     rms          rms(c)
DAV:   1    -0.155046452350E+03    0.10007E+01   -0.39679E+02  1824   0.787E+01    0.315E+00
RMM:   2    -0.156230521083E+03   -0.11841E+01   -0.12121E+01  1824   0.140E+01    0.158E+00
RMM:   3    -0.156289617443E+03   -0.59096E-01   -0.14107E+00  2189   0.459E+00    0.115E+00
RMM:   4    -0.156266030227E+03    0.23587E-01   -0.22052E-01  2524   0.153E+00    0.354E-01
RMM:   5    -0.156268448266E+03   -0.24180E-02   -0.38647E-02  2536   0.572E-01    0.361E-01
RMM:   6    -0.156268929035E+03   -0.48077E-03   -0.28873E-02  2731   0.409E-01    0.187E-01
RMM:   7    -0.156268900118E+03    0.28917E-04   -0.54999E-03  2791   0.180E-01    0.158E-01
RMM:   8    -0.156269221828E+03   -0.32171E-03   -0.71215E-03  2622   0.208E-01    0.119E-01
RMM:   9    -0.156269042203E+03    0.17962E-03   -0.15312E-03  2552   0.106E-01    0.831E-02
RMM:  10    -0.156268987768E+03    0.54435E-04   -0.13823E-03  2519   0.917E-02    0.330E-02
RMM:  11    -0.156269025093E+03   -0.37325E-04   -0.33640E-04  2216   0.453E-02    0.258E-02
RMM:  12    -0.156269061869E+03   -0.36776E-04   -0.26312E-04  2307   0.400E-02    0.339E-02
RMM:  13    -0.156269060124E+03    0.17453E-05   -0.82861E-05  1691   0.238E-02
   9 F= -.15626906E+03 E0= -.15626906E+03  d E =-.221925E+00
       N       E                     dE             d eps       ncg     rms          rms(c)
DAV:   1    -0.156278160304E+03   -0.90984E-02   -0.43335E+00  1904   0.847E+00    0.332E-01
RMM:   2    -0.156299594548E+03   -0.21434E-01   -0.16459E-01  1829   0.162E+00    0.688E-01
RMM:   3    -0.156287999263E+03    0.11595E-01   -0.30789E-02  1893   0.596E-01    0.192E-01
RMM:   4    -0.156288098921E+03   -0.99658E-04   -0.47548E-03  2136   0.230E-01    0.140E-01
RMM:   5    -0.156287750732E+03    0.34819E-03   -0.24359E-03  2154   0.134E-01    0.606E-02
RMM:   6    -0.156287778315E+03   -0.27582E-04   -0.31836E-04  2373   0.482E-02    0.396E-02
RMM:   7    -0.156287793700E+03   -0.15386E-04   -0.40235E-04  2063   0.495E-02    0.204E-02
RMM:   8    -0.156287790624E+03    0.30766E-05   -0.53127E-05  1474   0.234E-02
  10 F= -.15628779E+03 E0= -.15628779E+03  d E =-.187305E-01
       N       E                     dE             d eps       ncg     rms          rms(c)
DAV:   1    -0.156239165622E+03    0.48628E-01   -0.39241E+01  1824   0.250E+01    0.877E-01
RMM:   2    -0.156330500177E+03   -0.91335E-01   -0.98667E-01  1824   0.408E+00    0.410E-01
RMM:   3    -0.156332601989E+03   -0.21018E-02   -0.75455E-02  2156   0.117E+00    0.143E-01
RMM:   4    -0.156333722975E+03   -0.11210E-02   -0.12391E-02  2832   0.325E-01    0.123E-01
RMM:   5    -0.156333828766E+03   -0.10579E-03   -0.25271E-03  2823   0.139E-01    0.907E-02
RMM:   6    -0.156333842377E+03   -0.13611E-04   -0.13508E-03  2813   0.965E-02    0.580E-02
RMM:   7    -0.156333837800E+03    0.45764E-05   -0.57707E-04  2722   0.569E-02    0.390E-02
RMM:   8    -0.156333859384E+03   -0.21584E-04   -0.26268E-04  2319   0.377E-02    0.295E-02
RMM:   9    -0.156333873314E+03   -0.13930E-04   -0.17249E-04  2300   0.334E-02    0.198E-02
RMM:  10    -0.156333878213E+03   -0.48997E-05   -0.58467E-05  1640   0.205E-02
  11 F= -.15633388E+03 E0= -.15633388E+03  d E =-.460876E-01
       N       E                     dE             d eps       ncg     rms          rms(c)
DAV:   1    -0.156076911239E+03    0.25696E+00   -0.12236E+02  1824   0.446E+01    0.159E+00
RMM:   2    -0.156407224411E+03   -0.33031E+00   -0.34002E+00  1824   0.741E+00    0.112E+00
RMM:   3    -0.156392289301E+03    0.14935E-01   -0.26484E-01  2061   0.221E+00    0.417E-01
RMM:   4    -0.156393641887E+03   -0.13526E-02   -0.69766E-02  2716   0.762E-01    0.998E-02
RMM:   5    -0.156394477075E+03   -0.83519E-03   -0.13462E-02  2722   0.346E-01    0.216E-01
RMM:   6    -0.156394017693E+03    0.45938E-03   -0.59870E-03  2760   0.205E-01    0.528E-02
RMM:   7    -0.156394312025E+03   -0.29433E-03   -0.28385E-03  2850   0.120E-01    0.612E-02
RMM:   8    -0.156394307407E+03    0.46184E-05   -0.83064E-04  2640   0.659E-02    0.289E-02
RMM:   9    -0.156394330624E+03   -0.23217E-04   -0.44743E-04  2426   0.472E-02    0.114E-02
RMM:  10    -0.156394351783E+03   -0.21159E-04   -0.17344E-04  2025   0.318E-02    0.126E-02
RMM:  11    -0.156394356752E+03   -0.49697E-05   -0.87580E-05  1802   0.228E-02
  12 F= -.15639436E+03 E0= -.15639436E+03  d E =-.604785E-01
       N       E                     dE             d eps       ncg     rms          rms(c)
DAV:   1    -0.156395761355E+03   -0.14096E-02   -0.26200E+00  1848   0.657E+00    0.256E-01
RMM:   2    -0.156401342453E+03   -0.55811E-02   -0.67565E-02  1824   0.110E+00    0.125E-01
RMM:   3    -0.156402011225E+03   -0.66877E-03   -0.75216E-03  2172   0.337E-01    0.155E-01
RMM:   4    -0.156401661871E+03    0.34935E-03   -0.17062E-03  2376   0.135E-01    0.710E-02
RMM:   5    -0.156401692103E+03   -0.30232E-04   -0.20076E-03  2310   0.109E-01    0.505E-02
RMM:   6    -0.156401658674E+03    0.33428E-04   -0.27003E-04  2083   0.507E-02    0.182E-02
RMM:   7    -0.156401673965E+03   -0.15291E-04   -0.16923E-04  1843   0.312E-02    0.132E-02
RMM:   8    -0.156401670706E+03    0.32587E-05   -0.27233E-05  1255   0.161E-02
  13 F= -.15640167E+03 E0= -.15640167E+03  d E =-.731395E-02
       N       E                     dE             d eps       ncg     rms          rms(c)
DAV:   1    -0.156377733225E+03    0.23941E-01   -0.14774E+01  1824   0.155E+01    0.525E-01
RMM:   2    -0.156411414931E+03   -0.33682E-01   -0.35998E-01  1824   0.248E+00    0.184E-01
RMM:   3    -0.156412767565E+03   -0.13526E-02   -0.28136E-02  2182   0.704E-01    0.711E-02
RMM:   4    -0.156412999898E+03   -0.23233E-03   -0.41415E-03  2822   0.194E-01    0.388E-02
RMM:   5    -0.156413066117E+03   -0.66218E-04   -0.80307E-04  2768   0.768E-02    0.415E-02
RMM:   6    -0.156413074910E+03   -0.87936E-05   -0.40458E-04  2683   0.521E-02    0.209E-02
RMM:   7    -0.156413091440E+03   -0.16530E-04   -0.26899E-04  2375   0.396E-02    0.142E-02
RMM:   8    -0.156413098063E+03   -0.66227E-05   -0.76325E-05  1761   0.228E-02
  14 F= -.15641310E+03 E0= -.15641310E+03  d E =-.114274E-01
       N       E                     dE             d eps       ncg     rms          rms(c)
DAV:   1    -0.156399533380E+03    0.13558E-01   -0.89763E+00  1824   0.121E+01    0.423E-01
RMM:   2    -0.156419515564E+03   -0.19982E-01   -0.21494E-01  1830   0.191E+00    0.151E-01
RMM:   3    -0.156420286453E+03   -0.77089E-03   -0.15964E-02  2155   0.550E-01    0.776E-02
RMM:   4    -0.156420454975E+03   -0.16852E-03   -0.26990E-03  2862   0.151E-01    0.443E-02
RMM:   5    -0.156420469267E+03   -0.14292E-04   -0.53662E-04  2705   0.601E-02    0.274E-02
RMM:   6    -0.156420494707E+03   -0.25440E-04   -0.37776E-04  2633   0.500E-02    0.112E-02
RMM:   7    -0.156420506102E+03   -0.11394E-04   -0.10137E-04  1804   0.249E-02    0.688E-03
RMM:   8    -0.156420509861E+03   -0.37595E-05   -0.53321E-05  1610   0.195E-02
  15 F= -.15642051E+03 E0= -.15642051E+03  d E =-.741180E-02
       N       E                     dE             d eps       ncg     rms          rms(c)
DAV:   1    -0.156417011538E+03    0.34946E-02   -0.25767E+00  1840   0.652E+00    0.235E-01
RMM:   2    -0.156422733835E+03   -0.57223E-02   -0.63247E-02  1836   0.104E+00    0.873E-02
RMM:   3    -0.156422942798E+03   -0.20896E-03   -0.47591E-03  2171   0.302E-01    0.491E-02
RMM:   4    -0.156423020156E+03   -0.77358E-04   -0.84777E-04  2770   0.860E-02    0.305E-02
RMM:   5    -0.156423031494E+03   -0.11338E-04   -0.23488E-04  2449   0.421E-02    0.105E-02
RMM:   6    -0.156423046124E+03   -0.14630E-04   -0.64086E-05  1619   0.212E-02    0.963E-03
RMM:   7    -0.156423054548E+03   -0.84243E-05   -0.37423E-05  1447   0.169E-02
  16 F= -.15642305E+03 E0= -.15642305E+03  d E =-.254469E-02
       N       E                     dE             d eps       ncg     rms          rms(c)
DAV:   1    -0.156423830457E+03   -0.78433E-03   -0.60683E-01  1824   0.319E+00    0.137E-01
RMM:   2    -0.156424987300E+03   -0.11568E-02   -0.15222E-02  1826   0.531E-01    0.800E-02
RMM:   3    -0.156425108558E+03   -0.12126E-03   -0.15028E-03  2205   0.159E-01    0.415E-02
RMM:   4    -0.156425115474E+03   -0.69163E-05   -0.26444E-04  2443   0.500E-02    0.248E-02
RMM:   5    -0.156425142934E+03   -0.27460E-04   -0.14267E-04  2125   0.368E-02    0.214E-02
RMM:   6    -0.156425154073E+03   -0.11140E-04   -0.40036E-05  1361   0.197E-02    0.984E-03
RMM:   7    -0.156425156967E+03   -0.28943E-05   -0.23472E-05  1178   0.153E-02
  17 F= -.15642516E+03 E0= -.15642516E+03  d E =-.210242E-02
       N       E                     dE             d eps       ncg     rms          rms(c)
DAV:   1    -0.156424621237E+03    0.53284E-03   -0.12824E+00  1824   0.462E+00    0.189E-01
RMM:   2    -0.156427317107E+03   -0.26959E-02   -0.31188E-02  1826   0.749E-01    0.108E-01
RMM:   3    -0.156427331953E+03   -0.14847E-04   -0.31098E-03  2130   0.236E-01    0.231E-02
RMM:   4    -0.156427430035E+03   -0.98081E-04   -0.59519E-04  2656   0.701E-02    0.160E-02
RMM:   5    -0.156427456231E+03   -0.26196E-04   -0.12180E-04  2129   0.328E-02    0.735E-03
RMM:   6    -0.156427459921E+03   -0.36903E-05   -0.34500E-05  1421   0.167E-02
  18 F= -.15642746E+03 E0= -.15642746E+03  d E =-.230295E-02
