unknown system                          
           1
     5.581684    0.000000    0.000000
     0.000000    3.946846    0.000000
     0.000000    0.000000   23.163367
   O    Sr   Ti
  12   4   4
Direct configuration=     1
   0.25000000  0.50000000  0.19878712
   0.50000000  0.00000000  0.25902970
   0.25000000  0.50000000  0.31927227
   0.75000000  0.50000000  0.31927227
   0.00000000  0.00000000  0.37951485
   0.75000000  0.50000000  0.43975742
   0.25000000  0.50000000  0.43975742
   0.50000000  0.00000000  0.50000000
   0.25000000  0.50000000  0.56024258
   0.75000000  0.50000000  0.56024258
   0.00000000  0.00000000  0.62048515
   0.75000000  0.50000000  0.68072773
   0.00000000  0.00000000  0.25902970
   0.50000000  0.00000000  0.37951485
   0.00000000  0.00000000  0.50000000
   0.50000000  0.00000000  0.62048515
   0.50000000  0.50000000  0.25902970
   0.00000000  0.50000000  0.37951485
   0.50000000  0.50000000  0.50000000
   0.00000000  0.50000000  0.62048515
Direct configuration=     2
   0.26068239  0.50000000  0.20464751
   0.51422515  0.00000000  0.25929749
   0.25334038  0.50000000  0.31908567
   0.75624321  0.50000000  0.31833214
   0.00030727  0.00000000  0.37945156
   0.75104796  0.50000000  0.43926500
   0.25104796  0.50000000  0.44024985
   0.50030727  0.00000000  0.50006329
   0.25624321  0.50000000  0.56118271
   0.75334038  0.50000000  0.56042918
   0.01422515  0.00000000  0.62021736
   0.76068239  0.50000000  0.67486733
   0.01323172  0.00000000  0.25794772
   0.49998677  0.00000000  0.37940117
  -0.00001323  0.00000000  0.50011368
   0.51323172  0.00000000  0.62156713
   0.45060061  0.50000000  0.25526483
   0.00033455  0.50000000  0.37962533
   0.50033455  0.50000000  0.49988951
  -0.04939939  0.50000000  0.62425002
Direct configuration=     3
   0.24100743  0.50000000  0.19992852
   0.51508263  0.00000000  0.25889863
   0.25209269  0.50000000  0.31922365
   0.75871548  0.50000000  0.31814269
   0.00144879  0.00000000  0.37943283
   0.75152738  0.50000000  0.43928796
   0.25152738  0.50000000  0.44022689
   0.50144879  0.00000000  0.50008201
   0.25871548  0.50000000  0.56137216
   0.75209269  0.50000000  0.56029120
   0.01508263  0.00000000  0.62061622
   0.74100743  0.50000000  0.67958633
   0.01147631  0.00000000  0.25845395
   0.50101084  0.00000000  0.37925166
   0.00101084  0.00000000  0.50026319
   0.51147631  0.00000000  0.62106090
   0.47125381  0.50000000  0.26026470
  -0.00361538  0.50000000  0.37943873
   0.49638462  0.50000000  0.50007612
  -0.02874619  0.50000000  0.61925014
Direct configuration=     4
   0.23757650  0.50000000  0.20187230
   0.52033562  0.00000000  0.25890513
   0.25015959  0.50000000  0.32051943
   0.76302098  0.50000000  0.31757635
   0.00402514  0.00000000  0.37942741
   0.75278831  0.50000000  0.43922600
   0.25278831  0.50000000  0.44028885
   0.50402514  0.00000000  0.50008744
   0.26302098  0.50000000  0.56193850
   0.75015959  0.50000000  0.55899542
   0.02033562  0.00000000  0.62060972
   0.73757650  0.50000000  0.67764255
   0.01247290  0.00000000  0.25775111
   0.50286488  0.00000000  0.37917965
   0.00286488  0.00000000  0.50033519
   0.51247289  0.00000000  0.62176374
   0.46840396  0.50000000  0.25852431
  -0.01164789  0.50000000  0.37941446
   0.48835211  0.50000000  0.50010039
  -0.03159604  0.50000000  0.62099054
Direct configuration=     5
   0.23649521  0.50000000  0.20268444
   0.52260101  0.00000000  0.25859727
   0.25398774  0.50000000  0.31989918
   0.76314108  0.50000000  0.31689773
   0.00478167  0.00000000  0.37945798
   0.75289258  0.50000000  0.43914933
   0.25289258  0.50000000  0.44036552
   0.50478167  0.00000000  0.50005687
   0.26314108  0.50000000  0.56261712
   0.75398774  0.50000000  0.55961567
   0.02260101  0.00000000  0.62091758
   0.73649521  0.50000000  0.67683041
   0.01263973  0.00000000  0.25780590
   0.50271860  0.00000000  0.37920933
   0.00271860  0.00000000  0.50030551
   0.51263973  0.00000000  0.62170895
   0.46412084  0.50000000  0.25899193
  -0.01337846  0.50000000  0.37956802
   0.48662154  0.50000000  0.49994682
  -0.03587916  0.50000000  0.62052291
Direct configuration=     6
   0.23127702  0.50000000  0.20496722
   0.52878667  0.00000000  0.25787961
   0.25723615  0.50000000  0.32070923
   0.76749438  0.50000000  0.31600253
   0.00749011  0.00000000  0.37960950
   0.75289996  0.50000000  0.43904869
   0.25289996  0.50000000  0.44046616
   0.50749011  0.00000000  0.49990535
   0.26749438  0.50000000  0.56351232
   0.75723615  0.50000000  0.55880562
   0.02878667  0.00000000  0.62163524
   0.73127702  0.50000000  0.67454763
   0.01169591  0.00000000  0.25760349
   0.50224049  0.00000000  0.37896191
   0.00224049  0.00000000  0.50055294
   0.51169591  0.00000000  0.62191136
   0.45996837  0.50000000  0.25826029
  -0.01908906  0.50000000  0.37880402
   0.48091094  0.50000000  0.50071083
  -0.04003163  0.50000000  0.62125455
Direct configuration=     7
   0.22838639  0.50000000  0.20540696
   0.52992180  0.00000000  0.25752260
   0.25883481  0.50000000  0.32105010
   0.76811510  0.50000000  0.31546039
   0.00766656  0.00000000  0.37942013
   0.75276010  0.50000000  0.43876752
   0.25276010  0.50000000  0.44074733
   0.50766656  0.00000000  0.50009472
   0.26811510  0.50000000  0.56405446
   0.75883481  0.50000000  0.55846475
   0.02992180  0.00000000  0.62199225
   0.72838639  0.50000000  0.67410789
   0.01030743  0.00000000  0.25766002
   0.50109823  0.00000000  0.37913911
   0.00109823  0.00000000  0.50037573
   0.51030743  0.00000000  0.62185483
   0.46131072  0.50000000  0.25812993
  -0.01840114  0.50000000  0.37929276
   0.48159886  0.50000000  0.50022209
  -0.03868928  0.50000000  0.62138492
Direct configuration=     8
   0.22600666  0.50000000  0.20588253
   0.53112891  0.00000000  0.25713804
   0.26095550  0.50000000  0.32127866
   0.76980185  0.50000000  0.31531579
   0.00801962  0.00000000  0.37942784
   0.75208319  0.50000000  0.43866096
   0.25208320  0.50000000  0.44085388
   0.50801961  0.00000000  0.50008701
   0.26980185  0.50000000  0.56419906
   0.76095550  0.50000000  0.55823619
   0.03112891  0.00000000  0.62237680
   0.72600666  0.50000000  0.67363232
   0.00925758  0.00000000  0.25773664
   0.50026939  0.00000000  0.37907295
   0.00026939  0.00000000  0.50044190
   0.50925758  0.00000000  0.62177821
   0.46104522  0.50000000  0.25826933
  -0.01856793  0.50000000  0.37885974
   0.48143207  0.50000000  0.50065511
  -0.03895478  0.50000000  0.62124552
Direct configuration=     9
   0.21002954  0.50000000  0.20955729
   0.53987261  0.00000000  0.25476497
   0.27404840  0.50000000  0.32348114
   0.77880228  0.50000000  0.31334089
   0.01058097  0.00000000  0.37904344
   0.74952902  0.50000000  0.43730040
   0.24952902  0.50000000  0.44221444
   0.51058097  0.00000000  0.50047141
   0.27880228  0.50000000  0.56617395
   0.77404840  0.50000000  0.55603371
   0.03987261  0.00000000  0.62474988
   0.71002954  0.50000000  0.66995756
   0.00206696  0.00000000  0.25799888
   0.49500340  0.00000000  0.37933933
  -0.00499660  0.00000000  0.50017552
   0.50206695  0.00000000  0.62151597
   0.45991243  0.50000000  0.25784630
  -0.01984562  0.50000000  0.37840295
   0.48015438  0.50000000  0.50111190
  -0.04008757  0.50000000  0.62166855
Direct configuration=    10
   0.21062061  0.50000000  0.20971425
   0.53828314  0.00000000  0.25448725
   0.27596864  0.50000000  0.32366456
   0.77915359  0.50000000  0.31327047
   0.01057206  0.00000000  0.37895512
   0.74853889  0.50000000  0.43702232
   0.24853889  0.50000000  0.44249253
   0.51057206  0.00000000  0.50055973
   0.27915359  0.50000000  0.56624438
   0.77596864  0.50000000  0.55585029
   0.03828314  0.00000000  0.62502760
   0.71062061  0.50000000  0.66980060
   0.00114682  0.00000000  0.25807554
   0.49495108  0.00000000  0.37955127
  -0.00504892  0.00000000  0.49996357
   0.50114682  0.00000000  0.62143931
   0.45966534  0.50000000  0.25789991
  -0.01890019  0.50000000  0.37842963
   0.48109981  0.50000000  0.50108522
  -0.04033466  0.50000000  0.62161494
Direct configuration=    11
   0.20634193  0.50000000  0.21068524
   0.53918449  0.00000000  0.25366871
   0.28037790  0.50000000  0.32464601
   0.78237303  0.50000000  0.31278412
   0.01123606  0.00000000  0.37883495
   0.74693847  0.50000000  0.43638591
   0.24693847  0.50000000  0.44312894
   0.51123606  0.00000000  0.50067989
   0.28237303  0.50000000  0.56673073
   0.78037790  0.50000000  0.55486884
   0.03918449  0.00000000  0.62584614
   0.70634193  0.50000000  0.66882961
  -0.00151864  0.00000000  0.25818991
   0.49377131  0.00000000  0.37978528
  -0.00622869  0.00000000  0.49972957
   0.49848136  0.00000000  0.62132494
   0.46011616  0.50000000  0.25775998
  -0.01882072  0.50000000  0.37819712
   0.48117928  0.50000000  0.50131773
  -0.03988384  0.50000000  0.62175487
Direct configuration=    12
   0.20157202  0.50000000  0.21221636
   0.53796425  0.00000000  0.25215800
   0.28979836  0.50000000  0.32618836
   0.78781407  0.50000000  0.31174780
   0.01210860  0.00000000  0.37866139
   0.74283027  0.50000000  0.43497475
   0.24283027  0.50000000  0.44454010
   0.51210859  0.00000000  0.50085346
   0.28781407  0.50000000  0.56776705
   0.78979836  0.50000000  0.55332649
   0.03796425  0.00000000  0.62735685
   0.70157202  0.50000000  0.66729849
  -0.00629278  0.00000000  0.25843247
   0.49258540  0.00000000  0.38056251
  -0.00741460  0.00000000  0.49895233
   0.49370722  0.00000000  0.62108238
   0.45933013  0.50000000  0.25791132
  -0.01771030  0.50000000  0.37797120
   0.48228970  0.50000000  0.50154365
  -0.04066987  0.50000000  0.62160352
Direct configuration=    13
   0.20188355  0.50000000  0.21238382
   0.53674521  0.00000000  0.25210420
   0.29067651  0.50000000  0.32639395
   0.78875270  0.50000000  0.31166866
   0.01234432  0.00000000  0.37868339
   0.74189288  0.50000000  0.43469706
   0.24189288  0.50000000  0.44481779
   0.51234432  0.00000000  0.50083146
   0.28875270  0.50000000  0.56784619
   0.79067651  0.50000000  0.55312090
   0.03674521  0.00000000  0.62741064
   0.70188354  0.50000000  0.66713103
  -0.00658354  0.00000000  0.25834903
   0.49301813  0.00000000  0.38076734
  -0.00698187  0.00000000  0.49874751
   0.49341646  0.00000000  0.62116581
   0.45877861  0.50000000  0.25789561
  -0.01750837  0.50000000  0.37784855
   0.48249163  0.50000000  0.50166630
  -0.04122139  0.50000000  0.62161923
Direct configuration=    14
   0.19976169  0.50000000  0.21287368
   0.53622323  0.00000000  0.25174300
   0.29356380  0.50000000  0.32688756
   0.79089042  0.50000000  0.31123642
   0.01286720  0.00000000  0.37862521
   0.74030269  0.50000000  0.43410254
   0.24030269  0.50000000  0.44541231
   0.51286720  0.00000000  0.50088964
   0.29089042  0.50000000  0.56827843
   0.79356380  0.50000000  0.55262728
   0.03622323  0.00000000  0.62777185
   0.69976169  0.50000000  0.66664117
  -0.00791561  0.00000000  0.25829277
   0.49297879  0.00000000  0.38110684
  -0.00702121  0.00000000  0.49840801
   0.49208439  0.00000000  0.62122208
   0.45860782  0.50000000  0.25800936
  -0.01728003  0.50000000  0.37776390
   0.48271997  0.50000000  0.50175095
  -0.04139218  0.50000000  0.62150549
Direct configuration=    15
   0.19882349  0.50000000  0.21320568
   0.53517995  0.00000000  0.25164192
   0.29505801  0.50000000  0.32727544
   0.79282394  0.50000000  0.31087150
   0.01327855  0.00000000  0.37859231
   0.73853994  0.50000000  0.43353306
   0.23853994  0.50000000  0.44598179
   0.51327855  0.00000000  0.50092254
   0.29282394  0.50000000  0.56864335
   0.79505801  0.50000000  0.55223941
   0.03517995  0.00000000  0.62787293
   0.69882349  0.50000000  0.66630917
  -0.00854800  0.00000000  0.25805885
   0.49349455  0.00000000  0.38146326
  -0.00650545  0.00000000  0.49805158
   0.49145200  0.00000000  0.62145600
   0.45831860  0.50000000  0.25813042
  -0.01696902  0.50000000  0.37754224
   0.48303098  0.50000000  0.50197261
  -0.04168140  0.50000000  0.62138443
Direct configuration=    16
   0.19855877  0.50000000  0.21338345
   0.53467569  0.00000000  0.25164067
   0.29595428  0.50000000  0.32744515
   0.79382475  0.50000000  0.31061919
   0.01349681  0.00000000  0.37855726
   0.73765728  0.50000000  0.43323149
   0.23765728  0.50000000  0.44628336
   0.51349681  0.00000000  0.50095759
   0.29382475  0.50000000  0.56889565
   0.79595428  0.50000000  0.55206970
   0.03467569  0.00000000  0.62787418
   0.69855877  0.50000000  0.66613140
  -0.00893944  0.00000000  0.25789472
   0.49368265  0.00000000  0.38167340
  -0.00631735  0.00000000  0.49784145
   0.49106056  0.00000000  0.62162012
   0.45796428  0.50000000  0.25825745
  -0.01687508  0.50000000  0.37750075
   0.48312492  0.50000000  0.50201410
  -0.04203572  0.50000000  0.62125739
Direct configuration=    17
   0.19871593  0.50000000  0.21339578
   0.53439859  0.00000000  0.25180241
   0.29581891  0.50000000  0.32754419
   0.79407712  0.50000000  0.31051468
   0.01357008  0.00000000  0.37855348
   0.73724225  0.50000000  0.43312379
   0.23724225  0.50000000  0.44639106
   0.51357008  0.00000000  0.50096137
   0.29407712  0.50000000  0.56900017
   0.79581891  0.50000000  0.55197066
   0.03439860  0.00000000  0.62771244
   0.69871593  0.50000000  0.66611907
  -0.00893197  0.00000000  0.25770928
   0.49387386  0.00000000  0.38176437
  -0.00612614  0.00000000  0.49775048
   0.49106803  0.00000000  0.62180557
   0.45814267  0.50000000  0.25834271
  -0.01690744  0.50000000  0.37742196
   0.48309256  0.50000000  0.50209289
  -0.04185733  0.50000000  0.62117214
Direct configuration=    18
   0.19901379  0.50000000  0.21345792
   0.53405022  0.00000000  0.25198981
   0.29603436  0.50000000  0.32767242
   0.79448078  0.50000000  0.31037691
   0.01362352  0.00000000  0.37855173
   0.73654823  0.50000000  0.43290171
   0.23654823  0.50000000  0.44661314
   0.51362352  0.00000000  0.50096311
   0.29448078  0.50000000  0.56913794
   0.79603436  0.50000000  0.55184243
   0.03405022  0.00000000  0.62752504
   0.69901378  0.50000000  0.66605693
  -0.00894086  0.00000000  0.25747113
   0.49401703  0.00000000  0.38188649
  -0.00598297  0.00000000  0.49762836
   0.49105914  0.00000000  0.62204372
   0.45816841  0.50000000  0.25852897
  -0.01699547  0.50000000  0.37732216
   0.48300453  0.50000000  0.50219269
  -0.04183159  0.50000000  0.62098588
