unknown system                          
   1.00000000000000     
     4.913700    0.000000    0.000000
    -2.456850    4.255389    0.000000
     0.000000    0.000000    5.405130
   Si   O 
     3     6
Direct
  0.469800  0.020000  0.666670
  0.000000  0.469800  0.333330
  0.530200  0.530200  0.000000
  0.414500  0.266200  0.785600
  0.733800  0.148300  0.452270
  0.851700  0.585500  0.118930
  0.148300  0.733800  0.547730
  0.266200  0.414500  0.214400
  0.585500  0.851700  0.881070
 
   56   56   56
  1.4838      1.4146      1.3937      1.4079      1.4491      1.5133      1.5984      1.7027      1.8232      1.9568    
  2.0995      2.2475      2.3967      2.5426      2.6810      2.8101      2.9323      3.0565      3.1989      3.3807    
  3.6265      3.9651      4.4335      5.0834      5.9858      7.2291      8.9093      11.115      13.913      17.340    
  21.392      26.006      31.024      36.161      40.983      44.954      47.534      48.320      47.170      44.247    
  39.971      34.891      29.549      24.376      19.657      15.544      12.094      9.2992      7.1089      5.4435    
  4.2069      3.3020      2.6449      2.1723      1.8404      1.6188      1.4303      1.3573      1.3375      1.3588    
  1.4134      1.4975      1.6091      1.7460      1.9053      2.0825      2.2724      2.4695      2.6672      2.8586    
  3.0364      3.1944      3.3297      3.4448      3.5500      3.6627      3.8057      4.0051      4.2907      4.6990    
  5.2785      6.0919      7.2130      8.7170      10.666      13.094      15.999      19.333      22.989      26.785    
  30.454      33.650      36.002      37.190      37.030      35.528      32.881      29.421      25.525      21.540    
  17.737      14.295      11.317      8.8392      6.8513      5.3059      4.1335      3.2584      2.6115      2.1387    
  1.8013      1.5722      1.4232      1.3518      1.3362      1.3656      1.4331      1.5354      1.6708      1.8378    
  2.0333      2.2532      2.4916      2.7417      2.9953      3.2425      3.4726      3.6750      3.8412      3.9672    
  4.0566      4.1213      4.1811      4.2615      4.3908      4.5999      4.9245      5.4081      6.1033      7.0680    
  8.3567      10.007      12.028      14.390      17.020      19.793      22.535      25.024      27.010      28.258    
  28.600      27.977      26.455      24.213      21.491      18.543      15.596      12.823      10.345      8.2245    
  6.4806      5.0929      4.0165      3.1963      2.5791      2.1214      1.7909      1.5643      1.4501      1.3867    
  1.3797      1.4197      1.5011      1.6211      1.7792      1.9744      2.2047      2.4667      2.7551      3.0628    
  3.3803      3.6953      3.9932      4.2582      4.4756      4.6346      4.7313      4.7708      4.7685      4.7484    
  4.7397      4.7744      4.8846      5.1045      5.4714      6.0266      6.8123      7.8639      9.1997      10.810    
  12.649      14.635      16.647      18.536      20.134      21.274      21.820      21.694      20.901      19.520    
  17.694      15.594      13.393      11.241      9.2513      7.4991      6.0187      4.8111      3.8529      3.1076    
  2.5370      2.1082      1.7963      1.5821      1.5035      1.4550      1.4619      1.5163      1.6136      1.7524    
  1.9328      2.1554      2.4196      2.7234      3.0630      3.4324      3.8216      4.2168      4.5992      4.9475    
  5.2396      5.4566      5.5862      5.6259      5.5849      5.4843      5.3541      5.2295      5.1463      5.1382    
  5.2367      5.4724      5.8754      6.4730      7.2843      8.3120      9.5343      10.900      12.330      13.721    
  14.955      15.913      16.492      16.619      16.269      15.468      14.293      12.852      11.266      9.6536    
  8.1123      6.7129      5.4968      4.4782      3.6503      2.9929      2.4814      2.0933      1.8103      1.6180    
  1.5797      1.5531      1.5798      1.6531      1.7697      1.9292      2.1330      2.3830      2.6805      3.0257    
  3.4172      3.8509      4.3182      4.8043      5.2877      5.7408      6.1335      6.4370      6.6288      6.6973    
  6.6444      6.4864      6.2528      5.9822      5.7167      5.4962      5.3553      5.3221      5.4203      5.6689    
  6.0817      6.6642      7.4078      8.2849      9.2459      10.221      11.128      11.881      12.400      12.626    
  12.525      12.097      11.376      10.424      9.3210      8.1529      6.9971      5.9153      4.9479      4.1152    
  3.4209      2.8578      2.4137      2.0752      1.8304      1.6687      1.6765      1.6788      1.7316      1.8294    
  1.9698      2.1534      2.3827      2.6610      2.9917      3.3775      3.8203      4.3190      4.8679      5.4530    
  6.0510      6.6294      7.1493      7.5704      7.8581      7.9888      7.9549      7.7666      7.4514      7.0501    
  6.6115      6.1849      5.8138      5.5324      5.3648      5.3267      5.4271      5.6685      6.0458      6.5432    
  7.1304      7.7625      8.3828      8.9294      9.3436      9.5768      9.5965      9.3908      8.9700      8.3655    
  7.6252      6.8059      5.9650      5.1521      4.4038      3.7420      3.1767      2.7095      2.3375      2.0552    
  1.8562      1.7327      1.7920      1.8299      1.9155      2.0441      2.2141      2.4267      2.6852      2.9940    
  3.3583      3.7837      4.2758      4.8379      5.4683      6.1562      6.8785      7.5991      8.2711      8.8423    
  9.2631      9.4948      9.5168      9.3307      8.9600      8.4469      7.8464      7.2180      6.6175      6.0905    
  5.6689      5.3715      5.2061      5.1726      5.2642      5.4677      5.7619      6.1168      6.4942      6.8506    
  7.1422      7.3309      7.3886      7.2998      7.0631      6.6912      6.2094      5.6516      5.0561      4.4596    
  3.8930      3.3787      2.9306      2.5559      2.2576      2.0357      1.8877      1.8087      1.9232      2.0030    
  2.1282      2.2947      2.5015      2.7500      3.0435      3.3871      3.7870      4.2514      4.7899      5.4112    
  6.1195      6.9089      7.7593      8.6334      9.4783      10.230      10.823      11.199      11.321      11.177    
  10.783      10.182      9.4346      8.6102      7.7790      7.0014      6.3226      5.7703      5.3561      5.0793    
  4.9312      4.8973      4.9589      5.0927      5.2705      5.4607      5.6305      5.7501      5.7961      5.7533    
  5.6157      5.3861      5.0755      4.7019      4.2879      3.8581      3.4364      3.0440      2.6971      2.4068    
  2.1797      2.0191      1.9251      1.8950      2.0664      2.1933      2.3648      2.5772      2.8296      3.1231    
  3.4603      3.8458      4.2859      4.7906      5.3732      6.0484      6.8273      7.7117      8.6871      9.7185    
  10.750      11.707      12.509      13.076      13.349      13.296      12.921      12.262      11.387      10.376    
  9.3136      8.2784      7.3322      6.5165      5.8514      5.3391      4.9702      4.7283      4.5939      4.5450    
  4.5574      4.6054      4.6626      4.7048      4.7123      4.6712      4.5740      4.4189      4.2093      3.9535    
  3.6637      3.3552      3.0452      2.7511      2.4890      2.2721      2.1100      2.0082      1.9686      1.9896    
  2.2175      2.3952      2.6191      2.8858      3.1940      3.5439      3.9368      4.3753      4.8647      5.4151    
  6.0424      6.7667      7.6074      8.5754      9.6653      10.848      12.069      13.247      14.287      15.090    
  15.567      15.662      15.359      14.686      13.712      12.529      11.238      9.9391      8.7126      7.6179    
  6.6883      5.9337      5.3460      4.9067      4.5930      4.3813      4.2480      4.1698      4.1235      4.0873    
  4.0431      3.9775      3.8823      3.7540      3.5925      3.4010      3.1860      2.9572      2.7265      2.5074    
  2.3138      2.1591      2.0542      2.0065      2.0189      2.0905      2.3720      2.6024      2.8835      3.2125    
  3.5876      4.0075      4.4712      4.9785      5.5318      6.1395      6.8180      7.5912      8.4860      9.5239    
  10.711      12.029      13.428      14.827      16.122      17.193      17.925      18.230      18.064      17.436    
  16.407      15.078      13.570      12.004      10.484      9.0920      7.8783      6.8647      6.0480      5.4087    
  4.9195      4.5523      4.2817      4.0842      3.9379      3.8220      3.7182      3.6120      3.4944      3.3605    
  3.2092      3.0417      2.8617      2.6753      2.4917      2.3220      2.1785      2.0735      2.0172      2.0170    
  2.0765      2.1956      2.5253      2.8079      3.1489      3.5468      3.9995      4.5041      5.0564      5.6524    
  6.2903      6.9745      7.7191      8.5490      9.4962      10.592      11.855      13.281      14.833      16.435    
  17.980      19.334      20.358      20.930      20.970      20.458      19.439      18.013      16.314      14.488    
  12.669      10.963      9.4438      8.1482      7.0827      6.2299      5.5594      5.0368      4.6311      4.3159    
  4.0684      3.8681      3.6964      3.5375      3.3804      3.2188      3.0507      2.8769      2.6999      2.5243    
  2.3578      2.2111      2.0960      2.0239      2.0039      2.0419      2.1412      2.3026      2.6725      3.0039    
  3.4047      3.8753      4.4143      5.0172      5.6768      6.3843      7.1326      7.9201      8.7556      9.6609    
  10.669      11.818      13.138      14.641      16.305      18.070      19.834      21.458      22.786      23.665    
  23.976      23.659      22.731      21.278      19.443      17.390      15.281      13.255      11.412      9.8102    
  8.4710      7.3840      6.5184      5.8342      5.2919      4.8583      4.5068      4.2158      3.9664      3.7424    
  3.5310      3.3240      3.1181      2.9134      2.7126      2.5208      2.3451      2.1960      2.0853      2.0245    
  2.0226      2.0848      2.2134      2.4092      2.8092      3.1829      3.6396      4.1826      4.8121      5.5234    
  6.3067      7.1487      8.0357      8.9590      9.9193      10.931      12.022      13.232      14.598      16.147    
  17.877      19.748      21.673      23.523      25.134      26.329      26.953      26.902      26.153      24.767    
  22.877      20.660      18.302      15.972      13.802      11.880      10.246      8.9029      7.8241      6.9662    
  6.2819      5.7280      5.2704      4.8832      4.5462      4.2429      3.9602      3.6891      3.4249      3.1671    
  2.9188      2.6857      2.4757      2.2988      2.1672      2.0929      2.0863      2.1534      2.2961      2.5145    
  2.9334      3.3385      3.8425      4.4520      5.1702      5.9936      6.9113      7.9064      8.9592      10.053    
  11.177      12.336      13.547      14.842      16.260      17.835      19.586      21.496      23.505      25.505    
  27.338      28.820      29.766      30.030      29.540      28.318      26.477      24.190      21.659      19.078    
  16.612      14.377      12.443      10.831      9.5235      8.4792      7.6451      6.9684      6.4042      5.9182    
  5.4853      5.0877      4.7128      4.3530      4.0047      3.6683      3.3468      3.0462      2.7746      2.5428    
  2.3632      2.2493      2.2126      2.2608      2.3968      2.6208      3.0472      3.4675      4.0048      4.6687    
  5.4660      6.3963      7.4497      8.6077      9.8463      11.141      12.470      13.823      15.202      16.623    
  18.117      19.719      21.459      23.347      25.354      27.404      29.366      31.064      32.298      32.886    
  32.709      31.740      30.055      27.813      25.217      22.480      19.790      17.293      15.085      13.214    
  11.677      10.442      9.4546      8.6543      7.9851      7.4008      6.8677      6.3630      5.8735      5.3942    
  4.9259      4.4731      4.0420      3.6393      3.2737      2.9559      2.6990      2.5170      2.4227      2.4250    
  2.5289      2.7358      3.1594      3.5726      4.1227      4.8218      5.6803      6.7019      7.8803      9.1982    
  10.630      12.145      13.712      15.305      16.905      18.507      20.122      21.776      23.501      25.325    
  27.251      29.245      31.219      33.023      34.465      35.342      35.493      34.838      33.404      31.322    
  28.789      26.021      23.223      20.562      18.158      16.078      14.345      12.937      11.806      10.889    
  10.121      9.4438      8.8116      8.1927      7.5695      6.9379      6.3045      5.6823      5.0859      4.5286    
  4.0221      3.5774      3.2070      2.9240      2.7409      2.6678      2.7110      2.8740      3.2856      3.6635    
  4.1996      4.9077      5.8011      6.8882      8.1677      9.6267      11.242      12.980      14.803      16.670    
  18.541      20.384      22.182      23.939      25.676      27.428      29.223      31.069      32.923      34.672    
  36.161      37.209      37.642      37.336      36.259      34.479      32.153      29.498      26.739      24.058    
  21.587      19.408      17.559      16.036      14.800      13.791      12.942      12.185      11.463      10.731    
  9.9624      9.1504      8.3054      7.4507      6.6154      5.8271      5.1077      4.4731      3.9356      3.5066    
  3.1966      3.0144      2.9661      3.0552      3.4466      3.7574      4.2472      4.9316      5.8264      6.9441    
  8.2889      9.8545      11.623      13.565      15.639      17.794      19.970      22.108      24.157      26.088    
  27.897      29.611      31.268      32.895      34.461      35.922      37.205      38.196      38.753      38.743    
  38.083      36.776      34.907      32.626      30.122      27.599      25.235      23.120      21.297      19.770    
  18.511      17.470      16.582      15.776      14.985      14.152      13.237      12.226      11.128      9.9782    
  8.8214      7.7061      6.6737      5.7541      4.9666      4.3234      3.8322      3.4974      3.3209      3.3033    
  3.6673      3.8770      4.2854      4.9088      5.7658      6.8720      8.2371      9.8616      11.736      13.838    
  16.130      18.558      21.048      23.515      25.874      28.056      30.023      31.772      33.331      34.682    
  35.810      36.743      37.513      38.122      38.519      38.609      38.301      37.543      36.345      34.771    
  32.922      30.921      28.916      27.069      25.463      24.100      22.957      21.994      21.151      20.359    
  19.547      18.644      17.598      16.381      14.999      13.494      11.930      10.381      8.9151      7.5862    
  6.4316      5.4725      4.7172      4.1651      3.8104      3.6459      3.9767      4.0486      4.3394      4.8635    
  5.6406      6.6894      8.0239      9.6510      11.570      13.768      16.219      18.872      21.648      24.446    
  27.149      29.648      31.863      33.752      35.284      36.369      36.981      37.193      37.147      36.992    
  36.829      36.677      36.494      36.213      35.784      35.179      34.387      33.408      32.272      31.057    
  29.903      28.915      28.081      27.363      26.709      26.051      25.312      24.411      23.277      21.867    
  20.180      18.262      16.199      14.098      12.062      10.178      8.5107      7.0988      5.9600      5.0936    
  4.4866      4.1199      4.4122      4.3022      4.4379      4.8252      5.4813      6.4264      7.6782      9.2486    
  11.144      13.363      15.891      18.691      21.690      24.779      27.821      30.673      33.210      35.343    
  36.958      37.868      37.990      37.397      36.307      35.023      33.845      32.983      32.527      32.467    
  32.731      33.217      33.793      34.304      34.607      34.626      34.393      34.048      33.748      33.493    
  33.235      32.906      32.415      31.660      30.542      28.994      27.000      24.611      21.944      19.149    
  16.380      13.769      11.416      9.3841      7.7080      6.3943      5.4279      4.7786      5.0256      4.6749    
  4.6124      4.8262      5.3236      6.1224      7.2421      8.6984      10.503      12.663      15.179      18.028    
  21.154      24.454      27.785      30.979      33.874      36.333      38.157      39.048      38.820      37.484    
  35.274      32.613      30.009      27.921      26.665      26.377      27.044      28.534      30.613      32.959    
  35.218      37.087      38.415      39.238      39.760      40.211      40.608      40.880      40.913      40.559    
  39.667      38.121      35.874      32.979      29.587      25.916      22.199      18.639      15.385      12.534    
  10.136      8.2099      6.7429      5.6984      5.8881      5.2155      4.8991      4.8994      5.2039      5.8202    
  6.7654      8.0572      9.7108      11.740      14.153      16.948      20.088      23.490      27.017      30.493    
  33.731      36.552      38.698      39.753      39.401      37.534      34.327      30.246      25.968      22.220    
  19.607      18.512      19.077      21.228      24.688      28.994      33.560      37.805      41.312      43.934    
  45.807      47.255      48.579      49.776      50.702      51.139      50.839      49.586      47.263      43.898    
  39.678      34.916      29.966      25.150      20.706      16.777      13.436      10.702      8.5635      6.9800    
  7.0883      5.9869      5.3420      5.0795      5.1565      5.5605      6.2985      7.3859      8.8396      10.676    
  12.912      15.557      18.599      21.979      25.582      29.240      32.754      35.919      38.451      39.841    
  39.629      37.553      33.658      28.363      22.427      16.799      12.394      9.9065      9.7329      11.961    
  16.374      22.446      29.394      36.332      42.506      47.500      51.302      54.235      56.766      59.203    
  61.432      63.154      63.976      63.516      61.503      57.877      52.832      46.782      40.261      33.785    
  27.750      22.394      17.817      14.039      11.030      8.7388      8.7227      7.0634      5.9940      5.4045    
  5.2140      5.3785      5.8856      6.7415      7.9607      9.5607      11.561      13.981      16.827      20.068    
  23.620      27.337      31.022      34.462      37.382      39.227      39.406      37.491      33.351      27.270    
  19.981      12.557      6.1791      1.8698     0.33660      1.9226      6.5891      13.876      22.904      32.523    
  41.607      49.379      55.592      60.493      64.629      68.556      72.446      75.958      78.538      79.563    
  78.511      75.119      69.494      62.118      53.731      45.136      36.996      29.732      23.526      18.397    
  14.282      11.091      10.881      8.5207      6.9135      5.9162      5.4073      5.3035      5.5618      6.1705    
  7.1359      8.4731      10.202      12.346      14.924      17.930      21.315      24.964      28.703      32.319    
  35.563      37.913      38.679      37.279      33.391      27.103      19.012      10.191      1.9831     -4.3049    
 -7.6443     -7.3881     -3.3065      4.3441      14.750      26.620      38.493      49.179      58.089      65.305    
  71.390      77.059      82.810      88.490      93.412      96.691      97.462      95.126      89.548      81.153    
  70.844      59.760      48.965      39.207      30.854      23.970      18.452      14.141      13.630      10.422    
  8.1558      6.6573      5.7673      5.3595      5.3520      5.7056      6.4111      7.4766      8.9189      10.761    
  13.028      15.735      18.862      22.333      26.009      29.693      33.160      35.992      37.462      36.869    
  33.711      27.852      19.670      10.106     0.52516     -7.5803     -12.900     -14.480     -11.779     -4.7551    
  6.0118      19.278      33.383      46.747      58.362      68.026      76.228      83.792      91.447      99.402    
  107.02      113.18      116.66      116.41      111.90      103.28      91.457      77.857      64.020      51.193    
  40.100      30.961      23.666      17.972      17.010      12.802      9.7598      7.6640      6.3217      5.5661    
  5.2723      5.3659      5.8147      6.6133      7.7711      9.3079      11.251      13.625      16.437      19.648    
  23.161      26.815      30.399      33.620      35.825      36.238      34.209      29.387      21.886      12.402    
  2.1671     -7.2871     -14.456     -18.110     -17.400     -11.943     -1.9702      11.521      26.879      42.258    
  56.230      68.207      78.473      87.871      97.318      107.34      117.60      126.91      133.73      136.57    
  134.34      126.73      114.39      98.835      82.022      65.803      51.453      39.530      30.027      22.643    
  21.016      15.662      11.735      8.9556      7.0905      5.9379      5.3324      5.1599      5.3586      5.9038    
  6.7928      8.0389      9.6667      11.706      14.178      17.080      20.359      23.898      27.519      31.000    
  33.878      35.378      34.756      31.476      25.387      16.870      6.8841     -3.1736     -11.746     -17.403    
 -19.020     -15.872     -7.7902      4.6212      19.946      36.282      51.877      65.716      77.753      88.712    
  99.618      111.26      123.70      135.92      146.23      152.86      154.11      148.89      137.35      121.00    
  101.96      82.561      64.761      49.669      37.557      28.162      25.586      18.953      14.055      10.524    
  8.0773      6.4809      5.5354      5.0881      5.0427      5.3504      5.9939      6.9758      8.3141      10.037    
  12.176      14.752      17.756      21.120      24.713      28.349      31.756      34.300      35.202      33.799    
  29.707      22.984      14.220      4.5159     -4.7033     -11.948     -15.885     -15.480     -10.160     -.56312E-01
  13.829      29.782      45.915      60.844      74.110      86.172      98.027      110.65      124.48      138.88    
  152.23      162.69      168.14      166.65      157.54      141.80      121.81      100.17      79.303      61.024    
  46.091      34.441      30.562      22.568      16.644      12.324      9.2614      7.1876      5.8768      5.1442    
  4.8585      4.9439      5.3662      6.1155      7.1992      8.6404      10.474      12.737      15.454      18.607    
  22.122      25.857      29.622      33.045      35.413      36.002      34.260      29.955      23.293      14.969    
  6.0974     -1.9616     -7.8056     -10.169     -8.1100     -1.2716      9.8750      24.015      39.369      54.336    
  68.056      80.612      92.807      105.68      119.95      135.45      150.85      164.36      173.82      176.77    
  171.56      158.30      138.96      116.53      93.678      72.759      55.165      41.221      35.658      26.328    
  19.382      14.274      10.593      8.0311      6.3414      5.3154      4.7920      4.6684      4.8914      5.4379    
  6.3040      7.5047      9.0735      11.057      13.501      16.434      19.836      23.624      27.648      31.705    
  35.322      37.791      38.465      36.893      32.943      26.886      19.411      11.564      4.6260     -.53892E-01
 -1.2626      1.8042      9.2435      20.292      33.512      47.307      60.528      72.848      84.743      97.149    
  110.93      126.35      142.52      157.77      170.17      177.21      176.59      167.38      150.67      129.19    
  105.97      83.559      63.960      48.019      40.442      29.962      22.093      16.256      11.993      8.9628    
  6.8998      5.5811      4.8250      4.5045      4.5466      4.9154      5.5971      6.5982      7.9472      9.6931    
  11.897      14.621      17.896      21.698      25.929      30.430      34.972      39.022      41.907      43.042    
  42.040      38.799      33.567      26.970      19.990      13.865      9.9163      9.2784      12.572      19.645    
  29.578      41.016      52.712      64.001      74.969      86.290      98.820      113.09      128.72      144.36    
  158.20      168.11      171.65      167.14      154.62      136.00      114.19      91.860      71.382      54.133    
  44.378      33.129      24.555      18.120      13.359      9.9134      7.5076      5.9119      4.9344      4.4305    
  4.3085      4.5200      5.0438      5.8799      7.0506      8.6034      10.608      13.149      16.298      20.085    
  24.469      29.337      34.517      39.742      44.448      47.987      49.801      49.507      46.973      42.401    
  36.376      29.865      24.106      20.384      19.709      22.496      28.419      36.556      45.786      55.265    
  64.723      74.489      85.245      97.616      111.61      126.36      140.28      151.52      157.99      157.74    
  149.98      135.61      116.85      96.254      76.298      58.753      46.927      35.456      26.520      19.698    
  14.573      10.801      8.1083      6.2697      5.0924      4.4223      4.1534      4.2258      4.6126      5.3095    
  6.3346      7.7327      9.5781      11.968      15.002      18.757      23.248      28.416      34.124      40.169    
  46.234      51.724      55.979      58.414      58.611      56.412      52.018      46.047      39.514      33.669    
  29.720      28.508      30.261      34.578      40.654      47.666      55.115      62.992      71.703      81.795    
  93.486      106.31      119.18      130.50      138.44      141.28      137.83      128.12      113.46      95.925    
  77.851      61.155      47.691      36.626      27.752      20.823      15.517      11.539      8.6403      6.6110    
  5.2671      4.4540      4.0579      4.0095      4.2767      4.8531      5.7552      7.0269      8.7440      11.011    
  13.947      17.662      22.224      27.630      33.795      40.540      47.603      54.587      60.829      65.603    
  68.274      68.407      65.886      61.011      54.524      47.521      41.234      36.739      34.685      35.160    
  37.769      41.885      46.952      52.723      59.312      67.070      76.234      86.605      97.530      107.87    
  116.14      120.78      120.56      115.00      104.65      90.921      75.745      60.919      46.530      36.455    
  28.085      21.361      16.088      12.050      9.0449      6.8923      5.4257      4.4992      3.9984      3.8487    
  4.0131      4.4836      5.2774      6.4398      8.0484      10.212      13.062      16.733      21.334      26.925    
  33.481      40.878      48.866      57.058      64.911      71.649      76.453      78.666      77.928      74.291    
  68.268      60.779      52.988      46.052      40.866      37.888      37.111      38.195      40.683      44.230    
  48.728      54.299      61.060      68.921      77.524      86.145      93.719      98.992      100.81      98.459    
  91.966      82.136      70.337      58.063      43.609      34.953      27.461      21.234      16.213      12.272    
  9.2735      7.0751      5.5382      4.5333      3.9529      3.7222      3.8008      4.1789      4.8748      5.9361    
  7.4439      9.5116      12.279      15.896      20.508      26.229      33.113      41.111      50.023      59.454    
  68.799      77.282      83.987      88.040      88.869      86.343      80.821      73.109      64.308      55.589    
  47.964      42.113      38.318      36.514      36.426      37.735      40.224      43.820      48.469      54.076    
  60.428      67.092      73.370      78.358      81.109      80.885      77.413      71.013      62.526      53.046    
  39.348      32.317      25.947      20.447      15.867      12.174      9.2937      7.1313      5.5810      4.5361    
  3.9028      3.6111      3.6205      3.9196      4.5263      5.4902      6.8957      8.8620      11.536      15.082    
  19.671      25.464      32.595      41.119      50.928      61.667      72.675      83.019      91.625      97.466    
  99.751      98.171      92.991      84.989      75.279      65.076      55.473      47.269      40.918      36.549    
  34.059      33.225      33.816      35.629      38.472      42.190      46.608      51.448      56.272      60.471    
  63.348      64.269      62.852      59.108      53.460      46.614      34.297      28.878      23.722      19.080    
  15.078      11.754      9.0933      7.0453      5.5387      4.4935      3.8340      3.5005      3.4559      3.6887    
  4.2150      5.0832      6.3802      8.2306      10.790      14.233      18.750      24.545      31.823      40.751    
  51.357      63.390      76.199      88.716      99.597      107.50      111.38      110.78      105.84      97.365    
  86.581      74.846      63.382      53.103      44.556      37.971      33.347      30.551      29.374      29.553    
  30.832      32.995      35.845      39.163      42.654      45.918      48.470      49.826      49.614      47.697    
  44.222      39.582      28.994      25.013      21.025      17.274      13.919      11.046      8.6824      6.8153    
  5.4049      4.3976      3.7381      3.3805      3.2952      3.4727      3.9268      4.7021      5.8835      7.5990    
  10.012      13.307      17.692      23.398      30.694      39.852      51.057      64.225      78.808      93.684    
  107.26      117.81      123.87      124.62      120.09      111.12      99.087      85.591      72.107      59.734    
  49.124      40.553      34.049      29.493      26.679      25.353      25.245      26.100      27.686      29.786    
  32.170      34.556      36.613      37.986      38.368      37.577      35.609      32.645      23.868      21.068    
  18.109      15.201      12.500      10.112      8.0917      6.4535      5.1819      4.2462      3.6111      3.2460    
  3.1316      3.2627      3.6519      4.3381      5.3995      6.9622      9.1935      12.289      16.467      21.980    