unknown system                          
   1.00000000000000     
     4.913700    0.000000    0.000000
    -2.456850    4.255389    0.000000
     0.000000    0.000000    5.405130
   Si   O 
     3     6
Direct
  0.469800  0.020000  0.666670
  0.000000  0.469800  0.333330
  0.530200  0.530200  0.000000
  0.414500  0.266200  0.785600
  0.733800  0.148300  0.452270
  0.851700  0.585500  0.118930
  0.148300  0.733800  0.547730
  0.266200  0.414500  0.214400
  0.585500  0.851700  0.881070
 
   56   56   56
 0.14837865869E+01 0.14145897792E+01 0.13936729966E+01 0.14078813877E+01 0.14491009128E+01
 0.15132928250E+01 0.15984460460E+01 0.17026604045E+01 0.18232425953E+01 0.19567768227E+01
 0.20995152531E+01 0.22475481439E+01 0.23967083042E+01 0.25425647497E+01 0.26810476722E+01
 0.28101229714E+01 0.29322661386E+01 0.30565442903E+01 0.31989234949E+01 0.33806541971E+01
 0.36264629409E+01 0.39650960770E+01 0.44335342473E+01 0.50834468082E+01 0.59858135720E+01
 0.72291112161E+01 0.89092997797E+01 0.11114825302E+02 0.13912821907E+02 0.17339719399E+02
 0.21391735116E+02 0.26005541649E+02 0.31024458039E+02 0.36161075387E+02 0.40983450836E+02
 0.44954472569E+02 0.47534310560E+02 0.48320479611E+02 0.47170048612E+02 0.44246959325E+02
 0.39970638586E+02 0.34891160004E+02 0.29549205777E+02 0.24376038860E+02 0.19656667574E+02
 0.15543908344E+02 0.12093969290E+02 0.92991518497E+01 0.71089489377E+01 0.54435449098E+01
 0.42068972413E+01 0.33019995880E+01 0.26449102738E+01 0.21722735134E+01 0.18403905672E+01
 0.16188338743E+01 0.14302987641E+01 0.13573252107E+01 0.13375167314E+01 0.13587766336E+01
 0.14134307738E+01 0.14975384340E+01 0.16090793058E+01 0.17460353031E+01 0.19052750270E+01
 0.20824538147E+01 0.22724188350E+01 0.24694565957E+01 0.26672071270E+01 0.28586178492E+01
 0.30364249855E+01 0.31944453833E+01 0.33296891248E+01 0.34448418735E+01 0.35500295521E+01
 0.36627071415E+01 0.38056938489E+01 0.40051273907E+01 0.42906973948E+01 0.46990349146E+01
 0.52785233385E+01 0.60918867404E+01 0.72130267452E+01 0.87169968922E+01 0.10665660717E+02
 0.13093855302E+02 0.15999133292E+02 0.19333077984E+02 0.22989031708E+02 0.26785307439E+02
 0.30453535027E+02 0.33649844327E+02 0.36002335087E+02 0.37190380529E+02 0.37029780583E+02
 0.35527644769E+02 0.32881193459E+02 0.29420950701E+02 0.25524985259E+02 0.21540428200E+02
 0.17736993416E+02 0.14295311294E+02 0.11316729827E+02 0.88391581222E+01 0.68513444578E+01
 0.53058985057E+01 0.41335245874E+01 0.32583884127E+01 0.26115293321E+01 0.21387110975E+01
 0.18013240564E+01 0.15722115021E+01 0.14232161164E+01 0.13518168277E+01 0.13362043709E+01
 0.13655720237E+01 0.14330864656E+01 0.15353780480E+01 0.16708362554E+01 0.18377771397E+01
 0.20333317366E+01 0.22531640874E+01 0.24916041719E+01 0.27417343194E+01 0.29952733416E+01
 0.32424973276E+01 0.34726312865E+01 0.36750268430E+01 0.38411655328E+01 0.39672342908E+01
 0.40566250856E+01 0.41213017151E+01 0.41811403025E+01 0.42615063851E+01 0.43907864971E+01
 0.45999156527E+01 0.49245241677E+01 0.54081184559E+01 0.61032675463E+01 0.70680169102E+01
 0.83567048253E+01 0.10007166022E+02 0.12028188152E+02 0.14390254933E+02 0.17019512354E+02
 0.19792965306E+02 0.22535407844E+02 0.25024139520E+02 0.27010083911E+02 0.28258466334E+02
 0.28600422978E+02 0.27976837217E+02 0.26455390100E+02 0.24212860753E+02 0.21490732863E+02
 0.18543144156E+02 0.15595677313E+02 0.12823317227E+02 0.10344616385E+02 0.82244753458E+01
 0.64805812971E+01 0.50928883899E+01 0.40165187707E+01 0.31962707370E+01 0.25790707335E+01
 0.21213787423E+01 0.17909159905E+01 0.15642916844E+01 0.14501391915E+01 0.13867374807E+01
 0.13797296755E+01 0.14197478367E+01 0.15010540662E+01 0.16211438045E+01 0.17792014669E+01
 0.19743790708E+01 0.22047049107E+01 0.24666746560E+01 0.27550936244E+01 0.30628079025E+01
 0.33802829059E+01 0.36952964434E+01 0.39932115767E+01 0.42582277641E+01 0.44756267499E+01
 0.46346254654E+01 0.47312874079E+01 0.47708424083E+01 0.47685467381E+01 0.47483575866E+01
 0.47397496816E+01 0.47743894207E+01 0.48846454566E+01 0.51044891145E+01 0.54713660736E+01
 0.60266101800E+01 0.68123225348E+01 0.78639493758E+01 0.91997069416E+01 0.10809857572E+02
 0.12649240411E+02 0.14634707823E+02 0.16646937374E+02 0.18536202726E+02 0.20134065841E+02
 0.21273903400E+02 0.21819502785E+02 0.21694401302E+02 0.20900829413E+02 0.19519999005E+02
 0.17693524074E+02 0.15593613687E+02 0.13392701948E+02 0.11240543771E+02 0.92513311751E+01
 0.74990869971E+01 0.60186701025E+01 0.48111118280E+01 0.38528749563E+01 0.31075629175E+01
 0.25369592464E+01 0.21082497617E+01 0.17962727021E+01 0.15820597305E+01 0.15035390336E+01
 0.14550308541E+01 0.14619279684E+01 0.15163003293E+01 0.16136049831E+01 0.17523544768E+01
 0.19328089140E+01 0.21553939447E+01 0.24195774204E+01 0.27233776293E+01 0.30630427264E+01
 0.34323684160E+01 0.38216416685E+01 0.42167616883E+01 0.45992410351E+01 0.49475280295E+01
 0.52396341712E+01 0.54566105625E+01 0.55861856223E+01 0.56258802918E+01 0.55849286370E+01
 0.54842599984E+01 0.53540694015E+01 0.52295199245E+01 0.51463351180E+01 0.51382167093E+01
 0.52367191634E+01 0.54724378185E+01 0.58754312364E+01 0.64730407510E+01 0.72843306808E+01
 0.83119934165E+01 0.95342902534E+01 0.10900253892E+02 0.12330106521E+02 0.13720673480E+02
 0.14954628521E+02 0.15913155121E+02 0.16491988426E+02 0.16619002403E+02 0.16268728177E+02
 0.15468473413E+02 0.14293354822E+02 0.12851786223E+02 0.11266081546E+02 0.96535652342E+01
 0.81122650078E+01 0.67129090195E+01 0.54968019838E+01 0.44782322591E+01 0.36502638736E+01
 0.29928524825E+01 0.24814225433E+01 0.20933127035E+01 0.18103411292E+01 0.16179995134E+01
 0.15796571950E+01 0.15530519856E+01 0.15797683659E+01 0.16531323437E+01 0.17697470879E+01
 0.19292211626E+01 0.21330104999E+01 0.23830114524E+01 0.26805241204E+01 0.30257322969E+01
 0.34172225064E+01 0.38508950073E+01 0.43181868185E+01 0.48043321594E+01 0.52876913783E+01
 0.57408395110E+01 0.61335126376E+01 0.64369579692E+01 0.66287932034E+01 0.66973102564E+01
 0.66443709471E+01 0.64863567634E+01 0.62527503108E+01 0.59821810997E+01 0.57167031226E+01
 0.54962428842E+01 0.53552516757E+01 0.53221439839E+01 0.54203199182E+01 0.56688958279E+01
 0.60817362129E+01 0.66641752605E+01 0.74077811800E+01 0.82849132935E+01 0.92459148086E+01
 0.10221173148E+02 0.11128017156E+02 0.11880502846E+02 0.12400090959E+02 0.12626144550E+02
 0.12525218978E+02 0.12097178551E+02 0.11375909064E+02 0.10423768759E+02 0.93210142101E+01
 0.81528555629E+01 0.69971470477E+01 0.59152956425E+01 0.49479103749E+01 0.41152084765E+01
 0.34209084964E+01 0.28578483561E+01 0.24136738651E+01 0.20751878330E+01 0.18304430822E+01
 0.16687182413E+01 0.16764886106E+01 0.16787544732E+01 0.17316168601E+01 0.18294483717E+01
 0.19698396210E+01 0.21534046266E+01 0.23826993644E+01 0.26610294814E+01 0.29916883087E+01
 0.33775255473E+01 0.38202721409E+01 0.43190345685E+01 0.48678509538E+01 0.54529627669E+01
 0.60510273155E+01 0.66294402213E+01 0.71492711906E+01 0.75704498638E+01 0.78581361096E+01
 0.79888391539E+01 0.79549252933E+01 0.77666442475E+01 0.74513685673E+01 0.70500782780E+01
 0.66114720752E+01 0.61848547978E+01 0.58137891420E+01 0.55323970517E+01 0.53648228372E+01
 0.53267367336E+01 0.54270645058E+01 0.56684658107E+01 0.60458458643E+01 0.65432035759E+01
 0.71304338387E+01 0.77625228280E+01 0.83827570937E+01 0.89293924728E+01 0.93436076246E+01
 0.95768072158E+01 0.95965451702E+01 0.93908113098E+01 0.89699727730E+01 0.83654835603E+01
 0.76251800404E+01 0.68059322186E+01 0.59650308145E+01 0.51521251884E+01 0.44037751747E+01
 0.37420359621E+01 0.31767474438E+01 0.27095490356E+01 0.23374843524E+01 0.20552379893E+01
 0.18561800845E+01 0.17327258205E+01 0.17919790381E+01 0.18298862951E+01 0.19155066160E+01
 0.20441178805E+01 0.22140797707E+01 0.24266707656E+01 0.26851806247E+01 0.29940186400E+01
 0.33583140582E+01 0.37837385396E+01 0.42757945552E+01 0.48379239193E+01 0.54683370797E+01
 0.61562013250E+01 0.68785029700E+01 0.75991181442E+01 0.82711157911E+01 0.88423075334E+01
 0.92630688626E+01 0.94947676474E+01 0.95168242695E+01 0.93306910638E+01 0.89599651180E+01
 0.84469371931E+01 0.78464417369E+01 0.72179823820E+01 0.66174621233E+01 0.60904695361E+01
 0.56689376753E+01 0.53715058355E+01 0.52060936003E+01 0.51725786822E+01 0.52642401258E+01
 0.54677068670E+01 0.57618678766E+01 0.61167998913E+01 0.64942252244E+01 0.68505684460E+01
 0.71421726743E+01 0.73309188680E+01 0.73886317539E+01 0.72998326116E+01 0.70631258019E+01
 0.66912437074E+01 0.62093743152E+01 0.56516270889E+01 0.50561155291E+01 0.44596152202E+01
 0.38930061855E+01 0.33786923726E+01 0.29305686790E+01 0.25559041182E+01 0.22576199808E+01
 0.20357158786E+01 0.18877019729E+01 0.18087135563E+01 0.19232042479E+01 0.20029873237E+01
 0.21281580394E+01 0.22947207692E+01 0.25015117688E+01 0.27499836781E+01 0.30435472055E+01
 0.33870761248E+01 0.37869546842E+01 0.42513674693E+01 0.47898640321E+01 0.54112352409E+01
 0.61195160556E+01 0.69089321988E+01 0.77592833610E+01 0.86334397057E+01 0.94783379809E+01
 0.10230102707E+02 0.10822810152E+02 0.11199265658E+02 0.11321328862E+02 0.11177142268E+02
 0.10783389418E+02 0.10182286200E+02 0.94345517265E+01 0.86102257238E+01 0.77789766007E+01
 0.70013543215E+01 0.63225979446E+01 0.57703259482E+01 0.53561108901E+01 0.50793358184E+01
 0.49311780708E+01 0.48972972903E+01 0.49589021786E+01 0.50926676246E+01 0.52705430450E+01
 0.54607340967E+01 0.56305061559E+01 0.57500819674E+01 0.57960550787E+01 0.57533194500E+01
 0.56157252646E+01 0.53860657009E+01 0.50754639562E+01 0.47018899956E+01 0.42879028592E+01
 0.38580791250E+01 0.34364355209E+01 0.30440120631E+01 0.26971035375E+01 0.24067863247E+01
 0.21796923022E+01 0.20190510325E+01 0.19250915496E+01 0.18949766623E+01 0.20664421255E+01
 0.21933222004E+01 0.23647598306E+01 0.25772203004E+01 0.28296215732E+01 0.31230690360E+01
 0.34603345380E+01 0.38457525906E+01 0.42858985133E+01 0.47906288259E+01 0.53732325178E+01
 0.60483570780E+01 0.68273176686E+01 0.77117101452E+01 0.86870715416E+01 0.97184768025E+01
 0.10749724266E+02 0.11707237737E+02 0.12508850757E+02 0.13076310325E+02 0.13349020210E+02
 0.13295676884E+02 0.12920518588E+02 0.12262342438E+02 0.11386937203E+02 0.10375704855E+02
 0.93136023802E+01 0.82783938424E+01 0.73322194405E+01 0.65165208293E+01 0.58513827405E+01
 0.53391318292E+01 0.49701695601E+01 0.47282974464E+01 0.45938839195E+01 0.45449671085E+01
 0.45574181946E+01 0.46053609941E+01 0.46625715926E+01 0.47048157858E+01 0.47122982897E+01
 0.46712039986E+01 0.45739806388E+01 0.44188670819E+01 0.42093249782E+01 0.39535324523E+01
 0.36637220268E+01 0.33552193948E+01 0.30451897397E+01 0.27510992912E+01 0.24890128285E+01
 0.22721299672E+01 0.21099717733E+01 0.20081888421E+01 0.19686296383E+01 0.19895689926E+01
 0.22175286368E+01 0.23952496930E+01 0.26190762569E+01 0.28857890000E+01 0.31939991146E+01
 0.35439027367E+01 0.39367977456E+01 0.43752874095E+01 0.48646992932E+01 0.54151189371E+01
 0.60424367623E+01 0.67667450362E+01 0.76073917433E+01 0.85754212689E+01 0.96652766881E+01
 0.10848080210E+02 0.12068564628E+02 0.13247089915E+02 0.14287379238E+02 0.15089588697E+02
 0.15566877360E+02 0.15661933016E+02 0.15358839383E+02 0.14686427877E+02 0.13712101245E+02
 0.12528631949E+02 0.11238417793E+02 0.99391120870E+01 0.87125914979E+01 0.76178593027E+01
 0.66883150662E+01 0.59337103589E+01 0.53459872931E+01 0.49066572811E+01 0.45929577805E+01
 0.43812602460E+01 0.42480418295E+01 0.41698268391E+01 0.41234587953E+01 0.40873114823E+01
 0.40431225742E+01 0.39775060769E+01 0.38823247182E+01 0.37539755556E+01 0.35924586121E+01
 0.34009879762E+01 0.31860427624E+01 0.29572095783E+01 0.27264994729E+01 0.25073919323E+01
 0.23138464134E+01 0.21591189997E+01 0.20542351350E+01 0.20065215134E+01 0.20189290331E+01
 0.20904818967E+01 0.23720421326E+01 0.26024475997E+01 0.28834844860E+01 0.32124730975E+01
 0.35875697701E+01 0.40075044576E+01 0.44712453932E+01 0.49785133098E+01 0.55318227014E+01
 0.61395150154E+01 0.68180070849E+01 0.75912157922E+01 0.84859890118E+01 0.95238614266E+01
 0.10710935076E+02 0.12028576341E+02 0.13427553292E+02 0.14827444319E+02 0.16122317279E+02
 0.17193020130E+02 0.17925262705E+02 0.18230481307E+02 0.18064161116E+02 0.17435773168E+02
 0.16406860508E+02 0.15078109791E+02 0.13570077718E+02 0.12003558635E+02 0.10484058562E+02
 0.90920081738E+01 0.78783313124E+01 0.68646855701E+01 0.60480490106E+01 0.54087466338E+01
 0.49194949560E+01 0.45523338512E+01 0.42816776188E+01 0.40842176872E+01 0.39379314141E+01
 0.38220270502E+01 0.37181566383E+01 0.36120361167E+01 0.34943585497E+01 0.33604620515E+01
 0.32091563915E+01 0.30417105312E+01 0.28616820733E+01 0.26753127939E+01 0.24916529749E+01
 0.23219530446E+01 0.21785329510E+01 0.20734663482E+01 0.20171586300E+01 0.20169738445E+01
 0.20764505386E+01 0.21955918081E+01 0.25253017289E+01 0.28078888364E+01 0.31488784932E+01
 0.35467510689E+01 0.39994793908E+01 0.45040559959E+01 0.50564306051E+01 0.56524468064E+01
 0.62903339586E+01 0.69745082333E+01 0.77191148334E+01 0.85489773790E+01 0.94961514134E+01
 0.10591829722E+02 0.11855094724E+02 0.13281245070E+02 0.14832728429E+02 0.16435123618E+02
 0.17979726870E+02 0.19333669662E+02 0.20357722489E+02 0.20929954850E+02 0.20970249105E+02
 0.20458340567E+02 0.19439006391E+02 0.18012501721E+02 0.16313881557E+02 0.14488296269E+02
 0.12669191905E+02 0.10963420749E+02 0.94438480089E+01 0.81481687652E+01 0.70826536846E+01
 0.62299497072E+01 0.55593785721E+01 0.50368153881E+01 0.46310928478E+01 0.43158530845E+01
 0.40683914469E+01 0.38681258483E+01 0.36963847722E+01 0.35375341545E+01 0.33803914578E+01
 0.32187702062E+01 0.30506890604E+01 0.28768757947E+01 0.26998512043E+01 0.25242763962E+01
 0.23578127371E+01 0.22110565820E+01 0.20960096186E+01 0.20239473220E+01 0.20038636959E+01
 0.20418594551E+01 0.21411660055E+01 0.23025817549E+01 0.26724758045E+01 0.30039311158E+01
 0.34047154660E+01 0.38753218085E+01 0.44142714486E+01 0.50171730072E+01 0.56767756800E+01
 0.63843488849E+01 0.71326150706E+01 0.79200760274E+01 0.87555693302E+01 0.96608618486E+01
 0.10669047275E+02 0.11817742107E+02 0.13137896900E+02 0.14640591926E+02 0.16304951145E+02
 0.18070157605E+02 0.19833829321E+02 0.21458376016E+02 0.22786466435E+02 0.23665269051E+02
 0.23975701849E+02 0.23658867980E+02 0.22730566617E+02 0.21278412853E+02 0.19442925064E+02
 0.17389662188E+02 0.15281136388E+02 0.13255057907E+02 0.11411727165E+02 0.98101764234E+01
 0.84710410893E+01 0.73840476250E+01 0.65184067272E+01 0.58341754710E+01 0.52919346576E+01
 0.48583156913E+01 0.45068162954E+01 0.42157880243E+01 0.39664236814E+01 0.37424117048E+01
 0.35309852039E+01 0.33240137852E+01 0.31180580553E+01 0.29133562818E+01 0.27126430676E+01
 0.25207668898E+01 0.23451426756E+01 0.21959917779E+01 0.20852911791E+01 0.20245383040E+01
 0.20225917171E+01 0.20847793048E+01 0.22134388091E+01 0.24092325072E+01 0.28092476911E+01
 0.31829175854E+01 0.36395812265E+01 0.41825724000E+01 0.48120790286E+01 0.55234050325E+01
 0.63067197875E+01 0.71486630627E+01 0.80357354384E+01 0.89590133345E+01 0.99192540013E+01
 0.10930795185E+02 0.12022175433E+02 0.13231777734E+02 0.14598232921E+02 0.16147159053E+02
 0.17877093157E+02 0.19747744648E+02 0.21673333592E+02 0.23523483931E+02 0.25134034318E+02
 0.26329131769E+02 0.26952680156E+02 0.26902039068E+02 0.26153078233E+02 0.24767111832E+02
 0.22877225350E+02 0.20659831691E+02 0.18301732505E+02 0.15971820569E+02 0.13802256068E+02
 0.11879841262E+02 0.10245985967E+02 0.89029344355E+01 0.78240624487E+01 0.69662304855E+01
 0.62818555217E+01 0.57279826372E+01 0.52704161909E+01 0.48832368609E+01 0.45462217002E+01
 0.42428909110E+01 0.39601873716E+01 0.36890588698E+01 0.34248586157E+01 0.31671169101E+01
 0.29188360981E+01 0.26857089085E+01 0.24756724857E+01 0.22988394804E+01 0.21671516421E+01
 0.20929084116E+01 0.20862954236E+01 0.21533786408E+01 0.22961286610E+01 0.25145363248E+01
 0.29334158085E+01 0.33384771810E+01 0.38424773548E+01 0.44520290555E+01 0.51702095703E+01
 0.59936181248E+01 0.69113411922E+01 0.79063683538E+01 0.89591857757E+01 0.10052687471E+02
 0.11177447491E+02 0.12336382685E+02 0.13547402579E+02 0.14842196685E+02 0.16259826559E+02
 0.17835416659E+02 0.19585930024E+02 0.21495805156E+02 0.23505320724E+02 0.25504801005E+02
 0.27338338878E+02 0.28820440217E+02 0.29766179131E+02 0.30029685092E+02 0.29539593870E+02
 0.28318241225E+02 0.26476923461E+02 0.24189984388E+02 0.21658860504E+02 0.19078275414E+02
 0.16611681478E+02 0.14377280266E+02 0.12443288484E+02 0.10830920195E+02 0.95234786334E+01
 0.84792265136E+01 0.76450974022E+01 0.69683742446E+01 0.64041905303E+01 0.59181515106E+01
 0.54852728283E+01 0.50876538467E+01 0.47128116547E+01 0.43529914319E+01 0.40047375322E+01
 0.36682635415E+01 0.33467963942E+01 0.30461643521E+01 0.27746298645E+01 0.25427978311E+01
 0.23632427275E+01 0.22492653232E+01 0.22125582910E+01 0.22607702820E+01 0.23968040814E+01
 0.26207747719E+01 0.30472356671E+01 0.34675220041E+01 0.40047912820E+01 0.46686934910E+01
 0.54659892492E+01 0.63962583137E+01 0.74496764197E+01 0.86077025990E+01 0.98463040740E+01
 0.11140631308E+02 0.12470103316E+02 0.13823293557E+02 0.15201997820E+02 0.16623166118E+02
 0.18116854892E+02 0.19718998696E+02 0.21459411496E+02 0.23346860895E+02 0.25353757166E+02
 0.27403643374E+02 0.29365966792E+02 0.31063681110E+02 0.32297687091E+02 0.32886261012E+02
 0.32709126465E+02 0.31740137624E+02 0.30055160363E+02 0.27812706038E+02 0.25217217690E+02
 0.22480136810E+02 0.19789732397E+02 0.17292682739E+02 0.15085485626E+02 0.13213555611E+02
 0.11677033285E+02 0.10442013256E+02 0.94545648436E+01 0.86543283018E+01 0.79850705960E+01
 0.74008134194E+01 0.68676698934E+01 0.63629568745E+01 0.58735271076E+01 0.53941935092E+01
 0.49258600565E+01 0.44730879359E+01 0.40419511955E+01 0.36393388995E+01 0.32736842016E+01
 0.29558528361E+01 0.26989831949E+01 0.25170483757E+01 0.24226668071E+01 0.24250049424E+01
 0.25288523798E+01 0.27357917172E+01 0.31594298869E+01 0.35725790898E+01 0.41227183168E+01
 0.48218226947E+01 0.56803042573E+01 0.67019208691E+01 0.78802611012E+01 0.91981679569E+01
 0.10629917179E+02 0.12145000759E+02 0.13712430944E+02 0.15305213037E+02 0.16905094587E+02
 0.18507132328E+02 0.20122364906E+02 0.21776246940E+02 0.23501362517E+02 0.25324683269E+02
 0.27251037264E+02 0.29245437701E+02 0.31218638651E+02 0.33022868449E+02 0.34464921790E+02
 0.35342360629E+02 0.35493099227E+02 0.34837778604E+02 0.33404189897E+02 0.31322480734E+02
 0.28788669231E+02 0.26020948625E+02 0.23223246966E+02 0.20562452783E+02 0.18157871335E+02
 0.16078337691E+02 0.14344573108E+02 0.12936635063E+02 0.11805895305E+02 0.10889084947E+02
 0.10121048687E+02 0.94438262327E+01 0.88116101943E+01 0.81926538077E+01 0.75694844509E+01
 0.69379243035E+01 0.63045202792E+01 0.56822663771E+01 0.50858661690E+01 0.45286209548E+01
 0.40220623159E+01 0.35774327215E+01 0.32070179804E+01 0.29239982976E+01 0.27409185106E+01
 0.26677936595E+01 0.27110209303E+01 0.28739791507E+01 0.32855659636E+01 0.36634955114E+01
 0.41996002974E+01 0.49076538151E+01 0.58011234638E+01 0.68882446811E+01 0.81677161404E+01
 0.96267322077E+01 0.11241610410E+02 0.12979954837E+02 0.14803294181E+02 0.16670232374E+02
 0.18541011132E+02 0.20383908577E+02 0.22182224646E+02 0.23938985308E+02 0.25676274638E+02
 0.27427501751E+02 0.29222826639E+02 0.31069412685E+02 0.32923314102E+02 0.34672104140E+02
 0.36160941865E+02 0.37208931824E+02 0.37641736530E+02 0.37336453076E+02 0.36259298050E+02
 0.34479113812E+02 0.32153461964E+02 0.29497924943E+02 0.26739316258E+02 0.24058293210E+02
 0.21586705427E+02 0.19408017601E+02 0.17559250018E+02 0.16035731017E+02 0.14799509321E+02
 0.13791103676E+02 0.12942042963E+02 0.12185352206E+02 0.11462964974E+02 0.10730815770E+02
 0.99624033554E+01 0.91504294541E+01 0.83053942340E+01 0.74506962520E+01 0.66153808788E+01
 0.58270600873E+01 0.51076501262E+01 0.44730650497E+01 0.39356420523E+01 0.35066077742E+01
 0.31965968240E+01 0.30144436539E+01 0.29660993398E+01 0.30552393455E+01 0.34466230790E+01
 0.37574210528E+01 0.42472455306E+01 0.49315507232E+01 0.58263948603E+01 0.69440634329E+01
 0.82888729631E+01 0.98544623874E+01 0.11622898136E+02 0.13564703271E+02 0.15638938223E+02
 0.17793888161E+02 0.19970200116E+02 0.22107933761E+02 0.24156942025E+02 0.26087570995E+02
 0.27897405088E+02 0.29610536620E+02 0.31268005557E+02 0.32894865507E+02 0.34461411383E+02
 0.35922187668E+02 0.37204688366E+02 0.38195856688E+02 0.38753422237E+02 0.38742962843E+02
 0.38083221914E+02 0.36775815408E+02 0.34906787817E+02 0.32626187593E+02 0.30121892856E+02
 0.27598882039E+02 0.25234645332E+02 0.23120205500E+02 0.21297096919E+02 0.19769575052E+02
 0.18510682616E+02 0.17469766898E+02 0.16581626795E+02 0.15775806814E+02 0.14984825596E+02
 0.14151652512E+02 0.13237050313E+02 0.12225701685E+02 0.11128392472E+02 0.99781969249E+01
 0.88213509523E+01 0.77061182674E+01 0.66737222442E+01 0.57541014672E+01 0.49666239450E+01
 0.43233979720E+01 0.38321560678E+01 0.34974039849E+01 0.33209129298E+01 0.33032594091E+01
 0.36673378651E+01 0.38770286697E+01 0.42853736336E+01 0.49088181881E+01 0.57657759868E+01
 0.68720470927E+01 0.82370839217E+01 0.98615536158E+01 0.11735737641E+02 0.13837649102E+02
 0.16130125341E+02 0.18557936463E+02 0.21047859068E+02 0.23514669781E+02 0.25873528932E+02
 0.28055741709E+02 0.30022604943E+02 0.31772321846E+02 0.33330741797E+02 0.34681593795E+02
 0.35810216861E+02 0.36742561749E+02 0.37512533968E+02 0.38121894861E+02 0.38518502706E+02
 0.38609287406E+02 0.38301046767E+02 0.37542702925E+02 0.36344549587E+02 0.34770827776E+02
 0.32921544795E+02 0.30921026477E+02 0.28916476536E+02 0.27069472249E+02 0.25462978734E+02
 0.24099723328E+02 0.22957441459E+02 0.21993912366E+02 0.21150864831E+02 0.20359375282E+02
 0.19546603630E+02 0.18644020362E+02 0.17597848198E+02 0.16380580904E+02 0.14999073667E+02
 0.13494092084E+02 0.11930321145E+02 0.10381233616E+02 0.89151114266E+01 0.75862115210E+01
 0.64316466154E+01 0.54725059661E+01 0.47171666107E+01 0.41650835002E+01 0.38104197876E+01
 0.36459333210E+01 0.39767381418E+01 0.40485976344E+01 0.43393668418E+01 0.48634747894E+01
 0.56405531365E+01 0.66894224057E+01 0.80239367231E+01 0.96510494516E+01 0.11569674752E+02
 0.13768177928E+02 0.16219040638E+02 0.18871778597E+02 0.21648295017E+02 0.24445686960E+02
 0.27148607194E+02 0.29648461327E+02 0.31863265186E+02 0.33751757196E+02 0.35284006925E+02
 0.36369150253E+02 0.36981379756E+02 0.37193461795E+02 0.37146654921E+02 0.36991783134E+02
 0.36828747995E+02 0.36677445294E+02 0.36493794223E+02 0.36212667114E+02 0.35783501517E+02
 0.35179088750E+02 0.34387145728E+02 0.33408260477E+02 0.32271636586E+02 0.31057428807E+02
 0.29902755165E+02 0.28915157204E+02 0.28081448234E+02 0.27363436146E+02 0.26708864838E+02
 0.26050940542E+02 0.25311852414E+02 0.24410848033E+02 0.23277233797E+02 0.21867287174E+02
 0.20179778008E+02 0.18261689081E+02 0.16199254497E+02 0.14098091060E+02 0.12062015731E+02
 0.10178254988E+02 0.85106880446E+01 0.70988189466E+01 0.59600057319E+01 0.50936206876E+01
 0.44865588364E+01 0.41199469529E+01 0.44121775863E+01 0.43022061956E+01 0.44379044510E+01
 0.48252212714E+01 0.54812792844E+01 0.64264425603E+01 0.76781957739E+01 0.92485580100E+01
 0.11143751548E+02 0.13362739517E+02 0.15891246128E+02 0.18691116821E+02 0.21689966748E+02
 0.24778599341E+02 0.27820714573E+02 0.30673169290E+02 0.33210149641E+02 0.35342855639E+02
 0.36957632755E+02 0.37867724919E+02 0.37990306120E+02 0.37397333793E+02 0.36306718262E+02
 0.35022957211E+02 0.33844923203E+02 0.32983271505E+02 0.32527419542E+02 0.32466505914E+02
 0.32730869153E+02 0.33217304387E+02 0.33793080899E+02 0.34303768942E+02 0.34607120285E+02
 0.34626420137E+02 0.34392942060E+02 0.34048132032E+02 0.33748486860E+02 0.33493437574E+02
 0.33235474499E+02 0.32906082219E+02 0.32415056996E+02 0.31659652646E+02 0.30542203590E+02
 0.28993950595E+02 0.26999512103E+02 0.24611330497E+02 0.21943995624E+02 0.19148606776E+02
 0.16379595532E+02 0.13769133459E+02 0.11415813125E+02 0.93841303438E+01 0.77079520623E+01
 0.63942901196E+01 0.54278754629E+01 0.47785681493E+01 0.50255909968E+01 0.46749380017E+01
 0.46124337521E+01 0.48261920830E+01 0.53235911146E+01 0.61224483898E+01 0.72421026589E+01
 0.86984055362E+01 0.10502982672E+02 0.12663389920E+02 0.15178749978E+02 0.18027877822E+02
 0.21153769093E+02 0.24453951198E+02 0.27784637201E+02 0.30979129887E+02 0.33874024784E+02
 0.36332614419E+02 0.38157026561E+02 0.39047608005E+02 0.38819555042E+02 0.37483740917E+02
 0.35274316225E+02 0.32613386514E+02 0.30008747265E+02 0.27921432309E+02 0.26665255494E+02
 0.26377427551E+02 0.27044248595E+02 0.28534181741E+02 0.30612799106E+02 0.32959178532E+02
 0.35217535390E+02 0.37087302129E+02 0.38414781994E+02 0.39238253001E+02 0.39760457884E+02
 0.40210822757E+02 0.40607734287E+02 0.40879948988E+02 0.40912533412E+02 0.40558672403E+02
 0.39667480738E+02 0.38121258788E+02 0.35874087131E+02 0.32978747328E+02 0.29586704156E+02
 0.25915806779E+02 0.22199092607E+02 0.18639154497E+02 0.15385359481E+02 0.12533549544E+02
 0.10135923792E+02 0.82098580752E+01 0.67429491931E+01 0.56984310337E+01 0.58880824332E+01
 0.52155248246E+01 0.48991440600E+01 0.48994031144E+01 0.52038578358E+01 0.58202221267E+01
 0.67654414219E+01 0.80572134399E+01 0.97108144142E+01 0.11739571728E+02 0.14153207549E+02
 0.16947868875E+02 0.20088067837E+02 0.23489843602E+02 0.27016804693E+02 0.30493438694E+02
 0.33730579243E+02 0.36551928552E+02 0.38697639360E+02 0.39753136518E+02 0.39400619883E+02
 0.37533500368E+02 0.34326520993E+02 0.30245968865E+02 0.25968378050E+02 0.22220152307E+02
 0.19607268594E+02 0.18512271383E+02 0.19077453634E+02 0.21228068802E+02 0.24687736596E+02
 0.28993809877E+02 0.33559705058E+02 0.37804903870E+02 0.41311530816E+02 0.43933629670E+02
 0.45806784089E+02 0.47255318196E+02 0.48579283127E+02 0.49776380917E+02 0.50702111023E+02
 0.51138759760E+02 0.50838642630E+02 0.49586137019E+02 0.47262891622E+02 0.43897562490E+02
 0.39678386269E+02 0.34915668059E+02 0.29965628458E+02 0.25149995053E+02 0.20705884298E+02
 0.16777483187E+02 0.13435543701E+02 0.10701717616E+02 0.85634690654E+01 0.69799683716E+01
 0.70882959682E+01 0.59869379082E+01 0.53420042945E+01 0.50794959781E+01 0.51565436022E+01
 0.55604825942E+01 0.62984694966E+01 0.73859196592E+01 0.88395833006E+01 0.10676107336E+02
 0.12911923294E+02 0.15557067811E+02 0.18598544740E+02 0.21978741291E+02 0.25582180970E+02
 0.29240400471E+02 0.32753526812E+02 0.35918669872E+02 0.38450847781E+02 0.39841242674E+02
 0.39629122481E+02 0.37552917329E+02 0.33658224494E+02 0.28363138031E+02 0.22427282993E+02
 0.16799069301E+02 0.12393525648E+02 0.99065389606E+01 0.97328506418E+01 0.11960682915E+02
 0.16373694895E+02 0.22446414630E+02 0.29394225301E+02 0.36331793288E+02 0.42506363518E+02
 0.47499524081E+02 0.51301694604E+02 0.54234822593E+02 0.56766298953E+02 0.59202532363E+02
 0.61432042659E+02 0.63153687359E+02 0.63976463940E+02 0.63515787904E+02 0.61502776895E+02
 0.57877219697E+02 0.52831951661E+02 0.46782058913E+02 0.40260872180E+02 0.33785199848E+02
 0.27750491538E+02 0.22393688145E+02 0.17817271502E+02 0.14038620502E+02 0.11030371981E+02
 0.87388215346E+01 0.87226691343E+01 0.70634148483E+01 0.59939645779E+01 0.54044863330E+01
 0.52139529192E+01 0.53785059768E+01 0.58856244348E+01 0.67415383071E+01 0.79606815641E+01
 0.95607133223E+01 0.11561376084E+02 0.13981424310E+02 0.16826591878E+02 0.20067805337E+02
 0.23620089556E+02 0.27336532522E+02 0.31022444162E+02 0.34462298740E+02 0.37381895211E+02
 0.39227081647E+02 0.39406054261E+02 0.37490615642E+02 0.33350803751E+02 0.27269945500E+02
 0.19980500698E+02 0.12557254893E+02 0.61791193465E+01 0.18697783460E+01 0.33660077593E+00
 0.19226387072E+01 0.65891132478E+01 0.13876140338E+02 0.22904445470E+02 0.32522831901E+02
 0.41606921481E+02 0.49379430459E+02 0.55591538463E+02 0.60492936887E+02 0.64628714205E+02
 0.68555522853E+02 0.72445595930E+02 0.75958462490E+02 0.78538244693E+02 0.79562996575E+02
 0.78510602269E+02 0.75119008287E+02 0.69494197399E+02 0.62117771765E+02 0.53731499914E+02
 0.45136348548E+02 0.36996430329E+02 0.29732395584E+02 0.23526430572E+02 0.18397051264E+02
 0.14282153055E+02 0.11091280172E+02 0.10880570194E+02 0.85206656064E+01 0.69135430607E+01
 0.59161943412E+01 0.54073202343E+01 0.53034784362E+01 0.55618392444E+01 0.61705330887E+01
 0.71358516992E+01 0.84730977601E+01 0.10202378815E+02 0.12346419698E+02 0.14923571888E+02
 0.17929959177E+02 0.21314830116E+02 0.24963917406E+02 0.28702867376E+02 0.32318784678E+02
 0.35563207619E+02 0.37913382311E+02 0.38679323402E+02 0.37279249340E+02 0.33391375640E+02
 0.27103066261E+02 0.19011552007E+02 0.10190850751E+02 0.19830838163E+01 -.43049358559E+01
 -.76443408408E+01 -.73880837091E+01 -.33064937819E+01 0.43440669412E+01 0.14750243006E+02
 0.26619532322E+02 0.38492558785E+02 0.49178926109E+02 0.58089123152E+02 0.65304694914E+02
 0.71390153944E+02 0.77059125678E+02 0.82809890314E+02 0.88489746373E+02 0.93412406376E+02
 0.96691161308E+02 0.97462330215E+02 0.95126103142E+02 0.89548249793E+02 0.81152694502E+02
 0.70843628890E+02 0.59760364121E+02 0.48964893049E+02 0.39206756621E+02 0.30853794501E+02
 0.23969902880E+02 0.18451660554E+02 0.14141119265E+02 0.13630378140E+02 0.10421614364E+02
 0.81558380163E+01 0.66572772318E+01 0.57672533751E+01 0.53594560919E+01 0.53519812362E+01
 0.57055570877E+01 0.64111354923E+01 0.74766046894E+01 0.89188992145E+01 0.10761043847E+02
 0.13028144969E+02 0.15734662405E+02 0.18861521952E+02 0.22333101383E+02 0.26008557383E+02
 0.29693173014E+02 0.33160020798E+02 0.35991504187E+02 0.37462139634E+02 0.36869454386E+02
 0.33711279264E+02 0.27851799305E+02 0.19669693743E+02 0.10105679440E+02 0.52515894741E+00
 -.75802903848E+01 -.12900162705E+02 -.14479518795E+02 -.11779449276E+02 -.47550507560E+01
 0.60117744534E+01 0.19277907429E+02 0.33383254499E+02 0.46746711396E+02 0.58361518889E+02
 0.68025785346E+02 0.76228040980E+02 0.83791884922E+02 0.91446677703E+02 0.99402451181E+02
 0.10701517658E+03 0.11317704507E+03 0.11665654567E+03 0.11641247770E+03 0.11189878020E+03
 0.10327935426E+03 0.91457176690E+02 0.77857085967E+02 0.64020348104E+02 0.51193429986E+02