   9   9   0   0
  0.1255774E+02  0.4913700E-09  0.4913700E-09  0.5405130E-09  0.5000000E-15
  1.000000000000000E-004
  CAR 
 unknown system                          
     13.81565984    -20.44998128  301      1.19448203      1.00000000
    -20.450  0.0000E+00  0.0000E+00
    -20.336  0.0000E+00  0.0000E+00
    -20.222  0.0000E+00  0.0000E+00
    -20.107  0.0000E+00  0.0000E+00
    -19.993  0.0000E+00  0.0000E+00
    -19.879  0.0000E+00  0.0000E+00
    -19.765  0.0000E+00  0.0000E+00
    -19.650  0.0000E+00  0.0000E+00
    -19.536  0.0000E+00  0.0000E+00
    -19.422  0.0000E+00  0.0000E+00
    -19.308  0.0000E+00  0.0000E+00
    -19.194  0.0000E+00  0.0000E+00
    -19.079  0.0000E+00  0.0000E+00
    -18.965  0.0000E+00  0.0000E+00
    -18.851  0.0000E+00  0.0000E+00
    -18.737  0.0000E+00  0.0000E+00
    -18.622  0.0000E+00  0.0000E+00
    -18.508  0.0000E+00  0.0000E+00
    -18.394  0.5130E+00  0.9565E-02
    -18.280  0.1813E+01  0.1585E+00
    -18.166  0.4185E+01  0.4575E+00
    -18.051  0.7756E+01  0.1128E+01
    -17.937  0.3058E+01  0.1924E+01
    -17.823  0.0000E+00  0.2000E+01
    -17.709  0.1484E+01  0.2067E+01
    -17.595  0.3308E+01  0.2316E+01
    -17.480  0.6181E+01  0.2837E+01
    -17.366  0.7889E+01  0.3577E+01
    -17.252  0.9518E+00  0.3958E+01
    -17.138  0.0000E+00  0.4000E+01
    -17.023  0.5449E+00  0.4011E+01
    -16.909  0.2595E+01  0.4175E+01
    -16.795  0.7497E+01  0.4846E+01
    -16.681  0.3741E+01  0.5517E+01
    -16.567  0.2608E+01  0.5868E+01
    -16.452  0.6602E+01  0.6228E+01
    -16.338  0.6691E+01  0.7215E+01
    -16.224  0.4705E+01  0.7826E+01
    -16.110  0.1284E+02  0.9275E+01
    -15.995  0.0000E+00  0.1000E+02
    -15.881  0.2906E+02  0.1125E+02
    -15.767  0.0000E+00  0.1200E+02
    -15.653  0.0000E+00  0.1200E+02
    -15.539  0.0000E+00  0.1200E+02
    -15.424  0.0000E+00  0.1200E+02
    -15.310  0.0000E+00  0.1200E+02
    -15.196  0.0000E+00  0.1200E+02
    -15.082  0.0000E+00  0.1200E+02
    -14.967  0.0000E+00  0.1200E+02
    -14.853  0.0000E+00  0.1200E+02
    -14.739  0.0000E+00  0.1200E+02
    -14.625  0.0000E+00  0.1200E+02
    -14.511  0.0000E+00  0.1200E+02
    -14.396  0.0000E+00  0.1200E+02
    -14.282  0.0000E+00  0.1200E+02
    -14.168  0.0000E+00  0.1200E+02
    -14.054  0.0000E+00  0.1200E+02
    -13.940  0.0000E+00  0.1200E+02
    -13.825  0.0000E+00  0.1200E+02
    -13.711  0.0000E+00  0.1200E+02
    -13.597  0.0000E+00  0.1200E+02
    -13.483  0.0000E+00  0.1200E+02
    -13.368  0.0000E+00  0.1200E+02
    -13.254  0.0000E+00  0.1200E+02
    -13.140  0.0000E+00  0.1200E+02
    -13.026  0.0000E+00  0.1200E+02
    -12.912  0.0000E+00  0.1200E+02
    -12.797  0.0000E+00  0.1200E+02
    -12.683  0.0000E+00  0.1200E+02
    -12.569  0.0000E+00  0.1200E+02
    -12.455  0.0000E+00  0.1200E+02
    -12.340  0.0000E+00  0.1200E+02
    -12.226  0.0000E+00  0.1200E+02
    -12.112  0.0000E+00  0.1200E+02
    -11.998  0.0000E+00  0.1200E+02
    -11.884  0.0000E+00  0.1200E+02
    -11.769  0.0000E+00  0.1200E+02
    -11.655  0.0000E+00  0.1200E+02
    -11.541  0.0000E+00  0.1200E+02
    -11.427  0.0000E+00  0.1200E+02
    -11.312  0.0000E+00  0.1200E+02
    -11.198  0.0000E+00  0.1200E+02
    -11.084  0.0000E+00  0.1200E+02
    -10.970  0.0000E+00  0.1200E+02
    -10.856  0.0000E+00  0.1200E+02
    -10.741  0.0000E+00  0.1200E+02
    -10.627  0.0000E+00  0.1200E+02
    -10.513  0.0000E+00  0.1200E+02
    -10.399  0.0000E+00  0.1200E+02
    -10.285  0.0000E+00  0.1200E+02
    -10.170  0.0000E+00  0.1200E+02
    -10.056  0.0000E+00  0.1200E+02
     -9.942  0.0000E+00  0.1200E+02
     -9.828  0.0000E+00  0.1200E+02
     -9.713  0.0000E+00  0.1200E+02
     -9.599  0.0000E+00  0.1200E+02
     -9.485  0.0000E+00  0.1200E+02
     -9.371  0.0000E+00  0.1200E+02
     -9.257  0.0000E+00  0.1200E+02
     -9.142  0.0000E+00  0.1200E+02
     -9.028  0.0000E+00  0.1200E+02
     -8.914  0.0000E+00  0.1200E+02
     -8.800  0.0000E+00  0.1200E+02
     -8.685  0.0000E+00  0.1200E+02
     -8.571  0.0000E+00  0.1200E+02
     -8.457  0.0000E+00  0.1200E+02
     -8.343  0.0000E+00  0.1200E+02
     -8.229  0.1689E-01  0.1200E+02
     -8.114  0.2861E+00  0.1202E+02
     -8.000  0.4502E+00  0.1206E+02
     -7.886  0.6652E+00  0.1213E+02
     -7.772  0.8767E+00  0.1221E+02
     -7.657  0.1233E+01  0.1233E+02
     -7.543  0.1693E+01  0.1250E+02
     -7.429  0.3246E+01  0.1276E+02
     -7.315  0.6146E+01  0.1345E+02
     -7.201  0.1693E+01  0.1386E+02
     -7.086  0.4449E+00  0.1397E+02
     -6.972  0.2133E+00  0.1400E+02
     -6.858  0.2151E+00  0.1402E+02
     -6.744  0.3518E+00  0.1406E+02
     -6.630  0.6060E+00  0.1411E+02
     -6.515  0.1136E+01  0.1421E+02
     -6.401  0.2085E+01  0.1438E+02
     -6.287  0.3446E+01  0.1470E+02
     -6.173  0.4804E+01  0.1519E+02
     -6.058  0.2054E+01  0.1558E+02
     -5.944  0.1216E+01  0.1576E+02
     -5.830  0.7610E+00  0.1587E+02
     -5.716  0.5857E+00  0.1594E+02
     -5.602  0.2145E+00  0.1600E+02
     -5.487  0.3095E+00  0.1601E+02
     -5.373  0.2587E+01  0.1615E+02
     -5.259  0.3241E+01  0.1650E+02
     -5.145  0.3066E+01  0.1687E+02
     -5.030  0.2969E+01  0.1721E+02
     -4.916  0.2065E+01  0.1750E+02
     -4.802  0.1581E+01  0.1771E+02
     -4.688  0.1284E+01  0.1787E+02
     -4.574  0.5883E+00  0.1799E+02
     -4.459  0.4903E+01  0.1813E+02
     -4.345  0.9359E+01  0.1924E+02
     -4.231  0.4825E+01  0.1998E+02
     -4.117  0.9753E+01  0.2073E+02
     -4.002  0.6317E+01  0.2163E+02
     -3.888  0.1475E+01  0.2209E+02
     -3.774  0.7831E+01  0.2256E+02
     -3.660  0.5994E+01  0.2348E+02
     -3.546  0.2384E+01  0.2389E+02
     -3.431  0.1077E-01  0.2400E+02
     -3.317  0.0000E+00  0.2400E+02
     -3.203  0.0000E+00  0.2400E+02
     -3.089  0.0000E+00  0.2400E+02
     -2.975  0.0000E+00  0.2400E+02
     -2.860  0.0000E+00  0.2400E+02
     -2.746  0.0000E+00  0.2400E+02
     -2.632  0.0000E+00  0.2400E+02
     -2.518  0.0000E+00  0.2400E+02
     -2.403  0.0000E+00  0.2400E+02
     -2.289  0.0000E+00  0.2400E+02
     -2.175  0.1053E+02  0.2443E+02
     -2.061  0.6785E+01  0.2575E+02
     -1.947  0.7479E+01  0.2657E+02
     -1.832  0.6805E+01  0.2727E+02
     -1.718  0.3429E+01  0.2789E+02
     -1.604  0.8032E+01  0.2830E+02
     -1.490  0.7990E+01  0.2941E+02
     -1.375  0.1086E+01  0.2998E+02
     -1.261  0.8173E+01  0.3028E+02
     -1.147  0.1362E+02  0.3160E+02
     -1.033  0.9402E+00  0.3200E+02
     -0.919  0.2239E+02  0.3329E+02
     -0.804  0.9614E+00  0.3391E+02
     -0.690  0.5787E+01  0.3429E+02
     -0.576  0.1006E+02  0.3515E+02
     -0.462  0.7376E+01  0.3625E+02
     -0.347  0.6911E+01  0.3738E+02
     -0.233  0.4952E+01  0.3798E+02
     -0.119  0.8813E+01  0.3886E+02
     -0.005  0.5137E+01  0.3980E+02
      0.109  0.8456E+01  0.4044E+02
      0.224  0.7916E+01  0.4176E+02
      0.338  0.2440E+01  0.4206E+02
      0.452  0.1412E+02  0.4318E+02
      0.566  0.1596E+01  0.4382E+02
      0.680  0.4534E+01  0.4427E+02
      0.795  0.1164E+02  0.4504E+02
      0.909  0.5430E+01  0.4616E+02
      1.023  0.1118E+02  0.4694E+02
      1.137  0.3647E+01  0.4791E+02
      1.252  0.0000E+00  0.4800E+02
      1.366  0.0000E+00  0.4800E+02
      1.480  0.0000E+00  0.4800E+02
      1.594  0.0000E+00  0.4800E+02
      1.708  0.0000E+00  0.4800E+02
      1.823  0.0000E+00  0.4800E+02
      1.937  0.0000E+00  0.4800E+02
      2.051  0.0000E+00  0.4800E+02
      2.165  0.0000E+00  0.4800E+02
      2.280  0.0000E+00  0.4800E+02
      2.394  0.0000E+00  0.4800E+02
      2.508  0.0000E+00  0.4800E+02
      2.622  0.0000E+00  0.4800E+02
      2.736  0.0000E+00  0.4800E+02
      2.851  0.0000E+00  0.4800E+02
      2.965  0.0000E+00  0.4800E+02
      3.079  0.0000E+00  0.4800E+02
      3.193  0.0000E+00  0.4800E+02
      3.308  0.0000E+00  0.4800E+02
      3.422  0.0000E+00  0.4800E+02
      3.536  0.0000E+00  0.4800E+02
      3.650  0.0000E+00  0.4800E+02
      3.764  0.0000E+00  0.4800E+02
      3.879  0.0000E+00  0.4800E+02
      3.993  0.0000E+00  0.4800E+02
      4.107  0.0000E+00  0.4800E+02
      4.221  0.0000E+00  0.4800E+02
      4.335  0.0000E+00  0.4800E+02
      4.450  0.0000E+00  0.4800E+02
      4.564  0.0000E+00  0.4800E+02
      4.678  0.0000E+00  0.4800E+02
      4.792  0.0000E+00  0.4800E+02
      4.907  0.0000E+00  0.4800E+02
      5.021  0.0000E+00  0.4800E+02
      5.135  0.0000E+00  0.4800E+02
      5.249  0.0000E+00  0.4800E+02
      5.363  0.0000E+00  0.4800E+02
      5.478  0.0000E+00  0.4800E+02
      5.592  0.0000E+00  0.4800E+02
      5.706  0.0000E+00  0.4800E+02
      5.820  0.0000E+00  0.4800E+02
      5.935  0.0000E+00  0.4800E+02
      6.049  0.0000E+00  0.4800E+02
      6.163  0.0000E+00  0.4800E+02
      6.277  0.0000E+00  0.4800E+02
      6.391  0.0000E+00  0.4800E+02
      6.506  0.0000E+00  0.4800E+02
      6.620  0.0000E+00  0.4800E+02
      6.734  0.0000E+00  0.4800E+02
      6.848  0.0000E+00  0.4800E+02
      6.963  0.0000E+00  0.4800E+02
      7.077  0.0000E+00  0.4800E+02
      7.191  0.8418E-02  0.4800E+02
      7.305  0.4259E-01  0.4800E+02
      7.419  0.1030E+00  0.4801E+02
      7.534  0.1933E+00  0.4803E+02
      7.648  0.2438E+00  0.4805E+02
      7.762  0.2763E+00  0.4808E+02
      7.876  0.2952E+00  0.4812E+02
      7.991  0.3408E+00  0.4815E+02
      8.105  0.3889E+00  0.4819E+02
      8.219  0.4396E+00  0.4824E+02
      8.333  0.4928E+00  0.4829E+02
      8.447  0.5483E+00  0.4835E+02
      8.562  0.6848E+00  0.4842E+02
      8.676  0.8395E+00  0.4851E+02
      8.790  0.8304E+00  0.4861E+02
      8.904  0.8925E+00  0.4870E+02
      9.018  0.9568E+00  0.4881E+02
      9.133  0.1023E+01  0.4892E+02
      9.247  0.1177E+01  0.4904E+02
      9.361  0.1574E+01  0.4921E+02
      9.475  0.1374E+01  0.4938E+02
      9.590  0.1271E+01  0.4953E+02
      9.704  0.1407E+01  0.4968E+02
      9.818  0.1489E+01  0.4985E+02
      9.932  0.1409E+01  0.5006E+02
     10.046  0.1062E+01  0.5019E+02
     10.161  0.1823E+01  0.5034E+02
     10.275  0.6597E+01  0.5075E+02
     10.389  0.6630E+01  0.5177E+02
     10.503  0.4432E+01  0.5228E+02
     10.618  0.9099E+01  0.5303E+02
     10.732  0.5807E+01  0.5389E+02
     10.846  0.2637E+01  0.5437E+02
     10.960  0.2834E+01  0.5465E+02
     11.074  0.6610E+01  0.5518E+02
     11.189  0.4505E+01  0.5589E+02
     11.303  0.3911E+01  0.5638E+02
     11.417  0.6132E+01  0.5694E+02
     11.531  0.4686E+01  0.5767E+02
     11.646  0.7643E+00  0.5798E+02
     11.760  0.1961E-01  0.5800E+02
     11.874  0.0000E+00  0.5800E+02
     11.988  0.0000E+00  0.5800E+02
     12.102  0.0000E+00  0.5800E+02
     12.217  0.0000E+00  0.5800E+02
     12.331  0.0000E+00  0.5800E+02
     12.445  0.0000E+00  0.5800E+02
     12.559  0.0000E+00  0.5800E+02
     12.673  0.0000E+00  0.5800E+02
     12.788  0.0000E+00  0.5800E+02
     12.902  0.0000E+00  0.5800E+02
     13.016  0.0000E+00  0.5800E+02
     13.130  0.0000E+00  0.5800E+02
     13.245  0.0000E+00  0.5800E+02
     13.359  0.0000E+00  0.5800E+02
     13.473  0.0000E+00  0.5800E+02
     13.587  0.0000E+00  0.5800E+02
     13.701  0.0000E+00  0.5800E+02
     13.816  0.0000E+00  0.5800E+02
