Starting job 28173593 ("jobname") on c14-28 at Fri Sep 13 11:28:33 CEST 2019
 running on    1 total cores
 distrk:  each k-point on    1 cores,    1 groups
 distr:  one band on    1 cores,    1 groups
 using from now: INCAR     
 vasp.5.4.1 05Feb16 (build Mar 02 2016 14:09:44) complex                        
  
 POSCAR found :  2 types and       9 ions
 LDA part: xc-table for Pade appr. of Perdew
 POSCAR, INCAR and KPOINTS ok, starting setup
 WARNING: small aliasing (wrap around) errors must be expected
 FFT: planning ...
 WAVECAR not read
 entering main loop
       N       E                     dE             d eps       ncg     rms          rms(c)
DAV:   1     0.288055166103E+03    0.28806E+03   -0.24006E+04  5392   0.137E+03
DAV:   2    -0.619057533749E+02   -0.34996E+03   -0.34226E+03  7003   0.327E+02
DAV:   3    -0.801879504585E+02   -0.18282E+02   -0.18232E+02  6246   0.853E+01
DAV:   4    -0.804181037454E+02   -0.23015E+00   -0.22982E+00  6320   0.104E+01
DAV:   5    -0.804226024632E+02   -0.44987E-02   -0.44971E-02  6186   0.142E+00    0.188E+01
RMM:   6    -0.707566137454E+02    0.96660E+01   -0.41884E+01  5693   0.342E+01    0.513E+00
RMM:   7    -0.707416309932E+02    0.14983E-01   -0.17615E+00  6151   0.610E+00    0.339E+00
RMM:   8    -0.707598788613E+02   -0.18248E-01   -0.28472E-01  6056   0.422E+00    0.654E-01
RMM:   9    -0.707513673568E+02    0.85115E-02   -0.48342E-02  6250   0.116E+00    0.162E-01
RMM:  10    -0.707543516730E+02   -0.29843E-02   -0.19614E-02  6189   0.718E-01    0.208E-01
RMM:  11    -0.707533606475E+02    0.99103E-03   -0.48637E-03  6193   0.403E-01    0.188E-02
RMM:  12    -0.707534101546E+02   -0.49507E-04   -0.17748E-04  5710   0.799E-02    0.141E-02
RMM:  13    -0.707534118236E+02   -0.16690E-05   -0.98762E-06  4019   0.181E-02
   1 F= -.70753412E+02 E0= -.70753412E+02  d E =0.000000E+00

Currently Loaded Modulefiles:
  1) Anaconda3/5.1.0       3) vesta/3.3.8           5) intel/2016.1
  2) gnuplot/5.0.4         4) imagemagick/6.7.9-0   6) vasp/5.4.1.Feb16

Job script resource usage:
       JobID  MaxVMSize     MaxRSS 
------------ ---------- ---------- 
28173593.ba+    518888K    158631K 

Job step resource usage:
       JobID    JobName  AllocCPUS  MaxVMSize     MaxRSS    Elapsed ExitCode 
------------ ---------- ---------- ---------- ---------- ---------- -------- 
28173593        jobname          1                         00:02:16      0:0 

Job 28173593 ("jobname") completed on c14-28 at Fri Sep 13 11:30:48 CEST 2019
