<?xml version="1.0" encoding="ISO-8859-1"?>
<modeling>
 <generator>
  <i name="program" type="string">vasp </i>
  <i name="version" type="string">5.4.1  </i>
  <i name="subversion" type="string">05Feb16 (build Mar 02 2016 14:09:44) complex                          parallel </i>
  <i name="platform" type="string">Abel-impi-ifc-cuda </i>
  <i name="date" type="string">2019 09 13 </i>
  <i name="time" type="string">11:28:33 </i>
 </generator>
 <incar>
  <i type="string" name="PREC">normal    ! low/normal/accurate</i>
  <i type="string" name="ALGO"> Fast      ! Algorithm for electronic re</i>
  <i type="int" name="ISPIN">     1</i>
  <i type="int" name="NELMIN">     4</i>
  <i name="EDIFF">      0.00001000</i>
  <i type="int" name="NSW">     0</i>
  <i name="ENCUT">    450.00000000</i>
  <i type="string" name="LREAL"> Auto      ! Projection in reciprocal sp</i>
  <i type="int" name="ISMEAR">    -5</i>
  <i name="SIGMA">      0.20000000</i>
  <i type="logical" name="LWAVE"> F  </i>
  <v type="int" name="KPOINT_BSE">    -1     0     0     0</v>
 </incar>
 <kpoints>
  <generation param="Gamma">
   <v type="int" name="divisions">       6        6        5 </v>
   <v name="usershift">      0.00000000       0.00000000       0.00000000 </v>
   <v name="genvec1">      0.16666667       0.00000000       0.00000000 </v>
   <v name="genvec2">      0.00000000       0.16666667       0.00000000 </v>
   <v name="genvec3">      0.00000000       0.00000000       0.20000000 </v>
   <v name="shift">      0.00000000       0.00000000       0.00000000 </v>
  </generation>
  <varray name="kpointlist" >
   <v>       0.00000000       0.00000000       0.00000000 </v>
   <v>       0.16666667       0.00000000       0.00000000 </v>
   <v>       0.33333333       0.00000000       0.00000000 </v>
   <v>       0.50000000       0.00000000       0.00000000 </v>
   <v>       0.00000000       0.16666667       0.00000000 </v>
   <v>       0.16666667       0.16666667       0.00000000 </v>
   <v>       0.33333333       0.16666667       0.00000000 </v>
   <v>       0.50000000       0.16666667       0.00000000 </v>
   <v>      -0.33333333       0.16666667       0.00000000 </v>
   <v>      -0.16666667       0.16666667       0.00000000 </v>
   <v>       0.00000000       0.33333333       0.00000000 </v>
   <v>       0.16666667       0.33333333       0.00000000 </v>
   <v>       0.33333333       0.33333333       0.00000000 </v>
   <v>       0.50000000       0.33333333       0.00000000 </v>
   <v>      -0.33333333       0.33333333       0.00000000 </v>
   <v>      -0.16666667       0.33333333       0.00000000 </v>
   <v>       0.00000000       0.50000000       0.00000000 </v>
   <v>       0.16666667       0.50000000       0.00000000 </v>
   <v>       0.33333333       0.50000000       0.00000000 </v>
   <v>       0.50000000       0.50000000       0.00000000 </v>
   <v>       0.00000000       0.00000000       0.20000000 </v>
   <v>       0.16666667       0.00000000       0.20000000 </v>
   <v>       0.33333333       0.00000000       0.20000000 </v>
   <v>       0.50000000       0.00000000       0.20000000 </v>
   <v>      -0.33333333       0.00000000       0.20000000 </v>
   <v>      -0.16666667       0.00000000       0.20000000 </v>
   <v>       0.00000000       0.16666667       0.20000000 </v>
   <v>       0.16666667       0.16666667       0.20000000 </v>
   <v>       0.33333333       0.16666667       0.20000000 </v>
   <v>       0.50000000       0.16666667       0.20000000 </v>
   <v>      -0.33333333       0.16666667       0.20000000 </v>
   <v>      -0.16666667       0.16666667       0.20000000 </v>
   <v>       0.00000000       0.33333333       0.20000000 </v>
   <v>       0.16666667       0.33333333       0.20000000 </v>
   <v>       0.33333333       0.33333333       0.20000000 </v>
   <v>       0.50000000       0.33333333       0.20000000 </v>
   <v>      -0.33333333       0.33333333       0.20000000 </v>
   <v>      -0.16666667       0.33333333       0.20000000 </v>
   <v>       0.00000000       0.50000000       0.20000000 </v>
   <v>       0.16666667       0.50000000       0.20000000 </v>
   <v>       0.33333333       0.50000000       0.20000000 </v>
   <v>       0.50000000       0.50000000       0.20000000 </v>
   <v>      -0.33333333       0.50000000       0.20000000 </v>
   <v>      -0.16666667       0.50000000       0.20000000 </v>
   <v>       0.00000000      -0.33333333       0.20000000 </v>
   <v>       0.16666667      -0.33333333       0.20000000 </v>
   <v>       0.33333333      -0.33333333       0.20000000 </v>
   <v>       0.50000000      -0.33333333       0.20000000 </v>
   <v>      -0.33333333      -0.33333333       0.20000000 </v>
   <v>      -0.16666667      -0.33333333       0.20000000 </v>
   <v>       0.00000000      -0.16666667       0.20000000 </v>
   <v>       0.16666667      -0.16666667       0.20000000 </v>
   <v>       0.33333333      -0.16666667       0.20000000 </v>
   <v>       0.50000000      -0.16666667       0.20000000 </v>
   <v>      -0.33333333      -0.16666667       0.20000000 </v>
   <v>      -0.16666667      -0.16666667       0.20000000 </v>
   <v>       0.00000000       0.00000000       0.40000000 </v>
   <v>       0.16666667       0.00000000       0.40000000 </v>
   <v>       0.33333333       0.00000000       0.40000000 </v>
   <v>       0.50000000       0.00000000       0.40000000 </v>
   <v>      -0.33333333       0.00000000       0.40000000 </v>
   <v>      -0.16666667       0.00000000       0.40000000 </v>
   <v>       0.00000000       0.16666667       0.40000000 </v>
   <v>       0.16666667       0.16666667       0.40000000 </v>
   <v>       0.33333333       0.16666667       0.40000000 </v>
   <v>       0.50000000       0.16666667       0.40000000 </v>
   <v>      -0.33333333       0.16666667       0.40000000 </v>
   <v>      -0.16666667       0.16666667       0.40000000 </v>
   <v>       0.00000000       0.33333333       0.40000000 </v>
   <v>       0.16666667       0.33333333       0.40000000 </v>
   <v>       0.33333333       0.33333333       0.40000000 </v>
   <v>       0.50000000       0.33333333       0.40000000 </v>
   <v>      -0.33333333       0.33333333       0.40000000 </v>
   <v>      -0.16666667       0.33333333       0.40000000 </v>
   <v>       0.00000000       0.50000000       0.40000000 </v>
   <v>       0.16666667       0.50000000       0.40000000 </v>
   <v>       0.33333333       0.50000000       0.40000000 </v>
   <v>       0.50000000       0.50000000       0.40000000 </v>
   <v>      -0.33333333       0.50000000       0.40000000 </v>
   <v>      -0.16666667       0.50000000       0.40000000 </v>
   <v>       0.00000000      -0.33333333       0.40000000 </v>
   <v>       0.16666667      -0.33333333       0.40000000 </v>
   <v>       0.33333333      -0.33333333       0.40000000 </v>
   <v>       0.50000000      -0.33333333       0.40000000 </v>
   <v>      -0.33333333      -0.33333333       0.40000000 </v>
   <v>      -0.16666667      -0.33333333       0.40000000 </v>
   <v>       0.00000000      -0.16666667       0.40000000 </v>
   <v>       0.16666667      -0.16666667       0.40000000 </v>
   <v>       0.33333333      -0.16666667       0.40000000 </v>
   <v>       0.50000000      -0.16666667       0.40000000 </v>
   <v>      -0.33333333      -0.16666667       0.40000000 </v>
   <v>      -0.16666667      -0.16666667       0.40000000 </v>
  </varray>
  <varray name="weights" >
   <v>       0.00555556 </v>
   <v>       0.01111111 </v>
   <v>       0.01111111 </v>
   <v>       0.00555556 </v>
   <v>       0.01111111 </v>
   <v>       0.01111111 </v>
   <v>       0.01111111 </v>
   <v>       0.01111111 </v>
   <v>       0.01111111 </v>
   <v>       0.01111111 </v>
   <v>       0.01111111 </v>
   <v>       0.01111111 </v>
   <v>       0.01111111 </v>
   <v>       0.01111111 </v>
   <v>       0.01111111 </v>
   <v>       0.01111111 </v>
   <v>       0.00555556 </v>
   <v>       0.01111111 </v>
   <v>       0.01111111 </v>
   <v>       0.00555556 </v>
   <v>       0.01111111 </v>
   <v>       0.01111111 </v>
   <v>       0.01111111 </v>
   <v>       0.01111111 </v>
   <v>       0.01111111 </v>
   <v>       0.01111111 </v>
   <v>       0.01111111 </v>
   <v>       0.01111111 </v>
   <v>       0.01111111 </v>
   <v>       0.01111111 </v>
   <v>       0.01111111 </v>
   <v>       0.01111111 </v>
   <v>       0.01111111 </v>
   <v>       0.01111111 </v>
   <v>       0.01111111 </v>
   <v>       0.01111111 </v>
   <v>       0.01111111 </v>
   <v>       0.01111111 </v>
   <v>       0.01111111 </v>
   <v>       0.01111111 </v>
   <v>       0.01111111 </v>
   <v>       0.01111111 </v>
   <v>       0.01111111 </v>
   <v>       0.01111111 </v>
   <v>       0.01111111 </v>
   <v>       0.01111111 </v>
   <v>       0.01111111 </v>
   <v>       0.01111111 </v>
   <v>       0.01111111 </v>
   <v>       0.01111111 </v>
   <v>       0.01111111 </v>
   <v>       0.01111111 </v>
   <v>       0.01111111 </v>
   <v>       0.01111111 </v>
   <v>       0.01111111 </v>
   <v>       0.01111111 </v>
   <v>       0.01111111 </v>
   <v>       0.01111111 </v>
   <v>       0.01111111 </v>
   <v>       0.01111111 </v>
   <v>       0.01111111 </v>
   <v>       0.01111111 </v>
   <v>       0.01111111 </v>
   <v>       0.01111111 </v>
   <v>       0.01111111 </v>
   <v>       0.01111111 </v>
   <v>       0.01111111 </v>
   <v>       0.01111111 </v>
   <v>       0.01111111 </v>
   <v>       0.01111111 </v>
   <v>       0.01111111 </v>
   <v>       0.01111111 </v>
   <v>       0.01111111 </v>
   <v>       0.01111111 </v>
   <v>       0.01111111 </v>
   <v>       0.01111111 </v>
   <v>       0.01111111 </v>
   <v>       0.01111111 </v>
   <v>       0.01111111 </v>
   <v>       0.01111111 </v>
   <v>       0.01111111 </v>
   <v>       0.01111111 </v>
   <v>       0.01111111 </v>
   <v>       0.01111111 </v>
   <v>       0.01111111 </v>
   <v>       0.01111111 </v>
   <v>       0.01111111 </v>
   <v>       0.01111111 </v>
   <v>       0.01111111 </v>
   <v>       0.01111111 </v>
   <v>       0.01111111 </v>
   <v>       0.01111111 </v>
  </varray>
  <varray name="tetrahedronlist"  type="int" >
   <v type="int" >        2        2        5        6       27 </v>
   <v type="int" >        2        1        2        5       27 </v>
   <v type="int" >        2        1        2       21       27 </v>
   <v type="int" >        2        2        6       27       28 </v>
   <v type="int" >        2        2       22       27       28 </v>
   <v type="int" >        2        2       21       22       27 </v>
   <v type="int" >        2        3        6        7       28 </v>
   <v type="int" >        2        2        3        6       28 </v>
   <v type="int" >        2        2        3       22       28 </v>
   <v type="int" >        2        3        7       28       29 </v>
   <v type="int" >        2        3       23       28       29 </v>
   <v type="int" >        2        3       22       23       28 </v>
   <v type="int" >        2        4        7        8       29 </v>
   <v type="int" >        2        3        4        7       29 </v>
   <v type="int" >        2        3        4       23       29 </v>
   <v type="int" >        2        4        8       29       30 </v>
   <v type="int" >        2        4       24       29       30 </v>
   <v type="int" >        2        4       23       24       29 </v>
   <v type="int" >        2        3        8        9       30 </v>
   <v type="int" >        2        3        4        8       30 </v>
   <v type="int" >        2        3        4       24       30 </v>
   <v type="int" >        2        3        9       30       31 </v>
   <v type="int" >        2        3       25       30       31 </v>
   <v type="int" >        2        3       24       25       30 </v>
   <v type="int" >        2        2        9       10       31 </v>
   <v type="int" >        2        2        3        9       31 </v>
   <v type="int" >        2        2        3       25       31 </v>
   <v type="int" >        2        2       10       31       32 </v>
   <v type="int" >        2        2       26       31       32 </v>
   <v type="int" >        2        2       25       26       31 </v>
   <v type="int" >        2        1        5       10       32 </v>
   <v type="int" >        2        1        2       10       32 </v>
   <v type="int" >        2        1        2       26       32 </v>
   <v type="int" >        2        1        5       27       32 </v>
   <v type="int" >        2        1       21       27       32 </v>
   <v type="int" >        2        1       21       26       32 </v>
   <v type="int" >        2        6       11       12       33 </v>
   <v type="int" >        2        5        6       11       33 </v>
   <v type="int" >        2        5        6       27       33 </v>
   <v type="int" >        2        6       12       33       34 </v>
   <v type="int" >        2        6       28       33       34 </v>
   <v type="int" >        2        6       27       28       33 </v>
   <v type="int" >        2        7       12       13       34 </v>
   <v type="int" >        2        6        7       12       34 </v>
   <v type="int" >        2        6        7       28       34 </v>
   <v type="int" >        2        7       13       34       35 </v>
   <v type="int" >        2        7       29       34       35 </v>
   <v type="int" >        2        7       28       29       34 </v>
   <v type="int" >        2        8       13       14       35 </v>
   <v type="int" >        2        7        8       13       35 </v>
   <v type="int" >        2        7        8       29       35 </v>
   <v type="int" >        2        8       14       35       36 </v>
   <v type="int" >        2        8       30       35       36 </v>
   <v type="int" >        2        8       29       30       35 </v>
   <v type="int" >        2        9       14       15       36 </v>
   <v type="int" >        2        8        9       14       36 </v>
   <v type="int" >        2        8        9       30       36 </v>
   <v type="int" >        2        9       15       36       37 </v>
   <v type="int" >        2        9       31       36       37 </v>
   <v type="int" >        2        9       30       31       36 </v>
   <v type="int" >        2       10       15       16       37 </v>
   <v type="int" >        2        9       10       15       37 </v>
   <v type="int" >        2        9       10       31       37 </v>
   <v type="int" >        2       10       16       37       38 </v>
   <v type="int" >        2       10       32       37       38 </v>
   <v type="int" >        2       10       31       32       37 </v>
   <v type="int" >        2        5       11       16       38 </v>
   <v type="int" >        2        5       10       16       38 </v>
   <v type="int" >        2        5       10       32       38 </v>
   <v type="int" >        2        5       11       33       38 </v>
   <v type="int" >        2        5       27       33       38 </v>
   <v type="int" >        2        5       27       32       38 </v>
   <v type="int" >        2       12       17       18       39 </v>
   <v type="int" >        2       11       12       17       39 </v>
   <v type="int" >        2       11       12       33       39 </v>
   <v type="int" >        2       12       18       39       40 </v>
   <v type="int" >        2       12       34       39       40 </v>
   <v type="int" >        2       12       33       34       39 </v>
   <v type="int" >        2       13       18       19       40 </v>
   <v type="int" >        2       12       13       18       40 </v>
   <v type="int" >        2       12       13       34       40 </v>
   <v type="int" >        2       13       19       40       41 </v>
   <v type="int" >        2       13       35       40       41 </v>
   <v type="int" >        2       13       34       35       40 </v>
   <v type="int" >        2       14       19       20       41 </v>
   <v type="int" >        2       13       14       19       41 </v>
   <v type="int" >        2       13       14       35       41 </v>
   <v type="int" >        2       14       20       41       42 </v>
   <v type="int" >        2       14       36       41       42 </v>
   <v type="int" >        2       14       35       36       41 </v>
   <v type="int" >        2       15       19       20       42 </v>
   <v type="int" >        2       14       15       20       42 </v>
   <v type="int" >        2       14       15       36       42 </v>
   <v type="int" >        2       15       19       42       43 </v>
   <v type="int" >        2       15       37       42       43 </v>
   <v type="int" >        2       15       36       37       42 </v>
   <v type="int" >        2       16       18       19       43 </v>
   <v type="int" >        2       15       16       19       43 </v>
   <v type="int" >        2       15       16       37       43 </v>
   <v type="int" >        2       16       18       43       44 </v>
   <v type="int" >        2       16       38       43       44 </v>
   <v type="int" >        2       16       37       38       43 </v>
   <v type="int" >        2       11       17       18       44 </v>
   <v type="int" >        2       11       16       18       44 </v>
   <v type="int" >        2       11       16       38       44 </v>
   <v type="int" >        2       11       17       39       44 </v>
   <v type="int" >        2       11       33       39       44 </v>
   <v type="int" >        2       11       33       38       44 </v>
   <v type="int" >        2       11       16       18       45 </v>
   <v type="int" >        2       11       17       18       45 </v>
   <v type="int" >        2       17       18       39       45 </v>
   <v type="int" >        2       16       18       45       46 </v>
   <v type="int" >        2       18       40       45       46 </v>
   <v type="int" >        2       18       39       40       45 </v>
   <v type="int" >        2       15       16       19       46 </v>
   <v type="int" >        2       16       18       19       46 </v>
   <v type="int" >        2       18       19       40       46 </v>
   <v type="int" >        2       15       19       46       47 </v>
   <v type="int" >        2       19       41       46       47 </v>
   <v type="int" >        2       19       40       41       46 </v>
   <v type="int" >        2       14       15       20       47 </v>
   <v type="int" >        2       15       19       20       47 </v>
   <v type="int" >        2       19       20       41       47 </v>
   <v type="int" >        2       14       20       47       48 </v>
   <v type="int" >        2       20       42       47       48 </v>
   <v type="int" >        2       20       41       42       47 </v>
   <v type="int" >        2       13       14       19       48 </v>
   <v type="int" >        2       14       19       20       48 </v>
   <v type="int" >        2       19       20       42       48 </v>
   <v type="int" >        2       13       19       48       49 </v>
   <v type="int" >        2       19       43       48       49 </v>
   <v type="int" >        2       19       42       43       48 </v>
   <v type="int" >        2       12       13       18       49 </v>
   <v type="int" >        2       13       18       19       49 </v>
   <v type="int" >        2       18       19       43       49 </v>
   <v type="int" >        2       12       18       49       50 </v>
   <v type="int" >        2       18       44       49       50 </v>
   <v type="int" >        2       18       43       44       49 </v>
   <v type="int" >        2       11       12       17       50 </v>
   <v type="int" >        2       12       17       18       50 </v>
   <v type="int" >        2       17       18       44       50 </v>
   <v type="int" >        2       11       17       45       50 </v>
   <v type="int" >        2       17       39       45       50 </v>
   <v type="int" >        2       17       39       44       50 </v>
   <v type="int" >        2        5       10       16       51 </v>
   <v type="int" >        2        5       11       16       51 </v>
   <v type="int" >        2       11       16       45       51 </v>
   <v type="int" >        2       10       16       51       52 </v>
   <v type="int" >        2       16       46       51       52 </v>
   <v type="int" >        2       16       45       46       51 </v>
   <v type="int" >        2        9       10       15       52 </v>
   <v type="int" >        2       10       15       16       52 </v>
   <v type="int" >        2       15       16       46       52 </v>
   <v type="int" >        2        9       15       52       53 </v>
   <v type="int" >        2       15       47       52       53 </v>
   <v type="int" >        2       15       46       47       52 </v>
   <v type="int" >        2        8        9       14       53 </v>
   <v type="int" >        2        9       14       15       53 </v>
   <v type="int" >        2       14       15       47       53 </v>
   <v type="int" >        2        8       14       53       54 </v>
   <v type="int" >        2       14       48       53       54 </v>
   <v type="int" >        2       14       47       48       53 </v>
   <v type="int" >        2        7        8       13       54 </v>
   <v type="int" >        2        8       13       14       54 </v>
   <v type="int" >        2       13       14       48       54 </v>
   <v type="int" >        2        7       13       54       55 </v>
   <v type="int" >        2       13       49       54       55 </v>
   <v type="int" >        2       13       48       49       54 </v>
   <v type="int" >        2        6        7       12       55 </v>
   <v type="int" >        2        7       12       13       55 </v>
   <v type="int" >        2       12       13       49       55 </v>
   <v type="int" >        2        6       12       55       56 </v>
   <v type="int" >        2       12       50       55       56 </v>
   <v type="int" >        2       12       49       50       55 </v>
   <v type="int" >        2        5        6       11       56 </v>
   <v type="int" >        2        6       11       12       56 </v>
   <v type="int" >        2       11       12       50       56 </v>
   <v type="int" >        2        5       11       51       56 </v>
   <v type="int" >        2       11       45       51       56 </v>
   <v type="int" >        2       11       45       50       56 </v>
   <v type="int" >        2        1        2       10       21 </v>
   <v type="int" >        2        1        5       10       21 </v>
   <v type="int" >        2        5       10       21       51 </v>
   <v type="int" >        2        2       10       21       22 </v>
   <v type="int" >        2       10       21       22       52 </v>
   <v type="int" >        2       10       21       51       52 </v>
   <v type="int" >        2        2        3        9       22 </v>
   <v type="int" >        2        2        9       10       22 </v>
   <v type="int" >        2        9       10       22       52 </v>
   <v type="int" >        2        3        9       22       23 </v>
   <v type="int" >        2        9       22       23       53 </v>
   <v type="int" >        2        9       22       52       53 </v>
   <v type="int" >        2        3        4        8       23 </v>
   <v type="int" >        2        3        8        9       23 </v>
   <v type="int" >        2        8        9       23       53 </v>
   <v type="int" >        2        4        8       23       24 </v>
   <v type="int" >        2        8       23       24       54 </v>
   <v type="int" >        2        8       23       53       54 </v>
   <v type="int" >        2        3        4        7       24 </v>
   <v type="int" >        2        4        7        8       24 </v>
   <v type="int" >        2        7        8       24       54 </v>
   <v type="int" >        2        3        7       24       25 </v>
   <v type="int" >        2        7       24       25       55 </v>
   <v type="int" >        2        7       24       54       55 </v>
   <v type="int" >        2        2        3        6       25 </v>
   <v type="int" >        2        3        6        7       25 </v>
   <v type="int" >        2        6        7       25       55 </v>
   <v type="int" >        2        2        6       25       26 </v>
   <v type="int" >        2        6       25       26       56 </v>
   <v type="int" >        2        6       25       55       56 </v>
   <v type="int" >        2        1        2        5       26 </v>
   <v type="int" >        2        2        5        6       26 </v>
   <v type="int" >        2        5        6       26       56 </v>
   <v type="int" >        2        1        5       21       26 </v>
   <v type="int" >        2        5       21       26       51 </v>
   <v type="int" >        2        5       26       51       56 </v>
   <v type="int" >        2       22       27       28       63 </v>
   <v type="int" >        2       21       22       27       63 </v>
   <v type="int" >        2       21       22       57       63 </v>
   <v type="int" >        2       22       28       63       64 </v>
   <v type="int" >        2       22       58       63       64 </v>
   <v type="int" >        2       22       57       58       63 </v>
   <v type="int" >        2       23       28       29       64 </v>
   <v type="int" >        2       22       23       28       64 </v>
   <v type="int" >        2       22       23       58       64 </v>
   <v type="int" >        2       23       29       64       65 </v>
   <v type="int" >        2       23       59       64       65 </v>
   <v type="int" >        2       23       58       59       64 </v>
   <v type="int" >        2       24       29       30       65 </v>
   <v type="int" >        2       23       24       29       65 </v>
   <v type="int" >        2       23       24       59       65 </v>
   <v type="int" >        2       24       30       65       66 </v>
   <v type="int" >        2       24       60       65       66 </v>
   <v type="int" >        2       24       59       60       65 </v>
   <v type="int" >        2       25       30       31       66 </v>
   <v type="int" >        2       24       25       30       66 </v>
   <v type="int" >        2       24       25       60       66 </v>
   <v type="int" >        2       25       31       66       67 </v>
   <v type="int" >        2       25       61       66       67 </v>
   <v type="int" >        2       25       60       61       66 </v>
   <v type="int" >        2       26       31       32       67 </v>
   <v type="int" >        2       25       26       31       67 </v>
   <v type="int" >        2       25       26       61       67 </v>
   <v type="int" >        2       26       32       67       68 </v>
   <v type="int" >        2       26       62       67       68 </v>
   <v type="int" >        2       26       61       62       67 </v>
   <v type="int" >        2       21       27       32       68 </v>
   <v type="int" >        2       21       26       32       68 </v>
   <v type="int" >        2       21       26       62       68 </v>
   <v type="int" >        2       21       27       63       68 </v>
   <v type="int" >        2       21       57       63       68 </v>
   <v type="int" >        2       21       57       62       68 </v>
   <v type="int" >        2       28       33       34       69 </v>
   <v type="int" >        2       27       28       33       69 </v>
   <v type="int" >        2       27       28       63       69 </v>
   <v type="int" >        2       28       34       69       70 </v>
   <v type="int" >        2       28       64       69       70 </v>
   <v type="int" >        2       28       63       64       69 </v>
   <v type="int" >        2       29       34       35       70 </v>
   <v type="int" >        2       28       29       34       70 </v>
   <v type="int" >        2       28       29       64       70 </v>
   <v type="int" >        2       29       35       70       71 </v>
   <v type="int" >        2       29       65       70       71 </v>
   <v type="int" >        2       29       64       65       70 </v>
   <v type="int" >        2       30       35       36       71 </v>
   <v type="int" >        2       29       30       35       71 </v>
   <v type="int" >        2       29       30       65       71 </v>
   <v type="int" >        2       30       36       71       72 </v>
   <v type="int" >        2       30       66       71       72 </v>
   <v type="int" >        2       30       65       66       71 </v>
   <v type="int" >        2       31       36       37       72 </v>
   <v type="int" >        2       30       31       36       72 </v>
   <v type="int" >        2       30       31       66       72 </v>
   <v type="int" >        2       31       37       72       73 </v>
   <v type="int" >        2       31       67       72       73 </v>
   <v type="int" >        2       31       66       67       72 </v>
   <v type="int" >        2       32       37       38       73 </v>
   <v type="int" >        2       31       32       37       73 </v>
   <v type="int" >        2       31       32       67       73 </v>
   <v type="int" >        2       32       38       73       74 </v>
   <v type="int" >        2       32       68       73       74 </v>
   <v type="int" >        2       32       67       68       73 </v>
   <v type="int" >        2       27       33       38       74 </v>
   <v type="int" >        2       27       32       38       74 </v>
   <v type="int" >        2       27       32       68       74 </v>
   <v type="int" >        2       27       33       69       74 </v>
   <v type="int" >        2       27       63       69       74 </v>
   <v type="int" >        2       27       63       68       74 </v>
   <v type="int" >        2       34       39       40       75 </v>
   <v type="int" >        2       33       34       39       75 </v>
   <v type="int" >        2       33       34       69       75 </v>
   <v type="int" >        2       34       40       75       76 </v>
   <v type="int" >        2       34       70       75       76 </v>
   <v type="int" >        2       34       69       70       75 </v>
   <v type="int" >        2       35       40       41       76 </v>
   <v type="int" >        2       34       35       40       76 </v>
   <v type="int" >        2       34       35       70       76 </v>
   <v type="int" >        2       35       41       76       77 </v>
   <v type="int" >        2       35       71       76       77 </v>
   <v type="int" >        2       35       70       71       76 </v>
   <v type="int" >        2       36       41       42       77 </v>
   <v type="int" >        2       35       36       41       77 </v>
   <v type="int" >        2       35       36       71       77 </v>
   <v type="int" >        2       36       42       77       78 </v>
   <v type="int" >        2       36       72       77       78 </v>
   <v type="int" >        2       36       71       72       77 </v>
   <v type="int" >        2       37       42       43       78 </v>
   <v type="int" >        2       36       37       42       78 </v>
   <v type="int" >        2       36       37       72       78 </v>
   <v type="int" >        2       37       43       78       79 </v>
   <v type="int" >        2       37       73       78       79 </v>
   <v type="int" >        2       37       72       73       78 </v>
   <v type="int" >        2       38       43       44       79 </v>
   <v type="int" >        2       37       38       43       79 </v>
   <v type="int" >        2       37       38       73       79 </v>
   <v type="int" >        2       38       44       79       80 </v>
   <v type="int" >        2       38       74       79       80 </v>
   <v type="int" >        2       38       73       74       79 </v>
   <v type="int" >        2       33       39       44       80 </v>
   <v type="int" >        2       33       38       44       80 </v>
   <v type="int" >        2       33       38       74       80 </v>
   <v type="int" >        2       33       39       75       80 </v>
   <v type="int" >        2       33       69       75       80 </v>
   <v type="int" >        2       33       69       74       80 </v>
   <v type="int" >        2       40       45       46       81 </v>
   <v type="int" >        2       39       40       45       81 </v>
   <v type="int" >        2       39       40       75       81 </v>
   <v type="int" >        2       40       46       81       82 </v>
   <v type="int" >        2       40       76       81       82 </v>
   <v type="int" >        2       40       75       76       81 </v>
   <v type="int" >        2       41       46       47       82 </v>
   <v type="int" >        2       40       41       46       82 </v>
   <v type="int" >        2       40       41       76       82 </v>
   <v type="int" >        2       41       47       82       83 </v>
   <v type="int" >        2       41       77       82       83 </v>
   <v type="int" >        2       41       76       77       82 </v>
   <v type="int" >        2       42       47       48       83 </v>
   <v type="int" >        2       41       42       47       83 </v>
   <v type="int" >        2       41       42       77       83 </v>
   <v type="int" >        2       42       48       83       84 </v>
   <v type="int" >        2       42       78       83       84 </v>
   <v type="int" >        2       42       77       78       83 </v>
   <v type="int" >        2       43       48       49       84 </v>
   <v type="int" >        2       42       43       48       84 </v>
   <v type="int" >        2       42       43       78       84 </v>
   <v type="int" >        2       43       49       84       85 </v>
   <v type="int" >        2       43       79       84       85 </v>
   <v type="int" >        2       43       78       79       84 </v>
   <v type="int" >        2       44       49       50       85 </v>
   <v type="int" >        2       43       44       49       85 </v>
   <v type="int" >        2       43       44       79       85 </v>
   <v type="int" >        2       44       50       85       86 </v>
   <v type="int" >        2       44       80       85       86 </v>
   <v type="int" >        2       44       79       80       85 </v>
   <v type="int" >        2       39       45       50       86 </v>
   <v type="int" >        2       39       44       50       86 </v>
   <v type="int" >        2       39       44       80       86 </v>
   <v type="int" >        2       39       45       81       86 </v>
   <v type="int" >        2       39       75       81       86 </v>
   <v type="int" >        2       39       75       80       86 </v>
   <v type="int" >        2       46       51       52       87 </v>
   <v type="int" >        2       45       46       51       87 </v>
   <v type="int" >        2       45       46       81       87 </v>
   <v type="int" >        2       46       52       87       88 </v>
   <v type="int" >        2       46       82       87       88 </v>
   <v type="int" >        2       46       81       82       87 </v>
   <v type="int" >        2       47       52       53       88 </v>
   <v type="int" >        2       46       47       52       88 </v>
   <v type="int" >        2       46       47       82       88 </v>
   <v type="int" >        2       47       53       88       89 </v>
   <v type="int" >        2       47       83       88       89 </v>
   <v type="int" >        2       47       82       83       88 </v>
   <v type="int" >        2       48       53       54       89 </v>
   <v type="int" >        2       47       48       53       89 </v>
   <v type="int" >        2       47       48       83       89 </v>
   <v type="int" >        2       48       54       89       90 </v>
   <v type="int" >        2       48       84       89       90 </v>
   <v type="int" >        2       48       83       84       89 </v>
   <v type="int" >        2       49       54       55       90 </v>
   <v type="int" >        2       48       49       54       90 </v>
   <v type="int" >        2       48       49       84       90 </v>
   <v type="int" >        2       49       55       90       91 </v>
   <v type="int" >        2       49       85       90       91 </v>
   <v type="int" >        2       49       84       85       90 </v>
   <v type="int" >        2       50       55       56       91 </v>
   <v type="int" >        2       49       50       55       91 </v>
   <v type="int" >        2       49       50       85       91 </v>
   <v type="int" >        2       50       56       91       92 </v>
   <v type="int" >        2       50       86       91       92 </v>
   <v type="int" >        2       50       85       86       91 </v>
   <v type="int" >        2       45       51       56       92 </v>
   <v type="int" >        2       45       50       56       92 </v>
   <v type="int" >        2       45       50       86       92 </v>
   <v type="int" >        2       45       51       87       92 </v>
   <v type="int" >        2       45       81       87       92 </v>
   <v type="int" >        2       45       81       86       92 </v>
   <v type="int" >        2       21       22       52       57 </v>
   <v type="int" >        2       21       51       52       57 </v>
   <v type="int" >        2       51       52       57       87 </v>
   <v type="int" >        2       22       52       57       58 </v>
   <v type="int" >        2       52       57       58       88 </v>
   <v type="int" >        2       52       57       87       88 </v>
   <v type="int" >        2       22       23       53       58 </v>
   <v type="int" >        2       22       52       53       58 </v>
   <v type="int" >        2       52       53       58       88 </v>
   <v type="int" >        2       23       53       58       59 </v>
   <v type="int" >        2       53       58       59       89 </v>
   <v type="int" >        2       53       58       88       89 </v>
   <v type="int" >        2       23       24       54       59 </v>
   <v type="int" >        2       23       53       54       59 </v>
   <v type="int" >        2       53       54       59       89 </v>
   <v type="int" >        2       24       54       59       60 </v>
   <v type="int" >        2       54       59       60       90 </v>
   <v type="int" >        2       54       59       89       90 </v>
   <v type="int" >        2       24       25       55       60 </v>
   <v type="int" >        2       24       54       55       60 </v>
   <v type="int" >        2       54       55       60       90 </v>
   <v type="int" >        2       25       55       60       61 </v>
   <v type="int" >        2       55       60       61       91 </v>
   <v type="int" >        2       55       60       90       91 </v>
   <v type="int" >        2       25       26       56       61 </v>
   <v type="int" >        2       25       55       56       61 </v>
   <v type="int" >        2       55       56       61       91 </v>
   <v type="int" >        2       26       56       61       62 </v>
   <v type="int" >        2       56       61       62       92 </v>
   <v type="int" >        2       56       61       91       92 </v>
   <v type="int" >        2       21       26       51       62 </v>
   <v type="int" >        2       26       51       56       62 </v>
   <v type="int" >        2       51       56       62       92 </v>
   <v type="int" >        2       21       51       57       62 </v>
   <v type="int" >        2       51       57       62       87 </v>
   <v type="int" >        2       51       62       87       92 </v>
   <v type="int" >        2       58       63       64       87 </v>
   <v type="int" >        2       57       58       63       87 </v>
   <v type="int" >        2       57       57       58       87 </v>
   <v type="int" >        2       58       64       87       92 </v>
   <v type="int" >        2       58       62       87       92 </v>
   <v type="int" >        2       57       58       62       87 </v>
   <v type="int" >        2       59       64       65       92 </v>
   <v type="int" >        2       58       59       64       92 </v>
   <v type="int" >        2       58       59       62       92 </v>
   <v type="int" >        2       59       65       91       92 </v>
   <v type="int" >        2       59       61       91       92 </v>
   <v type="int" >        2       59       61       62       92 </v>
   <v type="int" >        2       60       65       66       91 </v>
   <v type="int" >        2       59       60       65       91 </v>
   <v type="int" >        2       59       60       61       91 </v>
   <v type="int" >        2       60       66       90       91 </v>
   <v type="int" >        2       60       60       90       91 </v>
   <v type="int" >        2       60       60       61       91 </v>
   <v type="int" >        2       61       66       67       90 </v>
   <v type="int" >        2       60       61       66       90 </v>
   <v type="int" >        2       60       60       61       90 </v>
   <v type="int" >        2       61       67       89       90 </v>
   <v type="int" >        2       59       61       89       90 </v>
   <v type="int" >        2       59       60       61       90 </v>
   <v type="int" >        2       62       67       68       89 </v>
   <v type="int" >        2       61       62       67       89 </v>
   <v type="int" >        2       59       61       62       89 </v>
   <v type="int" >        2       62       68       88       89 </v>
   <v type="int" >        2       58       62       88       89 </v>
   <v type="int" >        2       58       59       62       89 </v>
   <v type="int" >        2       57       63       68       88 </v>
   <v type="int" >        2       57       62       68       88 </v>
   <v type="int" >        2       57       58       62       88 </v>
   <v type="int" >        2       57       63       87       88 </v>
   <v type="int" >        2       57       57       87       88 </v>
   <v type="int" >        2       57       57       58       88 </v>
   <v type="int" >        2       64       69       70       81 </v>
   <v type="int" >        2       63       64       69       81 </v>
   <v type="int" >        2       63       64       81       87 </v>
   <v type="int" >        2       64       70       81       86 </v>
   <v type="int" >        2       64       81       86       92 </v>
   <v type="int" >        2       64       81       87       92 </v>
   <v type="int" >        2       65       70       71       86 </v>
   <v type="int" >        2       64       65       70       86 </v>
   <v type="int" >        2       64       65       86       92 </v>
   <v type="int" >        2       65       71       85       86 </v>
   <v type="int" >        2       65       85       86       91 </v>
   <v type="int" >        2       65       86       91       92 </v>
   <v type="int" >        2       66       71       72       85 </v>
   <v type="int" >        2       65       66       71       85 </v>
   <v type="int" >        2       65       66       85       91 </v>
   <v type="int" >        2       66       72       84       85 </v>
   <v type="int" >        2       66       84       85       90 </v>
   <v type="int" >        2       66       85       90       91 </v>
   <v type="int" >        2       67       72       73       84 </v>
   <v type="int" >        2       66       67       72       84 </v>
   <v type="int" >        2       66       67       84       90 </v>
   <v type="int" >        2       67       73       83       84 </v>
   <v type="int" >        2       67       83       84       89 </v>
   <v type="int" >        2       67       84       89       90 </v>
   <v type="int" >        2       68       73       74       83 </v>
   <v type="int" >        2       67       68       73       83 </v>
   <v type="int" >        2       67       68       83       89 </v>
   <v type="int" >        2       68       74       82       83 </v>
   <v type="int" >        2       68       82       83       88 </v>
   <v type="int" >        2       68       83       88       89 </v>
   <v type="int" >        2       63       69       74       82 </v>
   <v type="int" >        2       63       68       74       82 </v>
   <v type="int" >        2       63       68       82       88 </v>
   <v type="int" >        2       63       69       81       82 </v>
   <v type="int" >        2       63       81       82       87 </v>
   <v type="int" >        2       63       82       87       88 </v>
   <v type="int" >        2       70       75       75       76 </v>
   <v type="int" >        2       69       70       75       75 </v>
   <v type="int" >        2       69       70       75       81 </v>
   <v type="int" >        2       70       75       76       80 </v>
   <v type="int" >        2       70       75       80       86 </v>
   <v type="int" >        2       70       75       81       86 </v>
   <v type="int" >        2       71       76       77       80 </v>
   <v type="int" >        2       70       71       76       80 </v>
   <v type="int" >        2       70       71       80       86 </v>
   <v type="int" >        2       71       77       79       80 </v>
   <v type="int" >        2       71       79       80       85 </v>
   <v type="int" >        2       71       80       85       86 </v>
   <v type="int" >        2       72       77       78       79 </v>
   <v type="int" >        2       71       72       77       79 </v>
   <v type="int" >        2       71       72       79       85 </v>
   <v type="int" >        2       72       78       78       79 </v>
   <v type="int" >        2       72       78       79       84 </v>
   <v type="int" >        2       72       79       84       85 </v>
   <v type="int" >        2       73       78       78       79 </v>
   <v type="int" >        2       72       73       78       78 </v>
   <v type="int" >        2       72       73       78       84 </v>
   <v type="int" >        2       73       77       78       79 </v>
   <v type="int" >        2       73       77       78       83 </v>
   <v type="int" >        2       73       78       83       84 </v>
   <v type="int" >        2       74       77       79       80 </v>
   <v type="int" >        2       73       74       77       79 </v>
   <v type="int" >        2       73       74       77       83 </v>
   <v type="int" >        2       74       76       77       80 </v>
   <v type="int" >        2       74       76       77       82 </v>
   <v type="int" >        2       74       77       82       83 </v>
   <v type="int" >        2       69       75       76       80 </v>
   <v type="int" >        2       69       74       76       80 </v>
   <v type="int" >        2       69       74       76       82 </v>
   <v type="int" >        2       69       75       75       76 </v>
   <v type="int" >        2       69       75       76       81 </v>
   <v type="int" >        2       69       76       81       82 </v>
  </varray>
  <i name="volumeweight">      0.00092593 </i>
 </kpoints>
 <parameters>
  <separator name="general" >
   <i type="string" name="SYSTEM">unknown system</i>
   <i type="logical" name="LCOMPAT"> F  </i>
  </separator>
  <separator name="electronic" >
   <i type="string" name="PREC">normal</i>
   <i name="ENMAX">    450.00000000</i>
   <i name="ENAUG">    605.39200000</i>
   <i name="EDIFF">      0.00001000</i>
   <i type="int" name="IALGO">    68</i>
   <i type="int" name="IWAVPR">    10</i>
   <i type="int" name="NBANDS">    29</i>
   <i name="NELECT">     48.00000000</i>
   <i type="int" name="TURBO">     0</i>
   <i type="int" name="IRESTART">     0</i>
   <i type="int" name="NREBOOT">     0</i>
   <i type="int" name="NMIN">     0</i>
   <i name="EREF">      0.00000000</i>
   <separator name="electronic smearing" >
    <i type="int" name="ISMEAR">    -5</i>
    <i name="SIGMA">      0.20000000</i>
    <i name="KSPACING">      0.50000000</i>
    <i type="logical" name="KGAMMA"> T  </i>
   </separator>
   <separator name="electronic projectors" >
    <i type="logical" name="LREAL"> T  </i>
    <v name="ROPT">     -0.00050000     -0.00050000</v>
    <i type="int" name="LMAXPAW">  -100</i>
    <i type="int" name="LMAXMIX">     2</i>
    <i type="logical" name="NLSPLINE"> F  </i>
   </separator>
   <separator name="electronic startup" >
    <i type="int" name="ISTART">     0</i>
    <i type="int" name="ICHARG">     2</i>
    <i type="int" name="INIWAV">     1</i>
   </separator>
   <separator name="electronic spin" >
    <i type="int" name="ISPIN">     1</i>
    <i type="logical" name="LNONCOLLINEAR"> F  </i>
    <v name="MAGMOM">      1.00000000      1.00000000      1.00000000      1.00000000      1.00000000      1.00000000      1.00000000      1.00000000      1.00000000</v>
    <i name="NUPDOWN">     -1.00000000</i>
    <i type="logical" name="LSORBIT"> F  </i>
    <v name="SAXIS">      0.00000000      0.00000000      1.00000000</v>
    <i type="logical" name="LSPIRAL"> F  </i>
    <v name="QSPIRAL">      0.00000000      0.00000000      0.00000000</v>
    <i type="logical" name="LZEROZ"> F  </i>
   </separator>
   <separator name="electronic exchange-correlation" >
    <i type="logical" name="LASPH"> F  </i>
    <i type="logical" name="LMETAGGA"> F  </i>
   </separator>
   <separator name="electronic convergence" >
    <i type="int" name="NELM">    60</i>
    <i type="int" name="NELMDL">    -5</i>
    <i type="int" name="NELMIN">     4</i>
    <i name="ENINI">    450.00000000</i>
    <separator name="electronic convergence detail" >
     <i type="logical" name="LDIAG"> T  </i>
     <i type="logical" name="LSUBROT"> F  </i>
     <i name="WEIMIN">      0.00000000</i>
     <i name="EBREAK">      0.00000009</i>
     <i name="DEPER">      0.30000000</i>
     <i type="int" name="NRMM">     4</i>
     <i name="TIME">      0.40000000</i>
    </separator>
   </separator>
   <separator name="electronic mixer" >
    <i name="AMIX">      0.40000000</i>
    <i name="BMIX">      1.00000000</i>
    <i name="AMIN">      0.10000000</i>
    <i name="AMIX_MAG">      1.60000000</i>
    <i name="BMIX_MAG">      1.00000000</i>
    <separator name="electronic mixer details" >
     <i type="int" name="IMIX">     4</i>
     <i type="logical" name="MIXFIRST"> F  </i>
     <i type="int" name="MAXMIX">   -45</i>
     <i name="WC">    100.00000000</i>
     <i type="int" name="INIMIX">     1</i>
     <i type="int" name="MIXPRE">     1</i>
     <i type="int" name="MREMOVE">     5</i>
    </separator>
   </separator>
   <separator name="electronic dipolcorrection" >
    <i type="logical" name="LDIPOL"> F  </i>
    <i type="logical" name="LMONO"> F  </i>
    <i type="int" name="IDIPOL">     0</i>
    <i name="EPSILON">      1.00000000</i>
    <v name="DIPOL">   -100.00000000   -100.00000000   -100.00000000</v>
    <i name="EFIELD">      0.00000000</i>
   </separator>
  </separator>
  <separator name="grids" >
   <i type="int" name="NGX">    28</i>
   <i type="int" name="NGY">    28</i>
   <i type="int" name="NGZ">    28</i>
   <i type="int" name="NGXF">    56</i>
   <i type="int" name="NGYF">    56</i>
   <i type="int" name="NGZF">    56</i>
   <i type="logical" name="ADDGRID"> F  </i>
  </separator>
  <separator name="ionic" >
   <i type="int" name="NSW">     0</i>
   <i type="int" name="IBRION">    -1</i>
   <i type="int" name="ISIF">     2</i>
   <i name="PSTRESS">      0.00000000</i>
   <i name="EDIFFG">      0.00010000</i>
   <i type="int" name="NFREE">     0</i>
   <i name="POTIM">      0.50000000</i>
   <i name="SMASS">     -3.00000000</i>
   <i name="SCALEE">      1.00000000</i>
  </separator>
  <separator name="ionic md" >
   <i name="TEBEG">      0.00010000</i>
   <i name="TEEND">      0.00010000</i>
   <i type="int" name="NBLOCK">     1</i>
   <i type="int" name="KBLOCK">     1</i>
   <i type="int" name="NPACO">   256</i>
   <i name="APACO">     16.00000000</i>
  </separator>
  <separator name="symmetry" >
   <i type="int" name="ISYM">     2</i>
   <i name="SYMPREC">      0.00001000</i>
  </separator>
  <separator name="dos" >
   <i type="logical" name="LORBIT"> F  </i>
   <v name="RWIGS">     -1.00000000     -1.00000000</v>
   <i type="int" name="NEDOS">   301</i>
   <i name="EMIN">     10.00000000</i>
   <i name="EMAX">    -10.00000000</i>
   <i name="EFERMI">      0.00000000</i>
  </separator>
  <separator name="writing" >
   <i type="int" name="NWRITE">     2</i>
   <i type="logical" name="LWAVE"> F  </i>
   <i type="logical" name="LCHARG"> T  </i>
   <i type="logical" name="LPARD"> F  </i>
   <i type="logical" name="LVTOT"> F  </i>
   <i type="logical" name="LVHAR"> F  </i>
   <i type="logical" name="LELF"> F  </i>
   <i type="logical" name="LOPTICS"> F  </i>
   <v name="STM">      0.00000000      0.00000000      0.00000000      0.00000000      0.00000000      0.00000000      0.00000000</v>
  </separator>
  <separator name="performance" >
   <i type="int" name="NPAR">     1</i>
   <i type="int" name="NSIM">     4</i>
   <i type="int" name="NBLK">    -1</i>
   <i type="logical" name="LPLANE"> T  </i>
   <i type="logical" name="LSCALAPACK"> F  </i>
   <i type="logical" name="LSCAAWARE"> F  </i>
   <i type="logical" name="LSCALU"> F  </i>
   <i type="logical" name="LASYNC"> F  </i>
   <i type="logical" name="LORBITALREAL"> F  </i>
  </separator>
  <separator name="miscellaneous" >
   <i type="int" name="IDIOT">     3</i>
   <i type="logical" name="LMUSIC"> F  </i>
   <v name="POMASS">     28.08500000     16.00000000</v>
   <v name="DARWINR">      0.00000000      0.00000000</v>
   <v name="DARWINV">      1.00000000      1.00000000</v>
   <i type="logical" name="LCORR"> T  </i>
  </separator>
  <i type="logical" name="GGA_COMPAT"> T  </i>
  <i type="logical" name="LBERRY"> F  </i>
  <i type="int" name="ICORELEVEL">     0</i>
  <i type="logical" name="LDAU"> F  </i>
  <i type="int" name="I_CONSTRAINED_M">     0</i>
  <separator name="electronic exchange-correlation" >
   <i type="string" name="GGA">--</i>
   <i type="int" name="VOSKOWN">     0</i>
   <i type="logical" name="LHFCALC"> F  </i>
   <i type="string" name="PRECFOCK"></i>
   <i type="logical" name="LSYMGRAD"> F  </i>
   <i type="logical" name="LHFONE"> F  </i>
   <i type="logical" name="LRHFCALC"> F  </i>
   <i type="logical" name="LTHOMAS"> F  </i>
   <i type="logical" name="LMODELHF"> F  </i>
   <i name="ENCUT4O">     -1.00000000</i>
   <i type="int" name="EXXOEP">     0</i>
   <i type="int" name="FOURORBIT">     0</i>
   <i name="AEXX">      0.00000000</i>
   <i name="HFALPHA">      0.00000000</i>
   <i name="MCALPHA">      0.00000000</i>
   <i name="ALDAX">      1.00000000</i>
   <i name="AGGAX">      1.00000000</i>
   <i name="ALDAC">      1.00000000</i>
   <i name="AGGAC">      1.00000000</i>
   <i type="int" name="NKREDX">     1</i>
   <i type="int" name="NKREDY">     1</i>
   <i type="int" name="NKREDZ">     1</i>
   <i type="logical" name="SHIFTRED"> F  </i>
   <i type="logical" name="ODDONLY"> F  </i>
   <i type="logical" name="EVENONLY"> F  </i>
   <i type="int" name="LMAXFOCK">     0</i>
   <i type="int" name="NMAXFOCKAE">     0</i>
   <i type="logical" name="LFOCKAEDFT"> F  </i>
   <i name="HFSCREEN">      0.00000000</i>
   <i name="HFSCREENC">      0.00000000</i>
   <i type="int" name="NBANDSGWLOW">     0</i>
  </separator>
  <separator name="vdW DFT" >
   <i type="logical" name="LUSE_VDW"> F  </i>
   <i name="Zab_VDW">     -0.84910000</i>
   <i name="PARAM1">      0.12340000</i>
   <i name="PARAM2">      1.00000000</i>
   <i name="PARAM3">      0.00000000</i>
  </separator>
  <separator name="model GW" >
   <i type="int" name="MODEL_GW">     0</i>
   <i name="MODEL_EPS0">      7.53464495</i>
   <i name="MODEL_ALPHA">      1.00000000</i>
  </separator>
  <separator name="linear response parameters" >
   <i type="logical" name="LEPSILON"> F  </i>
   <i type="logical" name="LRPA"> F  </i>
   <i type="logical" name="LNABLA"> F  </i>
   <i type="logical" name="LVEL"> F  </i>
   <i type="int" name="KINTER">     0</i>
   <i name="CSHIFT">      0.10000000</i>
   <i name="OMEGAMAX">     -1.00000000</i>
   <i name="DEG_THRESHOLD">      0.00200000</i>
  </separator>
  <separator name="orbital magnetization" >
   <i type="logical" name="NUCIND"> F  </i>
   <v name="MAGPOS">      0.00000000      0.00000000      0.00000000</v>
   <i type="logical" name="LNICSALL"> T  </i>
   <i type="logical" name="ORBITALMAG"> F  </i>
   <i type="logical" name="LMAGBLOCH"> F  </i>
   <i type="logical" name="LCHIMAG"> F  </i>
   <i type="logical" name="LGAUGE"> T  </i>
   <i type="int" name="MAGATOM">     0</i>
   <v name="MAGDIPOL">      0.00000000      0.00000000      0.00000000</v>
   <v name="AVECCONST">      0.00000000      0.00000000      0.00000000</v>
  </separator>
  <separator name="response functions" >
   <i type="logical" name="LADDER"> F  </i>
   <i type="logical" name="LFXC"> F  </i>
   <i type="logical" name="LHARTREE"> T  </i>
   <i type="int" name="IBSE">     0</i>
   <v type="int" name="KPOINT">    -1     0     0     0</v>
   <i type="logical" name="LTCTE"> F  </i>
   <i type="logical" name="LTETE"> F  </i>
   <i type="logical" name="LTRIPLET"> F  </i>
   <i type="logical" name="LFXCEPS"> F  </i>
   <i type="logical" name="LFXHEG"> F  </i>
   <i type="int" name="NATURALO">     0</i>
   <i type="logical" name="L2ORDER"> F  </i>
   <i type="logical" name="LUSEW"> F  </i>
   <i name="ENCUTGW">     -2.00000000</i>
   <i name="ENCUTGWSOFT">     -2.00000000</i>
   <i name="ENCUTLF">     -1.00000000</i>
   <i type="int" name="LMAXMP2">    -1</i>
   <i name="SCISSOR">      0.00000000</i>
   <i type="int" name="NOMEGA">     0</i>
   <i type="int" name="NOMEGAR">     0</i>
   <i type="int" name="NBANDSGW">    -1</i>
   <i type="int" name="NBANDSO">    -1</i>
   <i type="int" name="NBANDSV">    -1</i>
   <i type="int" name="NELM">     1</i>
   <i type="int" name="NELMHF">     1</i>
   <i type="int" name="DIM">     3</i>
   <i type="int" name="ANTIRES">     0</i>
   <i name="OMEGAMAX">    -30.00000000</i>
   <i name="OMEGAMIN">    -30.00000000</i>
   <i name="OMEGATL">   -200.00000000</i>
   <i type="int" name="OMEGAGRID">     0</i>
   <i name="CSHIFT">     -0.10000000</i>
   <i type="logical" name="SELFENERGY"> F  </i>
   <i type="logical" name="LSPECTRAL"> F  </i>
   <i type="logical" name="LSPECTRALGW"> F  </i>
   <i type="logical" name="LSINGLES"> F  </i>
   <i type="logical" name="LFERMIGW"> F  </i>
   <i type="logical" name="ODDONLYGW"> F  </i>
   <i type="logical" name="EVENONLYGW"> F  </i>
   <i type="int" name="NKREDLFX">     1</i>
   <i type="int" name="NKREDLFY">     1</i>
   <i type="int" name="NKREDLFZ">     1</i>
   <i type="int" name="MAXMEM">  1800</i>
   <i type="int" name="TELESCOPE">     0</i>
   <i type="int" name="TAUPAR">     1</i>
   <i type="int" name="OMEGAPAR">    -1</i>
   <i name="LAMBDA">      1.00000000</i>
  </separator>
  <separator name="External order field" >
   <i name="OFIELD_KAPPA">      0.00000000</i>
   <v name="OFIELD_K">      0.00000000      0.00000000      0.00000000</v>
   <i name="OFIELD_Q6_NEAR">      0.00000000</i>
   <i name="OFIELD_Q6_FAR">      0.00000000</i>
   <i name="OFIELD_A">      0.00000000</i>
  </separator>
 </parameters>
 <atominfo>
  <atoms>       9 </atoms>
  <types>       2 </types>
  <array name="atoms" >
   <dimension dim="1">ion</dimension>
   <field type="string">element</field>
   <field type="int">atomtype</field>
   <set>
    <rc><c>Si</c><c>   1</c></rc>
    <rc><c>Si</c><c>   1</c></rc>
    <rc><c>Si</c><c>   1</c></rc>
    <rc><c>O </c><c>   2</c></rc>
    <rc><c>O </c><c>   2</c></rc>
    <rc><c>O </c><c>   2</c></rc>
    <rc><c>O </c><c>   2</c></rc>
    <rc><c>O </c><c>   2</c></rc>
    <rc><c>O </c><c>   2</c></rc>
   </set>
  </array>
  <array name="atomtypes" >
   <dimension dim="1">type</dimension>
   <field type="int">atomspertype</field>
   <field type="string">element</field>
   <field>mass</field>
   <field>valence</field>
   <field type="string">pseudopotential</field>
   <set>
    <rc><c>   3</c><c>Si</c><c>     28.08500000</c><c>      4.00000000</c><c> PAW_PBE Si 05Jan2001                   </c></rc>
    <rc><c>   6</c><c>O </c><c>     16.00000000</c><c>      6.00000000</c><c> PAW_PBE O 08Apr2002                    </c></rc>
   </set>
  </array>
 </atominfo>
 <structure name="initialpos" >
  <crystal>
   <varray name="basis" >
    <v>       4.91370000       0.00000000       0.00000000 </v>
    <v>      -2.45685000       4.25538903       0.00000000 </v>
    <v>       0.00000000       0.00000000       5.40513000 </v>
   </varray>
   <i name="volume">    113.01967420 </i>
   <varray name="rec_basis" >
    <v>       0.20351263       0.11749807       0.00000000 </v>
    <v>       0.00000000       0.23499614       0.00000000 </v>
    <v>       0.00000000       0.00000000       0.18500943 </v>
   </varray>
  </crystal>
  <varray name="positions" >
   <v>       0.46980000       0.02000000       0.66667000 </v>
   <v>       0.00000000       0.46980000       0.33333000 </v>
   <v>       0.53020000       0.53020000       0.00000000 </v>
   <v>       0.41450000       0.26620000       0.78560000 </v>
   <v>       0.73380000       0.14830000       0.45227000 </v>
   <v>       0.85170000       0.58550000       0.11893000 </v>
   <v>       0.14830000       0.73380000       0.54773000 </v>
   <v>       0.26620000       0.41450000       0.21440000 </v>
   <v>       0.58550000       0.85170000       0.88107000 </v>
  </varray>
 </structure>
 <calculation>
  <scstep>
   <time name="dav">    8.64    8.64</time>
   <time name="total">    8.77    8.80</time>
   <energy>
    <i name="alphaZ">     69.72802778 </i>
    <i name="ewald">  -1886.62880430 </i>
    <i name="hartreedc">   -937.03789542 </i>
    <i name="XCdc">    142.00811337 </i>
    <i name="pawpsdc">   1574.92322788 </i>
    <i name="pawaedc">  -1533.24131965 </i>
    <i name="eentropy">      0.00000000 </i>
    <i name="bandstr">    -44.93321965 </i>
    <i name="atom">   2903.23703609 </i>
    <i name="e_fr_energy">    288.05516610 </i>
    <i name="e_wo_entrp">    288.05516610 </i>
    <i name="e_0_energy">    288.05516610 </i>
   </energy>
  </scstep>
  <scstep>
   <time name="dav">   10.67   10.67</time>
   <time name="total">   10.68   10.68</time>
   <energy>
    <i name="e_fr_energy">    -61.90575337 </i>
    <i name="e_wo_entrp">    -61.90575337 </i>
    <i name="e_0_energy">    -61.90575337 </i>
   </energy>
  </scstep>
  <scstep>
   <time name="dav">    9.70    9.70</time>
   <time name="total">    9.71    9.71</time>
   <energy>
    <i name="e_fr_energy">    -80.18795046 </i>
    <i name="e_wo_entrp">    -80.18795046 </i>
    <i name="e_0_energy">    -80.18795046 </i>
   </energy>
  </scstep>
  <scstep>
   <time name="dav">    9.82    9.81</time>
   <time name="total">    9.82    9.84</time>
   <energy>
    <i name="e_fr_energy">    -80.41810375 </i>
    <i name="e_wo_entrp">    -80.41810375 </i>
    <i name="e_0_energy">    -80.41810375 </i>
   </energy>
  </scstep>
  <scstep>
   <time name="dav">    9.65    9.65</time>
   <time name="total">   10.30   10.30</time>
   <energy>
    <i name="e_fr_energy">    -80.42260246 </i>
    <i name="e_wo_entrp">    -80.42260246 </i>
    <i name="e_0_energy">    -80.42260246 </i>
   </energy>
  </scstep>
  <scstep>
   <time name="diag">    1.61    1.61</time>
   <time name="diis">    6.13    6.13</time>
   <time name="orth">    0.15    0.15</time>
   <time name="total">    8.64    8.64</time>
   <energy>
    <i name="e_fr_energy">    -70.75661375 </i>
    <i name="e_wo_entrp">    -70.75661375 </i>
    <i name="e_0_energy">    -70.75661375 </i>
   </energy>
  </scstep>
  <scstep>
   <time name="diag">    1.61    1.61</time>
   <time name="diis">    6.64    6.64</time>
   <time name="orth">    0.15    0.15</time>
   <time name="total">    9.15    9.17</time>
   <energy>
    <i name="e_fr_energy">    -70.74163099 </i>
    <i name="e_wo_entrp">    -70.74163099 </i>
    <i name="e_0_energy">    -70.74163099 </i>
   </energy>
  </scstep>
  <scstep>
   <time name="diag">    1.61    1.61</time>
   <time name="diis">    6.58    6.58</time>
   <time name="orth">    0.15    0.15</time>
   <time name="total">    9.09    9.09</time>
   <energy>
    <i name="e_fr_energy">    -70.75987886 </i>
    <i name="e_wo_entrp">    -70.75987886 </i>
    <i name="e_0_energy">    -70.75987886 </i>
   </energy>
  </scstep>
  <scstep>
   <time name="diag">    1.63    1.63</time>
   <time name="diis">    6.87    6.87</time>
   <time name="orth">    0.15    0.15</time>
   <time name="total">    9.40    9.41</time>
   <energy>
    <i name="e_fr_energy">    -70.75136736 </i>
    <i name="e_wo_entrp">    -70.75136736 </i>
    <i name="e_0_energy">    -70.75136736 </i>
   </energy>
  </scstep>
  <scstep>
   <time name="diag">    1.61    1.61</time>
   <time name="diis">    6.71    6.70</time>
   <time name="orth">    0.16    0.16</time>
   <time name="total">    9.22    9.22</time>
   <energy>
    <i name="e_fr_energy">    -70.75435167 </i>
    <i name="e_wo_entrp">    -70.75435167 </i>
    <i name="e_0_energy">    -70.75435167 </i>
   </energy>
  </scstep>
  <scstep>
   <time name="diag">    1.61    1.61</time>
   <time name="diis">    6.69    6.69</time>
   <time name="orth">    0.15    0.15</time>
   <time name="total">    9.20    9.22</time>
   <energy>
    <i name="e_fr_energy">    -70.75336065 </i>
    <i name="e_wo_entrp">    -70.75336065 </i>
    <i name="e_0_energy">    -70.75336065 </i>
   </energy>
  </scstep>
  <scstep>
   <time name="diag">    1.62    1.62</time>
   <time name="diis">    6.27    6.26</time>
   <time name="orth">    0.15    0.15</time>
   <time name="total">    8.78    8.78</time>
   <energy>
    <i name="e_fr_energy">    -70.75341015 </i>
    <i name="e_wo_entrp">    -70.75341015 </i>
    <i name="e_0_energy">    -70.75341015 </i>
   </energy>
  </scstep>
  <scstep>
   <time name="diag">    1.61    1.61</time>
   <time name="diis">    4.67    4.66</time>
   <time name="orth">    0.15    0.15</time>
   <time name="total">    6.54    6.55</time>
   <energy>
    <i name="alphaZ">     69.72802778 </i>
    <i name="ewald">  -1886.62880430 </i>
    <i name="hartreedc">  -1071.64161258 </i>
    <i name="XCdc">    151.14255856 </i>
    <i name="pawpsdc">   2061.31384128 </i>
    <i name="pawaedc">  -2022.06736310 </i>
    <i name="eentropy">      0.00000000 </i>
    <i name="bandstr">   -275.83709556 </i>
    <i name="atom">   2903.23703609 </i>
    <i name="e_fr_energy">    -70.75341182 </i>
    <i name="e_wo_entrp">    -70.75341182 </i>
    <i name="e_0_energy">    -70.75341182 </i>
   </energy>
  </scstep>
  <structure>
   <crystal>
    <varray name="basis" >
     <v>       4.91370000       0.00000000       0.00000000 </v>
     <v>      -2.45685000       4.25538903       0.00000000 </v>
     <v>       0.00000000       0.00000000       5.40513000 </v>
    </varray>
    <i name="volume">    113.01967420 </i>
    <varray name="rec_basis" >
     <v>       0.20351263       0.11749807       0.00000000 </v>
     <v>       0.00000000       0.23499614       0.00000000 </v>
     <v>       0.00000000       0.00000000       0.18500943 </v>
    </varray>
   </crystal>
   <varray name="positions" >
    <v>       0.46980000       0.02000000       0.66667000 </v>
    <v>       0.00000000       0.46980000       0.33333000 </v>
    <v>       0.53020000       0.53020000       0.00000000 </v>
    <v>       0.41450000       0.26620000       0.78560000 </v>
    <v>       0.73380000       0.14830000       0.45227000 </v>
    <v>       0.85170000       0.58550000       0.11893000 </v>
    <v>       0.14830000       0.73380000       0.54773000 </v>
    <v>       0.26620000       0.41450000       0.21440000 </v>
    <v>       0.58550000       0.85170000       0.88107000 </v>
   </varray>
  </structure>
  <varray name="forces" >
   <v>       3.07588367      -4.70014493      -1.01014667 </v>
   <v>      -0.08966660       0.68768862       0.08297604 </v>
   <v>      -0.55552956       0.56927701       0.19562910 </v>
   <v>      -2.44485654       2.55403529       1.41584475 </v>
   <v>      -0.09026252      -0.41642754       0.08167949 </v>
   <v>       0.43433518       0.19209900      -0.06774885 </v>
   <v>      -0.20605201       0.43508956       0.24726225 </v>
   <v>       0.58857229      -0.46961387      -0.11180575 </v>
   <v>      -0.71242390       1.14799687      -0.83369035 </v>
  </varray>
  <varray name="stress" >
   <v>      82.15094702     -27.89616698     -40.05490184 </v>
   <v>     -27.89616710      92.38746840      27.70005694 </v>
   <v>     -40.05490181      27.70005694      59.66173921 </v>
  </varray>
  <energy>
   <i name="e_fr_energy">    -70.75341182 </i>
   <i name="e_wo_entrp">    -70.75341182 </i>
   <i name="e_0_energy">      0.00000000 </i>
  </energy>
  <time name="totalsc">  131.96  132.20</time>
  <eigenvalues>
   <array>
    <dimension dim="1">band</dimension>
    <dimension dim="2">kpoint</dimension>
    <dimension dim="3">spin</dimension>
    <field>eigene</field>
    <field>occ</field>
    <set>
     <set comment="spin 1">
      <set comment="kpoint 1">
       <r>  -18.4500    1.0000 </r>
       <r>  -17.1471    1.0000 </r>
       <r>  -16.7868    1.0000 </r>
       <r>  -16.1716    1.0000 </r>
       <r>  -16.0406    1.0000 </r>
       <r>  -15.9612    1.0000 </r>
       <r>   -7.2693    1.0000 </r>
       <r>   -7.1101    1.0000 </r>
       <r>   -4.5352    1.0000 </r>
       <r>   -4.2270    1.0000 </r>
       <r>   -4.1307    1.0000 </r>
       <r>   -4.1124    1.0000 </r>
       <r>   -1.9451    1.0000 </r>
       <r>   -1.8390    1.0000 </r>
       <r>   -1.7517    1.0000 </r>
       <r>   -1.2618    1.0000 </r>
       <r>   -0.5502    1.0000 </r>
       <r>   -0.4357    1.0000 </r>
       <r>   -0.3898    1.0000 </r>
       <r>    0.1488    1.0000 </r>
       <r>    0.2314    1.0000 </r>
       <r>    0.4750    1.0000 </r>
       <r>    0.7538    1.0000 </r>
       <r>    0.8613    1.0000 </r>
       <r>    7.0995    0.0000 </r>
       <r>   10.3298    0.0000 </r>
       <r>   10.4310    0.0000 </r>
       <r>   10.8581    0.0000 </r>
       <r>   10.9574    0.0000 </r>
      </set>
      <set comment="kpoint 2">
       <r>  -18.3808    1.0000 </r>
       <r>  -17.1757    1.0000 </r>
       <r>  -16.7776    1.0000 </r>
       <r>  -16.2751    1.0000 </r>
       <r>  -16.0829    1.0000 </r>
       <r>  -15.9102    1.0000 </r>
       <r>   -7.3000    1.0000 </r>
       <r>   -6.9310    1.0000 </r>
       <r>   -4.5610    1.0000 </r>
       <r>   -4.2956    1.0000 </r>
       <r>   -4.1696    1.0000 </r>
       <r>   -3.9823    1.0000 </r>
       <r>   -2.0130    1.0000 </r>
       <r>   -1.8704    1.0000 </r>
       <r>   -1.6331    1.0000 </r>
       <r>   -1.1865    1.0000 </r>
       <r>   -0.7447    1.0000 </r>
       <r>   -0.4639    1.0000 </r>
       <r>   -0.3925    1.0000 </r>
       <r>    0.0941    1.0000 </r>
       <r>    0.1326    1.0000 </r>
       <r>    0.3872    1.0000 </r>
       <r>    0.8388    1.0000 </r>
       <r>    0.9372    1.0000 </r>
       <r>    7.5228    0.0000 </r>
       <r>   10.3515    0.0000 </r>
       <r>   10.4726    0.0000 </r>
       <r>   10.8741    0.0000 </r>
       <r>   11.0879    0.0000 </r>
      </set>
      <set comment="kpoint 3">
       <r>  -18.2092    1.0000 </r>
       <r>  -17.2716    1.0000 </r>
       <r>  -16.7590    1.0000 </r>
       <r>  -16.4557    1.0000 </r>
       <r>  -16.1151    1.0000 </r>
       <r>  -15.8766    1.0000 </r>
       <r>   -7.3649    1.0000 </r>
       <r>   -6.5104    1.0000 </r>
       <r>   -4.6206    1.0000 </r>
       <r>   -4.5366    1.0000 </r>
       <r>   -4.1847    1.0000 </r>
       <r>   -3.6779    1.0000 </r>
       <r>   -2.1311    1.0000 </r>
       <r>   -1.6928    1.0000 </r>
       <r>   -1.6128    1.0000 </r>
       <r>   -1.3003    1.0000 </r>
       <r>   -0.9854    1.0000 </r>
       <r>   -0.5523    1.0000 </r>
       <r>   -0.4480    1.0000 </r>
       <r>    0.0303    1.0000 </r>
       <r>    0.0723    1.0000 </r>
       <r>    0.2924    1.0000 </r>
       <r>    0.9146    1.0000 </r>
       <r>    1.0445    1.0000 </r>
       <r>    8.5213    0.0000 </r>
       <r>   10.3790    0.0000 </r>
       <r>   10.5969    0.0000 </r>
       <r>   11.0526    0.0000 </r>
       <r>   11.4756    0.0000 </r>
      </set>
      <set comment="kpoint 4">
       <r>  -18.0923    1.0000 </r>
       <r>  -17.3575    1.0000 </r>
       <r>  -16.7505    1.0000 </r>
       <r>  -16.5312    1.0000 </r>
       <r>  -16.1286    1.0000 </r>
       <r>  -15.8682    1.0000 </r>
       <r>   -7.3966    1.0000 </r>
       <r>   -6.2476    1.0000 </r>
       <r>   -4.7708    1.0000 </r>
       <r>   -4.5712    1.0000 </r>
       <r>   -4.1938    1.0000 </r>
       <r>   -3.5094    1.0000 </r>
       <r>   -2.1340    1.0000 </r>
       <r>   -1.7717    1.0000 </r>
       <r>   -1.6023    1.0000 </r>
       <r>   -1.3122    1.0000 </r>
       <r>   -1.0528    1.0000 </r>
       <r>   -0.6309    1.0000 </r>
       <r>   -0.5207    1.0000 </r>
       <r>    0.0481    1.0000 </r>
       <r>    0.0689    1.0000 </r>
       <r>    0.2718    1.0000 </r>
       <r>    0.9173    1.0000 </r>
       <r>    1.0937    1.0000 </r>
       <r>    9.3524    0.0000 </r>
       <r>   10.0927    0.0000 </r>
       <r>   10.7784    0.0000 </r>
       <r>   10.9374    0.0000 </r>
       <r>   11.7781    0.0000 </r>
      </set>
      <set comment="kpoint 5">
       <r>  -18.3750    1.0000 </r>
       <r>  -17.1866    1.0000 </r>
       <r>  -16.8107    1.0000 </r>
       <r>  -16.1791    1.0000 </r>
       <r>  -16.1084    1.0000 </r>
       <r>  -15.9416    1.0000 </r>
       <r>   -7.2556    1.0000 </r>
       <r>   -6.9865    1.0000 </r>
       <r>   -4.5443    1.0000 </r>
       <r>   -4.2913    1.0000 </r>
       <r>   -4.2033    1.0000 </r>
       <r>   -3.9514    1.0000 </r>
       <r>   -2.0630    1.0000 </r>
       <r>   -1.8102    1.0000 </r>
       <r>   -1.6879    1.0000 </r>
       <r>   -1.1531    1.0000 </r>
       <r>   -0.6872    1.0000 </r>
       <r>   -0.5013    1.0000 </r>
       <r>   -0.4526    1.0000 </r>
       <r>    0.1087    1.0000 </r>
       <r>    0.1769    1.0000 </r>
       <r>    0.3810    1.0000 </r>
       <r>    0.8414    1.0000 </r>
       <r>    0.9298    1.0000 </r>
       <r>    7.5202    0.0000 </r>
       <r>   10.3470    0.0000 </r>
       <r>   10.4383    0.0000 </r>
       <r>   10.9412    0.0000 </r>
       <r>   11.0586    0.0000 </r>
      </set>
      <set comment="kpoint 6">
       <r>  -18.2519    1.0000 </r>
       <r>  -17.2539    1.0000 </r>
       <r>  -16.8035    1.0000 </r>
       <r>  -16.3249    1.0000 </r>
       <r>  -16.1318    1.0000 </r>
       <r>  -15.9002    1.0000 </r>
       <r>   -7.3450    1.0000 </r>
       <r>   -6.6304    1.0000 </r>
       <r>   -4.6962    1.0000 </r>
       <r>   -4.4121    1.0000 </r>
       <r>   -4.1199    1.0000 </r>
       <r>   -3.7774    1.0000 </r>
       <r>   -2.0912    1.0000 </r>
       <r>   -1.7947    1.0000 </r>
       <r>   -1.6093    1.0000 </r>
       <r>   -1.1946    1.0000 </r>
       <r>   -1.0177    1.0000 </r>
       <r>   -0.5322    1.0000 </r>
       <r>   -0.3326    1.0000 </r>
       <r>   -0.0286    1.0000 </r>
       <r>    0.1434    1.0000 </r>
       <r>    0.2878    1.0000 </r>
       <r>    0.9395    1.0000 </r>
       <r>    0.9754    1.0000 </r>
       <r>    8.2260    0.0000 </r>
       <r>   10.4350    0.0000 </r>
       <r>   10.5493    0.0000 </r>
       <r>   11.0145    0.0000 </r>
       <r>   11.2815    0.0000 </r>
      </set>
      <set comment="kpoint 7">
       <r>  -18.0815    1.0000 </r>
       <r>  -17.3730    1.0000 </r>
       <r>  -16.8080    1.0000 </r>
       <r>  -16.4524    1.0000 </r>
       <r>  -16.1333    1.0000 </r>
       <r>  -15.8797    1.0000 </r>
       <r>   -7.4041    1.0000 </r>
       <r>   -6.1775    1.0000 </r>
       <r>   -5.0388    1.0000 </r>
       <r>   -4.4397    1.0000 </r>
       <r>   -4.1049    1.0000 </r>
       <r>   -3.5284    1.0000 </r>
       <r>   -2.1016    1.0000 </r>
       <r>   -1.7633    1.0000 </r>
       <r>   -1.6768    1.0000 </r>
       <r>   -1.2679    1.0000 </r>
       <r>   -1.0564    1.0000 </r>
       <r>   -0.6639    1.0000 </r>
       <r>   -0.3648    1.0000 </r>
       <r>   -0.1529    1.0000 </r>
       <r>    0.0265    1.0000 </r>
       <r>    0.4005    1.0000 </r>
       <r>    0.9101    1.0000 </r>
       <r>    1.0918    1.0000 </r>
       <r>    9.2340    0.0000 </r>
       <r>   10.3424    0.0000 </r>
       <r>   10.6868    0.0000 </r>
       <r>   11.1102    0.0000 </r>
       <r>   11.6507    0.0000 </r>
      </set>
      <set comment="kpoint 8">
       <r>  -18.0757    1.0000 </r>
       <r>  -17.3800    1.0000 </r>
       <r>  -16.8052    1.0000 </r>
       <r>  -16.4740    1.0000 </r>
       <r>  -16.1137    1.0000 </r>
       <r>  -15.8791    1.0000 </r>
       <r>   -7.3945    1.0000 </r>
       <r>   -6.1855    1.0000 </r>
       <r>   -5.0489    1.0000 </r>
       <r>   -4.4251    1.0000 </r>
       <r>   -4.1212    1.0000 </r>
       <r>   -3.5274    1.0000 </r>
       <r>   -2.0958    1.0000 </r>
       <r>   -1.7774    1.0000 </r>
       <r>   -1.6878    1.0000 </r>
       <r>   -1.2149    1.0000 </r>
       <r>   -0.9917    1.0000 </r>
       <r>   -0.6658    1.0000 </r>
       <r>   -0.4969    1.0000 </r>
       <r>   -0.1803    1.0000 </r>
       <r>    0.0603    1.0000 </r>
       <r>    0.4338    1.0000 </r>
       <r>    0.8816    1.0000 </r>
       <r>    1.1272    1.0000 </r>
       <r>    9.2437    0.0000 </r>
       <r>   10.3220    0.0000 </r>
       <r>   10.6693    0.0000 </r>
       <r>   11.1249    0.0000 </r>
       <r>   11.4540    0.0000 </r>
      </set>
      <set comment="kpoint 9">
       <r>  -18.2448    1.0000 </r>
       <r>  -17.2610    1.0000 </r>
       <r>  -16.8025    1.0000 </r>
       <r>  -16.3804    1.0000 </r>
       <r>  -16.0765    1.0000 </r>
       <r>  -15.9003    1.0000 </r>
       <r>   -7.3135    1.0000 </r>
       <r>   -6.6608    1.0000 </r>
       <r>   -4.7191    1.0000 </r>
       <r>   -4.3901    1.0000 </r>
       <r>   -4.1371    1.0000 </r>
       <r>   -3.7762    1.0000 </r>
       <r>   -2.0963    1.0000 </r>
       <r>   -1.8364    1.0000 </r>
       <r>   -1.5181    1.0000 </r>
       <r>   -1.1579    1.0000 </r>
       <r>   -0.9713    1.0000 </r>
       <r>   -0.6022    1.0000 </r>
       <r>   -0.3877    1.0000 </r>
       <r>   -0.1489    1.0000 </r>
       <r>    0.1916    1.0000 </r>
       <r>    0.3490    1.0000 </r>
       <r>    0.8706    1.0000 </r>
       <r>    1.0727    1.0000 </r>
       <r>    8.2283    0.0000 </r>
       <r>   10.3706    0.0000 </r>
       <r>   10.5814    0.0000 </r>
       <r>   11.0251    0.0000 </r>
       <r>   11.2367    0.0000 </r>
      </set>
      <set comment="kpoint 10">
       <r>  -18.3724    1.0000 </r>
       <r>  -17.1881    1.0000 </r>
       <r>  -16.8122    1.0000 </r>
       <r>  -16.2345    1.0000 </r>
       <r>  -16.0463    1.0000 </r>
       <r>  -15.9476    1.0000 </r>
       <r>   -7.2083    1.0000 </r>
       <r>   -7.0337    1.0000 </r>
       <r>   -4.5524    1.0000 </r>
       <r>   -4.3063    1.0000 </r>
       <r>   -4.1832    1.0000 </r>
       <r>   -3.9553    1.0000 </r>
       <r>   -2.0741    1.0000 </r>
       <r>   -1.8334    1.0000 </r>
       <r>   -1.6225    1.0000 </r>
       <r>   -1.1406    1.0000 </r>
[...]
       <r>    1.0226    1.0000 </r>
       <r>    9.1972    0.0000 </r>
       <r>   10.0807    0.0000 </r>
       <r>   10.4820    0.0000 </r>
       <r>   11.0031    0.0000 </r>
       <r>   11.2721    0.0000 </r>
      </set>
      <set comment="kpoint 90">
       <r>  -18.0229    1.0000 </r>
       <r>  -17.3889    1.0000 </r>
       <r>  -16.8530    1.0000 </r>
       <r>  -16.4550    1.0000 </r>
       <r>  -16.1700    1.0000 </r>
       <r>  -15.8626    1.0000 </r>
       <r>   -7.2382    1.0000 </r>
       <r>   -6.1579    1.0000 </r>
       <r>   -5.3228    1.0000 </r>
       <r>   -4.3678    1.0000 </r>
       <r>   -3.9250    1.0000 </r>
       <r>   -3.8051    1.0000 </r>
       <r>   -2.1779    1.0000 </r>
       <r>   -2.0127    1.0000 </r>
       <r>   -1.4238    1.0000 </r>
       <r>   -1.1862    1.0000 </r>
       <r>   -0.8956    1.0000 </r>
       <r>   -0.6342    1.0000 </r>
       <r>   -0.1802    1.0000 </r>
       <r>   -0.0024    1.0000 </r>
       <r>    0.2308    1.0000 </r>
       <r>    0.3292    1.0000 </r>
       <r>    0.6521    1.0000 </r>
       <r>    0.8910    1.0000 </r>
       <r>    9.8921    0.0000 </r>
       <r>   10.4029    0.0000 </r>
       <r>   10.7079    0.0000 </r>
       <r>   11.0916    0.0000 </r>
       <r>   11.5331    0.0000 </r>
      </set>
      <set comment="kpoint 91">
       <r>  -18.0163    1.0000 </r>
       <r>  -17.4358    1.0000 </r>
       <r>  -16.7549    1.0000 </r>
       <r>  -16.4979    1.0000 </r>
       <r>  -16.1828    1.0000 </r>
       <r>  -15.8653    1.0000 </r>
       <r>   -7.2620    1.0000 </r>
       <r>   -6.1156    1.0000 </r>
       <r>   -5.3376    1.0000 </r>
       <r>   -4.3700    1.0000 </r>
       <r>   -3.9125    1.0000 </r>
       <r>   -3.8112    1.0000 </r>
       <r>   -2.1635    1.0000 </r>
       <r>   -2.0144    1.0000 </r>
       <r>   -1.4489    1.0000 </r>
       <r>   -1.1947    1.0000 </r>
       <r>   -0.9424    1.0000 </r>
       <r>   -0.5880    1.0000 </r>
       <r>   -0.1506    1.0000 </r>
       <r>   -0.0070    1.0000 </r>
       <r>    0.2227    1.0000 </r>
       <r>    0.3786    1.0000 </r>
       <r>    0.5934    1.0000 </r>
       <r>    0.8951    1.0000 </r>
       <r>    9.8142    0.0000 </r>
       <r>   10.5530    0.0000 </r>
       <r>   10.7840    0.0000 </r>
       <r>   11.1377    0.0000 </r>
       <r>   11.3463    0.0000 </r>
      </set>
      <set comment="kpoint 92">
       <r>  -18.0756    1.0000 </r>
       <r>  -17.6131    1.0000 </r>
       <r>  -16.5764    1.0000 </r>
       <r>  -16.3930    1.0000 </r>
       <r>  -16.1518    1.0000 </r>
       <r>  -15.8565    1.0000 </r>
       <r>   -7.7083    1.0000 </r>
       <r>   -5.8808    1.0000 </r>
       <r>   -5.1800    1.0000 </r>
       <r>   -4.3503    1.0000 </r>
       <r>   -4.1326    1.0000 </r>
       <r>   -3.7292    1.0000 </r>
       <r>   -2.0690    1.0000 </r>
       <r>   -1.9089    1.0000 </r>
       <r>   -1.4242    1.0000 </r>
       <r>   -1.2920    1.0000 </r>
       <r>   -0.9413    1.0000 </r>
       <r>   -0.4931    1.0000 </r>
       <r>   -0.3538    1.0000 </r>
       <r>   -0.1763    1.0000 </r>
       <r>    0.1283    1.0000 </r>
       <r>    0.5877    1.0000 </r>
       <r>    0.7667    1.0000 </r>
       <r>    0.9454    1.0000 </r>
       <r>    9.1980    0.0000 </r>
       <r>   10.0732    0.0000 </r>
       <r>   10.6096    0.0000 </r>
       <r>   10.8903    0.0000 </r>
       <r>   11.4570    0.0000 </r>
      </set>
     </set>
    </set>
   </array>
  </eigenvalues>
  <separator name="orbital magnetization" >
   <v name="MAGDIPOLOUT">      0.00000000      0.00000000      0.00000000</v>
  </separator>
  <dos>
   <i name="efermi">      1.19448203 </i>
   <total>
    <array>
     <dimension dim="1">gridpoints</dimension>
     <dimension dim="2">spin</dimension>
     <field>energy</field>
     <field>total</field>
     <field>integrated</field>
     <set>
      <set comment="spin 1">
       <r>   -20.4500     0.0000     0.0000 </r>
       <r>   -20.3358     0.0000     0.0000 </r>
       <r>   -20.2215     0.0000     0.0000 </r>
       <r>   -20.1073     0.0000     0.0000 </r>
       <r>   -19.9931     0.0000     0.0000 </r>
       <r>   -19.8789     0.0000     0.0000 </r>
       <r>   -19.7647     0.0000     0.0000 </r>
       <r>   -19.6504     0.0000     0.0000 </r>
       <r>   -19.5362     0.0000     0.0000 </r>
       <r>   -19.4220     0.0000     0.0000 </r>
       <r>   -19.3078     0.0000     0.0000 </r>
       <r>   -19.1936     0.0000     0.0000 </r>
       <r>   -19.0794     0.0000     0.0000 </r>
       <r>   -18.9651     0.0000     0.0000 </r>
       <r>   -18.8509     0.0000     0.0000 </r>
       <r>   -18.7367     0.0000     0.0000 </r>
       <r>   -18.6225     0.0000     0.0000 </r>
       <r>   -18.5083     0.0000     0.0000 </r>
       <r>   -18.3940     0.5130     0.0096 </r>
       <r>   -18.2798     1.8131     0.1585 </r>
       <r>   -18.1656     4.1848     0.4575 </r>
       <r>   -18.0514     7.7558     1.1275 </r>
       <r>   -17.9372     3.0575     1.9243 </r>
       <r>   -17.8229     0.0000     2.0000 </r>
       <r>   -17.7087     1.4835     2.0665 </r>
       <r>   -17.5945     3.3080     2.3161 </r>
       <r>   -17.4803     6.1814     2.8372 </r>
       <r>   -17.3661     7.8890     3.5768 </r>
       <r>   -17.2519     0.9518     3.9576 </r>
       <r>   -17.1376     0.0000     4.0000 </r>
       <r>   -17.0234     0.5449     4.0105 </r>
       <r>   -16.9092     2.5947     4.1751 </r>
       <r>   -16.7950     7.4968     4.8463 </r>
       <r>   -16.6808     3.7405     5.5173 </r>
       <r>   -16.5665     2.6079     5.8681 </r>
       <r>   -16.4523     6.6023     6.2279 </r>
       <r>   -16.3381     6.6914     7.2151 </r>
       <r>   -16.2239     4.7045     7.8265 </r>
       <r>   -16.1097    12.8351     9.2753 </r>
       <r>   -15.9954     0.0000    10.0000 </r>
       <r>   -15.8812    29.0571    11.2498 </r>
       <r>   -15.7670     0.0000    12.0000 </r>
       <r>   -15.6528     0.0000    12.0000 </r>
       <r>   -15.5386     0.0000    12.0000 </r>
       <r>   -15.4244     0.0000    12.0000 </r>
       <r>   -15.3101     0.0000    12.0000 </r>
       <r>   -15.1959     0.0000    12.0000 </r>
       <r>   -15.0817     0.0000    12.0000 </r>
       <r>   -14.9675     0.0000    12.0000 </r>
       <r>   -14.8533     0.0000    12.0000 </r>
       <r>   -14.7390     0.0000    12.0000 </r>
       <r>   -14.6248     0.0000    12.0000 </r>
       <r>   -14.5106     0.0000    12.0000 </r>
       <r>   -14.3964     0.0000    12.0000 </r>
       <r>   -14.2822     0.0000    12.0000 </r>
       <r>   -14.1679     0.0000    12.0000 </r>
       <r>   -14.0537     0.0000    12.0000 </r>
       <r>   -13.9395     0.0000    12.0000 </r>
       <r>   -13.8253     0.0000    12.0000 </r>
       <r>   -13.7111     0.0000    12.0000 </r>
       <r>   -13.5969     0.0000    12.0000 </r>
       <r>   -13.4826     0.0000    12.0000 </r>
       <r>   -13.3684     0.0000    12.0000 </r>
       <r>   -13.2542     0.0000    12.0000 </r>
       <r>   -13.1400     0.0000    12.0000 </r>
       <r>   -13.0258     0.0000    12.0000 </r>
       <r>   -12.9115     0.0000    12.0000 </r>
       <r>   -12.7973     0.0000    12.0000 </r>
       <r>   -12.6831     0.0000    12.0000 </r>
       <r>   -12.5689     0.0000    12.0000 </r>
       <r>   -12.4547     0.0000    12.0000 </r>
       <r>   -12.3404     0.0000    12.0000 </r>
       <r>   -12.2262     0.0000    12.0000 </r>
       <r>   -12.1120     0.0000    12.0000 </r>
       <r>   -11.9978     0.0000    12.0000 </r>
       <r>   -11.8836     0.0000    12.0000 </r>
       <r>   -11.7694     0.0000    12.0000 </r>
       <r>   -11.6551     0.0000    12.0000 </r>
       <r>   -11.5409     0.0000    12.0000 </r>
       <r>   -11.4267     0.0000    12.0000 </r>
       <r>   -11.3125     0.0000    12.0000 </r>
       <r>   -11.1983     0.0000    12.0000 </r>
       <r>   -11.0840     0.0000    12.0000 </r>
       <r>   -10.9698     0.0000    12.0000 </r>
       <r>   -10.8556     0.0000    12.0000 </r>
       <r>   -10.7414     0.0000    12.0000 </r>
       <r>   -10.6272     0.0000    12.0000 </r>
       <r>   -10.5129     0.0000    12.0000 </r>
       <r>   -10.3987     0.0000    12.0000 </r>
       <r>   -10.2845     0.0000    12.0000 </r>
       <r>   -10.1703     0.0000    12.0000 </r>
       <r>   -10.0561     0.0000    12.0000 </r>
       <r>    -9.9419     0.0000    12.0000 </r>
       <r>    -9.8276     0.0000    12.0000 </r>
       <r>    -9.7134     0.0000    12.0000 </r>
       <r>    -9.5992     0.0000    12.0000 </r>
       <r>    -9.4850     0.0000    12.0000 </r>
       <r>    -9.3708     0.0000    12.0000 </r>
       <r>    -9.2565     0.0000    12.0000 </r>
       <r>    -9.1423     0.0000    12.0000 </r>
       <r>    -9.0281     0.0000    12.0000 </r>
       <r>    -8.9139     0.0000    12.0000 </r>
       <r>    -8.7997     0.0000    12.0000 </r>
       <r>    -8.6854     0.0000    12.0000 </r>
       <r>    -8.5712     0.0000    12.0000 </r>
       <r>    -8.4570     0.0000    12.0000 </r>
       <r>    -8.3428     0.0000    12.0000 </r>
       <r>    -8.2286     0.0169    12.0001 </r>
       <r>    -8.1144     0.2861    12.0160 </r>
       <r>    -8.0001     0.4502    12.0628 </r>
       <r>    -7.8859     0.6652    12.1261 </r>
       <r>    -7.7717     0.8767    12.2149 </r>
       <r>    -7.6575     1.2334    12.3334 </r>
       <r>    -7.5433     1.6930    12.4988 </r>
       <r>    -7.4290     3.2457    12.7565 </r>
       <r>    -7.3148     6.1465    13.4510 </r>
       <r>    -7.2006     1.6928    13.8550 </r>
       <r>    -7.0864     0.4449    13.9667 </r>
       <r>    -6.9722     0.2133    14.0014 </r>
       <r>    -6.8579     0.2151    14.0237 </r>
       <r>    -6.7437     0.3518    14.0557 </r>
       <r>    -6.6295     0.6060    14.1079 </r>
       <r>    -6.5153     1.1359    14.2066 </r>
       <r>    -6.4011     2.0850    14.3806 </r>
       <r>    -6.2868     3.4462    14.6960 </r>
       <r>    -6.1726     4.8038    15.1886 </r>
       <r>    -6.0584     2.0540    15.5758 </r>
       <r>    -5.9442     1.2156    15.7590 </r>
       <r>    -5.8300     0.7610    15.8687 </r>
       <r>    -5.7158     0.5857    15.9440 </r>
       <r>    -5.6015     0.2145    15.9962 </r>
       <r>    -5.4873     0.3095    16.0092 </r>
       <r>    -5.3731     2.5869    16.1525 </r>
       <r>    -5.2589     3.2405    16.4952 </r>
       <r>    -5.1447     3.0656    16.8665 </r>
       <r>    -5.0304     2.9689    17.2067 </r>
       <r>    -4.9162     2.0646    17.5016 </r>
       <r>    -4.8020     1.5811    17.7072 </r>
       <r>    -4.6878     1.2837    17.8691 </r>
       <r>    -4.5736     0.5883    17.9871 </r>
       <r>    -4.4593     4.9027    18.1284 </r>
       <r>    -4.3451     9.3591    19.2392 </r>
       <r>    -4.2309     4.8250    19.9834 </r>
       <r>    -4.1167     9.7530    20.7252 </r>
       <r>    -4.0025     6.3170    21.6266 </r>
       <r>    -3.8883     1.4755    22.0937 </r>
       <r>    -3.7740     7.8312    22.5646 </r>
       <r>    -3.6598     5.9944    23.4834 </r>
       <r>    -3.5456     2.3841    23.8926 </r>
       <r>    -3.4314     0.0108    24.0000 </r>
       <r>    -3.3172     0.0000    24.0000 </r>
       <r>    -3.2029     0.0000    24.0000 </r>
       <r>    -3.0887     0.0000    24.0000 </r>
       <r>    -2.9745     0.0000    24.0000 </r>
       <r>    -2.8603     0.0000    24.0000 </r>
       <r>    -2.7461     0.0000    24.0000 </r>
       <r>    -2.6318     0.0000    24.0000 </r>
       <r>    -2.5176     0.0000    24.0000 </r>
       <r>    -2.4034     0.0000    24.0000 </r>
       <r>    -2.2892     0.0000    24.0000 </r>
       <r>    -2.1750    10.5345    24.4257 </r>
       <r>    -2.0608     6.7852    25.7459 </r>
       <r>    -1.9465     7.4794    26.5707 </r>
       <r>    -1.8323     6.8046    27.2710 </r>
       <r>    -1.7181     3.4286    27.8933 </r>
       <r>    -1.6039     8.0324    28.3032 </r>
       <r>    -1.4897     7.9896    29.4093 </r>
       <r>    -1.3754     1.0860    29.9835 </r>
       <r>    -1.2612     8.1727    30.2767 </r>
       <r>    -1.1470    13.6159    31.5976 </r>
       <r>    -1.0328     0.9402    31.9961 </r>
       <r>    -0.9186    22.3942    33.2884 </r>
       <r>    -0.8043     0.9614    33.9094 </r>
       <r>    -0.6901     5.7868    34.2903 </r>
       <r>    -0.5759    10.0576    35.1520 </r>
       <r>    -0.4617     7.3759    36.2496 </r>
       <r>    -0.3475     6.9111    37.3777 </r>
       <r>    -0.2333     4.9516    37.9763 </r>
       <r>    -0.1190     8.8129    38.8591 </r>
       <r>    -0.0048     5.1368    39.7997 </r>
       <r>     0.1094     8.4560    40.4376 </r>
       <r>     0.2236     7.9157    41.7613 </r>
       <r>     0.3378     2.4405    42.0605 </r>
       <r>     0.4521    14.1214    43.1754 </r>
       <r>     0.5663     1.5956    43.8243 </r>
       <r>     0.6805     4.5341    44.2651 </r>
       <r>     0.7947    11.6369    45.0392 </r>
       <r>     0.9089     5.4300    46.1563 </r>
       <r>     1.0232    11.1759    46.9436 </r>
       <r>     1.1374     3.6467    47.9111 </r>
       <r>     1.2516     0.0000    48.0000 </r>
       <r>     1.3658     0.0000    48.0000 </r>
       <r>     1.4800     0.0000    48.0000 </r>
       <r>     1.5942     0.0000    48.0000 </r>
       <r>     1.7085     0.0000    48.0000 </r>
       <r>     1.8227     0.0000    48.0000 </r>
       <r>     1.9369     0.0000    48.0000 </r>
       <r>     2.0511     0.0000    48.0000 </r>
       <r>     2.1653     0.0000    48.0000 </r>
       <r>     2.2796     0.0000    48.0000 </r>
       <r>     2.3938     0.0000    48.0000 </r>
       <r>     2.5080     0.0000    48.0000 </r>
       <r>     2.6222     0.0000    48.0000 </r>
       <r>     2.7364     0.0000    48.0000 </r>
       <r>     2.8507     0.0000    48.0000 </r>
       <r>     2.9649     0.0000    48.0000 </r>
       <r>     3.0791     0.0000    48.0000 </r>
       <r>     3.1933     0.0000    48.0000 </r>
       <r>     3.3075     0.0000    48.0000 </r>
       <r>     3.4217     0.0000    48.0000 </r>
       <r>     3.5360     0.0000    48.0000 </r>
       <r>     3.6502     0.0000    48.0000 </r>
       <r>     3.7644     0.0000    48.0000 </r>
       <r>     3.8786     0.0000    48.0000 </r>
       <r>     3.9928     0.0000    48.0000 </r>
       <r>     4.1071     0.0000    48.0000 </r>
       <r>     4.2213     0.0000    48.0000 </r>
       <r>     4.3355     0.0000    48.0000 </r>
       <r>     4.4497     0.0000    48.0000 </r>
       <r>     4.5639     0.0000    48.0000 </r>
       <r>     4.6782     0.0000    48.0000 </r>
       <r>     4.7924     0.0000    48.0000 </r>
       <r>     4.9066     0.0000    48.0000 </r>
       <r>     5.0208     0.0000    48.0000 </r>
       <r>     5.1350     0.0000    48.0000 </r>
       <r>     5.2492     0.0000    48.0000 </r>
       <r>     5.3635     0.0000    48.0000 </r>
       <r>     5.4777     0.0000    48.0000 </r>
       <r>     5.5919     0.0000    48.0000 </r>
       <r>     5.7061     0.0000    48.0000 </r>
       <r>     5.8203     0.0000    48.0000 </r>
       <r>     5.9346     0.0000    48.0000 </r>
       <r>     6.0488     0.0000    48.0000 </r>
       <r>     6.1630     0.0000    48.0000 </r>
       <r>     6.2772     0.0000    48.0000 </r>
       <r>     6.3914     0.0000    48.0000 </r>
       <r>     6.5057     0.0000    48.0000 </r>
       <r>     6.6199     0.0000    48.0000 </r>
       <r>     6.7341     0.0000    48.0000 </r>
       <r>     6.8483     0.0000    48.0000 </r>
       <r>     6.9625     0.0000    48.0000 </r>
       <r>     7.0768     0.0000    48.0000 </r>
       <r>     7.1910     0.0084    48.0003 </r>
       <r>     7.3052     0.0426    48.0029 </r>
       <r>     7.4194     0.1030    48.0110 </r>
       <r>     7.5336     0.1933    48.0276 </r>
       <r>     7.6478     0.2438    48.0527 </r>
       <r>     7.7621     0.2763    48.0826 </r>
       <r>     7.8763     0.2952    48.1152 </r>
       <r>     7.9905     0.3408    48.1515 </r>
       <r>     8.1047     0.3889    48.1931 </r>
       <r>     8.2189     0.4396    48.2404 </r>
       <r>     8.3332     0.4928    48.2937 </r>
       <r>     8.4474     0.5483    48.3531 </r>
       <r>     8.5616     0.6848    48.4225 </r>
       <r>     8.6758     0.8395    48.5096 </r>
       <r>     8.7900     0.8304    48.6065 </r>
       <r>     8.9043     0.8925    48.7049 </r>
       <r>     9.0185     0.9568    48.8105 </r>
       <r>     9.1327     1.0233    48.9235 </r>
       <r>     9.2469     1.1766    49.0448 </r>
       <r>     9.3611     1.5742    49.2119 </r>
       <r>     9.4753     1.3739    49.3848 </r>
       <r>     9.5896     1.2712    49.5342 </r>
       <r>     9.7038     1.4071    49.6836 </r>
       <r>     9.8180     1.4893    49.8526 </r>
       <r>     9.9322     1.4093    50.0589 </r>
       <r>    10.0464     1.0624    50.1925 </r>
       <r>    10.1607     1.8235    50.3358 </r>
       <r>    10.2749     6.5970    50.7487 </r>
       <r>    10.3891     6.6301    51.7700 </r>
       <r>    10.5033     4.4318    52.2775 </r>
       <r>    10.6175     9.0993    53.0276 </r>
       <r>    10.7318     5.8073    53.8857 </r>
       <r>    10.8460     2.6368    54.3667 </r>
       <r>    10.9602     2.8341    54.6487 </r>
       <r>    11.0744     6.6096    55.1766 </r>
       <r>    11.1886     4.5051    55.8917 </r>
       <r>    11.3028     3.9110    56.3785 </r>
       <r>    11.4171     6.1324    56.9443 </r>
       <r>    11.5313     4.6859    57.6671 </r>
       <r>    11.6455     0.7643    57.9751 </r>
       <r>    11.7597     0.0196    57.9997 </r>
       <r>    11.8739     0.0000    58.0000 </r>
       <r>    11.9882     0.0000    58.0000 </r>
       <r>    12.1024     0.0000    58.0000 </r>
       <r>    12.2166     0.0000    58.0000 </r>
       <r>    12.3308     0.0000    58.0000 </r>
       <r>    12.4450     0.0000    58.0000 </r>
       <r>    12.5593     0.0000    58.0000 </r>
       <r>    12.6735     0.0000    58.0000 </r>
       <r>    12.7877     0.0000    58.0000 </r>
       <r>    12.9019     0.0000    58.0000 </r>
       <r>    13.0161     0.0000    58.0000 </r>
       <r>    13.1303     0.0000    58.0000 </r>
       <r>    13.2446     0.0000    58.0000 </r>
       <r>    13.3588     0.0000    58.0000 </r>
       <r>    13.4730     0.0000    58.0000 </r>
       <r>    13.5872     0.0000    58.0000 </r>
       <r>    13.7014     0.0000    58.0000 </r>
       <r>    13.8157     0.0000    58.0000 </r>
      </set>
     </set>
    </array>
   </total>
  </dos>
 </calculation>
 <structure name="finalpos" >
  <crystal>
   <varray name="basis" >
    <v>       4.91370000       0.00000000       0.00000000 </v>
    <v>      -2.45685000       4.25538903       0.00000000 </v>
    <v>       0.00000000       0.00000000       5.40513000 </v>
   </varray>
   <i name="volume">    113.01967420 </i>
   <varray name="rec_basis" >
    <v>       0.20351263       0.11749807       0.00000000 </v>
    <v>       0.00000000       0.23499614       0.00000000 </v>
    <v>       0.00000000       0.00000000       0.18500943 </v>
   </varray>
  </crystal>
  <varray name="positions" >
   <v>       0.46980000       0.02000000       0.66667000 </v>
   <v>       0.00000000       0.46980000       0.33333000 </v>
   <v>       0.53020000       0.53020000       0.00000000 </v>
   <v>       0.41450000       0.26620000       0.78560000 </v>
   <v>       0.73380000       0.14830000       0.45227000 </v>
   <v>       0.85170000       0.58550000       0.11893000 </v>
   <v>       0.14830000       0.73380000       0.54773000 </v>
   <v>       0.26620000       0.41450000       0.21440000 </v>
   <v>       0.58550000       0.85170000       0.88107000 </v>
  </varray>
 </structure>
</modeling>
