unknown system                          
   3.10000000000000     
     1.083870    0.000000    0.000000
    -0.000000    1.083870    0.000000
    -0.000000    0.000000    1.083870
   Pt
     2
Direct
  0.000000  0.000000  0.000000
  0.500000  0.500000  0.500000
 
   48   48   48
  113.87      112.57      108.90      103.44      96.965      90.210      83.682      77.551      71.671      65.712    
  59.349      52.429      45.060      37.590      30.504      24.265      19.180      15.327      12.559      10.571    
  9.1122      8.0938      7.4330      7.0658      6.9474      7.0658      7.4330      8.0938      9.1122      10.571    
  12.559      15.327      19.180      24.265      30.504      37.590      45.060      52.429      59.349      65.712    
  71.671      77.551      83.682      90.210      96.965      103.44      108.90      112.57      112.57      111.30    
  107.70      102.33      95.963      89.316      82.882      76.824      70.999      65.085      58.766      51.898    
  44.593      37.199      30.195      24.035      19.020      15.221      12.491      10.525      9.0812      8.0731    
  7.4187      7.0549      6.9376      7.0549      7.4187      8.0731      9.0812      10.525      12.491      15.221    
  19.020      24.035      30.195      37.199      44.593      51.898      58.766      65.085      70.999      76.824    
  82.882      89.316      95.963      102.33      107.70      111.30      108.90      107.70      104.28      99.179    
  93.119      86.770      80.593      74.736      69.061      63.268      57.072      50.353      43.234      36.061    
  29.295      23.367      18.556      14.916      12.294      10.392      8.9909      8.0128      7.3768      7.0231    
  6.9088      7.0231      7.3768      8.0128      8.9909      10.392      12.294      14.916      18.556      23.367    
  29.295      36.061      43.234      50.353      57.072      63.268      69.061      74.736      80.593      86.770    
  93.119      99.179      104.28      107.70      103.44      102.33      99.179      94.472      88.855      82.933    
  77.116      71.534      66.062      60.438      54.422      47.929      41.101      34.277      27.887      22.325    
  17.832      14.438      11.983      10.180      8.8481      7.9173      7.3107      6.9729      6.8635      6.9729    
  7.3107      7.9173      8.8481      10.180      11.983      14.438      17.832      22.325      27.887      34.277    
  41.101      47.929      54.422      60.438      66.062      71.534      77.116      82.933      88.855      94.472    
  99.179      102.33      96.965      95.963      93.119      88.855      83.732      78.277      72.845      67.548    
  62.284      56.839      51.030      44.821      38.367      31.993      26.090      20.998      16.911      13.831    
  11.582      9.9053      8.6633      7.7937      7.2257      6.9081      6.8053      6.9081      7.2257      7.7937    
  8.6633      9.9053      11.582      13.831      16.911      20.998      26.090      31.993      38.367      44.821    
  51.030      56.839      62.284      67.548      72.845      78.277      83.732      88.855      93.119      95.963    
  90.210      89.316      86.770      82.933      78.277      73.252      68.158      63.099      58.005      52.723    
  47.134      41.246      35.229      29.382      24.044      19.494      15.870      13.140      11.118      9.5854    
  8.4494      7.6508      7.1278      6.8337      6.7388      6.8337      7.1278      7.6508      8.4494      9.5854    
  11.118      13.140      15.870      19.494      24.044      29.382      35.229      41.246      47.134      52.723    
  58.005      63.099      68.158      73.252      78.277      82.933      86.770      89.316      83.682      82.882    
  80.593      77.116      72.845      68.158      63.315      58.423      53.450      48.311      42.949      37.415    
  31.882      26.615      21.890      17.919      14.781      12.410      10.618      9.2404      8.2197      7.4980    
  7.0238      6.7550      6.6687      6.7550      7.0238      7.4980      8.2197      9.2404      10.618      12.410    
  14.781      17.919      21.890      26.615      31.882      37.415      42.949      48.311      53.450      58.423    
  63.315      68.158      72.845      77.116      80.593      82.882      77.551      76.824      74.736      71.534    
  67.548      63.099      58.423      53.635      48.755      43.759      38.650      33.508      28.499      23.844    
  19.752      16.365      13.706      11.678      10.106      8.8895      7.9868      7.3447      6.9201      6.6778    
  6.5998      6.6778      6.9201      7.3447      7.9868      8.8895      10.106      11.678      13.706      16.365    
  19.752      23.844      28.499      33.508      38.650      43.759      48.755      53.635      58.423      63.099    
  67.548      71.534      74.736      76.824      71.671      70.999      69.061      66.062      62.284      58.005    
  53.450      48.755      43.986      39.174      34.369      29.669      25.220      21.192      17.729      14.902    
  12.689      10.969      9.6045      8.5491      7.7618      7.1987      6.8224      6.6069      6.5367      6.6069    
  6.8224      7.1987      7.7618      8.5491      9.6045      10.969      12.689      14.902      17.729      21.192    
  25.220      29.669      34.369      39.174      43.986      48.755      53.450      58.005      62.284      66.062    
  69.061      70.999      65.712      65.085      63.268      60.438      56.839      52.723      48.311      43.759    
  39.174      34.631      30.211      26.011      22.152      18.750      15.887      13.575      11.754      10.298    
  9.1323      8.2312      7.5540      7.0659      6.7361      6.5461      6.4836      6.5461      6.7361      7.0659    
  7.5540      8.2312      9.1323      10.298      11.754      13.575      15.887      18.750      22.152      26.011    
  30.211      34.631      39.174      43.759      48.311      52.723      56.839      60.438      63.268      65.085    
  59.349      58.766      57.072      54.422      51.030      47.134      42.949      38.650      34.369      30.211    
  26.265      22.623      19.371      16.575      14.262      12.401      10.904      9.6798      8.7030      7.9438    
  7.3695      6.9504      6.6649      6.4983      6.4438      6.4983      6.6649      6.9504      7.3695      7.9438    
  8.7030      9.6798      10.904      12.401      14.262      16.575      19.371      22.623      26.265      30.211    
  34.369      38.650      42.949      47.134      51.030      54.422      57.072      58.766      52.429      51.898    
  50.353      47.929      44.821      41.246      37.415      33.508      29.669      26.011      22.623      19.577    
  16.926      14.693      12.862      11.372      10.139      9.1283      8.3224      7.6922      7.2108      6.8553    
  6.6104      6.4664      6.4189      6.4664      6.6104      6.8553      7.2108      7.6922      8.3224      9.1283    
  10.139      11.372      12.862      14.693      16.926      19.577      22.623      26.011      29.669      33.508    
  37.415      41.246      44.821      47.929      50.353      51.898      45.060      44.593      43.234      41.101    
  38.367      35.229      31.882      28.499      25.220      22.152      19.371      16.926      14.840      13.101    
  11.667      10.467      9.4644      8.6473      7.9929      7.4775      7.0790      6.7814      6.5739      6.4512    
  6.4103      6.4512      6.5739      6.7814      7.0790      7.4775      7.9929      8.6473      9.4644      10.467    
  11.667      13.101      14.840      16.926      19.371      22.152      25.220      28.499      31.882      35.229    
  38.367      41.101      43.234      44.593      37.590      37.199      36.061      34.277      31.993      29.382    
  26.615      23.844      21.192      18.750      16.575      14.693      13.101      11.768      10.638      9.6790    
  8.8840      8.2353      7.7134      7.2980      6.9735      6.7282      6.5559      6.4530      6.4189      6.4530    
  6.5559      6.7282      6.9735      7.2980      7.7134      8.2353      8.8840      9.6790      10.638      11.768    
  13.101      14.693      16.575      18.750      21.192      23.844      26.615      29.382      31.993      34.277    
  36.061      37.199      30.504      30.195      29.295      27.887      26.090      24.044      21.890      19.752    
  17.729      15.887      14.262      12.862      11.667      10.638      9.7526      9.0083      8.3920      7.8880    
  7.4794      7.1514      6.8925      6.6952      6.5554      6.4717      6.4438      6.4717      6.5554      6.6952    
  6.8925      7.1514      7.4794      7.8880      8.3920      9.0083      9.7526      10.638      11.667      12.862    
  14.262      15.887      17.729      19.752      21.890      24.044      26.090      27.887      29.295      30.195    
  24.265      24.035      23.367      22.325      20.998      19.494      17.919      16.365      14.902      13.575    
  12.401      11.372      10.467      9.6790      9.0083      8.4461      7.9806      7.5983      7.2864      7.0340    
  6.8335      6.6798      6.5708      6.5054      6.4836      6.5054      6.5708      6.6798      6.8335      7.0340    
  7.2864      7.5983      7.9806      8.4461      9.0083      9.6790      10.467      11.372      12.401      13.575    
  14.902      16.365      17.919      19.494      20.998      22.325      23.367      24.035      19.180      19.020    
  18.556      17.832      16.911      15.870      14.781      13.706      12.689      11.754      10.904      10.139    
  9.4644      8.8840      8.3920      7.9806      7.6396      7.3588      7.1287      6.9420      6.7937      6.6805    
  6.6004      6.5526      6.5367      6.5526      6.6004      6.6805      6.7937      6.9420      7.1287      7.3588    
  7.6396      7.9806      8.3920      8.8840      9.4644      10.139      10.904      11.754      12.689      13.706    
  14.781      15.870      16.911      17.832      18.556      19.020      15.327      15.221      14.916      14.438    
  13.831      13.140      12.410      11.678      10.969      10.298      9.6798      9.1283      8.6473      8.2353    
  7.8880      7.5983      7.3588      7.1618      7.0012      6.8722      6.7709      6.6947      6.6416      6.6102    
  6.5998      6.6102      6.6416      6.6947      6.7709      6.8722      7.0012      7.1618      7.3588      7.5983    
  7.8880      8.2353      8.6473      9.1283      9.6798      10.298      10.969      11.678      12.410      13.140    
  13.831      14.438      14.916      15.221      12.559      12.491      12.294      11.983      11.582      11.118    
  10.618      10.106      9.6045      9.1323      8.7030      8.3224      7.9929      7.7134      7.4794      7.2864    
  7.1287      7.0012      6.8999      6.8213      6.7620      6.7191      6.6904      6.6740      6.6687      6.6740    
  6.6904      6.7191      6.7620      6.8213      6.8999      7.0012      7.1287      7.2864      7.4794      7.7134    
  7.9929      8.3224      8.7030      9.1323      9.6045      10.106      10.618      11.118      11.582      11.983    
  12.294      12.491      10.571      10.525      10.392      10.180      9.9053      9.5854      9.2404      8.8895    
  8.5491      8.2312      7.9438      7.6922      7.4775      7.2980      7.1514      7.0340      6.9420      6.8722    
  6.8213      6.7861      6.7634      6.7498      6.7427      6.7396      6.7388      6.7396      6.7427      6.7498    
  6.7634      6.7861      6.8213      6.8722      6.9420      7.0340      7.1514      7.2980      7.4775      7.6922    
  7.9438      8.2312      8.5491      8.8895      9.2404      9.5854      9.9053      10.180      10.392      10.525    
  9.1122      9.0812      8.9909      8.8481      8.6633      8.4494      8.2197      7.9868      7.7618      7.5540    
  7.3695      7.2108      7.0790      6.9735      6.8925      6.8335      6.7937      6.7709      6.7620      6.7634    
  6.7715      6.7830      6.7943      6.8024      6.8053      6.8024      6.7943      6.7830      6.7715      6.7634    
  6.7620      6.7709      6.7937      6.8335      6.8925      6.9735      7.0790      7.2108      7.3695      7.5540    
  7.7618      7.9868      8.2197      8.4494      8.6633      8.8481      8.9909      9.0812      8.0938      8.0731    
  8.0128      7.9173      7.7937      7.6508      7.4980      7.3447      7.1987      7.0659      6.9504      6.8553    
  6.7814      6.7282      6.6952      6.6798      6.6805      6.6947      6.7191      6.7498      6.7830      6.8145    
  6.8405      6.8575      6.8635      6.8575      6.8405      6.8145      6.7830      6.7498      6.7191      6.6947    
  6.6805      6.6798      6.6952      6.7282      6.7814      6.8553      6.9504      7.0659      7.1987      7.3447    
  7.4980      7.6508      7.7937      7.9173      8.0128      8.0731      7.4330      7.4187      7.3768      7.3107    
  7.2257      7.1278      7.0238      6.9201      6.8224      6.7361      6.6649      6.6104      6.5739      6.5559    
  6.5554      6.5708      6.6004      6.6416      6.6904      6.7427      6.7943      6.8405      6.8771      6.9007    
  6.9088      6.9007      6.8771      6.8405      6.7943      6.7427      6.6904      6.6416      6.6004      6.5708    
  6.5554      6.5559      6.5739      6.6104      6.6649      6.7361      6.8224      6.9201      7.0238      7.1278    
  7.2257      7.3107      7.3768      7.4187      7.0658      7.0549      7.0231      6.9729      6.9081      6.8337    
  6.7550      6.6778      6.6069      6.5461      6.4983      6.4664      6.4512      6.4530      6.4717      6.5054    
  6.5526      6.6102      6.6740      6.7396      6.8024      6.8575      6.9007      6.9281      6.9376      6.9281    
  6.9007      6.8575      6.8024      6.7396      6.6740      6.6102      6.5526      6.5054      6.4717      6.4530    
  6.4512      6.4664      6.4983      6.5461      6.6069      6.6778      6.7550      6.8337      6.9081      6.9729    
  7.0231      7.0549      6.9474      6.9376      6.9088      6.8635      6.8053      6.7388      6.6687      6.5998    
  6.5367      6.4836      6.4438      6.4189      6.4103      6.4189      6.4438      6.4836      6.5367      6.5998    
  6.6687      6.7388      6.8053      6.8635      6.9088      6.9376      6.9474      6.9376      6.9088      6.8635    
  6.8053      6.7388      6.6687      6.5998      6.5367      6.4836      6.4438      6.4189      6.4103      6.4189    
  6.4438      6.4836      6.5367      6.5998      6.6687      6.7388      6.8053      6.8635      6.9088      6.9376    
  7.0658      7.0549      7.0231      6.9729      6.9081      6.8337      6.7550      6.6778      6.6069      6.5461    
  6.4983      6.4664      6.4512      6.4530      6.4717      6.5054      6.5526      6.6102      6.6740      6.7396    
  6.8024      6.8575      6.9007      6.9281      6.9376      6.9281      6.9007      6.8575      6.8024      6.7396    
  6.6740      6.6102      6.5526      6.5054      6.4717      6.4530      6.4512      6.4664      6.4983      6.5461    
  6.6069      6.6778      6.7550      6.8337      6.9081      6.9729      7.0231      7.0549      7.4330      7.4187    
  7.3768      7.3107      7.2257      7.1278      7.0238      6.9201      6.8224      6.7361      6.6649      6.6104    
  6.5739      6.5559      6.5554      6.5708      6.6004      6.6416      6.6904      6.7427      6.7943      6.8405    
  6.8771      6.9007      6.9088      6.9007      6.8771      6.8405      6.7943      6.7427      6.6904      6.6416    
  6.6004      6.5708      6.5554      6.5559      6.5739      6.6104      6.6649      6.7361      6.8224      6.9201    
  7.0238      7.1278      7.2257      7.3107      7.3768      7.4187      8.0938      8.0731      8.0128      7.9173    
  7.7937      7.6508      7.4980      7.3447      7.1987      7.0659      6.9504      6.8553      6.7814      6.7282    
  6.6952      6.6798      6.6805      6.6947      6.7191      6.7498      6.7830      6.8145      6.8405      6.8575    
  6.8635      6.8575      6.8405      6.8145      6.7830      6.7498      6.7191      6.6947      6.6805      6.6798    
  6.6952      6.7282      6.7814      6.8553      6.9504      7.0659      7.1987      7.3447      7.4980      7.6508    
  7.7937      7.9173      8.0128      8.0731      9.1122      9.0812      8.9909      8.8481      8.6633      8.4494    
  8.2197      7.9868      7.7618      7.5540      7.3695      7.2108      7.0790      6.9735      6.8925      6.8335    
  6.7937      6.7709      6.7620      6.7634      6.7715      6.7830      6.7943      6.8024      6.8053      6.8024    
  6.7943      6.7830      6.7715      6.7634      6.7620      6.7709      6.7937      6.8335      6.8925      6.9735    
  7.0790      7.2108      7.3695      7.5540      7.7618      7.9868      8.2197      8.4494      8.6633      8.8481    
  8.9909      9.0812      10.571      10.525      10.392      10.180      9.9053      9.5854      9.2404      8.8895    
  8.5491      8.2312      7.9438      7.6922      7.4775      7.2980      7.1514      7.0340      6.9420      6.8722    
  6.8213      6.7861      6.7634      6.7498      6.7427      6.7396      6.7388      6.7396      6.7427      6.7498    
  6.7634      6.7861      6.8213      6.8722      6.9420      7.0340      7.1514      7.2980      7.4775      7.6922    
  7.9438      8.2312      8.5491      8.8895      9.2404      9.5854      9.9053      10.180      10.392      10.525    
  12.559      12.491      12.294      11.983      11.582      11.118      10.618      10.106      9.6045      9.1323    
  8.7030      8.3224      7.9929      7.7134      7.4794      7.2864      7.1287      7.0012      6.8999      6.8213    
  6.7620      6.7191      6.6904      6.6740      6.6687      6.6740      6.6904      6.7191      6.7620      6.8213    
  6.8999      7.0012      7.1287      7.2864      7.4794      7.7134      7.9929      8.3224      8.7030      9.1323    
  9.6045      10.106      10.618      11.118      11.582      11.983      12.294      12.491      15.327      15.221    
  14.916      14.438      13.831      13.140      12.410      11.678      10.969      10.298      9.6798      9.1283    
  8.6473      8.2353      7.8880      7.5983      7.3588      7.1618      7.0012      6.8722      6.7709      6.6947    
  6.6416      6.6102      6.5998      6.6102      6.6416      6.6947      6.7709      6.8722      7.0012      7.1618    
  7.3588      7.5983      7.8880      8.2353      8.6473      9.1283      9.6798      10.298      10.969      11.678    
  12.410      13.140      13.831      14.438      14.916      15.221      19.180      19.020      18.556      17.832    
  16.911      15.870      14.781      13.706      12.689      11.754      10.904      10.139      9.4644      8.8840    
  8.3920      7.9806      7.6396      7.3588      7.1287      6.9420      6.7937      6.6805      6.6004      6.5526    
  6.5367      6.5526      6.6004      6.6805      6.7937      6.9420      7.1287      7.3588      7.6396      7.9806    
  8.3920      8.8840      9.4644      10.139      10.904      11.754      12.689      13.706      14.781      15.870    
  16.911      17.832      18.556      19.020      24.265      24.035      23.367      22.325      20.998      19.494    
  17.919      16.365      14.902      13.575      12.401      11.372      10.467      9.6790      9.0083      8.4461    
  7.9806      7.5983      7.2864      7.0340      6.8335      6.6798      6.5708      6.5054      6.4836      6.5054    
  6.5708      6.6798      6.8335      7.0340      7.2864      7.5983      7.9806      8.4461      9.0083      9.6790    
  10.467      11.372      12.401      13.575      14.902      16.365      17.919      19.494      20.998      22.325    
  23.367      24.035      30.504      30.195      29.295      27.887      26.090      24.044      21.890      19.752    
  17.729      15.887      14.262      12.862      11.667      10.638      9.7526      9.0083      8.3920      7.8880    
  7.4794      7.1514      6.8925      6.6952      6.5554      6.4717      6.4438      6.4717      6.5554      6.6952    
  6.8925      7.1514      7.4794      7.8880      8.3920      9.0083      9.7526      10.638      11.667      12.862    
  14.262      15.887      17.729      19.752      21.890      24.044      26.090      27.887      29.295      30.195    
  37.590      37.199      36.061      34.277      31.993      29.382      26.615      23.844      21.192      18.750    
  16.575      14.693      13.101      11.768      10.638      9.6790      8.8840      8.2353      7.7134      7.2980    
  6.9735      6.7282      6.5559      6.4530      6.4189      6.4530      6.5559      6.7282      6.9735      7.2980    
  7.7134      8.2353      8.8840      9.6790      10.638      11.768      13.101      14.693      16.575      18.750    
  21.192      23.844      26.615      29.382      31.993      34.277      36.061      37.199      45.060      44.593    
  43.234      41.101      38.367      35.229      31.882      28.499      25.220      22.152      19.371      16.926    
  14.840      13.101      11.667      10.467      9.4644      8.6473      7.9929      7.4775      7.0790      6.7814    
  6.5739      6.4512      6.4103      6.4512      6.5739      6.7814      7.0790      7.4775      7.9929      8.6473    
  9.4644      10.467      11.667      13.101      14.840      16.926      19.371      22.152      25.220      28.499    
  31.882      35.229      38.367      41.101      43.234      44.593      52.429      51.898      50.353      47.929    
  44.821      41.246      37.415      33.508      29.669      26.011      22.623      19.577      16.926      14.693    
  12.862      11.372      10.139      9.1283      8.3224      7.6922      7.2108      6.8553      6.6104      6.4664    
  6.4189      6.4664      6.6104      6.8553      7.2108      7.6922      8.3224      9.1283      10.139      11.372    
  12.862      14.693      16.926      19.577      22.623      26.011      29.669      33.508      37.415      41.246    
  44.821      47.929      50.353      51.898      59.349      58.766      57.072      54.422      51.030      47.134    
  42.949      38.650      34.369      30.211      26.265      22.623      19.371      16.575      14.262      12.401    
  10.904      9.6798      8.7030      7.9438      7.3695      6.9504      6.6649      6.4983      6.4438      6.4983    
  6.6649      6.9504      7.3695      7.9438      8.7030      9.6798      10.904      12.401      14.262      16.575    
  19.371      22.623      26.265      30.211      34.369      38.650      42.949      47.134      51.030      54.422    
  57.072      58.766      65.712      65.085      63.268      60.438      56.839      52.723      48.311      43.759    
  39.174      34.631      30.211      26.011      22.152      18.750      15.887      13.575      11.754      10.298    
  9.1323      8.2312      7.5540      7.0659      6.7361      6.5461      6.4836      6.5461      6.7361      7.0659    
  7.5540      8.2312      9.1323      10.298      11.754      13.575      15.887      18.750      22.152      26.011    
  30.211      34.631      39.174      43.759      48.311      52.723      56.839      60.438      63.268      65.085    
  71.671      70.999      69.061      66.062      62.284      58.005      53.450      48.755      43.986      39.174    
  34.369      29.669      25.220      21.192      17.729      14.902      12.689      10.969      9.6045      8.5491    
  7.7618      7.1987      6.8224      6.6069      6.5367      6.6069      6.8224      7.1987      7.7618      8.5491    
  9.6045      10.969      12.689      14.902      17.729      21.192      25.220      29.669      34.369      39.174    
  43.986      48.755      53.450      58.005      62.284      66.062      69.061      70.999      77.551      76.824    
  74.736      71.534      67.548      63.099      58.423      53.635      48.755      43.759      38.650      33.508    
  28.499      23.844      19.752      16.365      13.706      11.678      10.106      8.8895      7.9868      7.3447    
  6.9201      6.6778      6.5998      6.6778      6.9201      7.3447      7.9868      8.8895      10.106      11.678    
  13.706      16.365      19.752      23.844      28.499      33.508      38.650      43.759      48.755      53.635    
  58.423      63.099      67.548      71.534      74.736      76.824      83.682      82.882      80.593      77.116    
  72.845      68.158      63.315      58.423      53.450      48.311      42.949      37.415      31.882      26.615    
  21.890      17.919      14.781      12.410      10.618      9.2404      8.2197      7.4980      7.0238      6.7550    
  6.6687      6.7550      7.0238      7.4980      8.2197      9.2404      10.618      12.410      14.781      17.919    
  21.890      26.615      31.882      37.415      42.949      48.311      53.450      58.423      63.315      68.158    
  72.845      77.116      80.593      82.882      90.210      89.316      86.770      82.933      78.277      73.252    
  68.158      63.099      58.005      52.723      47.134      41.246      35.229      29.382      24.044      19.494    
  15.870      13.140      11.118      9.5854      8.4494      7.6508      7.1278      6.8337      6.7388      6.8337    
  7.1278      7.6508      8.4494      9.5854      11.118      13.140      15.870      19.494      24.044      29.382    
  35.229      41.246      47.134      52.723      58.005      63.099      68.158      73.252      78.277      82.933    
  86.770      89.316      96.965      95.963      93.119      88.855      83.732      78.277      72.845      67.548    
  62.284      56.839      51.030      44.821      38.367      31.993      26.090      20.998      16.911      13.831    
  11.582      9.9053      8.6633      7.7937      7.2257      6.9081      6.8053      6.9081      7.2257      7.7937    
  8.6633      9.9053      11.582      13.831      16.911      20.998      26.090      31.993      38.367      44.821    
  51.030      56.839      62.284      67.548      72.845      78.277      83.732      88.855      93.119      95.963    
  103.44      102.33      99.179      94.472      88.855      82.933      77.116      71.534      66.062      60.438    
  54.422      47.929      41.101      34.277      27.887      22.325      17.832      14.438      11.983      10.180    
  8.8481      7.9173      7.3107      6.9729      6.8635      6.9729      7.3107      7.9173      8.8481      10.180    
  11.983      14.438      17.832      22.325      27.887      34.277      41.101      47.929      54.422      60.438    
  66.062      71.534      77.116      82.933      88.855      94.472      99.179      102.33      108.90      107.70    
  104.28      99.179      93.119      86.770      80.593      74.736      69.061      63.268      57.072      50.353    
  43.234      36.061      29.295      23.367      18.556      14.916      12.294      10.392      8.9909      8.0128    
  7.3768      7.0231      6.9088      7.0231      7.3768      8.0128      8.9909      10.392      12.294      14.916    
  18.556      23.367      29.295      36.061      43.234      50.353      57.072      63.268      69.061      74.736    
  80.593      86.770      93.119      99.179      104.28      107.70      112.57      111.30      107.70      102.33    
  95.963      89.316      82.882      76.824      70.999      65.085      58.766      51.898      44.593      37.199    
  30.195      24.035      19.020      15.221      12.491      10.525      9.0812      8.0731      7.4187      7.0549    
  6.9376      7.0549      7.4187      8.0731      9.0812      10.525      12.491      15.221      19.020      24.035    
  30.195      37.199      44.593      51.898      58.766      65.085      70.999      76.824      82.882      89.316    
  95.963      102.33      107.70      111.30      112.57      111.30      107.70      102.33      95.963      89.316    
  82.882      76.824      70.999      65.085      58.766      51.898      44.593      37.199      30.195      24.035    
  19.020      15.221      12.491      10.525      9.0812      8.0731      7.4187      7.0549      6.9376      7.0549    
  7.4187      8.0731      9.0812      10.525      12.491      15.221      19.020      24.035      30.195      37.199    
  44.593      51.898      58.766      65.085      70.999      76.824      82.882      89.316      95.963      102.33    
  107.70      111.30      111.30      110.05      106.51      101.24      94.979      88.437      82.094      76.108    
  70.336      64.466      58.191      51.374      44.132      36.813      29.890      23.809      18.863      15.118    
  12.425      10.480      9.0510      8.0531      7.4048      7.0445      6.9281      7.0445      7.4048      8.0531    
  9.0510      10.480      12.425      15.118      18.863      23.809      29.890      36.813      44.132      51.374    
  58.191      64.466      70.336      76.108      82.094      88.437      94.979      101.24      106.51      110.05    
  107.70      106.51      103.15      98.141      92.181      85.931      79.839      74.048      68.423      62.672    
  56.518      49.849      42.793      35.693      29.005      23.153      18.408      14.818      12.231      10.350    
  8.9628      7.9944      7.3644      7.0140      6.9007      7.0140      7.3644      7.9944      8.9628      10.350    
  12.231      14.818      18.408      23.153      29.005      35.693      42.793      49.849      56.518      62.672    
  68.423      74.048      79.839      85.931      92.181      98.141      103.15      106.51      102.33      101.24    