unknown system                          
   3.10000000000000     
     1.022080    0.000000   -0.000000
     0.000000    1.022080   -0.000000
    -0.000000    0.000000    1.022080
   Pt
     2
Direct
 -0.000000  0.000000 -0.000000
  0.500000  0.500000  0.500000
 
   48   48   48
 0.12187434380E+03 0.12042491047E+03 0.11632785619E+03 0.11025632008E+03 0.10309579473E+03
 0.95675964857E+02 0.88542672377E+02 0.81845431286E+02 0.75380155024E+02 0.68758489132E+02
 0.61635250173E+02 0.53895181716E+02 0.45734315166E+02 0.37607305564E+02 0.30075691349E+02
 0.23623705014E+02 0.18517670099E+02 0.14747511416E+02 0.12063921526E+02 0.10104542586E+02
 0.86731134326E+01 0.76833402622E+01 0.70426794857E+01 0.66870377847E+01 0.65721384790E+01
 0.66870377847E+01 0.70426794857E+01 0.76833402622E+01 0.86731134326E+01 0.10104542586E+02
 0.12063921526E+02 0.14747511416E+02 0.18517670099E+02 0.23623705014E+02 0.30075691349E+02
 0.37607305564E+02 0.45734315166E+02 0.53895181716E+02 0.61635250173E+02 0.68758489132E+02
 0.75380155024E+02 0.81845431286E+02 0.88542672377E+02 0.95675964857E+02 0.10309579473E+03
 0.11025632008E+03 0.11632785619E+03 0.12042491047E+03 0.12042491047E+03 0.11900276847E+03
 0.11498230123E+03 0.10902236977E+03 0.10198894493E+03 0.94692340485E+02 0.87664050727E+02
 0.81047850831E+02 0.74642938069E+02 0.68070892157E+02 0.60998221637E+02 0.53319437520E+02
 0.45234946906E+02 0.37196411774E+02 0.29757818345E+02 0.23393646663E+02 0.18361508914E+02
 0.14646550101E+02 0.11998213733E+02 0.10059845025E+02 0.86433492983E+01 0.76634749544E+01
 0.70289850727E+01 0.66765374612E+01 0.65626933501E+01 0.66765374612E+01 0.70289850727E+01
 0.76634749544E+01 0.86433492983E+01 0.10059845025E+02 0.11998213733E+02 0.14646550101E+02
 0.18361508914E+02 0.23393646663E+02 0.29757818345E+02 0.37196411774E+02 0.45234946906E+02
 0.53319437520E+02 0.60998221637E+02 0.68070892157E+02 0.74642938069E+02 0.81047850831E+02
 0.87664050727E+02 0.94692340485E+02 0.10198894493E+03 0.10902236977E+03 0.11498230123E+03
 0.11900276847E+03 0.11632785619E+03 0.11498230123E+03 0.11117646207E+03 0.10552846758E+03
 0.98848785946E+02 0.91893143985E+02 0.85153316101E+02 0.78757960333E+02 0.72516395523E+02
 0.66079355547E+02 0.59148580090E+02 0.51646313366E+02 0.43783074696E+02 0.36002629458E+02
 0.28835011623E+02 0.22726377315E+02 0.17908708259E+02 0.14353376713E+02 0.11806420191E+02
 0.99291333240E+01 0.85564006935E+01 0.76054127689E+01 0.69889793791E+01 0.66458324495E+01
 0.65350965184E+01 0.66458324495E+01 0.69889793791E+01 0.76054127689E+01 0.85564006935E+01
 0.99291333240E+01 0.11806420191E+02 0.14353376713E+02 0.17908708259E+02 0.22726377315E+02
 0.28835011623E+02 0.36002629458E+02 0.43783074696E+02 0.51646313366E+02 0.59148580090E+02
 0.66079355547E+02 0.72516395523E+02 0.78757960333E+02 0.85153316101E+02 0.91893143985E+02
 0.98848785946E+02 0.10552846758E+03 0.11117646207E+03 0.11498230123E+03 0.11025632008E+03
 0.10902236977E+03 0.10552846758E+03 0.10033140467E+03 0.94158584139E+02 0.87685129858E+02
 0.81345816466E+02 0.75250682566E+02 0.69229004581E+02 0.62979166604E+02 0.56256737739E+02
 0.49025282376E+02 0.41509096790E+02 0.34135126738E+02 0.27394210195E+02 0.21686402099E+02
 0.17203301960E+02 0.13895088543E+02 0.11503559889E+02 0.97221031366E+01 0.84188542820E+01
 0.75135266522E+01 0.69257408956E+01 0.65972865341E+01 0.64915142121E+01 0.65972865341E+01
 0.69257408956E+01 0.75135266522E+01 0.84188542820E+01 0.97221031366E+01 0.11503559889E+02
 0.13895088543E+02 0.17203301960E+02 0.21686402099E+02 0.27394210195E+02 0.34135126738E+02
 0.41509096790E+02 0.49025282376E+02 0.56256737739E+02 0.62979166604E+02 0.69229004581E+02
 0.75250682566E+02 0.81345816466E+02 0.87685129858E+02 0.94158584139E+02 0.10033140467E+03
 0.10552846758E+03 0.10902236977E+03 0.10309579473E+03 0.10198894493E+03 0.98848785946E+02
 0.94158584139E+02 0.88547282300E+02 0.82596623609E+02 0.76678875166E+02 0.70889277184E+02
 0.65088582630E+02 0.59038320281E+02 0.52562164285E+02 0.45671915381E+02 0.38602414664E+02
 0.31754212121E+02 0.25563155359E+02 0.20368312518E+02 0.16309598088E+02 0.13310786228E+02
 0.11111403754E+02 0.94536189297E+01 0.82407494346E+01 0.73945883539E+01 0.68439841779E+01
 0.65345768609E+01 0.64352632845E+01 0.65345768609E+01 0.68439841779E+01 0.73945883539E+01
 0.82407494346E+01 0.94536189297E+01 0.11111403754E+02 0.13310786228E+02 0.16309598088E+02
 0.20368312518E+02 0.25563155359E+02 0.31754212121E+02 0.38602414664E+02 0.45671915381E+02
 0.52562164285E+02 0.59038320281E+02 0.65088582630E+02 0.70889277184E+02 0.76678875166E+02
 0.82596623609E+02 0.88547282300E+02 0.94158584139E+02 0.98848785946E+02 0.10198894493E+03
 0.95675964857E+02 0.94692340485E+02 0.91893143985E+02 0.87685129858E+02 0.82596623609E+02
 0.77116810927E+02 0.71561260223E+02 0.66020727877E+02 0.60400507111E+02 0.54536380265E+02
 0.48325614187E+02 0.41827343603E+02 0.35280240066E+02 0.29044845457E+02 0.23489714990E+02
 0.18880947772E+02 0.15300917833E+02 0.12643969762E+02 0.10655652101E+02 0.91419454032E+01
 0.80341277300E+01 0.72569718529E+01 0.67494767045E+01 0.64624238013E+01 0.63704899981E+01
 0.64624238013E+01 0.67494767045E+01 0.72569718529E+01 0.80341277300E+01 0.91419454032E+01
 0.10655652101E+02 0.12643969762E+02 0.15300917833E+02 0.18880947772E+02 0.23489714990E+02
 0.29044845457E+02 0.35280240066E+02 0.41827343603E+02 0.48325614187E+02 0.54536380265E+02
 0.60400507111E+02 0.66020727877E+02 0.71561260223E+02 0.77116810927E+02 0.82596623609E+02
 0.87685129858E+02 0.91893143985E+02 0.94692340485E+02 0.88542672377E+02 0.87664050727E+02
 0.85153316101E+02 0.81345816466E+02 0.76678875166E+02 0.71561260223E+02 0.66266704232E+02
 0.60894741426E+02 0.55405536568E+02 0.49712787584E+02 0.43786459830E+02 0.37724182970E+02
 0.31756115723E+02 0.26190996599E+02 0.21320494301E+02 0.17331041858E+02 0.14247886376E+02
 0.11935105712E+02 0.10162701431E+02 0.88067072094E+01 0.78117218411E+01 0.71098101543E+01
 0.66484357938E+01 0.63861116999E+01 0.63017309060E+01 0.63861116999E+01 0.66484357938E+01
 0.71098101543E+01 0.78117218411E+01 0.88067072094E+01 0.10162701431E+02 0.11935105712E+02
 0.14247886376E+02 0.17331041858E+02 0.21320494301E+02 0.26190996599E+02 0.31756115723E+02
 0.37724182970E+02 0.43786459830E+02 0.49712787584E+02 0.55405536568E+02 0.60894741426E+02
 0.66266704232E+02 0.71561260223E+02 0.76678875166E+02 0.81345816466E+02 0.85153316101E+02
 0.87664050727E+02 0.81845431286E+02 0.81047850831E+02 0.78757960333E+02 0.75250682566E+02
 0.70889277184E+02 0.66020727877E+02 0.60894741426E+02 0.55631858657E+02 0.50252659449E+02
 0.44745055468E+02 0.39141137350E+02 0.33562458879E+02 0.28218606604E+02 0.23355065762E+02
 0.19183360421E+02 0.15809923788E+02 0.13207980827E+02 0.11217117471E+02 0.96585050930E+01
 0.84661317247E+01 0.75859032749E+01 0.69616731705E+01 0.65472118277E+01 0.63108047833E+01
 0.62338331805E+01 0.63108047833E+01 0.65472118277E+01 0.69616731705E+01 0.75859032749E+01
 0.84661317247E+01 0.96585050930E+01 0.11217117471E+02 0.13207980827E+02 0.15809923788E+02
 0.19183360421E+02 0.23355065762E+02 0.28218606604E+02 0.33562458879E+02 0.39141137350E+02
 0.44745055468E+02 0.50252659449E+02 0.55631858657E+02 0.60894741426E+02 0.66020727877E+02
 0.70889277184E+02 0.75250682566E+02 0.78757960333E+02 0.81047850831E+02 0.75380155024E+02
 0.74642938069E+02 0.72516395523E+02 0.69229004581E+02 0.65088582630E+02 0.60400507111E+02
 0.55405536568E+02 0.50252659449E+02 0.45019112454E+02 0.39755994260E+02 0.34541249027E+02
 0.29503929453E+02 0.24819236964E+02 0.20666237399E+02 0.17176132061E+02 0.14384694362E+02
 0.12218964124E+02 0.10515228414E+02 0.91667635656E+01 0.81352313980E+01 0.73679108307E+01
 0.68197686929E+01 0.64519000878E+01 0.62409711011E+01 0.61716343163E+01 0.62409711011E+01
 0.64519000878E+01 0.68197686929E+01 0.73679108307E+01 0.81352313980E+01 0.91667635656E+01
 0.10515228414E+02 0.12218964124E+02 0.14384694362E+02 0.17176132061E+02 0.20666237399E+02
 0.24819236964E+02 0.29503929453E+02 0.34541249027E+02 0.39755994260E+02 0.45019112454E+02
 0.50252659449E+02 0.55405536568E+02 0.60400507111E+02 0.65088582630E+02 0.69229004581E+02
 0.72516395523E+02 0.74642938069E+02 0.68758489132E+02 0.68070892157E+02 0.66079355547E+02
 0.62979166604E+02 0.59038320281E+02 0.54536380265E+02 0.49712787584E+02 0.44745055468E+02
 0.39755994260E+02 0.34843442646E+02 0.30108783293E+02 0.25674209715E+02 0.21671833587E+02
 0.18215149528E+02 0.15362440530E+02 0.13093372731E+02 0.11298599635E+02 0.98510144247E+01
 0.87058590696E+01 0.78255584831E+01 0.71663480627E+01 0.66898581273E+01 0.63674886185E+01
 0.61805549858E+01 0.61193175346E+01 0.61805549858E+01 0.63674886185E+01 0.66898581273E+01
 0.71663480627E+01 0.78255584831E+01 0.87058590696E+01 0.98510144247E+01 0.11298599635E+02
 0.13093372731E+02 0.15362440530E+02 0.18215149528E+02 0.21671833587E+02 0.25674209715E+02
 0.30108783293E+02 0.34843442646E+02 0.39755994260E+02 0.44745055468E+02 0.49712787584E+02
 0.54536380265E+02 0.59038320281E+02 0.62979166604E+02 0.66079355547E+02 0.68070892157E+02
 0.61635250173E+02 0.60998221637E+02 0.59148580090E+02 0.56256737739E+02 0.52562164285E+02
 0.48325614187E+02 0.43786459830E+02 0.39141137350E+02 0.34541249027E+02 0.30108783293E+02
 0.25951680214E+02 0.22171488570E+02 0.18854017418E+02 0.16054302240E+02 0.13772120820E+02
 0.11943736741E+02 0.10454404795E+02 0.92433654775E+01 0.82866213989E+01 0.75459188467E+01
 0.69863588732E+01 0.65768372535E+01 0.62970976416E+01 0.61332675402E+01 0.60795739430E+01
 0.61332675402E+01 0.62970976416E+01 0.65768372535E+01 0.69863588732E+01 0.75459188467E+01
 0.82866213989E+01 0.92433654775E+01 0.10454404795E+02 0.11943736741E+02 0.13772120820E+02
 0.16054302240E+02 0.18854017418E+02 0.22171488570E+02 0.25951680214E+02 0.30108783293E+02
 0.34541249027E+02 0.39141137350E+02 0.43786459830E+02 0.48325614187E+02 0.52562164285E+02
 0.56256737739E+02 0.59148580090E+02 0.60998221637E+02 0.53895181716E+02 0.53319437520E+02
 0.51646313366E+02 0.49025282376E+02 0.45671915381E+02 0.41827343603E+02 0.37724182970E+02
 0.33562458879E+02 0.29503929453E+02 0.25674209715E+02 0.22171488570E+02 0.19068180798E+02
 0.16409839406E+02 0.14200717849E+02 0.12401733152E+02 0.10922863280E+02 0.96961976944E+01
 0.87032013734E+01 0.79150252789E+01 0.73008204859E+01 0.68308131138E+01 0.64833954348E+01
 0.62429461408E+01 0.61015558534E+01 0.60546014868E+01 0.61015558534E+01 0.62429461408E+01
 0.64833954348E+01 0.68308131138E+01 0.73008204859E+01 0.79150252789E+01 0.87032013734E+01
 0.96961976944E+01 0.10922863280E+02 0.12401733152E+02 0.14200717849E+02 0.16409839406E+02
 0.19068180798E+02 0.22171488570E+02 0.25674209715E+02 0.29503929453E+02 0.33562458879E+02
 0.37724182970E+02 0.41827343603E+02 0.45671915381E+02 0.49025282376E+02 0.51646313366E+02
 0.53319437520E+02 0.45734315166E+02 0.45234946906E+02 0.43783074696E+02 0.41509096790E+02
 0.38602414664E+02 0.35280240066E+02 0.31756115723E+02 0.28218606604E+02 0.24819236964E+02
 0.21671833587E+02 0.18854017418E+02 0.16409839406E+02 0.14346945049E+02 0.12639182219E+02
 0.11218480054E+02 0.10022004131E+02 0.90332464325E+01 0.82324463876E+01 0.75936789588E+01
 0.70906437551E+01 0.67015640561E+01 0.64102340669E+01 0.62069353052E+01 0.60862773549E+01
 0.60463064897E+01 0.60862773549E+01 0.62069353052E+01 0.64102340669E+01 0.67015640561E+01
 0.70906437551E+01 0.75936789588E+01 0.82324463876E+01 0.90332464325E+01 0.10022004131E+02
 0.11218480054E+02 0.12639182219E+02 0.14346945049E+02 0.16409839406E+02 0.18854017418E+02
 0.21671833587E+02 0.24819236964E+02 0.28218606604E+02 0.31756115723E+02 0.35280240066E+02
 0.38602414664E+02 0.41509096790E+02 0.43783074696E+02 0.45234946906E+02 0.37607305564E+02
 0.37196411774E+02 0.36002629458E+02 0.34135126738E+02 0.31754212121E+02 0.29044845457E+02
 0.26190996599E+02 0.23355065762E+02 0.20666237399E+02 0.18215149528E+02 0.16054302240E+02
 0.14200717849E+02 0.12639182219E+02 0.11319396782E+02 0.10192010089E+02 0.92445653375E+01
 0.84640771885E+01 0.78300450696E+01 0.73204051525E+01 0.69148354177E+01 0.65974624377E+01
 0.63574992347E+01 0.61886845343E+01 0.60880716451E+01 0.60546014868E+01 0.60880716451E+01
 0.61886845343E+01 0.63574992347E+01 0.65974624377E+01 0.69148354177E+01 0.73204051525E+01
 0.78300450696E+01 0.84640771885E+01 0.92445653375E+01 0.10192010089E+02 0.11319396782E+02
 0.12639182219E+02 0.14200717849E+02 0.16054302240E+02 0.18215149528E+02 0.20666237399E+02
 0.23355065762E+02 0.26190996599E+02 0.29044845457E+02 0.31754212121E+02 0.34135126738E+02
 0.36002629458E+02 0.37196411774E+02 0.30075691349E+02 0.29757818345E+02 0.28835011623E+02
 0.27394210195E+02 0.25563155359E+02 0.23489714990E+02 0.21320494301E+02 0.19183360421E+02
 0.17176132061E+02 0.15362440530E+02 0.13772120820E+02 0.12401733152E+02 0.11218480054E+02
 0.10192010089E+02 0.93172365181E+01 0.85860043359E+01 0.79830290876E+01 0.74906632166E+01
 0.70913239993E+01 0.67705016239E+01 0.65172416533E+01 0.63244528129E+01 0.61881587818E+01
 0.61067110890E+01 0.60795739430E+01 0.61067110890E+01 0.61881587818E+01 0.63244528129E+01
 0.65172416533E+01 0.67705016239E+01 0.70913239993E+01 0.74906632166E+01 0.79830290876E+01
 0.85860043359E+01 0.93172365181E+01 0.10192010089E+02 0.11218480054E+02 0.12401733152E+02
 0.13772120820E+02 0.15362440530E+02 0.17176132061E+02 0.19183360421E+02 0.21320494301E+02
 0.23489714990E+02 0.25563155359E+02 0.27394210195E+02 0.28835011623E+02 0.29757818345E+02
 0.23623705014E+02 0.23393646663E+02 0.22726377315E+02 0.21686402099E+02 0.20368312518E+02
 0.18880947772E+02 0.17331041858E+02 0.15809923788E+02 0.14384694362E+02 0.13093372731E+02
 0.11943736741E+02 0.10922863280E+02 0.10022004131E+02 0.92445653375E+01 0.85860043359E+01
 0.80359061728E+01 0.75809760625E+01 0.72070265038E+01 0.69017480497E+01 0.66548784447E+01
 0.64590239362E+01 0.63094262981E+01 0.62036012014E+01 0.61403548413E+01 0.61193175346E+01
 0.61403548413E+01 0.62036012014E+01 0.63094262981E+01 0.64590239362E+01 0.66548784447E+01
 0.69017480497E+01 0.72070265038E+01 0.75809760625E+01 0.80359061728E+01 0.85860043359E+01
 0.92445653375E+01 0.10022004131E+02 0.10922863280E+02 0.11943736741E+02 0.13093372731E+02
 0.14384694362E+02 0.15809923788E+02 0.17331041858E+02 0.18880947772E+02 0.20368312518E+02
 0.21686402099E+02 0.22726377315E+02 0.23393646663E+02 0.18517670099E+02 0.18361508914E+02
 0.17908708259E+02 0.17203301960E+02 0.16309598088E+02 0.15300917833E+02 0.14247886376E+02
 0.13207980827E+02 0.12218964124E+02 0.11298599635E+02 0.10454404795E+02 0.96961976944E+01
 0.90332464325E+01 0.84640771885E+01 0.79830290876E+01 0.75809760625E+01 0.72472363973E+01
 0.69721519299E+01 0.67468592670E+01 0.65644151621E+01 0.64198517717E+01 0.63099986542E+01
 0.62327452233E+01 0.61868680433E+01 0.61716343163E+01 0.61868680433E+01 0.62327452233E+01
 0.63099986542E+01 0.64198517717E+01 0.65644151621E+01 0.67468592670E+01 0.69721519299E+01
 0.72472363973E+01 0.75809760625E+01 0.79830290876E+01 0.84640771885E+01 0.90332464325E+01
 0.96961976944E+01 0.10454404795E+02 0.11298599635E+02 0.12218964124E+02 0.13207980827E+02
 0.14247886376E+02 0.15300917833E+02 0.16309598088E+02 0.17203301960E+02 0.17908708259E+02
 0.18361508914E+02 0.14747511416E+02 0.14646550101E+02 0.14353376713E+02 0.13895088543E+02
 0.13310786228E+02 0.12643969762E+02 0.11935105712E+02 0.11217117471E+02 0.10515228414E+02
 0.98510144247E+01 0.92433654775E+01 0.87032013734E+01 0.82324463876E+01 0.78300450696E+01
 0.74906632166E+01 0.72070265038E+01 0.69721519299E+01 0.67790659880E+01 0.66217780131E+01
 0.64956843823E+01 0.63973540793E+01 0.63239692543E+01 0.62732954983E+01 0.62436002729E+01
 0.62338331805E+01 0.62436002729E+01 0.62732954983E+01 0.63239692543E+01 0.63973540793E+01
 0.64956843823E+01 0.66217780131E+01 0.67790659880E+01 0.69721519299E+01 0.72070265038E+01
 0.74906632166E+01 0.78300450696E+01 0.82324463876E+01 0.87032013734E+01 0.92433654775E+01
 0.98510144247E+01 0.10515228414E+02 0.11217117471E+02 0.11935105712E+02 0.12643969762E+02
 0.13310786228E+02 0.13895088543E+02 0.14353376713E+02 0.14646550101E+02 0.12063921526E+02
 0.11998213733E+02 0.11806420191E+02 0.11503559889E+02 0.11111403754E+02 0.10655652101E+02
 0.10162701431E+02 0.96585050930E+01 0.91667635656E+01 0.87058590696E+01 0.82866213989E+01
 0.79150252789E+01 0.75936789588E+01 0.73204051525E+01 0.70913239993E+01 0.69017480497E+01
 0.67468592670E+01 0.66217780131E+01 0.65225488432E+01 0.64459342086E+01 0.63888585722E+01
 0.63483238453E+01 0.63216268700E+01 0.63065776861E+01 0.63017309060E+01 0.63065776861E+01
 0.63216268700E+01 0.63483238453E+01 0.63888585722E+01 0.64459342086E+01 0.65225488432E+01
 0.66217780131E+01 0.67468592670E+01 0.69017480497E+01 0.70913239993E+01 0.73204051525E+01
 0.75936789588E+01 0.79150252789E+01 0.82866213989E+01 0.87058590696E+01 0.91667635656E+01
 0.96585050930E+01 0.10162701431E+02 0.10655652101E+02 0.11111403754E+02 0.11503559889E+02
 0.11806420191E+02 0.11998213733E+02 0.10104542586E+02 0.10059845025E+02 0.99291333240E+01
 0.97221031366E+01 0.94536189297E+01 0.91419454032E+01 0.88067072094E+01 0.84661317247E+01
 0.81352313980E+01 0.78255584831E+01 0.75459188467E+01 0.73008204859E+01 0.70906437551E+01
 0.69148354177E+01 0.67705016239E+01 0.66548784447E+01 0.65644151621E+01 0.64956843823E+01
 0.64459342086E+01 0.64121669298E+01 0.63910407794E+01 0.63791472960E+01 0.63733579804E+01
 0.63710494463E+01 0.63704899981E+01 0.63710494463E+01 0.63733579804E+01 0.63791472960E+01
 0.63910407794E+01 0.64121669298E+01 0.64459342086E+01 0.64956843823E+01 0.65644151621E+01
 0.66548784447E+01 0.67705016239E+01 0.69148354177E+01 0.70906437551E+01 0.73008204859E+01
 0.75459188467E+01 0.78255584831E+01 0.81352313980E+01 0.84661317247E+01 0.88067072094E+01
 0.91419454032E+01 0.94536189297E+01 0.97221031366E+01 0.99291333240E+01 0.10059845025E+02
 0.86731134326E+01 0.86433492983E+01 0.85564006935E+01 0.84188542820E+01 0.82407494346E+01
 0.80341277300E+01 0.78117218411E+01 0.75859032749E+01 0.73679108307E+01 0.71663480627E+01
 0.69863588732E+01 0.68308131138E+01 0.67015640561E+01 0.65974624377E+01 0.65172416533E+01
 0.64590239362E+01 0.64198517717E+01 0.63973540793E+01 0.63888585722E+01 0.63910407794E+01
 0.64000765216E+01 0.64122218011E+01 0.64239098892E+01 0.64322603370E+01 0.64352632845E+01
 0.64322603370E+01 0.64239098892E+01 0.64122218011E+01 0.64000765216E+01 0.63910407794E+01
 0.63888585722E+01 0.63973540793E+01 0.64198517717E+01 0.64590239362E+01 0.65172416533E+01
 0.65974624377E+01 0.67015640561E+01 0.68308131138E+01 0.69863588732E+01 0.71663480627E+01
 0.73679108307E+01 0.75859032749E+01 0.78117218411E+01 0.80341277300E+01 0.82407494346E+01
 0.84188542820E+01 0.85564006935E+01 0.86433492983E+01 0.76833402622E+01 0.76634749544E+01
 0.76054127689E+01 0.75135266522E+01 0.73945883539E+01 0.72569718529E+01 0.71098101543E+01
 0.69616731705E+01 0.68197686929E+01 0.66898581273E+01 0.65768372535E+01 0.64833954348E+01
 0.64102340669E+01 0.63574992347E+01 0.63244528129E+01 0.63094262981E+01 0.63099986542E+01
 0.63239692543E+01 0.63483238453E+01 0.63791472960E+01 0.64122218011E+01 0.64434175842E+01
 0.64689565519E+01 0.64856907263E+01 0.64915142121E+01 0.64856907263E+01 0.64689565519E+01
 0.64434175842E+01 0.64122218011E+01 0.63791472960E+01 0.63483238453E+01 0.63239692543E+01
 0.63099986542E+01 0.63094262981E+01 0.63244528129E+01 0.63574992347E+01 0.64102340669E+01
 0.64833954348E+01 0.65768372535E+01 0.66898581273E+01 0.68197686929E+01 0.69616731705E+01
 0.71098101543E+01 0.72569718529E+01 0.73945883539E+01 0.75135266522E+01 0.76054127689E+01
 0.76634749544E+01 0.70426794857E+01 0.70289850727E+01 0.69889793791E+01 0.69257408956E+01
 0.68439841779E+01 0.67494767045E+01 0.66484357938E+01 0.65472118277E+01 0.64519000878E+01
 0.63674886185E+01 0.62970976416E+01 0.62429461408E+01 0.62069353052E+01 0.61886845343E+01
 0.61881587818E+01 0.62036012014E+01 0.62327452233E+01 0.62732954983E+01 0.63216268700E+01
 0.63733579804E+01 0.64239098892E+01 0.64689565519E+01 0.65044927275E+01 0.65272618020E+01
 0.65350965184E+01 0.65272618020E+01 0.65044927275E+01 0.64689565519E+01 0.64239098892E+01
 0.63733579804E+01 0.63216268700E+01 0.62732954983E+01 0.62327452233E+01 0.62036012014E+01
 0.61881587818E+01 0.61886845343E+01 0.62069353052E+01 0.62429461408E+01 0.62970976416E+01
 0.63674886185E+01 0.64519000878E+01 0.65472118277E+01 0.66484357938E+01 0.67494767045E+01
 0.68439841779E+01 0.69257408956E+01 0.69889793791E+01 0.70289850727E+01 0.66870377847E+01
 0.66765374612E+01 0.66458324495E+01 0.65972865341E+01 0.65345768609E+01 0.64624238013E+01
 0.63861116999E+01 0.63108047833E+01 0.62409711011E+01 0.61805549858E+01 0.61332675402E+01
 0.61015558534E+01 0.60862773549E+01 0.60880716451E+01 0.61067110890E+01 0.61403548413E+01
 0.61868680433E+01 0.62436002729E+01 0.63065776861E+01 0.63710494463E+01 0.64322603370E+01
 0.64856907263E+01 0.65272618020E+01 0.65536448290E+01 0.65626933501E+01 0.65536448290E+01
 0.65272618020E+01 0.64856907263E+01 0.64322603370E+01 0.63710494463E+01 0.63065776861E+01
 0.62436002729E+01 0.61868680433E+01 0.61403548413E+01 0.61067110890E+01 0.60880716451E+01
 0.60862773549E+01 0.61015558534E+01 0.61332675402E+01 0.61805549858E+01 0.62409711011E+01
 0.63108047833E+01 0.63861116999E+01 0.64624238013E+01 0.65345768609E+01 0.65972865341E+01
 0.66458324495E+01 0.66765374612E+01 0.65721384790E+01 0.65626933501E+01 0.65350965184E+01
 0.64915142121E+01 0.64352632845E+01 0.63704899981E+01 0.63017309060E+01 0.62338331805E+01
 0.61716343163E+01 0.61193175346E+01 0.60795739430E+01 0.60546014868E+01 0.60463064897E+01
 0.60546014868E+01 0.60795739430E+01 0.61193175346E+01 0.61716343163E+01 0.62338331805E+01
 0.63017309060E+01 0.63704899981E+01 0.64352632845E+01 0.64915142121E+01 0.65350965184E+01
 0.65626933501E+01 0.65721384790E+01 0.65626933501E+01 0.65350965184E+01 0.64915142121E+01
 0.64352632845E+01 0.63704899981E+01 0.63017309060E+01 0.62338331805E+01 0.61716343163E+01
 0.61193175346E+01 0.60795739430E+01 0.60546014868E+01 0.60463064897E+01 0.60546014868E+01
 0.60795739430E+01 0.61193175346E+01 0.61716343163E+01 0.62338331805E+01 0.63017309060E+01
 0.63704899981E+01 0.64352632845E+01 0.64915142121E+01 0.65350965184E+01 0.65626933501E+01
 0.66870377847E+01 0.66765374612E+01 0.66458324495E+01 0.65972865341E+01 0.65345768609E+01
 0.64624238013E+01 0.63861116999E+01 0.63108047833E+01 0.62409711011E+01 0.61805549858E+01
 0.61332675402E+01 0.61015558534E+01 0.60862773549E+01 0.60880716451E+01 0.61067110890E+01
 0.61403548413E+01 0.61868680433E+01 0.62436002729E+01 0.63065776861E+01 0.63710494463E+01
 0.64322603370E+01 0.64856907263E+01 0.65272618020E+01 0.65536448290E+01 0.65626933501E+01
 0.65536448290E+01 0.65272618020E+01 0.64856907263E+01 0.64322603370E+01 0.63710494463E+01
 0.63065776861E+01 0.62436002729E+01 0.61868680433E+01 0.61403548413E+01 0.61067110890E+01
 0.60880716451E+01 0.60862773549E+01 0.61015558534E+01 0.61332675402E+01 0.61805549858E+01
 0.62409711011E+01 0.63108047833E+01 0.63861116999E+01 0.64624238013E+01 0.65345768609E+01
 0.65972865341E+01 0.66458324495E+01 0.66765374612E+01 0.70426794857E+01 0.70289850727E+01
 0.69889793791E+01 0.69257408956E+01 0.68439841779E+01 0.67494767045E+01 0.66484357938E+01
 0.65472118277E+01 0.64519000878E+01 0.63674886185E+01 0.62970976416E+01 0.62429461408E+01
 0.62069353052E+01 0.61886845343E+01 0.61881587818E+01 0.62036012014E+01 0.62327452233E+01
 0.62732954983E+01 0.63216268700E+01 0.63733579804E+01 0.64239098892E+01 0.64689565519E+01
 0.65044927275E+01 0.65272618020E+01 0.65350965184E+01 0.65272618020E+01 0.65044927275E+01
 0.64689565519E+01 0.64239098892E+01 0.63733579804E+01 0.63216268700E+01 0.62732954983E+01
 0.62327452233E+01 0.62036012014E+01 0.61881587818E+01 0.61886845343E+01 0.62069353052E+01
 0.62429461408E+01 0.62970976416E+01 0.63674886185E+01 0.64519000878E+01 0.65472118277E+01
 0.66484357938E+01 0.67494767045E+01 0.68439841779E+01 0.69257408956E+01 0.69889793791E+01
 0.70289850727E+01 0.76833402622E+01 0.76634749544E+01 0.76054127689E+01 0.75135266522E+01
 0.73945883539E+01 0.72569718529E+01 0.71098101543E+01 0.69616731705E+01 0.68197686929E+01
 0.66898581273E+01 0.65768372535E+01 0.64833954348E+01 0.64102340669E+01 0.63574992347E+01
 0.63244528129E+01 0.63094262981E+01 0.63099986542E+01 0.63239692543E+01 0.63483238453E+01
 0.63791472960E+01 0.64122218011E+01 0.64434175842E+01 0.64689565519E+01 0.64856907263E+01
 0.64915142121E+01 0.64856907263E+01 0.64689565519E+01 0.64434175842E+01 0.64122218011E+01
 0.63791472960E+01 0.63483238453E+01 0.63239692543E+01 0.63099986542E+01 0.63094262981E+01
 0.63244528129E+01 0.63574992347E+01 0.64102340669E+01 0.64833954348E+01 0.65768372535E+01
 0.66898581273E+01 0.68197686929E+01 0.69616731705E+01 0.71098101543E+01 0.72569718529E+01
 0.73945883539E+01 0.75135266522E+01 0.76054127689E+01 0.76634749544E+01 0.86731134326E+01
 0.86433492983E+01 0.85564006935E+01 0.84188542820E+01 0.82407494346E+01 0.80341277300E+01
 0.78117218411E+01 0.75859032749E+01 0.73679108307E+01 0.71663480627E+01 0.69863588732E+01
 0.68308131138E+01 0.67015640561E+01 0.65974624377E+01 0.65172416533E+01 0.64590239362E+01
 0.64198517717E+01 0.63973540793E+01 0.63888585722E+01 0.63910407794E+01 0.64000765216E+01
 0.64122218011E+01 0.64239098892E+01 0.64322603370E+01 0.64352632845E+01 0.64322603370E+01
 0.64239098892E+01 0.64122218011E+01 0.64000765216E+01 0.63910407794E+01 0.63888585722E+01
 0.63973540793E+01 0.64198517717E+01 0.64590239362E+01 0.65172416533E+01 0.65974624377E+01
 0.67015640561E+01 0.68308131138E+01 0.69863588732E+01 0.71663480627E+01 0.73679108307E+01
 0.75859032749E+01 0.78117218411E+01 0.80341277300E+01 0.82407494346E+01 0.84188542820E+01
 0.85564006935E+01 0.86433492983E+01 0.10104542586E+02 0.10059845025E+02 0.99291333240E+01
 0.97221031366E+01 0.94536189297E+01 0.91419454032E+01 0.88067072094E+01 0.84661317247E+01
 0.81352313980E+01 0.78255584831E+01 0.75459188467E+01 0.73008204859E+01 0.70906437551E+01
 0.69148354177E+01 0.67705016239E+01 0.66548784447E+01 0.65644151621E+01 0.64956843823E+01
 0.64459342086E+01 0.64121669298E+01 0.63910407794E+01 0.63791472960E+01 0.63733579804E+01
 0.63710494463E+01 0.63704899981E+01 0.63710494463E+01 0.63733579804E+01 0.63791472960E+01
 0.63910407794E+01 0.64121669298E+01 0.64459342086E+01 0.64956843823E+01 0.65644151621E+01
 0.66548784447E+01 0.67705016239E+01 0.69148354177E+01 0.70906437551E+01 0.73008204859E+01
 0.75459188467E+01 0.78255584831E+01 0.81352313980E+01 0.84661317247E+01 0.88067072094E+01
 0.91419454032E+01 0.94536189297E+01 0.97221031366E+01 0.99291333240E+01 0.10059845025E+02
 0.12063921526E+02 0.11998213733E+02 0.11806420191E+02 0.11503559889E+02 0.11111403754E+02
 0.10655652101E+02 0.10162701431E+02 0.96585050930E+01 0.91667635656E+01 0.87058590696E+01
 0.82866213989E+01 0.79150252789E+01 0.75936789588E+01 0.73204051525E+01 0.70913239993E+01
 0.69017480497E+01 0.67468592670E+01 0.66217780131E+01 0.65225488432E+01 0.64459342086E+01
 0.63888585722E+01 0.63483238453E+01 0.63216268700E+01 0.63065776861E+01 0.63017309060E+01
 0.63065776861E+01 0.63216268700E+01 0.63483238453E+01 0.63888585722E+01 0.64459342086E+01
 0.65225488432E+01 0.66217780131E+01 0.67468592670E+01 0.69017480497E+01 0.70913239993E+01
 0.73204051525E+01 0.75936789588E+01 0.79150252789E+01 0.82866213989E+01 0.87058590696E+01
 0.91667635656E+01 0.96585050930E+01 0.10162701431E+02 0.10655652101E+02 0.11111403754E+02
 0.11503559889E+02 0.11806420191E+02 0.11998213733E+02 0.14747511416E+02 0.14646550101E+02
 0.14353376713E+02 0.13895088543E+02 0.13310786228E+02 0.12643969762E+02 0.11935105712E+02
 0.11217117471E+02 0.10515228414E+02 0.98510144247E+01 0.92433654775E+01 0.87032013734E+01
 0.82324463876E+01 0.78300450696E+01 0.74906632166E+01 0.72070265038E+01 0.69721519299E+01
 0.67790659880E+01 0.66217780131E+01 0.64956843823E+01 0.63973540793E+01 0.63239692543E+01
 0.62732954983E+01 0.62436002729E+01 0.62338331805E+01 0.62436002729E+01 0.62732954983E+01
 0.63239692543E+01 0.63973540793E+01 0.64956843823E+01 0.66217780131E+01 0.67790659880E+01
 0.69721519299E+01 0.72070265038E+01 0.74906632166E+01 0.78300450696E+01 0.82324463876E+01
 0.87032013734E+01 0.92433654775E+01 0.98510144247E+01 0.10515228414E+02 0.11217117471E+02
 0.11935105712E+02 0.12643969762E+02 0.13310786228E+02 0.13895088543E+02 0.14353376713E+02
 0.14646550101E+02 0.18517670099E+02 0.18361508914E+02 0.17908708259E+02 0.17203301960E+02
 0.16309598088E+02 0.15300917833E+02 0.14247886376E+02 0.13207980827E+02 0.12218964124E+02
 0.11298599635E+02 0.10454404795E+02 0.96961976944E+01 0.90332464325E+01 0.84640771885E+01
 0.79830290876E+01 0.75809760625E+01 0.72472363973E+01 0.69721519299E+01 0.67468592670E+01
 0.65644151621E+01 0.64198517717E+01 0.63099986542E+01 0.62327452233E+01 0.61868680433E+01
 0.61716343163E+01 0.61868680433E+01 0.62327452233E+01 0.63099986542E+01 0.64198517717E+01
 0.65644151621E+01 0.67468592670E+01 0.69721519299E+01 0.72472363973E+01 0.75809760625E+01
 0.79830290876E+01 0.84640771885E+01 0.90332464325E+01 0.96961976944E+01 0.10454404795E+02
 0.11298599635E+02 0.12218964124E+02 0.13207980827E+02 0.14247886376E+02 0.15300917833E+02
 0.16309598088E+02 0.17203301960E+02 0.17908708259E+02 0.18361508914E+02 0.23623705014E+02
 0.23393646663E+02 0.22726377315E+02 0.21686402099E+02 0.20368312518E+02 0.18880947772E+02
 0.17331041858E+02 0.15809923788E+02 0.14384694362E+02 0.13093372731E+02 0.11943736741E+02
 0.10922863280E+02 0.10022004131E+02 0.92445653375E+01 0.85860043359E+01 0.80359061728E+01
 0.75809760625E+01 0.72070265038E+01 0.69017480497E+01 0.66548784447E+01 0.64590239362E+01
 0.63094262981E+01 0.62036012014E+01 0.61403548413E+01 0.61193175346E+01 0.61403548413E+01
 0.62036012014E+01 0.63094262981E+01 0.64590239362E+01 0.66548784447E+01 0.69017480497E+01
 0.72070265038E+01 0.75809760625E+01 0.80359061728E+01 0.85860043359E+01 0.92445653375E+01
 0.10022004131E+02 0.10922863280E+02 0.11943736741E+02 0.13093372731E+02 0.14384694362E+02
 0.15809923788E+02 0.17331041858E+02 0.18880947772E+02 0.20368312518E+02 0.21686402099E+02