    2    2   80    1
  0.1489550E+02  0.3100000E-09  0.3100000E-09  0.3100000E-09  0.5000000E-15
  1.000000000000000E-004
  CAR 
 unknown system                          
     20     35     14
 
  0.0000000E+00  0.0000000E+00  0.0000000E+00  0.1371742E-02
    1       -2.524919   1.000000
    2        0.901431   1.000000
    3        0.901431   1.000000
    4        3.448549   1.000000
    5        3.448549   1.000000
    6        3.448549   1.000000
    7        5.923617   1.000000
    8        5.923617   1.000000
    9        7.408269   0.000237
   10        7.408269   0.000237
   11        7.408269   0.000237
   12       14.671615   0.000000
   13       14.671615   0.000000
   14       14.671615   0.000000
 
  0.1111111E+00  0.0000000E+00  0.0000000E+00  0.8230453E-02
    1       -2.275097   1.000000
    2        1.021003   1.000000
    3        1.064026   1.000000
    4        3.453973   1.000000
    5        3.453973   1.000000
    6        3.547566   1.000000
    7        5.725477   1.000000
    8        5.997722   1.000000
    9        7.002157   0.266382
   10        7.002157   0.266382
   11        7.260920   0.007073
   12       13.278833   0.000000
   13       15.372122   0.000000
   14       15.372122   0.000000
 
  0.2222222E+00  0.0000000E+00  0.0000000E+00  0.8230453E-02
    1       -1.553904   1.000000
    2        1.373129   1.000000
    3        1.472508   1.000000
    4        3.495982   1.000000
    5        3.495982   1.000000
    6        3.838010   1.000000
    7        5.178422   1.000000
    8        6.123805   1.000000
    9        6.123805   1.000000
   10        6.191607   1.000000
   11        6.849843   0.674809
   12       10.906679   0.000000
   13       17.120129   0.000000
   14       17.120129   0.000000
 
  0.3333333E+00  0.0000000E+00  0.0000000E+00  0.8230453E-02
    1       -0.459163   1.000000
    2        1.851472   1.000000
    3        1.937033   1.000000
    4        3.636809   1.000000
    5        3.636809   1.000000
    6        4.299395   1.000000
    7        4.399481   1.000000
    8        5.212989   1.000000
    9        5.212989   1.000000
   10        6.254163   0.999998
   11        6.435473   0.999642
   12        8.758014   0.000000
   13       19.430751   0.000000
   14       19.430751   0.000000
 
  0.4444444E+00  0.0000000E+00  0.0000000E+00  0.8230453E-02
    1        0.783081   1.000000
    2        1.704253   1.000000
    3        2.674643   1.000000
    4        3.525182   1.000000
    5        3.944616   1.000000
    6        3.944616   1.000000
    7        4.467156   1.000000
    8        4.467156   1.000000
    9        4.895523   1.000000
   10        5.571972   1.000000
   11        6.716770   0.918371
   12        7.329899   0.001634
   13       21.398203   0.000000
   14       22.009953   0.000000
 
  0.1111111E+00  0.1111111E+00  0.0000000E+00  0.1646091E-01
    1       -2.034305   1.000000
    2        1.147080   1.000000
    3        1.213276   1.000000
    4        3.262716   1.000000
    5        3.444697   1.000000
    6        3.844909   1.000000
    7        5.708617   1.000000
    8        5.939257   1.000000
    9        6.370308   0.999939
   10        6.589222   0.989165
   11        7.466467   0.000047
   12       13.774545   0.000000
   13       14.134311   0.000000
   14       15.937260   0.000000
 
  0.2222222E+00  0.1111111E+00  0.0000000E+00  0.3292181E-01
    1       -1.345297   1.000000
    2        1.456468   1.000000
    3        1.634411   1.000000
    4        3.150035   1.000000
    5        3.450163   1.000000
    6        4.291967   1.000000
    7        5.317147   1.000000
    8        5.451586   1.000000
    9        5.749300   1.000000
   10        6.108076   1.000000
   11        7.308681   0.002625
   12       11.516574   0.000000
   13       15.512783   0.000000
   14       17.449268   0.000000
 
  0.3333333E+00  0.1111111E+00  0.0000000E+00  0.3292181E-01
    1       -0.321504   1.000000
    2        1.815410   1.000000
    3        2.124699   1.000000
    4        3.190463   1.000000
    5        3.494174   1.000000
    6        4.581522   1.000000
    7        4.755377   1.000000
    8        4.848763   1.000000
    9        5.024181   1.000000
   10        6.374422   0.999932
   11        6.827380   0.729753
   12        9.235019   0.000000
   13       17.340784   0.000000
   14       19.572159   0.000000
 
  0.4444444E+00  0.1111111E+00  0.0000000E+00  0.3292181E-01
    1        0.802486   1.000000
    2        1.647454   1.000000
    3        2.714037   1.000000
    4        3.305260   1.000000
    5        3.427184   1.000000
    6        3.890611   1.000000
    7        4.495567   1.000000
    8        4.665473   1.000000
    9        5.494842   1.000000
   10        6.181881   1.000000
   11        6.717922   0.917134
   12        7.548124   0.000004
   13       19.032161   0.000000
   14       20.648674   0.000000
 
  0.2222222E+00  0.2222222E+00  0.0000000E+00  0.1646091E-01
    1       -0.774442   1.000000
    2        1.576138   1.000000
    3        2.131986   1.000000
    4        2.820925   1.000000
    5        3.439905   1.000000
    6        4.518363   1.000000
    7        4.953371   1.000000
    8        5.104302   1.000000
    9        5.491514   1.000000
   10        6.002372   1.000000
   11        7.616194   0.000000
   12       12.591660   0.000000
   13       13.165943   0.000000
   14       18.443557   0.000000
 
  0.3333333E+00  0.2222222E+00  0.0000000E+00  0.3292181E-01
    1       -0.011319   1.000000
    2        1.570198   1.000000
    3        2.677727   1.000000
    4        2.752770   1.000000
    5        3.598885   1.000000
    6        3.705199   1.000000
    7        4.816638   1.000000
    8        5.316947   1.000000
    9        5.667427   1.000000
   10        6.216079   1.000000
   11        7.491800   0.000022
   12       10.224603   0.000000
   13       14.608476   0.000000
   14       20.052741   0.000000
 
  0.4444444E+00  0.2222222E+00  0.0000000E+00  0.3292181E-01
    1        0.714468   1.000000
    2        1.268452   1.000000
    3        2.765569   1.000000
    4        3.108567   1.000000
    5        3.294505   1.000000
    6        3.650869   1.000000
    7        5.025659   1.000000
    8        5.215785   1.000000
    9        6.384931   0.999908
   10        6.718960   0.916009
   11        7.031833   0.202245
   12        8.075714   0.000000
   13       16.315744   0.000000
   14       18.174432   0.000000
 
  0.3333333E+00  0.3333333E+00  0.0000000E+00  0.1646091E-01
    1        0.275626   1.000000
    2        1.190543   1.000000
    3        2.360675   1.000000
    4        2.983406   1.000000
    5        3.604368   1.000000
    6        4.259045   1.000000
    7        4.932285   1.000000
    8        5.660272   1.000000
    9        6.118292   1.000000
   10        6.477509   0.998986
   11        7.790797   0.000000
   12       10.381259   0.000000
   13       13.081999   0.000000
   14       17.948269   0.000000
 
  0.4444444E+00  0.3333333E+00  0.0000000E+00  0.3292181E-01
    1        0.515922   1.000000
    2        0.811161   1.000000
    3        2.294241   1.000000
    4        2.502352   1.000000
    5        4.354927   1.000000
    6        4.736012   1.000000
    7        5.356360   1.000000
    8        5.723837   1.000000
    9        6.685629   0.946779
   10        7.179418   0.030244
   11        7.659729   0.000000
   12        8.493031   0.000000
   13       14.052550   0.000000
   14       15.786819   0.000000
 
  0.4444444E+00  0.4444444E+00  0.0000000E+00  0.1646091E-01
    1        0.409646   1.000000
    2        0.503101   1.000000
    3        2.080379   1.000000
    4        2.149952   1.000000
    5        5.503931   1.000000
    6        5.612133   1.000000
    7        5.664315   1.000000
    8        6.222466   0.999999
    9        6.672272   0.956260
   10        7.727443   0.000000
   11        7.907343   0.000000
   12        8.005955   0.000000
   13       13.129444   0.000000
   14       13.925530   0.000000
 
  0.1111111E+00  0.1111111E+00  0.1111111E+00  0.1097394E-01
    1       -1.799664   1.000000
    2        1.315942   1.000000
    3        1.315942   1.000000
    4        3.243822   1.000000
    5        3.243822   1.000000
    6        4.157295   1.000000
    7        5.558186   1.000000
    8        5.802554   1.000000
    9        5.802554   1.000000
   10        7.065333   0.142195
   11        7.065333   0.142195
   12       13.946513   0.000000
   13       14.805631   0.000000
   14       14.805631   0.000000
 
  0.2222222E+00  0.1111111E+00  0.1111111E+00  0.3292181E-01
    1       -1.133510   1.000000
    2        1.613007   1.000000
    3        1.728100   1.000000
    4        3.072158   1.000000
    5        3.203890   1.000000
    6        4.620753   1.000000
    7        4.699009   1.000000
    8        5.430500   1.000000
    9        6.038520   1.000000
   10        6.218714   1.000000
   11        7.123656   0.069048
   12       12.042200   0.000000
   13       15.371749   0.000000
   14       16.440056   0.000000
 
  0.3333333E+00  0.1111111E+00  0.1111111E+00  0.3292181E-01
    1       -0.163364   1.000000
    2        2.017985   1.000000
    3        2.066465   1.000000
    4        3.119998   1.000000
    5        3.155637   1.000000
    6        3.973707   1.000000
    7        4.952162   1.000000
    8        5.343501   1.000000
    9        5.384691   1.000000
   10        6.329444   0.999982
   11        6.769211   0.846937
   12        9.766517   0.000000
   13       16.785984   0.000000
   14       18.500424   0.000000
 
  0.4444444E+00  0.1111111E+00  0.1111111E+00  0.3292181E-01
    1        0.869774   1.000000
    2        1.686904   1.000000
    3        2.589252   1.000000
    4        2.999424   1.000000
    5        3.419785   1.000000
    6        3.738732   1.000000
    7        4.642298   1.000000
    8        4.801246   1.000000
    9        5.928670   1.000000
   10        6.300946   0.999993
   11        6.813610   0.760972
   12        7.957086   0.000000
   13       18.306305   0.000000
   14       19.993096   0.000000
 
  0.2222222E+00  0.2222222E+00  0.1111111E+00  0.3292181E-01
    1       -0.556214   1.000000
    2        1.781982   1.000000
    3        2.181904   1.000000
    4        2.783235   1.000000
    5        3.118091   1.000000
    6        3.747501   1.000000
    7        5.412797   1.000000
    8        5.585733   1.000000
    9        5.807926   1.000000
   10        5.959105   1.000000
   11        7.209991   0.018157
   12       13.176117   0.000000
   13       13.241539   0.000000
   14       17.004124   0.000000
 
  0.3333333E+00  0.2222222E+00  0.1111111E+00  0.6584362E-01
    1        0.198626   1.000000
    2        1.770001   1.000000
    3        2.643826   1.000000
    4        2.647770   1.000000
    5        3.225625   1.000000
    6        3.343246   1.000000
    7        5.279747   1.000000
    8        5.382173   1.000000
    9        6.108530   1.000000
   10        6.309528   0.999990
   11        7.080716   0.119142
   12       10.798651   0.000000
   13       14.595064   0.000000
   14       18.430362   0.000000
 
  0.4444444E+00  0.2222222E+00  0.1111111E+00  0.6584362E-01
    1        0.879070   1.000000
    2        1.413138   1.000000
    3        2.674928   1.000000
    4        2.728688   1.000000
    5        3.469056   1.000000
    6        3.496182   1.000000
    7        5.147499   1.000000
    8        5.200694   1.000000
    9        6.313359   0.999989
   10        6.645158   0.971321
   11        7.335900   0.001424
   12        8.788419   0.000000
   13       16.155003   0.000000
   14       18.004177   0.000000
 
  0.3333333E+00  0.3333333E+00  0.1111111E+00  0.3292181E-01
    1        0.513908   1.000000
    2        1.362279   1.000000
    3        2.337251   1.000000
    4        2.784768   1.000000
    5        3.553336   1.000000
    6        3.768112   1.000000
    7        5.221063   1.000000
    8        5.674427   1.000000
    9        6.118980   1.000000
   10        7.149219   0.048088
   11        7.277620   0.005061
   12       11.184183   0.000000
   13       12.968363   0.000000
   14       17.890712   0.000000
 
  0.4444444E+00  0.3333333E+00  0.1111111E+00  0.6584362E-01
    1        0.728919   1.000000
    2        0.989248   1.000000
    3        2.274081   1.000000
    4        2.443480   1.000000
    5        4.242069   1.000000
    6        4.391215   1.000000
    7        5.458949   1.000000
    8        5.670945   1.000000
    9        6.347569   0.999969
   10        6.955063   0.385608
   11        8.141090   0.000000
   12        9.524299   0.000000
   13       13.965561   0.000000
   14       15.701611   0.000000
 
  0.4444444E+00  0.4444444E+00  0.1111111E+00  0.3292181E-01
    1        0.628553   1.000000
    2        0.706798   1.000000
    3        2.075643   1.000000
    4        2.140916   1.000000
    5        5.260962   1.000000
    6        5.508680   1.000000
    7        5.694886   1.000000
    8        5.874833   1.000000
    9        6.230211   0.999999
   10        6.797882   0.794077
   11        8.903054   0.000000
   12        9.575555   0.000000
   13       12.981613   0.000000
   14       13.819987   0.000000
 
  0.2222222E+00  0.2222222E+00  0.2222222E+00  0.1097394E-01
    1        0.031004   1.000000
    2        2.311183   1.000000
    3        2.311183   1.000000
    4        2.698810   1.000000
    5        2.698810   1.000000
    6        2.871542   1.000000
    7        5.829755   1.000000
    8        5.829755   1.000000
    9        6.282475   0.999996
   10        6.433318   0.999661
   11        6.433318   0.999661
   12       13.177184   0.000000
   13       14.733860   0.000000
   14       14.733860   0.000000
 
  0.3333333E+00  0.2222222E+00  0.2222222E+00  0.3292181E-01
    1        0.728802   1.000000
    2        2.060901   1.000000
    3        2.459889   1.000000
    4        2.624733   1.000000
    5        2.652607   1.000000
    6        3.084172   1.000000
    7        5.637746   1.000000
    8        5.785879   1.000000
    9        6.113402   1.000000
   10        6.579283   0.991018
   11        7.257384   0.007580
   12       11.810962   0.000000
   13       14.337499   0.000000
   14       16.522177   0.000000
 
  0.4444444E+00  0.2222222E+00  0.2222222E+00  0.3292181E-01
    1        1.188049   1.000000
    2        1.551729   1.000000
    3        2.555708   1.000000
    4        2.589455   1.000000
    5        3.123429   1.000000
    6        3.449765   1.000000
    7        5.466299   1.000000
    8        5.466431   1.000000
    9        6.280899   0.999996
   10        6.405125   0.999840
   11        8.401139   0.000000
   12        9.899201   0.000000
   13       15.430820   0.000000
   14       17.211218   0.000000
 
  0.3333333E+00  0.3333333E+00  0.2222222E+00  0.3292181E-01
    1        1.183645   1.000000
    2        1.667149   1.000000
    3        2.298005   1.000000
    4        2.633243   1.000000
    5        2.948981   1.000000
    6        3.375651   1.000000
    7        5.755897   1.000000
    8        5.846981   1.000000
    9        6.111380   1.000000
   10        6.563480   0.993396
   11        8.329570   0.000000
   12       12.711174   0.000000
   13       12.769988   0.000000
   14       16.685950   0.000000
 
  0.4444444E+00  0.3333333E+00  0.2222222E+00  0.6584362E-01
    1        1.277941   1.000000
    2        1.376749   1.000000
    3        2.287966   1.000000
    4        2.450331   1.000000
    5        3.604391   1.000000
    6        3.832618   1.000000
    7        5.740997   1.000000
    8        5.806397   1.000000
    9        6.254056   0.999998
   10        6.431690   0.999675
   11        9.472016   0.000000
   12       10.905691   0.000000
   13       13.822254   0.000000
   14       15.452362   0.000000
 
  0.4444444E+00  0.4444444E+00  0.2222222E+00  0.3292181E-01
    1        1.229742   1.000000
    2        1.235561   1.000000
    3        2.088967   1.000000
    4        2.177960   1.000000
    5        4.405288   1.000000
    6        4.484481   1.000000
    7        5.903052   1.000000
    8        5.951998   1.000000
    9        6.248826   0.999999
   10        6.365472   0.999947
   11       10.488879   0.000000
   12       11.422039   0.000000
   13       12.600629   0.000000
   14       13.619467   0.000000
 
  0.3333333E+00  0.3333333E+00  0.3333333E+00  0.1097394E-01
    1        1.643694   1.000000
    2        2.082046   1.000000
    3        2.312501   1.000000
    4        2.312501   1.000000
    5        3.062754   1.000000
    6        3.062754   1.000000
    7        6.080966   1.000000
    8        6.080966   1.000000
    9        6.152170   1.000000
   10        6.152170   1.000000
   11        9.523696   0.000000
   12       12.483680   0.000000
   13       14.580406   0.000000
   14       14.580406   0.000000
 
  0.4444444E+00  0.3333333E+00  0.3333333E+00  0.3292181E-01
    1        1.608300   1.000000
    2        1.792647   1.000000
    3        2.443790   1.000000
    4        2.711226   1.000000
    5        3.060305   1.000000
    6        3.417228   1.000000
    7        6.023415   1.000000
    8        6.035102   1.000000
    9        6.240010   0.999999
   10        6.275457   0.999997
   11       10.673608   0.000000
   12       11.865204   0.000000
   13       13.816761   0.000000
   14       14.859941   0.000000
 
  0.4444444E+00  0.4444444E+00  0.3333333E+00  0.3292181E-01
    1        1.770622   1.000000
    2        2.015065   1.000000
    3        2.186892   1.000000
    4        2.470116   1.000000
    5        3.464474   1.000000
    6        3.606668   1.000000
    7        6.134957   1.000000
    8        6.146550   1.000000
    9        6.267665   0.999998
   10        6.283193   0.999996
   11       11.614652   0.000000
   12       12.154842   0.000000
   13       13.397563   0.000000
   14       13.812409   0.000000
 
  0.4444444E+00  0.4444444E+00  0.4444444E+00  0.1097394E-01
    1        2.122062   1.000000
    2        2.442381   1.000000
    3        2.442381   1.000000
    4        2.909332   1.000000
    5        2.909333   1.000000
    6        2.981048   1.000000
    7        6.276437   0.999997
    8        6.276437   0.999997
    9        6.277125   0.999997
   10        6.277125   0.999997
   11       11.815747   0.000000
   12       11.862212   0.000000
   13       14.627803   0.000000
   14       15.418384   0.000000
