unknown system                          
           1
     3.359996    0.000000    0.000000
    -0.000000    3.359996    0.000000
    -0.000000    0.000000    3.359996
   Pt
   2
Direct configuration=     1
   0.00000000  0.00000000  0.00000000
   0.50000000  0.50000000  0.50000000
unknown system                          
           1
     3.190655    0.000000    0.000000
    -0.000000    3.190655   -0.000000
    -0.000000    0.000000    3.190655
   Pt
   2
Direct configuration=     2
  -0.00000000 -0.00000000 -0.00000000
   0.50000000  0.50000000  0.50000000
unknown system                          
           1
     3.160519    0.000000    0.000000
     0.000000    3.160519   -0.000000
    -0.000000    0.000000    3.160519
   Pt
   2
Direct configuration=     3
  -0.00000000 -0.00000000 -0.00000000
   0.50000000  0.50000000  0.50000000
unknown system                          
           1
     3.168449    0.000000   -0.000000
     0.000000    3.168449   -0.000000
    -0.000000    0.000000    3.168449
   Pt
   2
Direct configuration=     4
  -0.00000000  0.00000000 -0.00000000
   0.50000000  0.50000000  0.50000000
unknown system                          
           1
     3.168449    0.000000   -0.000000
     0.000000    3.168449   -0.000000
    -0.000000    0.000000    3.168449
   Pt
   2
Direct configuration=     5
  -0.00000000  0.00000000 -0.00000000
   0.50000000  0.50000000  0.50000000
