unknown system                          
   2.60000000000000     
     1.010884    0.000000    0.000000
     0.000000    1.010884    0.000000
     0.000000    0.000000    1.010884
   Pt
     1
Direct
  0.000000  0.000000  0.000000
 
   40   40   40
  69.085      68.270      65.926      62.327      57.855      52.911      47.837      42.863      38.102      33.583    
  29.298      25.259      21.512      18.143      15.241      12.873      11.057      9.7600      8.9100      8.4203    
  8.2556      8.4203      8.9100      9.7600      11.057      12.873      15.241      18.143      21.512      25.259    
  29.298      33.583      38.102      42.863      47.837      52.911      57.855      62.327      65.926      68.270    
  68.270      67.482      65.212      61.723      57.379      52.563      47.601      42.713      38.008      33.517    
  29.240      25.197      21.443      18.068      15.166      12.802      10.993      9.7029      8.8582      8.3710    
  8.2072      8.3710      8.8582      9.7029      10.993      12.802      15.166      18.068      21.443      25.197    
  29.240      33.517      38.008      42.713      47.601      52.563      57.379      61.723      65.212      67.482    
  65.926      65.212      63.152      59.974      55.992      51.539      46.895      42.249      37.702      33.292    
  29.040      24.990      21.220      17.835      14.936      12.587      10.801      9.5334      8.7046      8.2250    
  8.0641      8.2250      8.7046      9.5334      10.801      12.587      14.936      17.835      21.220      24.990    
  29.040      33.292      37.702      42.249      46.895      51.539      55.992      59.974      63.152      65.212    
  62.327      61.723      59.974      57.255      53.810      49.893      45.716      41.430      37.118      32.833    
  28.627      24.578      20.800      17.417      14.539      12.227      10.484      9.2570      8.4551      7.9886    
  7.8326      7.9886      8.4551      9.2570      10.484      12.227      14.539      17.417      20.800      24.578    
  28.627      32.833      37.118      41.430      45.716      49.893      53.810      57.255      59.974      61.723    
  57.855      57.379      55.992      53.810      50.990      47.696      44.064      40.196      36.165      32.039    
  27.906      23.888      20.132      16.786      13.964      11.723      10.051      8.8837      8.1191      7.6715    
  7.5228      7.6715      8.1191      8.8837      10.051      11.723      13.964      16.786      20.132      23.888    
  27.906      32.039      36.165      40.196      44.064      47.696      50.990      53.810      55.992      57.379    
  52.911      52.563      51.539      49.893      47.696      45.021      41.934      38.491      34.754      30.813    
  26.792      22.854      19.177      15.925      13.212      11.084      9.5157      8.4277      7.7095      7.2869    
  7.1478      7.2869      7.7095      8.4277      9.5157      11.084      13.212      15.925      19.177      22.854    
  26.792      30.813      34.754      38.491      41.934      45.021      47.696      49.893      51.539      52.563    
  47.837      47.601      46.895      45.716      44.064      41.934      39.330      36.274      32.826      29.094    
  25.237      21.449      17.928      14.843      12.301      10.334      8.9004      7.9068      7.2420      6.8509    
  6.7230      6.8509      7.2420      7.9068      8.9004      10.334      12.301      14.843      17.928      21.449    
  25.237      29.094      32.826      36.274      39.330      41.934      44.064      45.716      46.895      47.601    
  42.863      42.713      42.249      41.430      40.196      38.491      36.274      33.549      30.378      26.886    
  23.255      19.698      16.419      13.579      11.272      9.5082      8.2322      7.3403      6.7344      6.3807    
  6.2651      6.3807      6.7344      7.3403      8.2322      9.5082      11.272      13.579      16.419      19.698    
  23.255      26.886      30.378      33.549      36.274      38.491      40.196      41.430      42.249      42.713    
  38.102      38.008      37.702      37.118      36.165      34.754      32.826      30.378      27.477      24.263    
  20.928      17.684      14.729      12.205      10.180      8.6483      7.5393      6.7483      6.2065      5.8936    
  5.7910      5.8936      6.2065      6.7483      7.5393      8.6483      10.180      12.205      14.729      17.684    
  20.928      24.263      27.477      30.378      32.826      34.754      36.165      37.118      37.702      38.008    
  33.583      33.517      33.292      32.833      32.039      30.813      29.094      26.886      24.263      21.369    
  18.394      15.536      12.967      10.804      9.0889      7.7959      6.8456      6.1511      5.6779      5.4058    
  5.3171      5.4058      5.6779      6.1511      6.8456      7.7959      9.0889      10.804      12.967      15.536    
  18.394      21.369      24.263      26.886      29.094      30.813      32.039      32.833      33.292      33.517    
  29.298      29.240      29.040      28.627      27.906      26.792      25.237      23.255      20.928      18.394    
  15.827      13.399      11.250      9.4626      8.0536      6.9820      6.1700      5.5703      5.1651      4.9322    
  4.8568      4.9322      5.1651      5.5703      6.1700      6.9820      8.0536      9.4626      11.250      13.399    
  15.827      18.394      20.928      23.255      25.237      26.792      27.906      28.627      29.040      29.240    
  25.259      25.197      24.990      24.578      23.888      22.854      21.449      19.698      17.684      15.536    
  13.399      11.412      9.6782      8.2461      7.1115      6.2227      5.5319      5.0244      4.6816      4.4852    
  4.4211      4.4852      4.6816      5.0244      5.5319      6.2227      7.1115      8.2461      9.6782      11.412    
  13.399      15.536      17.684      19.698      21.449      22.854      23.888      24.578      24.990      25.197    
  21.512      21.443      21.220      20.800      20.132      19.177      17.928      16.419      14.729      12.967    
  11.250      9.6782      8.3175      7.1902      6.2728      5.5295      4.9507      4.5258      4.2384      4.0732    
  4.0194      4.0732      4.2384      4.5258      4.9507      5.5295      6.2728      7.1902      8.3175      9.6782    
  11.250      12.967      14.729      16.419      17.928      19.177      20.132      20.800      21.220      21.443    
  18.143      18.068      17.835      17.417      16.786      15.925      14.843      13.579      12.205      10.804    
  9.4626      8.2461      7.1902      6.2930      5.5361      4.9185      4.4378      4.0832      3.8423      3.7030    
  3.6576      3.7030      3.8423      4.0832      4.4378      4.9185      5.5361      6.2930      7.1902      8.2461    
  9.4626      10.804      12.205      13.579      14.843      15.925      16.786      17.417      17.835      18.068    
  15.241      15.166      14.936      14.539      13.964      13.212      12.301      11.272      10.180      9.0889    
  8.0536      7.1115      6.2728      5.5361      4.9099      4.3988      3.9986      3.7013      3.4973      3.3787    
  3.3397      3.3787      3.4973      3.7013      3.9986      4.3988      4.9099      5.5361      6.2728      7.1115    
  8.0536      9.0889      10.180      11.272      12.301      13.212      13.964      14.539      14.936      15.166    
  12.873      12.802      12.587      12.227      11.723      11.084      10.334      9.5082      8.6483      7.7959    
  6.9820      6.2227      5.5295      4.9185      4.3988      3.9718      3.6345      3.3811      3.2055      3.1024    
  3.0685      3.1024      3.2055      3.3811      3.6345      3.9718      4.3988      4.9185      5.5295      6.2227    
  6.9820      7.7959      8.6483      9.5082      10.334      11.084      11.723      12.227      12.587      12.802    
  11.057      10.993      10.801      10.484      10.051      9.5157      8.9004      8.2322      7.5393      6.8456    
  6.1700      5.5319      4.9507      4.4378      3.9986      3.6345      3.3435      3.1223      2.9673      2.8756    
  2.8453      2.8756      2.9673      3.1223      3.3435      3.6345      3.9986      4.4378      4.9507      5.5319    
  6.1700      6.8456      7.5393      8.2322      8.9004      9.5157      10.051      10.484      10.801      10.993    
  9.7600      9.7029      9.5334      9.2570      8.8837      8.4277      7.9068      7.3403      6.7483      6.1511    
  5.5703      5.0244      4.5258      4.0832      3.7013      3.3811      3.1223      2.9234      2.7827      2.6989    
  2.6711      2.6989      2.7827      2.9234      3.1223      3.3811      3.7013      4.0832      4.5258      5.0244    
  5.5703      6.1511      6.7483      7.3403      7.9068      8.4277      8.8837      9.2570      9.5334      9.7029    
  8.9100      8.8582      8.7046      8.4551      8.1191      7.7095      7.2420      6.7344      6.2065      5.6779    
  5.1651      4.6816      4.2384      3.8423      3.4973      3.2055      2.9673      2.7827      2.6512      2.5725    
  2.5463      2.5725      2.6512      2.7827      2.9673      3.2055      3.4973      3.8423      4.2384      4.6816    
  5.1651      5.6779      6.2065      6.7344      7.2420      7.7095      8.1191      8.4551      8.7046      8.8582    
  8.4203      8.3710      8.2250      7.9886      7.6715      7.2869      6.8509      6.3807      5.8936      5.4058    
  4.9322      4.4852      4.0732      3.7030      3.3787      3.1024      2.8756      2.6989      2.5725      2.4966    
  2.4713      2.4966      2.5725      2.6989      2.8756      3.1024      3.3787      3.7030      4.0732      4.4852    
  4.9322      5.4058      5.8936      6.3807      6.8509      7.2869      7.6715      7.9886      8.2250      8.3710    
  8.2556      8.2072      8.0641      7.8326      7.5228      7.1478      6.7230      6.2651      5.7910      5.3171    
  4.8568      4.4211      4.0194      3.6576      3.3397      3.0685      2.8453      2.6711      2.5463      2.4713    
  2.4463      2.4713      2.5463      2.6711      2.8453      3.0685      3.3397      3.6576      4.0194      4.4211    
  4.8568      5.3171      5.7910      6.2651      6.7230      7.1478      7.5228      7.8326      8.0641      8.2072    
  8.4203      8.3710      8.2250      7.9886      7.6715      7.2869      6.8509      6.3807      5.8936      5.4058    
  4.9322      4.4852      4.0732      3.7030      3.3787      3.1024      2.8756      2.6989      2.5725      2.4966    
  2.4713      2.4966      2.5725      2.6989      2.8756      3.1024      3.3787      3.7030      4.0732      4.4852    
  4.9322      5.4058      5.8936      6.3807      6.8509      7.2869      7.6715      7.9886      8.2250      8.3710    
  8.9100      8.8582      8.7046      8.4551      8.1191      7.7095      7.2420      6.7344      6.2065      5.6779    
  5.1651      4.6816      4.2384      3.8423      3.4973      3.2055      2.9673      2.7827      2.6512      2.5725    
  2.5463      2.5725      2.6512      2.7827      2.9673      3.2055      3.4973      3.8423      4.2384      4.6816    
  5.1651      5.6779      6.2065      6.7344      7.2420      7.7095      8.1191      8.4551      8.7046      8.8582    
  9.7600      9.7029      9.5334      9.2570      8.8837      8.4277      7.9068      7.3403      6.7483      6.1511    
  5.5703      5.0244      4.5258      4.0832      3.7013      3.3811      3.1223      2.9234      2.7827      2.6989    
  2.6711      2.6989      2.7827      2.9234      3.1223      3.3811      3.7013      4.0832      4.5258      5.0244    
  5.5703      6.1511      6.7483      7.3403      7.9068      8.4277      8.8837      9.2570      9.5334      9.7029    
  11.057      10.993      10.801      10.484      10.051      9.5157      8.9004      8.2322      7.5393      6.8456    
  6.1700      5.5319      4.9507      4.4378      3.9986      3.6345      3.3435      3.1223      2.9673      2.8756    
  2.8453      2.8756      2.9673      3.1223      3.3435      3.6345      3.9986      4.4378      4.9507      5.5319    
  6.1700      6.8456      7.5393      8.2322      8.9004      9.5157      10.051      10.484      10.801      10.993    
  12.873      12.802      12.587      12.227      11.723      11.084      10.334      9.5082      8.6483      7.7959    
  6.9820      6.2227      5.5295      4.9185      4.3988      3.9718      3.6345      3.3811      3.2055      3.1024    
  3.0685      3.1024      3.2055      3.3811      3.6345      3.9718      4.3988      4.9185      5.5295      6.2227    
  6.9820      7.7959      8.6483      9.5082      10.334      11.084      11.723      12.227      12.587      12.802    
  15.241      15.166      14.936      14.539      13.964      13.212      12.301      11.272      10.180      9.0889    
  8.0536      7.1115      6.2728      5.5361      4.9099      4.3988      3.9986      3.7013      3.4973      3.3787    
  3.3397      3.3787      3.4973      3.7013      3.9986      4.3988      4.9099      5.5361      6.2728      7.1115    
  8.0536      9.0889      10.180      11.272      12.301      13.212      13.964      14.539      14.936      15.166    
  18.143      18.068      17.835      17.417      16.786      15.925      14.843      13.579      12.205      10.804    
  9.4626      8.2461      7.1902      6.2930      5.5361      4.9185      4.4378      4.0832      3.8423      3.7030    
  3.6576      3.7030      3.8423      4.0832      4.4378      4.9185      5.5361      6.2930      7.1902      8.2461    
  9.4626      10.804      12.205      13.579      14.843      15.925      16.786      17.417      17.835      18.068    
  21.512      21.443      21.220      20.800      20.132      19.177      17.928      16.419      14.729      12.967    
  11.250      9.6782      8.3175      7.1902      6.2728      5.5295      4.9507      4.5258      4.2384      4.0732    
  4.0194      4.0732      4.2384      4.5258      4.9507      5.5295      6.2728      7.1902      8.3175      9.6782    
  11.250      12.967      14.729      16.419      17.928      19.177      20.132      20.800      21.220      21.443    
  25.259      25.197      24.990      24.578      23.888      22.854      21.449      19.698      17.684      15.536    
  13.399      11.412      9.6782      8.2461      7.1115      6.2227      5.5319      5.0244      4.6816      4.4852    
  4.4211      4.4852      4.6816      5.0244      5.5319      6.2227      7.1115      8.2461      9.6782      11.412    
  13.399      15.536      17.684      19.698      21.449      22.854      23.888      24.578      24.990      25.197    
  29.298      29.240      29.040      28.627      27.906      26.792      25.237      23.255      20.928      18.394    
  15.827      13.399      11.250      9.4626      8.0536      6.9820      6.1700      5.5703      5.1651      4.9322    
  4.8568      4.9322      5.1651      5.5703      6.1700      6.9820      8.0536      9.4626      11.250      13.399    
  15.827      18.394      20.928      23.255      25.237      26.792      27.906      28.627      29.040      29.240    
  33.583      33.517      33.292      32.833      32.039      30.813      29.094      26.886      24.263      21.369    
  18.394      15.536      12.967      10.804      9.0889      7.7959      6.8456      6.1511      5.6779      5.4058    
  5.3171      5.4058      5.6779      6.1511      6.8456      7.7959      9.0889      10.804      12.967      15.536    
  18.394      21.369      24.263      26.886      29.094      30.813      32.039      32.833      33.292      33.517    
  38.102      38.008      37.702      37.118      36.165      34.754      32.826      30.378      27.477      24.263    
  20.928      17.684      14.729      12.205      10.180      8.6483      7.5393      6.7483      6.2065      5.8936    
  5.7910      5.8936      6.2065      6.7483      7.5393      8.6483      10.180      12.205      14.729      17.684    
  20.928      24.263      27.477      30.378      32.826      34.754      36.165      37.118      37.702      38.008    
  42.863      42.713      42.249      41.430      40.196      38.491      36.274      33.549      30.378      26.886    
  23.255      19.698      16.419      13.579      11.272      9.5082      8.2322      7.3403      6.7344      6.3807    
  6.2651      6.3807      6.7344      7.3403      8.2322      9.5082      11.272      13.579      16.419      19.698    
  23.255      26.886      30.378      33.549      36.274      38.491      40.196      41.430      42.249      42.713    
  47.837      47.601      46.895      45.716      44.064      41.934      39.330      36.274      32.826      29.094    
  25.237      21.449      17.928      14.843      12.301      10.334      8.9004      7.9068      7.2420      6.8509    
  6.7230      6.8509      7.2420      7.9068      8.9004      10.334      12.301      14.843      17.928      21.449    
  25.237      29.094      32.826      36.274      39.330      41.934      44.064      45.716      46.895      47.601    
  52.911      52.563      51.539      49.893      47.696      45.021      41.934      38.491      34.754      30.813    
  26.792      22.854      19.177      15.925      13.212      11.084      9.5157      8.4277      7.7095      7.2869    
  7.1478      7.2869      7.7095      8.4277      9.5157      11.084      13.212      15.925      19.177      22.854    
  26.792      30.813      34.754      38.491      41.934      45.021      47.696      49.893      51.539      52.563    
  57.855      57.379      55.992      53.810      50.990      47.696      44.064      40.196      36.165      32.039    
  27.906      23.888      20.132      16.786      13.964      11.723      10.051      8.8837      8.1191      7.6715    
  7.5228      7.6715      8.1191      8.8837      10.051      11.723      13.964      16.786      20.132      23.888    
  27.906      32.039      36.165      40.196      44.064      47.696      50.990      53.810      55.992      57.379    
  62.327      61.723      59.974      57.255      53.810      49.893      45.716      41.430      37.118      32.833    
  28.627      24.578      20.800      17.417      14.539      12.227      10.484      9.2570      8.4551      7.9886    
  7.8326      7.9886      8.4551      9.2570      10.484      12.227      14.539      17.417      20.800      24.578    
  28.627      32.833      37.118      41.430      45.716      49.893      53.810      57.255      59.974      61.723    
  65.926      65.212      63.152      59.974      55.992      51.539      46.895      42.249      37.702      33.292    
  29.040      24.990      21.220      17.835      14.936      12.587      10.801      9.5334      8.7046      8.2250    
  8.0641      8.2250      8.7046      9.5334      10.801      12.587      14.936      17.835      21.220      24.990    
  29.040      33.292      37.702      42.249      46.895      51.539      55.992      59.974      63.152      65.212    
  68.270      67.482      65.212      61.723      57.379      52.563      47.601      42.713      38.008      33.517    
  29.240      25.197      21.443      18.068      15.166      12.802      10.993      9.7029      8.8582      8.3710    
  8.2072      8.3710      8.8582      9.7029      10.993      12.802      15.166      18.068      21.443      25.197    
  29.240      33.517      38.008      42.713      47.601      52.563      57.379      61.723      65.212      67.482    
  68.270      67.482      65.212      61.723      57.379      52.563      47.601      42.713      38.008      33.517    
  29.240      25.197      21.443      18.068      15.166      12.802      10.993      9.7029      8.8582      8.3710    
  8.2072      8.3710      8.8582      9.7029      10.993      12.802      15.166      18.068      21.443      25.197    
  29.240      33.517      38.008      42.713      47.601      52.563      57.379      61.723      65.212      67.482    
  67.482      66.719      64.520      61.137      56.917      52.225      47.371      42.565      37.913      33.449    
  29.180      25.132      21.372      17.993      15.090      12.731      10.928      9.6461      8.8067      8.3220    
  8.1591      8.3220      8.8067      9.6461      10.928      12.731      15.090      17.993      21.372      25.132    
  29.180      33.449      37.913      42.565      47.371      52.225      56.917      61.137      64.520      66.719    
  65.212      64.520      62.525      59.441      55.571      51.227      46.678      42.105      37.605      33.217    
  28.971      24.918      21.143      17.756      14.859      12.516      10.737      9.4775      8.6540      8.1771    
  8.0170      8.1771      8.6540      9.4775      10.737      12.516      14.859      17.756      21.143      24.918    
  28.971      33.217      37.605      42.105      46.678      51.227      55.571      59.441      62.525      64.520    
  61.723      61.137      59.441      56.801      53.447      49.620      45.520      41.291      37.015      32.748    
  28.545      24.495      20.715      17.333      14.460      12.156      10.422      9.2028      8.4061      7.9422    
  7.7872      7.9422      8.4061      9.2028      10.422      12.156      14.460      17.333      20.715      24.495    
  28.545      32.748      37.015      41.291      45.520      49.620      53.447      56.801      59.441      61.137    
  57.379      56.917      55.571      53.447      50.695      47.466      43.890      40.062      36.056      31.940    
  27.810      23.793      20.038      16.697      13.883      11.652      9.9906      8.8318      8.0723      7.6273    
  7.4796      7.6273      8.0723      8.8318      9.9906      11.652      13.883      16.697      20.038      23.793    
  27.810      31.940      36.056      40.062      43.890      47.466      50.695      53.447      55.571      56.917    
  52.563      52.225      51.227      49.620      47.466      44.833      41.779      38.359      34.636      30.701    
  26.682      22.747      19.076      15.833      13.131      11.016      9.4583      8.3787      7.6654      7.2455    
  7.1074      7.2455      7.6654      8.3787      9.4583      11.016      13.131      15.833      19.076      22.747    
  26.682      30.701      34.636      38.359      41.779      44.833      47.466      49.620      51.227      52.225    
  47.601      47.371      46.678      45.520      43.890      41.779      39.190      36.143      32.700      28.970    
  25.116      21.334      17.822      14.750      12.223      10.269      8.8469      7.8612      7.2008      6.8125    
  6.6856      6.8125      7.2008      7.8612      8.8469      10.269      12.223      14.750      17.822      21.334    
  25.116      28.970      32.700      36.143      39.190      41.779      43.890      45.520      46.678      47.371    
  42.713      42.565      42.105      41.291      40.062      38.359      36.143      33.417      30.245      26.754    
  23.128      19.580      16.314      13.490      11.198      9.4485      8.1834      7.2984      6.6966      6.3456    
  6.2309      6.3456      6.6966      7.2984      8.1834      9.4485      11.198      13.490      16.314      19.580    
  23.128      26.754      30.245      33.417      36.143      38.359      40.062      41.291      42.105      42.565    
  38.008      37.913      37.605      37.015      36.056      34.636      32.700      30.245      27.341      24.129    
  20.800      17.569      14.629      12.122      10.113      8.5948      7.4955      6.7101      6.1723      5.8619    
  5.7602      5.8619      6.1723      6.7101      7.4955      8.5948      10.113      12.122      14.629      17.569    
  20.800      24.129      27.341      30.245      32.700      34.636      36.056      37.015      37.605      37.913    
  33.517      33.449      33.217      32.748      31.940      30.701      28.970      26.754      24.129      21.239    
  18.272      15.428      12.877      10.730      9.0303      7.7491      6.8064      6.1169      5.6474      5.3774    
  5.2895      5.3774      5.6474      6.1169      6.8064      7.7491      9.0303      10.730      12.877      15.428    
  18.272      21.239      24.129      26.754      28.970      30.701      31.940      32.748      33.217      33.449    
  29.240      29.180      28.971      28.545      27.810      26.682      25.116      23.128      20.800      18.272    
  15.717      13.304      11.171      9.3996      8.0037      6.9414      6.1353      5.5401      5.1381      4.9070    
  4.8323      4.9070      5.1381      5.5401      6.1353      6.9414      8.0037      9.3996      11.171      13.304    
  15.717      18.272      20.800      23.128      25.116      26.682      27.810      28.545      28.971      29.180    
  25.197      25.132      24.918      24.495      23.793      22.747      21.334      19.580      17.569      15.428    
  13.304      11.332      9.6126      8.1937      7.0694      6.1874      5.5017      4.9981      4.6578      4.4630    
  4.3994      4.4630      4.6578      4.9981      5.5017      6.1874      7.0694      8.1937      9.6126      11.332    
  13.304      15.428      17.569      19.580      21.334      22.747      23.793      24.495      24.918      25.132    
  21.443      21.372      21.143      20.715      20.038      19.076      17.822      16.314      14.629      12.877    
  11.171      9.6126      8.2643      7.1471      6.2370      5.4990      4.9246      4.5028      4.2176      4.0536    
  4.0003      4.0536      4.2176      4.5028      4.9246      5.4990      6.2370      7.1471      8.2643      9.6126    
  11.171      12.877      14.629      16.314      17.822      19.076      20.038      20.715      21.143      21.372    
  18.068      17.993      17.756      17.333      16.697      15.833      14.750      13.490      12.122      10.730    
  9.3996      8.1937      7.1471      6.2569      5.5054      4.8924      4.4152      4.0633      3.8240      3.6858    
  3.6406      3.6858      3.8240      4.0633      4.4152      4.8924      5.5054      6.2569      7.1471      8.1937    
  9.3996      10.730      12.122      13.490      14.750      15.833      16.697      17.333      17.756      17.993    
  15.166      15.090      14.859      14.460      13.883      13.131      12.223      11.198      10.113      9.0303    
  8.0037      7.0694      6.2370      5.5054      4.8838      4.3765      3.9791      3.6838      3.4812      3.3633    
  3.3246      3.3633      3.4812      3.6838      3.9791      4.3765      4.8838      5.5054      6.2370      7.0694    
  8.0037      9.0303      10.113      11.198      12.223      13.131      13.883      14.460      14.859      15.090    
  12.802      12.731      12.516      12.156      11.652      11.016      10.269      9.4485      8.5948      7.7491    
  6.9414      6.1874      5.4990      4.8924      4.3765      3.9525      3.6175      3.3657      3.1912      3.0887    
  3.0550      3.0887      3.1912      3.3657      3.6175      3.9525      4.3765      4.8924      5.4990      6.1874    
  6.9414      7.7491      8.5948      9.4485      10.269      11.016      11.652      12.156      12.516      12.731    
  10.993      10.928      10.737      10.422      9.9906      9.4583      8.8469      8.1834      7.4955      6.8064    
  6.1353      5.5017      4.9246      4.4152      3.9791      3.6175      3.3284      3.1085      2.9544      2.8632    
  2.8330      2.8632      2.9544      3.1085      3.3284      3.6175      3.9791      4.4152      4.9246      5.5017    
  6.1353      6.8064      7.4955      8.1834      8.8469      9.4583      9.9906      10.422      10.737      10.928    
  9.7029      9.6461      9.4775      9.2028      8.8318      8.3787      7.8612      7.2984      6.7101      6.1169    
  5.5401      4.9981      4.5028      4.0633      3.6838      3.3657      3.1085      2.9108      2.7709      2.6875    
  2.6598      2.6875      2.7709      2.9108      3.1085      3.3657      3.6838      4.0633      4.5028      4.9981    
  5.5401      6.1169      6.7101      7.2984      7.8612      8.3787      8.8318      9.2028      9.4775      9.6461    
  8.8582      8.8067      8.6540      8.4061      8.0723      7.6654      7.2008      6.6966      6.1723      5.6474    
  5.1381      4.6578      4.2176      3.8240      3.4812      3.1912      2.9544      2.7709      2.6401      2.5618    
  2.5358      2.5618      2.6401      2.7709      2.9544      3.1912      3.4812      3.8240      4.2176      4.6578    
  5.1381      5.6474      6.1723      6.6966      7.2008      7.6654      8.0723      8.4061      8.6540      8.8067    
  8.3710      8.3220      8.1771      7.9422      7.6273      7.2455      6.8125      6.3456      5.8619      5.3774    
  4.9070      4.4630      4.0536      3.6858      3.3633      3.0887      2.8632      2.6875      2.5618      2.4864    
  2.4612      2.4864      2.5618      2.6875      2.8632      3.0887      3.3633      3.6858      4.0536      4.4630    
  4.9070      5.3774      5.8619      6.3456      6.8125      7.2455      7.6273      7.9422      8.1771      8.3220    
  8.2072      8.1591      8.0170      7.7872      7.4796      7.1074      6.6856      6.2309      5.7602      5.2895    
  4.8323      4.3994      4.0003      3.6406      3.3246      3.0550      2.8330      2.6598      2.5358      2.4612    
  2.4364      2.4612      2.5358      2.6598      2.8330      3.0550      3.3246      3.6406      4.0003      4.3994    
  4.8323      5.2895      5.7602      6.2309      6.6856      7.1074      7.4796      7.7872      8.0170      8.1591    
  8.3710      8.3220      8.1771      7.9422      7.6273      7.2455      6.8125      6.3456      5.8619      5.3774    