unknown system                          
   2.60000000000000     
     1.010884    0.000000    0.000000
     0.000000    1.010884    0.000000
     0.000000    0.000000    1.010884
   Pt
     1
Direct
  0.000000  0.000000  0.000000
 
   40   40   40
 0.69084610524E+02 0.68270127872E+02 0.65926383988E+02 0.62327478437E+02 0.57855152818E+02
 0.52911210838E+02 0.47836874803E+02 0.42862785563E+02 0.38102147048E+02 0.33582501891E+02
 0.29298231587E+02 0.25258518044E+02 0.21512103583E+02 0.18142649447E+02 0.15241027922E+02
 0.12872919998E+02 0.11056886038E+02 0.97600000147E+01 0.89100461866E+01 0.84202649406E+01
 0.82555968986E+01 0.84202649406E+01 0.89100461866E+01 0.97600000147E+01 0.11056886038E+02
 0.12872919998E+02 0.15241027922E+02 0.18142649447E+02 0.21512103583E+02 0.25258518044E+02
 0.29298231587E+02 0.33582501891E+02 0.38102147048E+02 0.42862785563E+02 0.47836874803E+02
 0.52911210838E+02 0.57855152818E+02 0.62327478437E+02 0.65926383988E+02 0.68270127872E+02
 0.68270127872E+02 0.67481787484E+02 0.65212084143E+02 0.61722952070E+02 0.57378921467E+02
 0.52563295158E+02 0.47601319445E+02 0.42713119176E+02 0.38008225239E+02 0.33516867153E+02
 0.29240390247E+02 0.25196761702E+02 0.21443024137E+02 0.18068262448E+02 0.15166019203E+02
 0.12801892081E+02 0.10992606003E+02 0.97029038570E+01 0.88581932459E+01 0.83709506621E+01
 0.82071775790E+01 0.83709506621E+01 0.88581932459E+01 0.97029038570E+01 0.10992606003E+02
 0.12801892081E+02 0.15166019203E+02 0.18068262448E+02 0.21443024137E+02 0.25196761702E+02
 0.29240390247E+02 0.33516867153E+02 0.38008225239E+02 0.42713119176E+02 0.47601319445E+02
 0.52563295158E+02 0.57378921467E+02 0.61722952070E+02 0.65212084143E+02 0.67481787484E+02
 0.65926383988E+02 0.65212084143E+02 0.63152005123E+02 0.59973525617E+02 0.55992304369E+02
 0.51539288357E+02 0.46894691825E+02 0.42249269124E+02 0.37702417894E+02 0.33292205129E+02
 0.29040272222E+02 0.24989616606E+02 0.21219620070E+02 0.17835060408E+02 0.14935993591E+02
 0.12587421381E+02 0.10800577262E+02 0.95333814386E+01 0.87045899104E+01 0.82250443146E+01
 0.80640694012E+01 0.82250443146E+01 0.87045899104E+01 0.95333814386E+01 0.10800577262E+02
 0.12587421381E+02 0.14935993591E+02 0.17835060408E+02 0.21219620070E+02 0.24989616606E+02
 0.29040272222E+02 0.33292205129E+02 0.37702417894E+02 0.42249269124E+02 0.46894691825E+02
 0.51539288357E+02 0.55992304369E+02 0.59973525617E+02 0.63152005123E+02 0.65212084143E+02
 0.62327478437E+02 0.61722952070E+02 0.59973525617E+02 0.57254997058E+02 0.53810290269E+02
 0.49892780588E+02 0.45716492532E+02 0.41429725264E+02 0.37118329370E+02 0.32833310380E+02
 0.28626725403E+02 0.24578276616E+02 0.20799912945E+02 0.17417421686E+02 0.14539016913E+02
 0.12227213396E+02 0.10484047379E+02 0.92570278512E+01 0.84550801143E+01 0.79886095821E+01
 0.78325705018E+01 0.79886095821E+01 0.84550801143E+01 0.92570278512E+01 0.10484047379E+02
 0.12227213396E+02 0.14539016913E+02 0.17417421686E+02 0.20799912945E+02 0.24578276616E+02
 0.28626725403E+02 0.32833310380E+02 0.37118329370E+02 0.41429725264E+02 0.45716492532E+02
 0.49892780588E+02 0.53810290269E+02 0.57254997058E+02 0.59973525617E+02 0.61722952070E+02
 0.57855152818E+02 0.57378921467E+02 0.55992304369E+02 0.53810290269E+02 0.50990399099E+02
 0.47695666175E+02 0.44064059080E+02 0.40196485592E+02 0.36165408390E+02 0.32038962223E+02
 0.27905801534E+02 0.23887859343E+02 0.20132263006E+02 0.16786431461E+02 0.13964309498E+02
 0.11722630572E+02 0.10050894429E+02 0.88837104373E+01 0.81191261220E+01 0.76714985712E+01
 0.75227582347E+01 0.76714985712E+01 0.81191261220E+01 0.88837104373E+01 0.10050894429E+02
 0.11722630572E+02 0.13964309498E+02 0.16786431461E+02 0.20132263006E+02 0.23887859343E+02
 0.27905801534E+02 0.32038962223E+02 0.36165408390E+02 0.40196485592E+02 0.44064059080E+02
 0.47695666175E+02 0.50990399099E+02 0.53810290269E+02 0.55992304369E+02 0.57378921467E+02
 0.52911210838E+02 0.52563295158E+02 0.51539288357E+02 0.49892780588E+02 0.47695666175E+02
 0.45021423804E+02 0.41934175073E+02 0.38490813266E+02 0.34754256534E+02 0.30812655797E+02
 0.26791762533E+02 0.22853802516E+02 0.19177344774E+02 0.15925289058E+02 0.13212092350E+02
 0.11084057403E+02 0.95156793573E+01 0.84277203180E+01 0.77095440229E+01 0.72869438883E+01
 0.71478021818E+01 0.72869438883E+01 0.77095440229E+01 0.84277203180E+01 0.95156793573E+01
 0.11084057403E+02 0.13212092350E+02 0.15925289058E+02 0.19177344774E+02 0.22853802516E+02
 0.26791762533E+02 0.30812655797E+02 0.34754256534E+02 0.38490813266E+02 0.41934175073E+02
 0.45021423804E+02 0.47695666175E+02 0.49892780588E+02 0.51539288357E+02 0.52563295158E+02
 0.47836874803E+02 0.47601319445E+02 0.46894691825E+02 0.45716492532E+02 0.44064059080E+02
 0.41934175073E+02 0.39329854894E+02 0.36274105848E+02 0.32826107974E+02 0.29094280948E+02
 0.25237099616E+02 0.21448515295E+02 0.17927500948E+02 0.14842761063E+02 0.12301339061E+02
 0.10334280190E+02 0.89003615107E+01 0.79067598057E+01 0.72419629524E+01 0.68508821026E+01
 0.67230364299E+01 0.68508821026E+01 0.72419629524E+01 0.79067598057E+01 0.89003615107E+01
 0.10334280190E+02 0.12301339061E+02 0.14842761063E+02 0.17927500948E+02 0.21448515295E+02
 0.25237099616E+02 0.29094280948E+02 0.32826107974E+02 0.36274105848E+02 0.39329854894E+02
 0.41934175073E+02 0.44064059080E+02 0.45716492532E+02 0.46894691825E+02 0.47601319445E+02
 0.42862785563E+02 0.42713119176E+02 0.42249269124E+02 0.41429725264E+02 0.40196485592E+02
 0.38490813266E+02 0.36274105848E+02 0.33549181174E+02 0.30377675720E+02 0.26885798127E+02
 0.23255295594E+02 0.19697755358E+02 0.16418650499E+02 0.13579425432E+02 0.11271984848E+02
 0.95082323622E+01 0.82322141711E+01 0.73403390241E+01 0.67343531129E+01 0.63807023155E+01
 0.62650778190E+01 0.63807023155E+01 0.67343531129E+01 0.73403390241E+01 0.82322141711E+01
 0.95082323622E+01 0.11271984848E+02 0.13579425432E+02 0.16418650499E+02 0.19697755358E+02
 0.23255295594E+02 0.26885798127E+02 0.30377675720E+02 0.33549181174E+02 0.36274105848E+02
 0.38490813266E+02 0.40196485592E+02 0.41429725264E+02 0.42249269124E+02 0.42713119176E+02
 0.38102147048E+02 0.38008225239E+02 0.37702417894E+02 0.37118329370E+02 0.36165408390E+02
 0.34754256534E+02 0.32826107974E+02 0.30377675720E+02 0.27477040572E+02 0.24262826035E+02
 0.20927615131E+02 0.17684472972E+02 0.14729150209E+02 0.12204638019E+02 0.10180346257E+02
 0.86482586250E+01 0.75393381011E+01 0.67482629488E+01 0.62065015297E+01 0.58936156282E+01
 0.57910356235E+01 0.58936156282E+01 0.62065015297E+01 0.67482629488E+01 0.75393381011E+01
 0.86482586250E+01 0.10180346257E+02 0.12204638019E+02 0.14729150209E+02 0.17684472972E+02
 0.20927615131E+02 0.24262826035E+02 0.27477040572E+02 0.30377675720E+02 0.32826107974E+02
 0.34754256534E+02 0.36165408390E+02 0.37118329370E+02 0.37702417894E+02 0.38008225239E+02
 0.33582501891E+02 0.33516867153E+02 0.33292205129E+02 0.32833310380E+02 0.32038962223E+02
 0.30812655797E+02 0.29094280948E+02 0.26885798127E+02 0.24262826035E+02 0.21369290809E+02
 0.18393801074E+02 0.15535696421E+02 0.12967424915E+02 0.10804161351E+02 0.90888968078E+01
 0.77958697063E+01 0.68455877530E+01 0.61510868793E+01 0.56779037506E+01 0.54057831424E+01
 0.53170912709E+01 0.54057831424E+01 0.56779037506E+01 0.61510868793E+01 0.68455877530E+01
 0.77958697063E+01 0.90888968078E+01 0.10804161351E+02 0.12967424915E+02 0.15535696421E+02
 0.18393801074E+02 0.21369290809E+02 0.24262826035E+02 0.26885798127E+02 0.29094280948E+02
 0.30812655797E+02 0.32038962223E+02 0.32833310380E+02 0.33292205129E+02 0.33516867153E+02
 0.29298231587E+02 0.29240390247E+02 0.29040272222E+02 0.28626725403E+02 0.27905801534E+02
 0.26791762533E+02 0.25237099616E+02 0.23255295594E+02 0.20927615131E+02 0.18393801074E+02
 0.15826616626E+02 0.13399074014E+02 0.11249997276E+02 0.94626470795E+01 0.80536004125E+01
 0.69819967143E+01 0.61700078501E+01 0.55702887569E+01 0.51651244807E+01 0.49321644408E+01
 0.48567941555E+01 0.49321644408E+01 0.51651244807E+01 0.55702887569E+01 0.61700078501E+01
 0.69819967143E+01 0.80536004125E+01 0.94626470795E+01 0.11249997276E+02 0.13399074014E+02
 0.15826616626E+02 0.18393801074E+02 0.20927615131E+02 0.23255295594E+02 0.25237099616E+02
 0.26791762533E+02 0.27905801534E+02 0.28626725403E+02 0.29040272222E+02 0.29240390247E+02
 0.25258518044E+02 0.25196761702E+02 0.24989616606E+02 0.24578276616E+02 0.23887859343E+02
 0.22853802516E+02 0.21448515295E+02 0.19697755358E+02 0.17684472972E+02 0.15535696421E+02
 0.13399074014E+02 0.11412240011E+02 0.96782454065E+01 0.82460714656E+01 0.71114540564E+01
 0.62227118036E+01 0.55319294533E+01 0.50244330014E+01 0.46815678029E+01 0.44851601916E+01
 0.44211349940E+01 0.44851601916E+01 0.46815678029E+01 0.50244330014E+01 0.55319294533E+01
 0.62227118036E+01 0.71114540564E+01 0.82460714656E+01 0.96782454065E+01 0.11412240011E+02
 0.13399074014E+02 0.15535696421E+02 0.17684472972E+02 0.19697755358E+02 0.21448515295E+02
 0.22853802516E+02 0.23887859343E+02 0.24578276616E+02 0.24989616606E+02 0.25196761702E+02
 0.21512103583E+02 0.21443024137E+02 0.21219620070E+02 0.20799912945E+02 0.20132263006E+02
 0.19177344774E+02 0.17927500948E+02 0.16418650499E+02 0.14729150209E+02 0.12967424915E+02
 0.11249997276E+02 0.96782454065E+01 0.83175191692E+01 0.71901562483E+01 0.62728090897E+01
 0.55294891606E+01 0.49507395022E+01 0.45257774663E+01 0.42384092530E+01 0.40732122655E+01
 0.40194473180E+01 0.40732122655E+01 0.42384092530E+01 0.45257774663E+01 0.49507395022E+01
 0.55294891606E+01 0.62728090897E+01 0.71901562483E+01 0.83175191692E+01 0.96782454065E+01
 0.11249997276E+02 0.12967424915E+02 0.14729150209E+02 0.16418650499E+02 0.17927500948E+02
 0.19177344774E+02 0.20132263006E+02 0.20799912945E+02 0.21219620070E+02 0.21443024137E+02
 0.18142649447E+02 0.18068262448E+02 0.17835060408E+02 0.17417421686E+02 0.16786431461E+02
 0.15925289058E+02 0.14842761063E+02 0.13579425432E+02 0.12204638019E+02 0.10804161351E+02
 0.94626470795E+01 0.82460714656E+01 0.71901562483E+01 0.62929796467E+01 0.55360998374E+01
 0.49184819145E+01 0.44377536184E+01 0.40832353581E+01 0.38422835854E+01 0.37030309527E+01
 0.36575923169E+01 0.37030309527E+01 0.38422835854E+01 0.40832353581E+01 0.44377536184E+01
 0.49184819145E+01 0.55360998374E+01 0.62929796467E+01 0.71901562483E+01 0.82460714656E+01
 0.94626470795E+01 0.10804161351E+02 0.12204638019E+02 0.13579425432E+02 0.14842761063E+02
 0.15925289058E+02 0.16786431461E+02 0.17417421686E+02 0.17835060408E+02 0.18068262448E+02
 0.15241027922E+02 0.15166019203E+02 0.14935993591E+02 0.14539016913E+02 0.13964309498E+02
 0.13212092350E+02 0.12301339061E+02 0.11271984848E+02 0.10180346257E+02 0.90888968078E+01
 0.80536004125E+01 0.71114540564E+01 0.62728090897E+01 0.55360998374E+01 0.49099091606E+01
 0.43988421437E+01 0.39985940321E+01 0.37012609186E+01 0.34973042093E+01 0.33786646990E+01
 0.33397205842E+01 0.33786646990E+01 0.34973042093E+01 0.37012609186E+01 0.39985940321E+01
 0.43988421437E+01 0.49099091606E+01 0.55360998374E+01 0.62728090897E+01 0.71114540564E+01
 0.80536004125E+01 0.90888968078E+01 0.10180346257E+02 0.11271984848E+02 0.12301339061E+02
 0.13212092350E+02 0.13964309498E+02 0.14539016913E+02 0.14935993591E+02 0.15166019203E+02
 0.12872919998E+02 0.12801892081E+02 0.12587421381E+02 0.12227213396E+02 0.11722630572E+02
 0.11084057403E+02 0.10334280190E+02 0.95082323622E+01 0.86482586250E+01 0.77958697063E+01
 0.69819967143E+01 0.62227118036E+01 0.55294891606E+01 0.49184819145E+01 0.43988421437E+01
 0.39718461036E+01 0.36345422861E+01 0.33811005837E+01 0.32055033728E+01 0.31024109634E+01
 0.30684742645E+01 0.31024109634E+01 0.32055033728E+01 0.33811005837E+01 0.36345422861E+01
 0.39718461036E+01 0.43988421437E+01 0.49184819145E+01 0.55294891606E+01 0.62227118036E+01
 0.69819967143E+01 0.77958697063E+01 0.86482586250E+01 0.95082323622E+01 0.10334280190E+02
 0.11084057403E+02 0.11722630572E+02 0.12227213396E+02 0.12587421381E+02 0.12801892081E+02
 0.11056886038E+02 0.10992606003E+02 0.10800577262E+02 0.10484047379E+02 0.10050894429E+02
 0.95156793573E+01 0.89003615107E+01 0.82322141711E+01 0.75393381011E+01 0.68455877530E+01
 0.61700078501E+01 0.55319294533E+01 0.49507395022E+01 0.44377536184E+01 0.39985940321E+01
 0.36345422861E+01 0.33435251088E+01 0.31223386424E+01 0.29673343672E+01 0.28756385289E+01
 0.28452686833E+01 0.28756385289E+01 0.29673343672E+01 0.31223386424E+01 0.33435251088E+01
 0.36345422861E+01 0.39985940321E+01 0.44377536184E+01 0.49507395022E+01 0.55319294533E+01
 0.61700078501E+01 0.68455877530E+01 0.75393381011E+01 0.82322141711E+01 0.89003615107E+01
 0.95156793573E+01 0.10050894429E+02 0.10484047379E+02 0.10800577262E+02 0.10992606003E+02
 0.97600000147E+01 0.97029038570E+01 0.95333814386E+01 0.92570278512E+01 0.88837104373E+01
 0.84277203180E+01 0.79067598057E+01 0.73403390241E+01 0.67482629488E+01 0.61510868793E+01
 0.55702887569E+01 0.50244330014E+01 0.45257774663E+01 0.40832353581E+01 0.37012609186E+01
 0.33811005837E+01 0.31223386424E+01 0.29234045503E+01 0.27827335344E+01 0.26988894577E+01
 0.26710588249E+01 0.26988894577E+01 0.27827335344E+01 0.29234045503E+01 0.31223386424E+01
 0.33811005837E+01 0.37012609186E+01 0.40832353581E+01 0.45257774663E+01 0.50244330014E+01
 0.55702887569E+01 0.61510868793E+01 0.67482629488E+01 0.73403390241E+01 0.79067598057E+01
 0.84277203180E+01 0.88837104373E+01 0.92570278512E+01 0.95333814386E+01 0.97029038570E+01
 0.89100461866E+01 0.88581932459E+01 0.87045899104E+01 0.84550801143E+01 0.81191261220E+01
 0.77095440229E+01 0.72419629524E+01 0.67343531129E+01 0.62065015297E+01 0.56779037506E+01
 0.51651244807E+01 0.46815678029E+01 0.42384092530E+01 0.38422835854E+01 0.34973042093E+01
 0.32055033728E+01 0.29673343672E+01 0.27827335344E+01 0.26512374784E+01 0.25725235569E+01
 0.25462977970E+01 0.25725235569E+01 0.26512374784E+01 0.27827335344E+01 0.29673343672E+01
 0.32055033728E+01 0.34973042093E+01 0.38422835854E+01 0.42384092530E+01 0.46815678029E+01
 0.51651244807E+01 0.56779037506E+01 0.62065015297E+01 0.67343531129E+01 0.72419629524E+01
 0.77095440229E+01 0.81191261220E+01 0.84550801143E+01 0.87045899104E+01 0.88581932459E+01
 0.84202649406E+01 0.83709506621E+01 0.82250443146E+01 0.79886095821E+01 0.76714985712E+01
 0.72869438883E+01 0.68508821026E+01 0.63807023155E+01 0.58936156282E+01 0.54057831424E+01
 0.49321644408E+01 0.44851601916E+01 0.40732122655E+01 0.37030309527E+01 0.33786646990E+01
 0.31024109634E+01 0.28756385289E+01 0.26988894577E+01 0.25725235569E+01 0.24966353796E+01
 0.24713460543E+01 0.24966353796E+01 0.25725235569E+01 0.26988894577E+01 0.28756385289E+01
 0.31024109634E+01 0.33786646990E+01 0.37030309527E+01 0.40732122655E+01 0.44851601916E+01
 0.49321644408E+01 0.54057831424E+01 0.58936156282E+01 0.63807023155E+01 0.68508821026E+01
 0.72869438883E+01 0.76714985712E+01 0.79886095821E+01 0.82250443146E+01 0.83709506621E+01
 0.82555968986E+01 0.82071775790E+01 0.80640694012E+01 0.78325705018E+01 0.75227582347E+01
 0.71478021818E+01 0.67230364299E+01 0.62650778190E+01 0.57910356235E+01 0.53170912709E+01
 0.48567941555E+01 0.44211349940E+01 0.40194473180E+01 0.36575923169E+01 0.33397205842E+01
 0.30684742645E+01 0.28452686833E+01 0.26710588249E+01 0.25462977970E+01 0.24713460543E+01
 0.24463291862E+01 0.24713460543E+01 0.25462977970E+01 0.26710588249E+01 0.28452686833E+01
 0.30684742645E+01 0.33397205842E+01 0.36575923169E+01 0.40194473180E+01 0.44211349940E+01
 0.48567941555E+01 0.53170912709E+01 0.57910356235E+01 0.62650778190E+01 0.67230364299E+01
 0.71478021818E+01 0.75227582347E+01 0.78325705018E+01 0.80640694012E+01 0.82071775790E+01
 0.84202649406E+01 0.83709506621E+01 0.82250443146E+01 0.79886095821E+01 0.76714985712E+01
 0.72869438883E+01 0.68508821026E+01 0.63807023155E+01 0.58936156282E+01 0.54057831424E+01
 0.49321644408E+01 0.44851601916E+01 0.40732122655E+01 0.37030309527E+01 0.33786646990E+01
 0.31024109634E+01 0.28756385289E+01 0.26988894577E+01 0.25725235569E+01 0.24966353796E+01
 0.24713460543E+01 0.24966353796E+01 0.25725235569E+01 0.26988894577E+01 0.28756385289E+01
 0.31024109634E+01 0.33786646990E+01 0.37030309527E+01 0.40732122655E+01 0.44851601916E+01
 0.49321644408E+01 0.54057831424E+01 0.58936156282E+01 0.63807023155E+01 0.68508821026E+01
 0.72869438883E+01 0.76714985712E+01 0.79886095821E+01 0.82250443146E+01 0.83709506621E+01
 0.89100461866E+01 0.88581932459E+01 0.87045899104E+01 0.84550801143E+01 0.81191261220E+01
 0.77095440229E+01 0.72419629524E+01 0.67343531129E+01 0.62065015297E+01 0.56779037506E+01
 0.51651244807E+01 0.46815678029E+01 0.42384092530E+01 0.38422835854E+01 0.34973042093E+01
 0.32055033728E+01 0.29673343672E+01 0.27827335344E+01 0.26512374784E+01 0.25725235569E+01
 0.25462977970E+01 0.25725235569E+01 0.26512374784E+01 0.27827335344E+01 0.29673343672E+01
 0.32055033728E+01 0.34973042093E+01 0.38422835854E+01 0.42384092530E+01 0.46815678029E+01
 0.51651244807E+01 0.56779037506E+01 0.62065015297E+01 0.67343531129E+01 0.72419629524E+01
 0.77095440229E+01 0.81191261220E+01 0.84550801143E+01 0.87045899104E+01 0.88581932459E+01
 0.97600000147E+01 0.97029038570E+01 0.95333814386E+01 0.92570278512E+01 0.88837104373E+01
 0.84277203180E+01 0.79067598057E+01 0.73403390241E+01 0.67482629488E+01 0.61510868793E+01
 0.55702887569E+01 0.50244330014E+01 0.45257774663E+01 0.40832353581E+01 0.37012609186E+01
 0.33811005837E+01 0.31223386424E+01 0.29234045503E+01 0.27827335344E+01 0.26988894577E+01
 0.26710588249E+01 0.26988894577E+01 0.27827335344E+01 0.29234045503E+01 0.31223386424E+01
 0.33811005837E+01 0.37012609186E+01 0.40832353581E+01 0.45257774663E+01 0.50244330014E+01
 0.55702887569E+01 0.61510868793E+01 0.67482629488E+01 0.73403390241E+01 0.79067598057E+01
 0.84277203180E+01 0.88837104373E+01 0.92570278512E+01 0.95333814386E+01 0.97029038570E+01
 0.11056886038E+02 0.10992606003E+02 0.10800577262E+02 0.10484047379E+02 0.10050894429E+02
 0.95156793573E+01 0.89003615107E+01 0.82322141711E+01 0.75393381011E+01 0.68455877530E+01
 0.61700078501E+01 0.55319294533E+01 0.49507395022E+01 0.44377536184E+01 0.39985940321E+01
 0.36345422861E+01 0.33435251088E+01 0.31223386424E+01 0.29673343672E+01 0.28756385289E+01
 0.28452686833E+01 0.28756385289E+01 0.29673343672E+01 0.31223386424E+01 0.33435251088E+01
 0.36345422861E+01 0.39985940321E+01 0.44377536184E+01 0.49507395022E+01 0.55319294533E+01
 0.61700078501E+01 0.68455877530E+01 0.75393381011E+01 0.82322141711E+01 0.89003615107E+01
 0.95156793573E+01 0.10050894429E+02 0.10484047379E+02 0.10800577262E+02 0.10992606003E+02
 0.12872919998E+02 0.12801892081E+02 0.12587421381E+02 0.12227213396E+02 0.11722630572E+02
 0.11084057403E+02 0.10334280190E+02 0.95082323622E+01 0.86482586250E+01 0.77958697063E+01
 0.69819967143E+01 0.62227118036E+01 0.55294891606E+01 0.49184819145E+01 0.43988421437E+01
 0.39718461036E+01 0.36345422861E+01 0.33811005837E+01 0.32055033728E+01 0.31024109634E+01
 0.30684742645E+01 0.31024109634E+01 0.32055033728E+01 0.33811005837E+01 0.36345422861E+01
 0.39718461036E+01 0.43988421437E+01 0.49184819145E+01 0.55294891606E+01 0.62227118036E+01
 0.69819967143E+01 0.77958697063E+01 0.86482586250E+01 0.95082323622E+01 0.10334280190E+02
 0.11084057403E+02 0.11722630572E+02 0.12227213396E+02 0.12587421381E+02 0.12801892081E+02
 0.15241027922E+02 0.15166019203E+02 0.14935993591E+02 0.14539016913E+02 0.13964309498E+02
 0.13212092350E+02 0.12301339061E+02 0.11271984848E+02 0.10180346257E+02 0.90888968078E+01
 0.80536004125E+01 0.71114540564E+01 0.62728090897E+01 0.55360998374E+01 0.49099091606E+01
 0.43988421437E+01 0.39985940321E+01 0.37012609186E+01 0.34973042093E+01 0.33786646990E+01
 0.33397205842E+01 0.33786646990E+01 0.34973042093E+01 0.37012609186E+01 0.39985940321E+01
 0.43988421437E+01 0.49099091606E+01 0.55360998374E+01 0.62728090897E+01 0.71114540564E+01
 0.80536004125E+01 0.90888968078E+01 0.10180346257E+02 0.11271984848E+02 0.12301339061E+02
 0.13212092350E+02 0.13964309498E+02 0.14539016913E+02 0.14935993591E+02 0.15166019203E+02
 0.18142649447E+02 0.18068262448E+02 0.17835060408E+02 0.17417421686E+02 0.16786431461E+02
 0.15925289058E+02 0.14842761063E+02 0.13579425432E+02 0.12204638019E+02 0.10804161351E+02
 0.94626470795E+01 0.82460714656E+01 0.71901562483E+01 0.62929796467E+01 0.55360998374E+01
 0.49184819145E+01 0.44377536184E+01 0.40832353581E+01 0.38422835854E+01 0.37030309527E+01
 0.36575923169E+01 0.37030309527E+01 0.38422835854E+01 0.40832353581E+01 0.44377536184E+01
 0.49184819145E+01 0.55360998374E+01 0.62929796467E+01 0.71901562483E+01 0.82460714656E+01
 0.94626470795E+01 0.10804161351E+02 0.12204638019E+02 0.13579425432E+02 0.14842761063E+02
 0.15925289058E+02 0.16786431461E+02 0.17417421686E+02 0.17835060408E+02 0.18068262448E+02
 0.21512103583E+02 0.21443024137E+02 0.21219620070E+02 0.20799912945E+02 0.20132263006E+02
 0.19177344774E+02 0.17927500948E+02 0.16418650499E+02 0.14729150209E+02 0.12967424915E+02
 0.11249997276E+02 0.96782454065E+01 0.83175191692E+01 0.71901562483E+01 0.62728090897E+01
 0.55294891606E+01 0.49507395022E+01 0.45257774663E+01 0.42384092530E+01 0.40732122655E+01
 0.40194473180E+01 0.40732122655E+01 0.42384092530E+01 0.45257774663E+01 0.49507395022E+01
 0.55294891606E+01 0.62728090897E+01 0.71901562483E+01 0.83175191692E+01 0.96782454065E+01
 0.11249997276E+02 0.12967424915E+02 0.14729150209E+02 0.16418650499E+02 0.17927500948E+02
 0.19177344774E+02 0.20132263006E+02 0.20799912945E+02 0.21219620070E+02 0.21443024137E+02
 0.25258518044E+02 0.25196761702E+02 0.24989616606E+02 0.24578276616E+02 0.23887859343E+02
 0.22853802516E+02 0.21448515295E+02 0.19697755358E+02 0.17684472972E+02 0.15535696421E+02
 0.13399074014E+02 0.11412240011E+02 0.96782454065E+01 0.82460714656E+01 0.71114540564E+01
 0.62227118036E+01 0.55319294533E+01 0.50244330014E+01 0.46815678029E+01 0.44851601916E+01
 0.44211349940E+01 0.44851601916E+01 0.46815678029E+01 0.50244330014E+01 0.55319294533E+01
 0.62227118036E+01 0.71114540564E+01 0.82460714656E+01 0.96782454065E+01 0.11412240011E+02
 0.13399074014E+02 0.15535696421E+02 0.17684472972E+02 0.19697755358E+02 0.21448515295E+02
 0.22853802516E+02 0.23887859343E+02 0.24578276616E+02 0.24989616606E+02 0.25196761702E+02
 0.29298231587E+02 0.29240390247E+02 0.29040272222E+02 0.28626725403E+02 0.27905801534E+02
 0.26791762533E+02 0.25237099616E+02 0.23255295594E+02 0.20927615131E+02 0.18393801074E+02
 0.15826616626E+02 0.13399074014E+02 0.11249997276E+02 0.94626470795E+01 0.80536004125E+01
 0.69819967143E+01 0.61700078501E+01 0.55702887569E+01 0.51651244807E+01 0.49321644408E+01
 0.48567941555E+01 0.49321644408E+01 0.51651244807E+01 0.55702887569E+01 0.61700078501E+01
 0.69819967143E+01 0.80536004125E+01 0.94626470795E+01 0.11249997276E+02 0.13399074014E+02
 0.15826616626E+02 0.18393801074E+02 0.20927615131E+02 0.23255295594E+02 0.25237099616E+02
 0.26791762533E+02 0.27905801534E+02 0.28626725403E+02 0.29040272222E+02 0.29240390247E+02
 0.33582501891E+02 0.33516867153E+02 0.33292205129E+02 0.32833310380E+02 0.32038962223E+02
 0.30812655797E+02 0.29094280948E+02 0.26885798127E+02 0.24262826035E+02 0.21369290809E+02
 0.18393801074E+02 0.15535696421E+02 0.12967424915E+02 0.10804161351E+02 0.90888968078E+01
 0.77958697063E+01 0.68455877530E+01 0.61510868793E+01 0.56779037506E+01 0.54057831424E+01
 0.53170912709E+01 0.54057831424E+01 0.56779037506E+01 0.61510868793E+01 0.68455877530E+01
 0.77958697063E+01 0.90888968078E+01 0.10804161351E+02 0.12967424915E+02 0.15535696421E+02
 0.18393801074E+02 0.21369290809E+02 0.24262826035E+02 0.26885798127E+02 0.29094280948E+02
 0.30812655797E+02 0.32038962223E+02 0.32833310380E+02 0.33292205129E+02 0.33516867153E+02
 0.38102147048E+02 0.38008225239E+02 0.37702417894E+02 0.37118329370E+02 0.36165408390E+02
 0.34754256534E+02 0.32826107974E+02 0.30377675720E+02 0.27477040572E+02 0.24262826035E+02
 0.20927615131E+02 0.17684472972E+02 0.14729150209E+02 0.12204638019E+02 0.10180346257E+02
 0.86482586250E+01 0.75393381011E+01 0.67482629488E+01 0.62065015297E+01 0.58936156282E+01
 0.57910356235E+01 0.58936156282E+01 0.62065015297E+01 0.67482629488E+01 0.75393381011E+01
 0.86482586250E+01 0.10180346257E+02 0.12204638019E+02 0.14729150209E+02 0.17684472972E+02
 0.20927615131E+02 0.24262826035E+02 0.27477040572E+02 0.30377675720E+02 0.32826107974E+02
 0.34754256534E+02 0.36165408390E+02 0.37118329370E+02 0.37702417894E+02 0.38008225239E+02
 0.42862785563E+02 0.42713119176E+02 0.42249269124E+02 0.41429725264E+02 0.40196485592E+02
 0.38490813266E+02 0.36274105848E+02 0.33549181174E+02 0.30377675720E+02 0.26885798127E+02
 0.23255295594E+02 0.19697755358E+02 0.16418650499E+02 0.13579425432E+02 0.11271984848E+02
 0.95082323622E+01 0.82322141711E+01 0.73403390241E+01 0.67343531129E+01 0.63807023155E+01
 0.62650778190E+01 0.63807023155E+01 0.67343531129E+01 0.73403390241E+01 0.82322141711E+01
 0.95082323622E+01 0.11271984848E+02 0.13579425432E+02 0.16418650499E+02 0.19697755358E+02
 0.23255295594E+02 0.26885798127E+02 0.30377675720E+02 0.33549181174E+02 0.36274105848E+02
 0.38490813266E+02 0.40196485592E+02 0.41429725264E+02 0.42249269124E+02 0.42713119176E+02
 0.47836874803E+02 0.47601319445E+02 0.46894691825E+02 0.45716492532E+02 0.44064059080E+02
 0.41934175073E+02 0.39329854894E+02 0.36274105848E+02 0.32826107974E+02 0.29094280948E+02
 0.25237099616E+02 0.21448515295E+02 0.17927500948E+02 0.14842761063E+02 0.12301339061E+02
 0.10334280190E+02 0.89003615107E+01 0.79067598057E+01 0.72419629524E+01 0.68508821026E+01
 0.67230364299E+01 0.68508821026E+01 0.72419629524E+01 0.79067598057E+01 0.89003615107E+01
 0.10334280190E+02 0.12301339061E+02 0.14842761063E+02 0.17927500948E+02 0.21448515295E+02
 0.25237099616E+02 0.29094280948E+02 0.32826107974E+02 0.36274105848E+02 0.39329854894E+02
 0.41934175073E+02 0.44064059080E+02 0.45716492532E+02 0.46894691825E+02 0.47601319445E+02
 0.52911210838E+02 0.52563295158E+02 0.51539288357E+02 0.49892780588E+02 0.47695666175E+02
 0.45021423804E+02 0.41934175073E+02 0.38490813266E+02 0.34754256534E+02 0.30812655797E+02
 0.26791762533E+02 0.22853802516E+02 0.19177344774E+02 0.15925289058E+02 0.13212092350E+02
 0.11084057403E+02 0.95156793573E+01 0.84277203180E+01 0.77095440229E+01 0.72869438883E+01
 0.71478021818E+01 0.72869438883E+01 0.77095440229E+01 0.84277203180E+01 0.95156793573E+01
 0.11084057403E+02 0.13212092350E+02 0.15925289058E+02 0.19177344774E+02 0.22853802516E+02
 0.26791762533E+02 0.30812655797E+02 0.34754256534E+02 0.38490813266E+02 0.41934175073E+02
 0.45021423804E+02 0.47695666175E+02 0.49892780588E+02 0.51539288357E+02 0.52563295158E+02
 0.57855152818E+02 0.57378921467E+02 0.55992304369E+02 0.53810290269E+02 0.50990399099E+02
 0.47695666175E+02 0.44064059080E+02 0.40196485592E+02 0.36165408390E+02 0.32038962223E+02
 0.27905801534E+02 0.23887859343E+02 0.20132263006E+02 0.16786431461E+02 0.13964309498E+02
 0.11722630572E+02 0.10050894429E+02 0.88837104373E+01 0.81191261220E+01 0.76714985712E+01
 0.75227582347E+01 0.76714985712E+01 0.81191261220E+01 0.88837104373E+01 0.10050894429E+02
 0.11722630572E+02 0.13964309498E+02 0.16786431461E+02 0.20132263006E+02 0.23887859343E+02
 0.27905801534E+02 0.32038962223E+02 0.36165408390E+02 0.40196485592E+02 0.44064059080E+02
 0.47695666175E+02 0.50990399099E+02 0.53810290269E+02 0.55992304369E+02 0.57378921467E+02
 0.62327478437E+02 0.61722952070E+02 0.59973525617E+02 0.57254997058E+02 0.53810290269E+02
 0.49892780588E+02 0.45716492532E+02 0.41429725264E+02 0.37118329370E+02 0.32833310380E+02
 0.28626725403E+02 0.24578276616E+02 0.20799912945E+02 0.17417421686E+02 0.14539016913E+02
 0.12227213396E+02 0.10484047379E+02 0.92570278512E+01 0.84550801143E+01 0.79886095821E+01
 0.78325705018E+01 0.79886095821E+01 0.84550801143E+01 0.92570278512E+01 0.10484047379E+02
 0.12227213396E+02 0.14539016913E+02 0.17417421686E+02 0.20799912945E+02 0.24578276616E+02
 0.28626725403E+02 0.32833310380E+02 0.37118329370E+02 0.41429725264E+02 0.45716492532E+02
 0.49892780588E+02 0.53810290269E+02 0.57254997058E+02 0.59973525617E+02 0.61722952070E+02
 0.65926383988E+02 0.65212084143E+02 0.63152005123E+02 0.59973525617E+02 0.55992304369E+02
 0.51539288357E+02 0.46894691825E+02 0.42249269124E+02 0.37702417894E+02 0.33292205129E+02
 0.29040272222E+02 0.24989616606E+02 0.21219620070E+02 0.17835060408E+02 0.14935993591E+02
 0.12587421381E+02 0.10800577262E+02 0.95333814386E+01 0.87045899104E+01 0.82250443146E+01
 0.80640694012E+01 0.82250443146E+01 0.87045899104E+01 0.95333814386E+01 0.10800577262E+02
 0.12587421381E+02 0.14935993591E+02 0.17835060408E+02 0.21219620070E+02 0.24989616606E+02
 0.29040272222E+02 0.33292205129E+02 0.37702417894E+02 0.42249269124E+02 0.46894691825E+02
 0.51539288357E+02 0.55992304369E+02 0.59973525617E+02 0.63152005123E+02 0.65212084143E+02
 0.68270127872E+02 0.67481787484E+02 0.65212084143E+02 0.61722952070E+02 0.57378921467E+02
 0.52563295158E+02 0.47601319445E+02 0.42713119176E+02 0.38008225239E+02 0.33516867153E+02
 0.29240390247E+02 0.25196761702E+02 0.21443024137E+02 0.18068262448E+02 0.15166019203E+02
 0.12801892081E+02 0.10992606003E+02 0.97029038570E+01 0.88581932459E+01 0.83709506621E+01
 0.82071775790E+01 0.83709506621E+01 0.88581932459E+01 0.97029038570E+01 0.10992606003E+02
 0.12801892081E+02 0.15166019203E+02 0.18068262448E+02 0.21443024137E+02 0.25196761702E+02
 0.29240390247E+02 0.33516867153E+02 0.38008225239E+02 0.42713119176E+02 0.47601319445E+02
 0.52563295158E+02 0.57378921467E+02 0.61722952070E+02 0.65212084143E+02 0.67481787484E+02
 0.68270127872E+02 0.67481787484E+02 0.65212084143E+02 0.61722952070E+02 0.57378921467E+02
 0.52563295158E+02 0.47601319445E+02 0.42713119176E+02 0.38008225239E+02 0.33516867153E+02
 0.29240390247E+02 0.25196761702E+02 0.21443024137E+02 0.18068262448E+02 0.15166019203E+02
 0.12801892081E+02 0.10992606003E+02 0.97029038570E+01 0.88581932459E+01 0.83709506621E+01
 0.82071775790E+01 0.83709506621E+01 0.88581932459E+01 0.97029038570E+01 0.10992606003E+02
 0.12801892081E+02 0.15166019203E+02 0.18068262448E+02 0.21443024137E+02 0.25196761702E+02