    1    1   80    1
  0.1815619E+02  0.2628300E-09  0.2628300E-09  0.2628300E-09  0.5000000E-15
  1.000000000000000E-004
  CAR 
 unknown system                          
     10     56     10
 
  0.0000000E+00  0.0000000E+00  0.0000000E+00  0.1000000E-02
    1       -2.996863   1.000000
    2       -0.259500   1.000000
    3       -0.259500   1.000000
    4        5.627686   0.050172
    5        5.627686   0.050172
    6        5.627686   0.050172
    7       20.764261   0.000000
    8       20.764261   0.000000
    9       20.764261   0.000000
   10       26.176380   0.000000
 
  0.1000000E+00  0.0000000E+00  0.0000000E+00  0.6000000E-02
    1       -2.721743   1.000000
    2       -0.208529   1.000000
    3       -0.007741   1.000000
    4        5.385789   0.526824
    5        5.385789   0.526824
    6        5.646939   0.037593
    7       18.943058   0.000000
    8       21.251889   0.000000
    9       21.251889   0.000000
   10       27.068719   0.000000
 
  0.2000000E+00  0.0000000E+00  0.0000000E+00  0.6000000E-02
    1       -2.030008   1.000000
    2       -0.072201   1.000000
    3        0.794927   1.000000
    4        4.802419   0.999986
    5        4.802419   0.999986
    6        5.697693   0.016250
    7       15.965889   0.000000
    8       22.541823   0.000000
    9       22.541823   0.000000
   10       25.761570   0.000000
 
  0.3000000E+00  0.0000000E+00  0.0000000E+00  0.6000000E-02
    1       -1.242384   1.000000
    2        0.102419   1.000000
    3        2.190149   1.000000
    4        4.159578   1.000000
    5        4.159578   1.000000
    6        5.761064   0.004850
    7       13.157640   0.000000
    8       24.047375   0.000000
    9       24.259167   0.000000
   10       24.259314   0.000000
 
  0.4000000E+00  0.0000000E+00  0.0000000E+00  0.6000000E-02
    1       -0.642759   1.000000
    2        0.249099   1.000000
    3        3.688043   1.000000
    4        3.688043   1.000000
    5        3.900678   1.000000
    6        5.812892   0.001575
    7       10.835120   0.000000
    8       22.914990   0.000000
    9       25.951294   0.000000
   10       26.061102   0.000000
 
  0.5000000E+00  0.0000000E+00  0.0000000E+00  0.3000000E-02
    1       -0.415523   1.000000
    2        0.306560   1.000000
    3        3.517468   1.000000
    4        3.517468   1.000000
    5        4.889617   0.999825
    6        5.832834   0.000988
    7        9.706696   0.000000
    8       22.520921   0.000000
    9       25.538003   0.000000
   10       26.792447   0.000000
 
  0.1000000E+00  0.1000000E+00  0.0000000E+00  0.1200000E-01
    1       -2.442460   1.000000
    2       -0.053503   1.000000
    3        0.135046   1.000000
    4        5.130887   0.969238
    5        5.370124   0.570659
    6        5.445616   0.361011
    7       19.100362   0.000000
    8       19.680704   0.000000
    9       21.742621   0.000000
   10       27.210915   0.000000
 
  0.2000000E+00  0.1000000E+00  0.0000000E+00  0.2400000E-01
    1       -1.747669   1.000000
    2        0.128035   1.000000
    3        0.879647   1.000000
    4        4.533195   1.000000
    5        4.825012   0.999972
    6        5.470787   0.296760
    7       16.363839   0.000000
    8       20.482491   0.000000
    9       23.043594   0.000000
   10       26.009830   0.000000
 
  0.3000000E+00  0.1000000E+00  0.0000000E+00  0.2400000E-01
    1       -0.970199   1.000000
    2        0.318522   1.000000
    3        2.140757   1.000000
    4        4.023031   1.000000
    5        4.189787   1.000000
    6        5.539789   0.153472
    7       13.510135   0.000000
    8       21.766070   0.000000
    9       24.583479   0.000000
   10       24.785903   0.000000
 
  0.4000000E+00  0.1000000E+00  0.0000000E+00  0.2400000E-01
    1       -0.379608   1.000000
    2        0.489643   1.000000
    3        2.715467   1.000000
    4        3.722430   1.000000
    5        4.767582   0.999995
    6        5.596927   0.076980
    7       11.045656   0.000000
    8       22.627095   0.000000
    9       24.041074   0.000000
   10       26.543397   0.000000
 
  0.5000000E+00  0.1000000E+00  0.0000000E+00  0.1200000E-01
    1       -0.154682   1.000000
    2        0.566566   1.000000
    3        2.628553   1.000000
    4        3.553113   1.000000
    5        5.618949   0.056893
    6        5.822492   0.001261
    7        9.728531   0.000000
    8       22.605584   0.000000
    9       25.009374   0.000000
   10       25.085896   0.000000
 
  0.2000000E+00  0.2000000E+00  0.0000000E+00  0.1200000E-01
    1       -1.090408   1.000000
    2        0.633665   1.000000
    3        1.289988   1.000000
    4        3.946955   1.000000
    5        4.816456   0.999979
    6        4.988661   0.997982
    7       17.326000   0.000000
    8       17.427592   0.000000
    9       24.375148   0.000000
   10       25.685544   0.000000
 
  0.3000000E+00  0.2000000E+00  0.0000000E+00  0.2400000E-01
    1       -0.438972   1.000000
    2        0.982299   1.000000
    3        2.122898   1.000000
    4        3.856020   1.000000
    5        4.267940   1.000000
    6        5.001529   0.997319
    7       14.361003   0.000000
    8       18.741445   0.000000
    9       24.704375   0.000000
   10       26.164495   0.000000
 
  0.4000000E+00  0.2000000E+00  0.0000000E+00  0.2400000E-01
    1        0.022953   1.000000
    2        1.238492   1.000000
    3        1.983889   1.000000
    4        3.813453   1.000000
    5        5.067905   0.989695
    6        5.556487   0.127199
    7       11.589285   0.000000
    8       20.290567   0.000000
    9       23.517674   0.000000
   10       26.069640   0.000000
 
  0.5000000E+00  0.2000000E+00  0.0000000E+00  0.1200000E-01
    1        0.197876   1.000000
    2        1.435227   1.000000
    3        1.705340   1.000000
    4        3.647716   1.000000
    5        5.094390   0.983323
    6        7.171832   0.000000
    7        9.785412   0.000000
    8       21.947182   0.000000
    9       22.059182   0.000000
   10       24.942955   0.000000
 
  0.3000000E+00  0.3000000E+00  0.0000000E+00  0.1200000E-01
    1       -0.011570   1.000000
    2        1.029829   1.000000
    3        3.114729   1.000000
    4        4.199778   1.000000
    5        4.307879   1.000000
    6        4.458646   1.000000
    7       14.591712   0.000000
    8       16.731168   0.000000
    9       23.818613   0.000000
   10       27.850532   0.000000
 
  0.4000000E+00  0.3000000E+00  0.0000000E+00  0.2400000E-01
    1        0.285177   1.000000
    2        0.684177   1.000000
    3        3.586385   1.000000
    4        3.927989   1.000000
    5        4.474287   1.000000
    6        6.237769   0.000000
    7       12.161937   0.000000
    8       17.696620   0.000000
    9       22.003356   0.000000
   10       26.554996   0.000000
 
  0.5000000E+00  0.3000000E+00  0.0000000E+00  0.1200000E-01
    1        0.462710   1.000000
    2        0.469202   1.000000
    3        3.664505   1.000000
    4        3.767369   1.000000
    5        4.504312   1.000000
    6        8.444117   0.000000
    7        9.851596   0.000000
    8       18.857741   0.000000
    9       20.571216   0.000000
   10       25.925050   0.000000
 
  0.4000000E+00  0.4000000E+00  0.0000000E+00  0.1200000E-01
    1        0.024036   1.000000
    2        0.602695   1.000000
    3        4.001402   1.000000
    4        4.054254   1.000000
    5        5.415569   0.443029
    6        7.327694   0.000000
    7       11.787965   0.000000
    8       16.161643   0.000000
    9       20.155589   0.000000
   10       27.366671   0.000000
 
  0.5000000E+00  0.4000000E+00  0.0000000E+00  0.1200000E-01
    1       -0.163293   1.000000
    2        0.674761   1.000000
    3        3.866555   1.000000
    4        4.065090   1.000000
    5        5.921860   0.000098
    6        9.444296   0.000000
    7        9.881493   0.000000
    8       16.093022   0.000000
    9       19.218400   0.000000
   10       27.233083   0.000000
 
  0.5000000E+00  0.5000000E+00  0.0000000E+00  0.3000000E-02
    1       -0.378873   1.000000
    2        0.753759   1.000000
    3        3.904974   1.000000
    4        3.904974   1.000000
    5        7.194266   0.000000
    6        9.850740   0.000000
    7        9.850740   0.000000
    8       14.720060   0.000000
    9       18.667955   0.000000
   10       27.759359   0.000000
 
  0.1000000E+00  0.1000000E+00  0.1000000E+00  0.8000000E-02
    1       -2.156333   1.000000
    2        0.185751   1.000000
    3        0.185751   1.000000
    4        5.095577   0.982971
    5        5.186445   0.930144
    6        5.186445   0.930144
    7       19.229313   0.000000
    8       20.138624   0.000000
    9       20.138625   0.000000
   10       28.806587   0.000000
 
  0.2000000E+00  0.1000000E+00  0.1000000E+00  0.2400000E-01
    1       -1.450189   1.000000
    2        0.322678   1.000000
    3        0.953056   1.000000
    4        4.561211   1.000000
    5        4.563038   1.000000
    6        5.226975   0.883030
    7       16.755030   0.000000
    8       20.565911   0.000000
    9       21.281642   0.000000
   10       27.171202   0.000000
 
  0.3000000E+00  0.1000000E+00  0.1000000E+00  0.2400000E-01
    1       -0.666734   1.000000
    2        0.502252   1.000000
    3        2.112552   1.000000
    4        3.874870   1.000000
    5        4.216209   1.000000
    6        5.304839   0.738812
    7       13.872244   0.000000
    8       21.784869   0.000000
    9       22.484122   0.000000
   10       25.978827   0.000000
 
  0.4000000E+00  0.1000000E+00  0.1000000E+00  0.2400000E-01
    1       -0.049887   1.000000
    2        0.659110   1.000000
    3        2.481447   1.000000
    4        3.364415   1.000000
    5        5.263587   0.824173
    6        5.389251   0.517071
    7       11.284267   0.000000
    8       22.868481   0.000000
    9       23.128010   0.000000
   10       26.000086   0.000000
 
  0.5000000E+00  0.1000000E+00  0.1000000E+00  0.1200000E-01
    1        0.205730   1.000000
    2        0.722864   1.000000
    3        2.373308   1.000000
    4        3.176997   1.000000
    5        5.390012   0.514927
    6        6.545936   0.000000
    7        9.766768   0.000000
    8       22.791667   0.000000
    9       24.435032   0.000000
   10       25.011997   0.000000
 
  0.2000000E+00  0.2000000E+00  0.1000000E+00  0.2400000E-01
    1       -0.759920   1.000000
    2        0.812042   1.000000
    3        1.333817   1.000000
    4        3.982367   1.000000
    5        4.600437   1.000000
    6        4.695080   1.000000
    7       17.709747   0.000000
    8       17.813043   0.000000
    9       22.008654   0.000000
   10       27.372173   0.000000
 
  0.3000000E+00  0.2000000E+00  0.1000000E+00  0.4800000E-01
    1       -0.081761   1.000000
    2        1.105954   1.000000
    3        2.137759   1.000000
    4        3.628783   1.000000
    5        4.328433   1.000000
    6        4.759976   0.999996
    7       14.756861   0.000000
    8       19.065693   0.000000
    9       23.131137   0.000000
   10       26.273940   0.000000
 
  0.4000000E+00  0.2000000E+00  0.1000000E+00  0.4800000E-01
    1        0.425989   1.000000
    2        1.309141   1.000000
    3        2.008002   1.000000
    4        3.289832   1.000000
    5        4.806569   0.999984
    6        5.997976   0.000010
    7       11.898302   0.000000
    8       20.572264   0.000000
    9       23.575861   0.000000
   10       24.847405   0.000000
 
  0.5000000E+00  0.2000000E+00  0.1000000E+00  0.2400000E-01
    1        0.642281   1.000000
    2        1.446894   1.000000
    3        1.756026   1.000000
    4        3.116530   1.000000
    5        4.843667   0.999952
    6        7.815578   0.000000
    7        9.867835   0.000000
    8       22.199773   0.000000
    9       22.428371   0.000000
   10       24.138363   0.000000
 
  0.3000000E+00  0.3000000E+00  0.1000000E+00  0.2400000E-01
    1        0.339877   1.000000
    2        1.155091   1.000000
    3        3.061414   1.000000
    4        3.617884   1.000000
    5        4.217462   1.000000
    6        4.795226   0.999989
    7       15.110861   0.000000
    8       16.945216   0.000000
    9       23.918321   0.000000
   10       24.830205   0.000000
 
  0.4000000E+00  0.3000000E+00  0.1000000E+00  0.4800000E-01
    1        0.546551   1.000000
    2        0.915635   1.000000
    3        3.394198   1.000000
    4        3.431824   1.000000
    5        4.372177   1.000000
    6        6.663162   0.000000
    7       12.579323   0.000000
    8       17.960262   0.000000
    9       22.143076   0.000000
   10       25.037199   0.000000
 
  0.5000000E+00  0.3000000E+00  0.1000000E+00  0.2400000E-01
    1        0.528148   1.000000
    2        0.907119   1.000000
    3        3.239520   1.000000
    4        3.482461   1.000000
    5        4.440922   1.000000
    6        9.073483   0.000000
    7       10.015452   0.000000
    8       19.277975   0.000000
    9       20.467330   0.000000
   10       25.164432   0.000000
 
  0.4000000E+00  0.4000000E+00  0.1000000E+00  0.2400000E-01
    1        0.105039   1.000000
    2        1.035318   1.000000
    3        3.493422   1.000000
    4        3.537688   1.000000
    5        5.584489   0.090491
    6        7.809279   0.000000
    7       12.323734   0.000000
    8       16.337468   0.000000
    9       20.064941   0.000000
   10       26.018222   0.000000
 
  0.5000000E+00  0.4000000E+00  0.1000000E+00  0.2400000E-01
    1       -0.083345   1.000000
    2        1.118844   1.000000
    3        3.359766   1.000000
    4        3.562086   1.000000
    5        6.084131   0.000001
    6       10.083631   0.000000
    7       10.242297   0.000000
    8       16.324956   0.000000
    9       19.009998   0.000000
   10       26.418995   0.000000
 
  0.5000000E+00  0.5000000E+00  0.1000000E+00  0.6000000E-02
    1       -0.295724   1.000000
    2        1.204584   1.000000
    3        3.407896   1.000000
    4        3.407896   1.000000
    5        7.207481   0.000000
    6       10.501823   0.000000
    7       10.501823   0.000000
    8       14.759491   0.000000
    9       18.422913   0.000000
   10       27.714180   0.000000
 
  0.2000000E+00  0.2000000E+00  0.2000000E+00  0.8000000E-02
    1       -0.020599   1.000000
    2        1.454410   1.000000
    3        1.454410   1.000000
    4        3.999217   1.000000
    5        3.999217   1.000000
    6        4.257245   1.000000
    7       18.288897   0.000000
    8       19.054758   0.000000
    9       19.054758   0.000000
   10       29.160020   0.000000
 
  0.3000000E+00  0.2000000E+00  0.2000000E+00  0.2400000E-01
    1        0.609966   1.000000
    2        1.623836   1.000000
    3        2.206485   1.000000
    4        3.234710   1.000000
    5        4.047026   1.000000
    6        4.673322   1.000000
    7       15.726834   0.000000
    8       19.513395   0.000000
    9       20.631948   0.000000
   10       27.255974   0.000000
 
  0.4000000E+00  0.2000000E+00  0.2000000E+00  0.2400000E-01
    1        1.063804   1.000000
    2        1.810718   1.000000
    3        2.054030   1.000000
    4        2.634658   1.000000
    5        4.244961   1.000000
    6        6.684927   0.000000
    7       12.677870   0.000000
    8       20.693380   0.000000
    9       22.218926   0.000000
   10       24.991611   0.000000
 
  0.5000000E+00  0.2000000E+00  0.2000000E+00  0.1200000E-01
    1        1.301617   1.000000
    2        1.832023   1.000000
    3        1.938084   1.000000
    4        2.362526   1.000000
    5        4.299071   1.000000
    6        9.080582   0.000000
    7       10.080197   0.000000
    8       21.704096   0.000000
    9       23.369321   0.000000
   10       23.370489   0.000000
 
  0.3000000E+00  0.3000000E+00  0.2000000E+00  0.2400000E-01
    1        0.873505   1.000000
    2        1.828897   1.000000
    3        2.751383   1.000000
    4        3.068612   1.000000
    5        3.862214   1.000000
    6        5.335959   0.662625
    7       16.423913   0.000000
    8       17.450305   0.000000
    9       21.277338   0.000000
   10       25.081415   0.000000
 
  0.4000000E+00  0.3000000E+00  0.2000000E+00  0.4800000E-01
    1        0.778961   1.000000
    2        1.899162   1.000000
    3        2.529749   1.000000
    4        2.973174   1.000000
    5        4.348406   1.000000
    6        7.416706   0.000000
    7       13.595191   0.000000
    8       18.515866   0.000000
    9       21.755887   0.000000
   10       23.496549   0.000000
 
  0.5000000E+00  0.3000000E+00  0.2000000E+00  0.2400000E-01
    1        0.689196   1.000000
    2        2.067227   1.000000
    3        2.236619   1.000000
    4        2.998248   1.000000
    5        4.476171   1.000000
    6       10.390099   0.000000
    7       10.413219   0.000000
    8       19.902993   0.000000
    9       20.363986   0.000000
   10       24.099665   0.000000
 
  0.4000000E+00  0.4000000E+00  0.2000000E+00  0.2400000E-01
    1        0.315220   1.000000
    2        2.065923   1.000000
    3        2.563225   1.000000
    4        2.750319   1.000000
    5        5.791699   0.002532
    6        8.747736   0.000000
    7       13.629139   0.000000
    8       16.703076   0.000000
    9       19.671917   0.000000
   10       24.319769   0.000000
 
  0.5000000E+00  0.4000000E+00  0.2000000E+00  0.2400000E-01
    1        0.133511   1.000000
    2        2.250117   1.000000
    3        2.345095   1.000000
    4        2.737719   1.000000
    5        6.299046   0.000000
    6       11.055960   0.000000
    7       11.476910   0.000000
    8       16.957954   0.000000
    9       18.357835   0.000000
   10       25.148960   0.000000
 
  0.5000000E+00  0.5000000E+00  0.2000000E+00  0.6000000E-02
    1       -0.069131   1.000000
    2        2.401188   1.000000
    3        2.401188   1.000000
    4        2.494070   1.000000
    5        7.242248   0.000000
    6       11.949515   0.000000
    7       11.949515   0.000000
    8       14.869956   0.000000
    9       17.715112   0.000000
   10       26.026491   0.000000
 
  0.3000000E+00  0.3000000E+00  0.3000000E+00  0.8000000E-02
    1        0.985512   1.000000
    2        2.155196   1.000000
    3        2.155196   1.000000
    4        3.781405   1.000000
    5        3.781405   1.000000
    6        6.239228   0.000000
    7       17.988077   0.000000
    8       18.103379   0.000000
    9       18.103379   0.000000
   10       25.381551   0.000000
 
  0.4000000E+00  0.3000000E+00  0.3000000E+00  0.2400000E-01
    1        0.849519   1.000000
    2        1.658339   1.000000
    3        2.093299   1.000000
    4        3.810945   1.000000
    5        4.693550   1.000000
    6        8.302850   0.000000
    7       14.776923   0.000000
    8       18.474516   0.000000
    9       19.795642   0.000000
   10       23.695316   0.000000
 
  0.5000000E+00  0.3000000E+00  0.3000000E+00  0.1200000E-01
    1        0.754684   1.000000
    2        1.474966   1.000000
    3        2.106564   1.000000
    4        3.830582   1.000000
    5        4.931120   0.999485
    6       10.985319   0.000000
    7       11.791932   0.000000
    8       18.677379   0.000000
    9       20.769393   0.000000
   10       22.963485   0.000000
 
  0.4000000E+00  0.4000000E+00  0.3000000E+00  0.2400000E-01
    1        0.577439   1.000000
    2        1.516793   1.000000
    3        1.655742   1.000000
    4        4.257519   1.000000
    5        5.933409   0.000071
    6        9.811401   0.000000
    7       15.195610   0.000000
    8       16.841353   0.000000
    9       18.647348   0.000000
   10       23.484995   0.000000
 
  0.5000000E+00  0.4000000E+00  0.3000000E+00  0.2400000E-01
    1        0.415589   1.000000
    2        1.401615   1.000000
    3        1.631843   1.000000
    4        4.322110   1.000000
    5        6.463884   0.000000
    6       11.996730   0.000000
    7       12.985514   0.000000
    8       17.372584   0.000000
    9       17.643689   0.000000
   10       24.350437   0.000000
 
  0.5000000E+00  0.5000000E+00  0.3000000E+00  0.6000000E-02
    1        0.230912   1.000000
    2        1.454230   1.000000
    3        1.454230   1.000000
    4        4.399671   1.000000
    5        7.285528   0.000000
    6       13.547195   0.000000
    7       13.547195   0.000000
    8       15.034703   0.000000
    9       16.746257   0.000000
   10       24.982190   0.000000
 
  0.4000000E+00  0.4000000E+00  0.4000000E+00  0.8000000E-02
    1        0.701625   1.000000
    2        1.043994   1.000000
    3        1.043994   1.000000
    4        6.020410   0.000005
    5        6.020410   0.000005
    6       11.269171   0.000000
    7       16.569816   0.000000
    8       16.569816   0.000000
    9       16.598317   0.000000
   10       23.167456   0.000000
 
  0.5000000E+00  0.4000000E+00  0.4000000E+00  0.1200000E-01
    1        0.602450   1.000000
    2        0.830156   1.000000
    3        1.030748   1.000000
    4        6.050507   0.000002
    5        6.745318   0.000000
    6       13.166925   0.000000
    7       14.239202   0.000000
    8       16.418853   0.000000
    9       17.169004   0.000000
   10       22.986486   0.000000
 
  0.5000000E+00  0.5000000E+00  0.4000000E+00  0.6000000E-02
    1        0.492750   1.000000
    2        0.819207   1.000000
    3        0.819207   1.000000
    4        6.384546   0.000000
    5        7.320727   0.000000
    6       14.848534   0.000000
    7       14.848534   0.000000
    8       15.239676   0.000000
    9       15.920518   0.000000
   10       23.354478   0.000000
 
  0.5000000E+00  0.5000000E+00  0.5000000E+00  0.1000000E-02
    1        0.598012   1.000000
    2        0.598012   1.000000
    3        0.598012   1.000000
    4        7.334196   0.000000
    5        7.334196   0.000000
    6       15.378231   0.000000
    7       15.378231   0.000000
    8       15.378231   0.000000
    9       15.599681   0.000000
   10       21.714519   0.000000
