 vasp.5.4.1 05Feb16 (build Mar 02 2016 14:09:44) complex                        
  
 executed on   Abel-impi-ifc-cuda date 2019.09.20  09:51:05
 running on    4 total cores
 distrk:  each k-point on    4 cores,    1 groups
 distr:  one band on NCORES_PER_BAND=   2 cores,    2 groups


--------------------------------------------------------------------------------------------------------


 INCAR:
 POTCAR:   PAW_PBE Pt 05Jan2001                   
 POTCAR:   PAW_PBE Pt 05Jan2001                   
  local pseudopotential read in
  partial core-charges read in
  atomic valenz-charges read in
  non local Contribution for L=           2  read in
    real space projection operators read in
  non local Contribution for L=           2  read in
    real space projection operators read in
  non local Contribution for L=           0  read in
    real space projection operators read in
  non local Contribution for L=           0  read in
    real space projection operators read in
  non local Contribution for L=           1  read in
    real space projection operators read in
  non local Contribution for L=           1  read in
    real space projection operators read in
    PAW grid and wavefunctions read in
 
   number of l-projection  operators is LMAX  =           6
   number of lm-projection operators is LMMAX =          18
 

 ----------------------------------------------------------------------------- 
|                                                                             |
|  ADVICE TO THIS USER RUNNING 'VASP/VAMP'   (HEAR YOUR MASTER'S VOICE ...):  |
|                                                                             |
|      You have a (more or less) 'small supercell' and for smaller cells      |
|      it is recommended  to use the reciprocal-space projection scheme!      |
|      The real space optimization is not  efficient for small cells and it   |
|      is also less accurate ...                                              |
|      Therefore set LREAL=.FALSE. in the  INCAR file                         |
|                                                                             |
 ----------------------------------------------------------------------------- 

 Optimization of the real space projectors (new method)

 maximal supplied QI-value         = 15.12
 optimisation between [QCUT,QGAM] = [ 11.34, 22.83] = [ 36.00,145.93] Ry 
 Optimized for a Real-space Cutoff    1.56 Angstroem

   l    n(q)    QCUT    max X(q) W(low)/X(q) W(high)/X(q)  e(spline) 
   2     10    11.338     3.643    0.58E-05    0.18E-04    0.79E-07
   2     10    11.338    46.462    0.14E-03    0.41E-03    0.78E-06
   0     11    11.338    13.796    0.17E-04    0.37E-05    0.56E-08
   0     11    11.338    57.669    0.42E-04    0.70E-04    0.20E-06
   1     10    11.338     7.440    0.30E-05    0.11E-04    0.38E-07
   1     10    11.338    10.255    0.32E-04    0.36E-04    0.14E-06
 PAW_PBE Pt 05Jan2001                   :
 energy of atom  1       EATOM= -729.1171
 kinetic energy error for atom=    0.0039 (will be added to EATOM!!)
 
 
 POSCAR: Pt_sc                                   
  positions in direct lattice
  velocities in cartesian coordinates
 exchange correlation table for  LEXCH =        8
   RHO(1)=    0.500       N(1)  =     2000
   RHO(2)=  100.500       N(2)  =     4000
 


--------------------------------------------------------------------------------------------------------


 ion  position               nearest neighbor table
   1  0.000  0.000  0.000-
 
  LATTYP: Found a simple cubic cell.
 ALAT       =     2.6282996518
  
  Lattice vectors:
  
 A1 = (   2.6282996518,   0.0000000000,   0.0000000000)
 A2 = (   0.0000000000,   2.6282996518,   0.0000000000)
 A3 = (   0.0000000000,   0.0000000000,   2.6282996518)


Analysis of symmetry for initial positions (statically):
=====================================================================
 Subroutine PRICEL returns:
 Original cell was already a primitive cell.
 

 Routine SETGRP: Setting up the symmetry group for a 
 simple cubic supercell.


 Subroutine GETGRP returns: Found 48 space group operations
 (whereof 48 operations were pure point group operations)
 out of a pool of 48 trial point group operations.


The static configuration has the point symmetry O_h .


Analysis of symmetry for dynamics (positions and initial velocities):
=====================================================================
 Subroutine PRICEL returns:
 Original cell was already a primitive cell.
 

 Routine SETGRP: Setting up the symmetry group for a 
 simple cubic supercell.


 Subroutine GETGRP returns: Found 48 space group operations
 (whereof 48 operations were pure point group operations)
 out of a pool of 48 trial point group operations.


The dynamic configuration has the point symmetry O_h .


 Subroutine INISYM returns: Found 48 space group operations
 (whereof 48 operations are pure point group operations),
 and found     1 'primitive' translations

 
 
 KPOINTS: k-density: 4.0                          

Automatic generation of k-mesh.
Space group operators:
 irot       det(A)        alpha          n_x          n_y          n_z        tau_x        tau_y        tau_z
    1     1.000000     0.000001     1.000000     0.000000     0.000000     0.000000     0.000000     0.000000
    2    -1.000000     0.000001     1.000000     0.000000     0.000000     0.000000     0.000000     0.000000
    3     1.000000   120.000000    -0.577350    -0.577350    -0.577350     0.000000     0.000000     0.000000
    4    -1.000000   120.000000    -0.577350    -0.577350    -0.577350     0.000000     0.000000     0.000000
    5     1.000000   120.000000     0.577350     0.577350     0.577350     0.000000     0.000000     0.000000
    6    -1.000000   120.000000     0.577350     0.577350     0.577350     0.000000     0.000000     0.000000
    7     1.000000    90.000000     0.000000     0.000000    -1.000000     0.000000     0.000000     0.000000
    8    -1.000000    90.000000     0.000000     0.000000    -1.000000     0.000000     0.000000     0.000000
    9     1.000000   180.000000     0.000000     0.707107     0.707107     0.000000     0.000000     0.000000
   10    -1.000000   180.000000     0.000000     0.707107     0.707107     0.000000     0.000000     0.000000
   11     1.000000    90.000000     0.000000     1.000000     0.000000     0.000000     0.000000     0.000000
   12    -1.000000    90.000000     0.000000     1.000000     0.000000     0.000000     0.000000     0.000000
   13     1.000000   180.000000     0.000000     0.000000     1.000000     0.000000     0.000000     0.000000
   14    -1.000000   180.000000     0.000000     0.000000     1.000000     0.000000     0.000000     0.000000
   15     1.000000   120.000000    -0.577350     0.577350     0.577350     0.000000     0.000000     0.000000
   16    -1.000000   120.000000    -0.577350     0.577350     0.577350     0.000000     0.000000     0.000000
   17     1.000000   120.000000    -0.577350     0.577350    -0.577350     0.000000     0.000000     0.000000
   18    -1.000000   120.000000    -0.577350     0.577350    -0.577350     0.000000     0.000000     0.000000
   19     1.000000    90.000000     0.000000     0.000000     1.000000     0.000000     0.000000     0.000000
   20    -1.000000    90.000000     0.000000     0.000000     1.000000     0.000000     0.000000     0.000000
   21     1.000000    90.000000    -1.000000     0.000000     0.000000     0.000000     0.000000     0.000000
   22    -1.000000    90.000000    -1.000000     0.000000     0.000000     0.000000     0.000000     0.000000
   23     1.000000   180.000000     0.707107     0.000000     0.707107     0.000000     0.000000     0.000000
   24    -1.000000   180.000000     0.707107     0.000000     0.707107     0.000000     0.000000     0.000000
   25     1.000000   120.000000     0.577350    -0.577350     0.577350     0.000000     0.000000     0.000000
   26    -1.000000   120.000000     0.577350    -0.577350     0.577350     0.000000     0.000000     0.000000
   27     1.000000   120.000000    -0.577350    -0.577350     0.577350     0.000000     0.000000     0.000000
   28    -1.000000   120.000000    -0.577350    -0.577350     0.577350     0.000000     0.000000     0.000000
   29     1.000000   179.999999     1.000000     0.000000     0.000000     0.000000     0.000000     0.000000
   30    -1.000000   179.999999     1.000000     0.000000     0.000000     0.000000     0.000000     0.000000
   31     1.000000    90.000000     0.000000    -1.000000     0.000000     0.000000     0.000000     0.000000
   32    -1.000000    90.000000     0.000000    -1.000000     0.000000     0.000000     0.000000     0.000000
   33     1.000000   180.000000     0.707107     0.707107     0.000000     0.000000     0.000000     0.000000
   34    -1.000000   180.000000     0.707107     0.707107     0.000000     0.000000     0.000000     0.000000
   35     1.000000    90.000000     1.000000     0.000000     0.000000     0.000000     0.000000     0.000000
   36    -1.000000    90.000000     1.000000     0.000000     0.000000     0.000000     0.000000     0.000000
   37     1.000000   120.000000     0.577350    -0.577350    -0.577350     0.000000     0.000000     0.000000
   38    -1.000000   120.000000     0.577350    -0.577350    -0.577350     0.000000     0.000000     0.000000
   39     1.000000   180.000000     0.000000     1.000000     0.000000     0.000000     0.000000     0.000000
   40    -1.000000   180.000000     0.000000     1.000000     0.000000     0.000000     0.000000     0.000000
   41     1.000000   120.000000     0.577350     0.577350    -0.577350     0.000000     0.000000     0.000000
   42    -1.000000   120.000000     0.577350     0.577350    -0.577350     0.000000     0.000000     0.000000
   43     1.000000   180.000000     0.000000    -0.707107     0.707107     0.000000     0.000000     0.000000
   44    -1.000000   180.000000     0.000000    -0.707107     0.707107     0.000000     0.000000     0.000000
   45     1.000000   180.000000     0.707107    -0.707107     0.000000     0.000000     0.000000     0.000000
   46    -1.000000   180.000000     0.707107    -0.707107     0.000000     0.000000     0.000000     0.000000
   47     1.000000   180.000000     0.707107     0.000000    -0.707107     0.000000     0.000000     0.000000
   48    -1.000000   180.000000     0.707107     0.000000    -0.707107     0.000000     0.000000     0.000000
 
 Subroutine IBZKPT returns following result:
 ===========================================
 
 Found     56 irreducible k-points:
 
 Following reciprocal coordinates:
            Coordinates               Weight
  0.000000  0.000000  0.000000      1.000000
  0.100000  0.000000  0.000000      6.000000
  0.200000  0.000000  0.000000      6.000000
  0.300000  0.000000  0.000000      6.000000
  0.400000  0.000000  0.000000      6.000000
  0.500000  0.000000  0.000000      3.000000
  0.100000  0.100000  0.000000     12.000000
  0.200000  0.100000  0.000000     24.000000
  0.300000  0.100000  0.000000     24.000000
  0.400000  0.100000  0.000000     24.000000
  0.500000  0.100000  0.000000     12.000000
  0.200000  0.200000  0.000000     12.000000
  0.300000  0.200000  0.000000     24.000000
  0.400000  0.200000  0.000000     24.000000
  0.500000  0.200000  0.000000     12.000000
  0.300000  0.300000  0.000000     12.000000
  0.400000  0.300000  0.000000     24.000000
  0.500000  0.300000  0.000000     12.000000
  0.400000  0.400000  0.000000     12.000000
  0.500000  0.400000  0.000000     12.000000
  0.500000  0.500000  0.000000      3.000000
  0.100000  0.100000  0.100000      8.000000
  0.200000  0.100000  0.100000     24.000000
  0.300000  0.100000  0.100000     24.000000
  0.400000  0.100000  0.100000     24.000000
  0.500000  0.100000  0.100000     12.000000
  0.200000  0.200000  0.100000     24.000000
  0.300000  0.200000  0.100000     48.000000
  0.400000  0.200000  0.100000     48.000000
  0.500000  0.200000  0.100000     24.000000
  0.300000  0.300000  0.100000     24.000000
  0.400000  0.300000  0.100000     48.000000
  0.500000  0.300000  0.100000     24.000000
  0.400000  0.400000  0.100000     24.000000
  0.500000  0.400000  0.100000     24.000000
  0.500000  0.500000  0.100000      6.000000
  0.200000  0.200000  0.200000      8.000000
  0.300000  0.200000  0.200000     24.000000
  0.400000  0.200000  0.200000     24.000000
  0.500000  0.200000  0.200000     12.000000
  0.300000  0.300000  0.200000     24.000000
  0.400000  0.300000  0.200000     48.000000
  0.500000  0.300000  0.200000     24.000000
  0.400000  0.400000  0.200000     24.000000
  0.500000  0.400000  0.200000     24.000000
  0.500000  0.500000  0.200000      6.000000
  0.300000  0.300000  0.300000      8.000000
  0.400000  0.300000  0.300000     24.000000
  0.500000  0.300000  0.300000     12.000000
  0.400000  0.400000  0.300000     24.000000
  0.500000  0.400000  0.300000     24.000000
  0.500000  0.500000  0.300000      6.000000
  0.400000  0.400000  0.400000      8.000000
  0.500000  0.400000  0.400000     12.000000
  0.500000  0.500000  0.400000      6.000000
  0.500000  0.500000  0.500000      1.000000
 
 Following cartesian coordinates:
            Coordinates               Weight
  0.000000  0.000000  0.000000      1.000000
  0.098923  0.000000  0.000000      6.000000
  0.197847  0.000000  0.000000      6.000000
  0.296770  0.000000  0.000000      6.000000
  0.395693  0.000000  0.000000      6.000000
  0.494616  0.000000  0.000000      3.000000
  0.098923  0.098923  0.000000     12.000000
  0.197847  0.098923  0.000000     24.000000
  0.296770  0.098923  0.000000     24.000000
  0.395693  0.098923  0.000000     24.000000
  0.494616  0.098923  0.000000     12.000000
  0.197847  0.197847  0.000000     12.000000
  0.296770  0.197847  0.000000     24.000000
  0.395693  0.197847  0.000000     24.000000
  0.494616  0.197847  0.000000     12.000000
  0.296770  0.296770  0.000000     12.000000
  0.395693  0.296770  0.000000     24.000000
  0.494616  0.296770  0.000000     12.000000
  0.395693  0.395693  0.000000     12.000000
  0.494616  0.395693  0.000000     12.000000
  0.494616  0.494616  0.000000      3.000000
  0.098923  0.098923  0.098923      8.000000
  0.197847  0.098923  0.098923     24.000000
  0.296770  0.098923  0.098923     24.000000
  0.395693  0.098923  0.098923     24.000000
  0.494616  0.098923  0.098923     12.000000
  0.197847  0.197847  0.098923     24.000000
  0.296770  0.197847  0.098923     48.000000
  0.395693  0.197847  0.098923     48.000000
  0.494616  0.197847  0.098923     24.000000
  0.296770  0.296770  0.098923     24.000000
  0.395693  0.296770  0.098923     48.000000
  0.494616  0.296770  0.098923     24.000000
  0.395693  0.395693  0.098923     24.000000
  0.494616  0.395693  0.098923     24.000000
  0.494616  0.494616  0.098923      6.000000
  0.197847  0.197847  0.197847      8.000000
  0.296770  0.197847  0.197847     24.000000
  0.395693  0.197847  0.197847     24.000000
  0.494616  0.197847  0.197847     12.000000
  0.296770  0.296770  0.197847     24.000000
  0.395693  0.296770  0.197847     48.000000
  0.494616  0.296770  0.197847     24.000000
  0.395693  0.395693  0.197847     24.000000
  0.494616  0.395693  0.197847     24.000000
  0.494616  0.494616  0.197847      6.000000
  0.296770  0.296770  0.296770      8.000000
  0.395693  0.296770  0.296770     24.000000
  0.494616  0.296770  0.296770     12.000000
  0.395693  0.395693  0.296770     24.000000
  0.494616  0.395693  0.296770     24.000000
  0.494616  0.494616  0.296770      6.000000
  0.395693  0.395693  0.395693      8.000000
  0.494616  0.395693  0.395693     12.000000
  0.494616  0.494616  0.395693      6.000000
  0.494616  0.494616  0.494616      1.000000
 


--------------------------------------------------------------------------------------------------------




 Dimension of arrays:
   k-points           NKPTS =     56   k-points in BZ     NKDIM =     56   number of bands    NBANDS=     10
   number of dos      NEDOS =    301   number of ions     NIONS =      1
   non local maximal  LDIM  =      6   non local SUM 2l+1 LMDIM =     18
   total plane-waves  NPLWV =   8000
   max r-space proj   IRMAX =   7113   max aug-charges    IRDMAX= 213673
   dimension x,y,z NGX =    20 NGY =   20 NGZ =   20
   dimension x,y,z NGXF=    40 NGYF=   40 NGZF=   40
   support grid    NGXF=    80 NGYF=   80 NGZF=   80
   ions per type =               1
 NGX,Y,Z   is equivalent  to a cutoff of  12.65, 12.65, 12.65 a.u.
 NGXF,Y,Z  is equivalent  to a cutoff of  25.30, 25.30, 25.30 a.u.


 I would recommend the setting:
   dimension x,y,z NGX =    19 NGY =   19 NGZ =   19
 SYSTEM =  unknown system                          
 POSCAR =  Pt_sc                                   

 Startparameter for this run:
   NWRITE =      1    write-flag & timer
   PREC   = accura    normal or accurate (medium, high low for compatibility)
   ISTART =      0    job   : 0-new  1-cont  2-samecut
   ICHARG =      2    charge: 1-file 2-atom 10-const
   ISPIN  =      1    spin polarized calculation?
   LNONCOLLINEAR =      F non collinear calculations
   LSORBIT =      F    spin-orbit coupling
   INIWAV =      1    electr: 0-lowe 1-rand  2-diag
   LASPH  =      F    aspherical Exc in radial PAW
   METAGGA=      F    non-selfconsistent MetaGGA calc.

 Electronic Relaxation 1
   ENCUT  =  500.0 eV  36.75 Ry    6.06 a.u.   4.79  4.79  4.79*2*pi/ulx,y,z
   ENINI  =  500.0     initial cutoff
   ENAUG  =  359.0 eV  augmentation charge cutoff
   NELM   =     60;   NELMIN=  4; NELMDL= -5     # of ELM steps 
   EDIFF  = 0.1E-04   stopping-criterion for ELM
   LREAL  =      T    real-space projection
   NLSPLINE    = F    spline interpolate recip. space projectors
   LCOMPAT=      F    compatible to vasp.4.4
   GGA_COMPAT  = T    GGA compatible to vasp.4.4-vasp.4.6
   LMAXPAW     = -100 max onsite density
   LMAXMIX     =    2 max onsite mixed and CHGCAR
   VOSKOWN=      0    Vosko Wilk Nusair interpolation
   ROPT   =   -0.00025
 Ionic relaxation
   EDIFFG = -.1E-01   stopping-criterion for IOM
   NSW    =     80    number of steps for IOM
   NBLOCK =      1;   KBLOCK =     80    inner block; outer block 
   IBRION =      1    ionic relax: 0-MD 1-quasi-New 2-CG
   NFREE  =      0    steps in history (QN), initial steepest desc. (CG)
   ISIF   =      3    stress and relaxation
   IWAVPR =     11    prediction:  0-non 1-charg 2-wave 3-comb
   ISYM   =      2    0-nonsym 1-usesym 2-fastsym
   LCORR  =      T    Harris-Foulkes like correction to forces

   POTIM  = 0.5000    time-step for ionic-motion
   TEIN   =    0.0    initial temperature
   TEBEG  =    0.0;   TEEND  =   0.0 temperature during run
   SMASS  =  -3.00    Nose mass-parameter (am)
   estimated Nose-frequenzy (Omega)   =  0.10E-29 period in steps =****** mass=  -0.158E-27a.u.
   SCALEE = 1.0000    scale energy and forces
   NPACO  =    256;   APACO  = 16.0  distance and # of slots for P.C.
   PSTRESS=    0.0 pullay stress

  Mass of Ions in am
   POMASS = 195.08
  Ionic Valenz
   ZVAL   =  10.00
  Atomic Wigner-Seitz radii
   RWIGS  =  -1.00
  virtual crystal weights 
   VCA    =   1.00
   NELECT =      10.0000    total number of electrons
   NUPDOWN=      -1.0000    fix difference up-down

 DOS related values:
   EMIN   =  10.00;   EMAX   =-10.00  energy-range for DOS
   EFERMI =   0.00
   ISMEAR =     0;   SIGMA  =   0.20  broadening in eV -4-tet -1-fermi 0-gaus

 Electronic relaxation 2 (details)
   IALGO  =     68    algorithm
   LDIAG  =      T    sub-space diagonalisation (order eigenvalues)
   LSUBROT=      F    optimize rotation matrix (better conditioning)
   TURBO    =      0    0=normal 1=particle mesh
   IRESTART =      0    0=no restart 2=restart with 2 vectors
   NREBOOT  =      0    no. of reboots
   NMIN     =      0    reboot dimension
   EREF     =   0.00    reference energy to select bands
   IMIX   =      4    mixing-type and parameters
     AMIX     =   0.40;   BMIX     =  1.00
     AMIX_MAG =   1.60;   BMIX_MAG =  1.00
     AMIN     =   0.10
     WC   =   100.;   INIMIX=   1;  MIXPRE=   1;  MAXMIX=  80

 Intra band minimization:
   WEIMIN = 0.0010     energy-eigenvalue tresh-hold
   EBREAK =  0.25E-06  absolut break condition
   DEPER  =   0.30     relativ break condition  

   TIME   =   0.40     timestep for ELM

  volume/ion in A,a.u.               =      18.16       122.52
  Fermi-wavevector in a.u.,A,eV,Ry     =   1.341941  2.535900 24.501433  1.800805
  Thomas-Fermi vector in A             =   2.470134
 
 Write flags
   LWAVE  =      T    write WAVECAR
   LCHARG =      T    write CHGCAR
   LVTOT  =      F    write LOCPOT, total local potential
   LVHAR  =      F    write LOCPOT, Hartree potential only
   LELF   =      F    write electronic localiz. function (ELF)
   LORBIT =      0    0 simple, 1 ext, 2 COOP (PROOUT)


 Dipole corrections
   LMONO  =      F    monopole corrections only (constant potential shift)
   LDIPOL =      F    correct potential (dipole corrections)
   IDIPOL =      0    1-x, 2-y, 3-z, 4-all directions 
   EPSILON=  1.0000000 bulk dielectric constant

 Exchange correlation treatment:
   GGA     =    --    GGA type
   LEXCH   =     8    internal setting for exchange type
   VOSKOWN=      0    Vosko Wilk Nusair interpolation
   LHFCALC =     F    Hartree Fock is set to
   LHFONE  =     F    Hartree Fock one center treatment
   AEXX    =    0.0000 exact exchange contribution

 Linear response parameters
   LEPSILON=     F    determine dielectric tensor
   LRPA    =     F    only Hartree local field effects (RPA)
   LNABLA  =     F    use nabla operator in PAW spheres
   LVEL    =     F    velocity operator in full k-point grid
   LINTERFAST=   F  fast interpolation
   KINTER  =     0    interpolate to denser k-point grid
   CSHIFT  =0.1000    complex shift for real part using Kramers Kronig
   OMEGAMAX=  -1.0    maximum frequency
   DEG_THRESHOLD= 0.2000000E-02 threshold for treating states as degnerate
   RTIME   =    0.100 relaxation time in fs

 Orbital magnetization related:
   ORBITALMAG=     F  switch on orbital magnetization
   LCHIMAG   =     F  perturbation theory with respect to B field
   DQ        =  0.001000  dq finite difference perturbation B field



--------------------------------------------------------------------------------------------------------


 quasi-Newton-method for relaxation of ions
 charge density and potential will be updated during run
 non-spin polarized calculation
 RMM-DIIS sequential band-by-band and
  variant of blocked Davidson during initial phase
 perform sub-space diagonalisation
    before iterative eigenvector-optimisation
 modified Broyden-mixing scheme, WC =      100.0
 initial mixing is a Kerker type mixing with AMIX =  0.4000 and BMIX =      1.0000
 Hartree-type preconditioning will be used
 using additional bands            5
 real space projection scheme for non local part
 use partial core corrections
 calculate Harris-corrections to forces 
   (improved forces if not selfconsistent)
 use gradient corrections 
 use of overlap-Matrix (Vanderbilt PP)
 Gauss-broadening in eV      SIGMA  =   0.20


--------------------------------------------------------------------------------------------------------


  energy-cutoff  :      500.00
  volume of cell :       18.16
      direct lattice vectors                 reciprocal lattice vectors
     2.628299652  0.000000000  0.000000000     0.380474121  0.000000000  0.000000000
     0.000000000  2.628299652  0.000000000     0.000000000  0.380474121  0.000000000
     0.000000000  0.000000000  2.628299652     0.000000000  0.000000000  0.380474121

  length of vectors
     2.628299652  2.628299652  2.628299652     0.380474121  0.380474121  0.380474121


 
 k-points in units of 2pi/SCALE and weight: k-density: 4.0                          
   0.00000000  0.00000000  0.00000000       0.001
   0.09892327  0.00000000  0.00000000       0.006
   0.19784654  0.00000000  0.00000000       0.006
   0.29676981  0.00000000  0.00000000       0.006
   0.39569309  0.00000000  0.00000000       0.006
   0.49461636  0.00000000  0.00000000       0.003
   0.09892327  0.09892327  0.00000000       0.012
   0.19784654  0.09892327  0.00000000       0.024
   0.29676981  0.09892327  0.00000000       0.024
   0.39569309  0.09892327  0.00000000       0.024
   0.49461636  0.09892327  0.00000000       0.012
   0.19784654  0.19784654  0.00000000       0.012
   0.29676981  0.19784654  0.00000000       0.024
   0.39569309  0.19784654  0.00000000       0.024
   0.49461636  0.19784654  0.00000000       0.012
   0.29676981  0.29676981  0.00000000       0.012
   0.39569309  0.29676981  0.00000000       0.024
   0.49461636  0.29676981  0.00000000       0.012
   0.39569309  0.39569309  0.00000000       0.012
   0.49461636  0.39569309  0.00000000       0.012
   0.49461636  0.49461636  0.00000000       0.003
   0.09892327  0.09892327  0.09892327       0.008
   0.19784654  0.09892327  0.09892327       0.024
   0.29676981  0.09892327  0.09892327       0.024
   0.39569309  0.09892327  0.09892327       0.024
   0.49461636  0.09892327  0.09892327       0.012
   0.19784654  0.19784654  0.09892327       0.024
   0.29676981  0.19784654  0.09892327       0.048
   0.39569309  0.19784654  0.09892327       0.048
   0.49461636  0.19784654  0.09892327       0.024
   0.29676981  0.29676981  0.09892327       0.024
   0.39569309  0.29676981  0.09892327       0.048
   0.49461636  0.29676981  0.09892327       0.024
   0.39569309  0.39569309  0.09892327       0.024
   0.49461636  0.39569309  0.09892327       0.024
   0.49461636  0.49461636  0.09892327       0.006
   0.19784654  0.19784654  0.19784654       0.008
   0.29676981  0.19784654  0.19784654       0.024
   0.39569309  0.19784654  0.19784654       0.024
   0.49461636  0.19784654  0.19784654       0.012
   0.29676981  0.29676981  0.19784654       0.024
   0.39569309  0.29676981  0.19784654       0.048
   0.49461636  0.29676981  0.19784654       0.024
   0.39569309  0.39569309  0.19784654       0.024
   0.49461636  0.39569309  0.19784654       0.024
   0.49461636  0.49461636  0.19784654       0.006
   0.29676981  0.29676981  0.29676981       0.008
   0.39569309  0.29676981  0.29676981       0.024
   0.49461636  0.29676981  0.29676981       0.012
   0.39569309  0.39569309  0.29676981       0.024
   0.49461636  0.39569309  0.29676981       0.024
   0.49461636  0.49461636  0.29676981       0.006
   0.39569309  0.39569309  0.39569309       0.008
   0.49461636  0.39569309  0.39569309       0.012
   0.49461636  0.49461636  0.39569309       0.006
   0.49461636  0.49461636  0.49461636       0.001
 
 k-points in reciprocal lattice and weights: k-density: 4.0                          
   0.00000000  0.00000000  0.00000000       0.001
   0.10000000  0.00000000  0.00000000       0.006
   0.20000000  0.00000000  0.00000000       0.006
   0.30000000  0.00000000  0.00000000       0.006
   0.40000000  0.00000000  0.00000000       0.006
   0.50000000  0.00000000  0.00000000       0.003
   0.10000000  0.10000000  0.00000000       0.012
   0.20000000  0.10000000  0.00000000       0.024
   0.30000000  0.10000000  0.00000000       0.024
   0.40000000  0.10000000  0.00000000       0.024
   0.50000000  0.10000000  0.00000000       0.012
   0.20000000  0.20000000  0.00000000       0.012
   0.30000000  0.20000000  0.00000000       0.024
   0.40000000  0.20000000  0.00000000       0.024
   0.50000000  0.20000000  0.00000000       0.012
   0.30000000  0.30000000  0.00000000       0.012
   0.40000000  0.30000000  0.00000000       0.024
   0.50000000  0.30000000  0.00000000       0.012
   0.40000000  0.40000000  0.00000000       0.012
   0.50000000  0.40000000  0.00000000       0.012
   0.50000000  0.50000000  0.00000000       0.003
   0.10000000  0.10000000  0.10000000       0.008
   0.20000000  0.10000000  0.10000000       0.024
   0.30000000  0.10000000  0.10000000       0.024
   0.40000000  0.10000000  0.10000000       0.024
   0.50000000  0.10000000  0.10000000       0.012
   0.20000000  0.20000000  0.10000000       0.024
   0.30000000  0.20000000  0.10000000       0.048
   0.40000000  0.20000000  0.10000000       0.048
   0.50000000  0.20000000  0.10000000       0.024
   0.30000000  0.30000000  0.10000000       0.024
   0.40000000  0.30000000  0.10000000       0.048
   0.50000000  0.30000000  0.10000000       0.024
   0.40000000  0.40000000  0.10000000       0.024
   0.50000000  0.40000000  0.10000000       0.024
   0.50000000  0.50000000  0.10000000       0.006
   0.20000000  0.20000000  0.20000000       0.008
   0.30000000  0.20000000  0.20000000       0.024
   0.40000000  0.20000000  0.20000000       0.024
   0.50000000  0.20000000  0.20000000       0.012
   0.30000000  0.30000000  0.20000000       0.024
   0.40000000  0.30000000  0.20000000       0.048
   0.50000000  0.30000000  0.20000000       0.024
   0.40000000  0.40000000  0.20000000       0.024
   0.50000000  0.40000000  0.20000000       0.024
   0.50000000  0.50000000  0.20000000       0.006
   0.30000000  0.30000000  0.30000000       0.008
   0.40000000  0.30000000  0.30000000       0.024
   0.50000000  0.30000000  0.30000000       0.012
   0.40000000  0.40000000  0.30000000       0.024
   0.50000000  0.40000000  0.30000000       0.024
   0.50000000  0.50000000  0.30000000       0.006
   0.40000000  0.40000000  0.40000000       0.008
   0.50000000  0.40000000  0.40000000       0.012
   0.50000000  0.50000000  0.40000000       0.006
   0.50000000  0.50000000  0.50000000       0.001
 
 position of ions in fractional coordinates (direct lattice) 
   0.00000000  0.00000000  0.00000000
 
 position of ions in cartesian coordinates  (Angst):
   0.00000000  0.00000000  0.00000000
 


--------------------------------------------------------------------------------------------------------


 k-point  1 :   0.0000 0.0000 0.0000  plane waves:     461
 k-point  2 :   0.1000 0.0000 0.0000  plane waves:     461
 k-point  3 :   0.2000 0.0000 0.0000  plane waves:     457
 k-point  4 :   0.3000 0.0000 0.0000  plane waves:     458
 k-point  5 :   0.4000 0.0000 0.0000  plane waves:     470
 k-point  6 :   0.5000 0.0000 0.0000  plane waves:     466
 k-point  7 :   0.1000 0.1000 0.0000  plane waves:     459
 k-point  8 :   0.2000 0.1000 0.0000  plane waves:     462
 k-point  9 :   0.3000 0.1000 0.0000  plane waves:     455
 k-point 10 :   0.4000 0.1000 0.0000  plane waves:     457
 k-point 11 :   0.5000 0.1000 0.0000  plane waves:     464
 k-point 12 :   0.2000 0.2000 0.0000  plane waves:     455
 k-point 13 :   0.3000 0.2000 0.0000  plane waves:     460
 k-point 14 :   0.4000 0.2000 0.0000  plane waves:     460
 k-point 15 :   0.5000 0.2000 0.0000  plane waves:     460
 k-point 16 :   0.3000 0.3000 0.0000  plane waves:     457
 k-point 17 :   0.4000 0.3000 0.0000  plane waves:     462
 k-point 18 :   0.5000 0.3000 0.0000  plane waves:     468
 k-point 19 :   0.4000 0.4000 0.0000  plane waves:     468
 k-point 20 :   0.5000 0.4000 0.0000  plane waves:     462
 k-point 21 :   0.5000 0.5000 0.0000  plane waves:     468
 k-point 22 :   0.1000 0.1000 0.1000  plane waves:     461
 k-point 23 :   0.2000 0.1000 0.1000  plane waves:     461
 k-point 24 :   0.3000 0.1000 0.1000  plane waves:     461
 k-point 25 :   0.4000 0.1000 0.1000  plane waves:     458
 k-point 26 :   0.5000 0.1000 0.1000  plane waves:     462
 k-point 27 :   0.2000 0.2000 0.1000  plane waves:     456
 k-point 28 :   0.3000 0.2000 0.1000  plane waves:     464
 k-point 29 :   0.4000 0.2000 0.1000  plane waves:     457
 k-point 30 :   0.5000 0.2000 0.1000  plane waves:     460
 k-point 31 :   0.3000 0.3000 0.1000  plane waves:     460
 k-point 32 :   0.4000 0.3000 0.1000  plane waves:     462
 k-point 33 :   0.5000 0.3000 0.1000  plane waves:     458
 k-point 34 :   0.4000 0.4000 0.1000  plane waves:     465
 k-point 35 :   0.5000 0.4000 0.1000  plane waves:     464
 k-point 36 :   0.5000 0.5000 0.1000  plane waves:     468
 k-point 37 :   0.2000 0.2000 0.2000  plane waves:     464
 k-point 38 :   0.3000 0.2000 0.2000  plane waves:     455
 k-point 39 :   0.4000 0.2000 0.2000  plane waves:     462
 k-point 40 :   0.5000 0.2000 0.2000  plane waves:     458
 k-point 41 :   0.3000 0.3000 0.2000  plane waves:     460
 k-point 42 :   0.4000 0.3000 0.2000  plane waves:     459
 k-point 43 :   0.5000 0.3000 0.2000  plane waves:     456
 k-point 44 :   0.4000 0.4000 0.2000  plane waves:     465
 k-point 45 :   0.5000 0.4000 0.2000  plane waves:     466
 k-point 46 :   0.5000 0.5000 0.2000  plane waves:     468
 k-point 47 :   0.3000 0.3000 0.3000  plane waves:     459
 k-point 48 :   0.4000 0.3000 0.3000  plane waves:     468
 k-point 49 :   0.5000 0.3000 0.3000  plane waves:     464
 k-point 50 :   0.4000 0.4000 0.3000  plane waves:     462
 k-point 51 :   0.5000 0.4000 0.3000  plane waves:     464
 k-point 52 :   0.5000 0.5000 0.3000  plane waves:     456
 k-point 53 :   0.4000 0.4000 0.4000  plane waves:     456
 k-point 54 :   0.5000 0.4000 0.4000  plane waves:     456
 k-point 55 :   0.5000 0.5000 0.4000  plane waves:     464
 k-point 56 :   0.5000 0.5000 0.5000  plane waves:     480

 maximum and minimum number of plane-waves per node :       243      218

 maximum number of plane-waves:       480
 maximum index in each direction: 
   IXMAX=    4   IYMAX=    4   IZMAX=    4
   IXMIN=   -5   IYMIN=   -5   IZMIN=   -5

 NGX is ok and might be reduce to  20
 NGY is ok and might be reduce to  20
 NGZ is ok and might be reduce to  20

 real space projection operators:
  total allocation   :        964.55 KBytes
  max/ min on nodes  :        483.19        481.36


 parallel 3D FFT for wavefunctions:
    minimum data exchange during FFTs selected (reduces bandwidth)
 parallel 3D FFT for charge:
    minimum data exchange during FFTs selected (reduces bandwidth)


 total amount of memory used by VASP on root node    35344. kBytes
========================================================================

   base      :      30000. kBytes
   nonlr-proj:        711. kBytes
   fftplans  :       2507. kBytes
   grid      :        956. kBytes
   one-center:         15. kBytes
   wavefun   :       1155. kBytes
 
     INWAV:  cpu time    0.0000: real time    0.0001
 Broyden mixing: mesh for mixing (old mesh)
   NGX =  9   NGY =  9   NGZ =  9
  (NGX  = 40   NGY  = 40   NGZ  = 40)
  gives a total of    729 points

 initial charge density was supplied:
 charge density of overlapping atoms calculated
 number of electron      10.0000000 magnetization 
 keeping initial charge density in first step


--------------------------------------------------------------------------------------------------------


 Maximum index for non-local projection operator         3423
 Maximum index for augmentation-charges        51687 (set IRDMAX)


--------------------------------------------------------------------------------------------------------


 First call to EWALD:  gamma=   0.674
 Maximum number of real-space cells 3x 3x 3
 Maximum number of reciprocal cells 3x 3x 3

 FEWALD executed in parallel
    FEWALD:  cpu time    0.0020: real time    0.0015


----------------------------------------- Iteration    1(   1)  ---------------------------------------


    POTLOK:  cpu time    0.0090: real time    0.0091
    SETDIJ:  cpu time    0.0240: real time    0.0244
     EDDAV:  cpu time    0.2780: real time    0.2807
       DOS:  cpu time    0.0010: real time    0.0011
    --------------------------------------------
      LOOP:  cpu time    0.3150: real time    0.3295

 eigenvalue-minimisations  :  1152
 total energy-change (2. order) : 0.6305813E+02  (-0.5065391E+03)
 number of electron      10.0000000 magnetization 
 augmentation part       10.0000000 magnetization 

 Free energy of the ion-electron system (eV)
  ---------------------------------------------------
  alpha Z        PSCENC =        80.13537472
  Ewald energy   TEWEN  =      -777.24166616
  -Hartree energ DENC   =       -99.87641110
  -exchange      EXHF   =         0.00000000
  -V(xc)+E(xc)   XCENC  =         3.31415211
  PAW double counting   =       573.24549325     -544.96212058
  entropy T*S    EENTRO =        -0.02061053
  eigenvalues    EBANDS =        99.35075072
  atomic energy  EATOM  =       729.11316681
  Solvation  Ediel_sol  =         0.00000000
  ---------------------------------------------------
  free energy    TOTEN  =        63.05812924 eV

  energy without entropy =       63.07873977  energy(sigma->0) =       63.06843451


--------------------------------------------------------------------------------------------------------




----------------------------------------- Iteration    1(   2)  ---------------------------------------


     EDDAV:  cpu time    0.2640: real time    0.2650
       DOS:  cpu time    0.0010: real time    0.0011
    --------------------------------------------
      LOOP:  cpu time    0.2660: real time    0.2693

 eigenvalue-minimisations  :  1134
 total energy-change (2. order) :-0.6767905E+02  (-0.6328740E+02)
 number of electron      10.0000000 magnetization 
 augmentation part       10.0000000 magnetization 

 Free energy of the ion-electron system (eV)
  ---------------------------------------------------
  alpha Z        PSCENC =        80.13537472
  Ewald energy   TEWEN  =      -777.24166616
  -Hartree energ DENC   =       -99.87641110
  -exchange      EXHF   =         0.00000000
  -V(xc)+E(xc)   XCENC  =         3.31415211
  PAW double counting   =       573.24549325     -544.96212058
  entropy T*S    EENTRO =        -0.02138877
  eigenvalues    EBANDS =        31.67247991
  atomic energy  EATOM  =       729.11316681
  Solvation  Ediel_sol  =         0.00000000
  ---------------------------------------------------
  free energy    TOTEN  =        -4.62091980 eV

  energy without entropy =       -4.59953104  energy(sigma->0) =       -4.61022542


--------------------------------------------------------------------------------------------------------




----------------------------------------- Iteration    1(   3)  ---------------------------------------


     EDDAV:  cpu time    0.3110: real time    0.3114
       DOS:  cpu time    0.0010: real time    0.0011
    --------------------------------------------
      LOOP:  cpu time    0.3130: real time    0.3170

 eigenvalue-minimisations  :  1358
 total energy-change (2. order) :-0.1354740E+01  (-0.1348915E+01)
 number of electron      10.0000000 magnetization 
 augmentation part       10.0000000 magnetization 

 Free energy of the ion-electron system (eV)
  ---------------------------------------------------
  alpha Z        PSCENC =        80.13537472
  Ewald energy   TEWEN  =      -777.24166616
  -Hartree energ DENC   =       -99.87641110
  -exchange      EXHF   =         0.00000000
  -V(xc)+E(xc)   XCENC  =         3.31415211
  PAW double counting   =       573.24549325     -544.96212058
  entropy T*S    EENTRO =        -0.02077008
  eigenvalues    EBANDS =        30.31712081
  atomic energy  EATOM  =       729.11316681
  Solvation  Ediel_sol  =         0.00000000
  ---------------------------------------------------
  free energy    TOTEN  =        -5.97566022 eV

  energy without entropy =       -5.95489014  energy(sigma->0) =       -5.96527518


--------------------------------------------------------------------------------------------------------




----------------------------------------- Iteration    1(   4)  ---------------------------------------


     EDDAV:  cpu time    0.3070: real time    0.3075
       DOS:  cpu time    0.0020: real time    0.0011
    --------------------------------------------
      LOOP:  cpu time    0.3100: real time    0.3136

 eigenvalue-minimisations  :  1312
 total energy-change (2. order) :-0.1355762E-01  (-0.1355403E-01)
 number of electron      10.0000000 magnetization 
 augmentation part       10.0000000 magnetization 

 Free energy of the ion-electron system (eV)
  ---------------------------------------------------
  alpha Z        PSCENC =        80.13537472
  Ewald energy   TEWEN  =      -777.24166616
  -Hartree energ DENC   =       -99.87641110
  -exchange      EXHF   =         0.00000000
  -V(xc)+E(xc)   XCENC  =         3.31415211
  PAW double counting   =       573.24549325     -544.96212058
  entropy T*S    EENTRO =        -0.02071877
  eigenvalues    EBANDS =        30.30351189
  atomic energy  EATOM  =       729.11316681
  Solvation  Ediel_sol  =         0.00000000
  ---------------------------------------------------
  free energy    TOTEN  =        -5.98921784 eV

  energy without entropy =       -5.96849907  energy(sigma->0) =       -5.97885845


--------------------------------------------------------------------------------------------------------




----------------------------------------- Iteration    1(   5)  ---------------------------------------


     EDDAV:  cpu time    0.3050: real time    0.3047
       DOS:  cpu time    0.0010: real time    0.0012
    CHARGE:  cpu time    0.0320: real time    0.0321
    MIXING:  cpu time    0.0000: real time    0.0005
    --------------------------------------------
      LOOP:  cpu time    0.3379: real time    0.3427

 eigenvalue-minimisations  :  1326
 total energy-change (2. order) :-0.3536365E-03  (-0.3536292E-03)
 number of electron      10.0000000 magnetization 
 augmentation part        2.9039351 magnetization 

 Broyden mixing:
  rms(total) = 0.36142E+00    rms(broyden)= 0.36141E+00
  rms(prec ) = 0.12966E+01
  weight for this iteration     100.00

 Free energy of the ion-electron system (eV)
  ---------------------------------------------------
  alpha Z        PSCENC =        80.13537472
  Ewald energy   TEWEN  =      -777.24166616
  -Hartree energ DENC   =       -99.87641110
  -exchange      EXHF   =         0.00000000
  -V(xc)+E(xc)   XCENC  =         3.31415211
  PAW double counting   =       573.24549325     -544.96212058
  entropy T*S    EENTRO =        -0.02071666
  eigenvalues    EBANDS =        30.30315613
  atomic energy  EATOM  =       729.11316681
  Solvation  Ediel_sol  =         0.00000000
  ---------------------------------------------------
  free energy    TOTEN  =        -5.98957148 eV

  energy without entropy =       -5.96885482  energy(sigma->0) =       -5.97921315


--------------------------------------------------------------------------------------------------------




----------------------------------------- Iteration    1(   6)  ---------------------------------------


    POTLOK:  cpu time    0.0080: real time    0.0086
    SETDIJ:  cpu time    0.0250: real time    0.0246
    EDDIAG:  cpu time    0.0380: real time    0.0375
  RMM-DIIS:  cpu time    0.1810: real time    0.1808
    ORTHCH:  cpu time    0.0030: real time    0.0039
       DOS:  cpu time    0.0010: real time    0.0011
    CHARGE:  cpu time    0.0330: real time    0.0329
    MIXING:  cpu time    0.0010: real time    0.0007
    --------------------------------------------
      LOOP:  cpu time    0.2910: real time    0.2956

 eigenvalue-minimisations  :  1120
 total energy-change (2. order) : 0.3234997E+00  (-0.4367858E-01)
 number of electron      10.0000000 magnetization 
 augmentation part        3.0626122 magnetization 

 Broyden mixing:
  rms(total) = 0.10218E+00    rms(broyden)= 0.10217E+00
  rms(prec ) = 0.31297E+00
  weight for this iteration     100.00

 eigenvalues of (default mixing * dielectric matrix)
  average eigenvalue GAMMA=   1.2934
  1.2934

 Free energy of the ion-electron system (eV)
  ---------------------------------------------------
  alpha Z        PSCENC =        80.13537472
  Ewald energy   TEWEN  =      -777.24166616
  -Hartree energ DENC   =       -92.34823286
  -exchange      EXHF   =         0.00000000
  -V(xc)+E(xc)   XCENC  =         3.05067940
  PAW double counting   =       574.26177023     -547.30380954
  entropy T*S    EENTRO =        -0.02618032
  eigenvalues    EBANDS =        24.69282593
  atomic energy  EATOM  =       729.11316681
  Solvation  Ediel_sol  =         0.00000000
  ---------------------------------------------------
  free energy    TOTEN  =        -5.66607179 eV

  energy without entropy =       -5.63989147  energy(sigma->0) =       -5.65298163


--------------------------------------------------------------------------------------------------------




----------------------------------------- Iteration    1(   7)  ---------------------------------------


    POTLOK:  cpu time    0.0080: real time    0.0092
    SETDIJ:  cpu time    0.0250: real time    0.0238
    EDDIAG:  cpu time    0.0360: real time    0.0369
  RMM-DIIS:  cpu time    0.1780: real time    0.1771
    ORTHCH:  cpu time    0.0030: real time    0.0039
       DOS:  cpu time    0.0020: real time    0.0011
    CHARGE:  cpu time    0.0300: real time    0.0310
    MIXING:  cpu time    0.0020: real time    0.0005
    --------------------------------------------
      LOOP:  cpu time    0.2850: real time    0.2881

 eigenvalue-minimisations  :  1120
 total energy-change (2. order) : 0.1768539E-01  (-0.4731990E-02)
 number of electron      10.0000000 magnetization 
 augmentation part        3.1005591 magnetization 

 Broyden mixing:
  rms(total) = 0.38191E-01    rms(broyden)= 0.38190E-01
  rms(prec ) = 0.67558E-01
  weight for this iteration     100.00

 eigenvalues of (default mixing * dielectric matrix)
  average eigenvalue GAMMA=   1.9001
  1.2280  2.5721

 Free energy of the ion-electron system (eV)
  ---------------------------------------------------
  alpha Z        PSCENC =        80.13537472
  Ewald energy   TEWEN  =      -777.24166616
  -Hartree energ DENC   =       -90.20923467
  -exchange      EXHF   =         0.00000000
  -V(xc)+E(xc)   XCENC  =         2.98146344
  PAW double counting   =       583.27236825     -557.01046872
  entropy T*S    EENTRO =        -0.02677797
  eigenvalues    EBANDS =        23.33738792
  atomic energy  EATOM  =       729.11316681
  Solvation  Ediel_sol  =         0.00000000
  ---------------------------------------------------
  free energy    TOTEN  =        -5.64838639 eV

  energy without entropy =       -5.62160842  energy(sigma->0) =       -5.63499741


--------------------------------------------------------------------------------------------------------




----------------------------------------- Iteration    1(   8)  ---------------------------------------


    POTLOK:  cpu time    0.0080: real time    0.0088
    SETDIJ:  cpu time    0.0240: real time    0.0231
    EDDIAG:  cpu time    0.0370: real time    0.0369
  RMM-DIIS:  cpu time    0.1790: real time    0.1785
    ORTHCH:  cpu time    0.0040: real time    0.0039
       DOS:  cpu time    0.0010: real time    0.0011
    CHARGE:  cpu time    0.0310: real time    0.0307
    MIXING:  cpu time    0.0000: real time    0.0004
    --------------------------------------------
      LOOP:  cpu time    0.2840: real time    0.2892

 eigenvalue-minimisations  :  1120
 total energy-change (2. order) : 0.3036947E-02  (-0.2893173E-03)
 number of electron      10.0000000 magnetization 
 augmentation part        3.0969792 magnetization 

 Broyden mixing:
  rms(total) = 0.32252E-02    rms(broyden)= 0.32249E-02
  rms(prec ) = 0.73813E-02
  weight for this iteration     100.00

 eigenvalues of (default mixing * dielectric matrix)
  average eigenvalue GAMMA=   1.6568
  2.5394  1.2154  1.2154

 Free energy of the ion-electron system (eV)
  ---------------------------------------------------
  alpha Z        PSCENC =        80.13537472
  Ewald energy   TEWEN  =      -777.24166616
  -Hartree energ DENC   =       -89.84265664
  -exchange      EXHF   =         0.00000000
  -V(xc)+E(xc)   XCENC  =         2.97522114
  PAW double counting   =       596.83488182     -571.10923057
  entropy T*S    EENTRO =        -0.02671669
  eigenvalues    EBANDS =        23.51627612
  atomic energy  EATOM  =       729.11316681
  Solvation  Ediel_sol  =         0.00000000
  ---------------------------------------------------
  free energy    TOTEN  =        -5.64534945 eV

  energy without entropy =       -5.61863276  energy(sigma->0) =       -5.63199110


--------------------------------------------------------------------------------------------------------




----------------------------------------- Iteration    1(   9)  ---------------------------------------


    POTLOK:  cpu time    0.0080: real time    0.0086
    SETDIJ:  cpu time    0.0230: real time    0.0225
    EDDIAG:  cpu time    0.0370: real time    0.0376
  RMM-DIIS:  cpu time    0.1810: real time    0.1806
    ORTHCH:  cpu time    0.0040: real time    0.0040
       DOS:  cpu time    0.0010: real time    0.0011
    CHARGE:  cpu time    0.0350: real time    0.0351
    MIXING:  cpu time    0.0010: real time    0.0005
    --------------------------------------------
      LOOP:  cpu time    0.2910: real time    0.2944

 eigenvalue-minimisations  :  1147
 total energy-change (2. order) : 0.1359939E-04  (-0.1925611E-04)
 number of electron      10.0000000 magnetization 
 augmentation part        3.0986732 magnetization 

 Broyden mixing:
  rms(total) = 0.13116E-02    rms(broyden)= 0.13113E-02
  rms(prec ) = 0.34280E-02
  weight for this iteration     100.00

 eigenvalues of (default mixing * dielectric matrix)
  average eigenvalue GAMMA=   2.0277
  1.0406  1.1764  3.3910  2.5029

 Free energy of the ion-electron system (eV)
  ---------------------------------------------------
  alpha Z        PSCENC =        80.13537472
  Ewald energy   TEWEN  =      -777.24166616
  -Hartree energ DENC   =       -89.80179982
  -exchange      EXHF   =         0.00000000
  -V(xc)+E(xc)   XCENC  =         2.97395453
  PAW double counting   =       596.71087481     -570.97027353
  entropy T*S    EENTRO =        -0.02673732
  eigenvalues    EBANDS =        23.46177012
  atomic energy  EATOM  =       729.11316681
  Solvation  Ediel_sol  =         0.00000000
  ---------------------------------------------------
  free energy    TOTEN  =        -5.64533585 eV

  energy without entropy =       -5.61859852  energy(sigma->0) =       -5.63196718


--------------------------------------------------------------------------------------------------------




----------------------------------------- Iteration    1(  10)  ---------------------------------------


    POTLOK:  cpu time    0.0080: real time    0.0088
    SETDIJ:  cpu time    0.0230: real time    0.0226
    EDDIAG:  cpu time    0.0370: real time    0.0369
  RMM-DIIS:  cpu time    0.1380: real time    0.1378
    ORTHCH:  cpu time    0.0040: real time    0.0039
       DOS:  cpu time    0.0010: real time    0.0011
    --------------------------------------------
      LOOP:  cpu time    0.2120: real time    0.2161

 eigenvalue-minimisations  :   798
 total energy-change (2. order) : 0.1101486E-05  (-0.1216846E-05)
 number of electron      10.0000000 magnetization 
 augmentation part        3.0986732 magnetization 

 Free energy of the ion-electron system (eV)
  ---------------------------------------------------
  alpha Z        PSCENC =        80.13537472
  Ewald energy   TEWEN  =      -777.24166616
  -Hartree energ DENC   =       -89.84743906
  -exchange      EXHF   =         0.00000000
  -V(xc)+E(xc)   XCENC  =         2.97591229
  PAW double counting   =       597.09331444     -571.32822122
  entropy T*S    EENTRO =        -0.02672994
  eigenvalues    EBANDS =        23.48095337
  atomic energy  EATOM  =       729.11316681
  Solvation  Ediel_sol  =         0.00000000
  ---------------------------------------------------
  free energy    TOTEN  =        -5.64533475 eV

  energy without entropy =       -5.61860480  energy(sigma->0) =       -5.63196978


--------------------------------------------------------------------------------------------------------




 average (electrostatic) potential at core
  the test charge radii are     1.2059
  (the norm of the test charge is              1.0000)
       1 -51.0452
 
 
 
 E-fermi :   5.3953     XC(G=0): -12.2415     alpha+bet :-11.0113


 k-point     1 :       0.0000    0.0000    0.0000
  band No.  band energies     occupation 
      1      -2.9969      2.00000
      2      -0.2595      2.00000
      3      -0.2595      2.00000
      4       5.6277      0.10034
      5       5.6277      0.10034
      6       5.6277      0.10034
      7      20.7643      0.00000
      8      20.7643      0.00000
      9      20.7643      0.00000
     10      26.1764      0.00000

 k-point     2 :       0.1000    0.0000    0.0000
  band No.  band energies     occupation 
      1      -2.7217      2.00000
      2      -0.2085      2.00000
      3      -0.0077      2.00000
      4       5.3858      1.05365
      5       5.3858      1.05365
      6       5.6469      0.07519
      7      18.9431      0.00000
      8      21.2519      0.00000
      9      21.2519      0.00000
     10      27.0687      0.00000

 k-point     3 :       0.2000    0.0000    0.0000
  band No.  band energies     occupation 
      1      -2.0300      2.00000
      2      -0.0722      2.00000
      3       0.7949      2.00000
      4       4.8024      1.99997
      5       4.8024      1.99997
      6       5.6977      0.03250
      7      15.9659      0.00000
      8      22.5418      0.00000
      9      22.5418      0.00000
     10      25.7616      0.00000

 k-point     4 :       0.3000    0.0000    0.0000
  band No.  band energies     occupation 
      1      -1.2424      2.00000
      2       0.1024      2.00000
      3       2.1901      2.00000
      4       4.1596      2.00000
      5       4.1596      2.00000
      6       5.7611      0.00970
      7      13.1576      0.00000
      8      24.0474      0.00000
      9      24.2592      0.00000
     10      24.2593      0.00000

 k-point     5 :       0.4000    0.0000    0.0000
  band No.  band energies     occupation 
      1      -0.6428      2.00000
      2       0.2491      2.00000
      3       3.6880      2.00000
      4       3.6880      2.00000
      5       3.9007      2.00000
      6       5.8129      0.00315
      7      10.8351      0.00000
      8      22.9150      0.00000
      9      25.9513      0.00000
     10      26.0611      0.00000

 k-point     6 :       0.5000    0.0000    0.0000
  band No.  band energies     occupation 
      1      -0.4155      2.00000
      2       0.3066      2.00000
      3       3.5175      2.00000
      4       3.5175      2.00000
      5       4.8896      1.99965
      6       5.8328      0.00198
      7       9.7067      0.00000
      8      22.5209      0.00000
      9      25.5380      0.00000
     10      26.7924      0.00000

 k-point     7 :       0.1000    0.1000    0.0000
  band No.  band energies     occupation 
      1      -2.4425      2.00000
      2      -0.0535      2.00000
      3       0.1350      2.00000
      4       5.1309      1.93848
      5       5.3701      1.14132
      6       5.4456      0.72202
      7      19.1004      0.00000
      8      19.6807      0.00000
      9      21.7426      0.00000
     10      27.2109      0.00000

 k-point     8 :       0.2000    0.1000    0.0000
  band No.  band energies     occupation 
      1      -1.7477      2.00000
      2       0.1280      2.00000
      3       0.8796      2.00000
      4       4.5332      2.00000
      5       4.8250      1.99994
      6       5.4708      0.59352
      7      16.3638      0.00000
      8      20.4825      0.00000
      9      23.0436      0.00000
     10      26.0098      0.00000

 k-point     9 :       0.3000    0.1000    0.0000
  band No.  band energies     occupation 
      1      -0.9702      2.00000
      2       0.3185      2.00000
      3       2.1408      2.00000
      4       4.0230      2.00000
      5       4.1898      2.00000
      6       5.5398      0.30694
      7      13.5101      0.00000
      8      21.7661      0.00000
      9      24.5835      0.00000
     10      24.7859      0.00000

 k-point    10 :       0.4000    0.1000    0.0000
  band No.  band energies     occupation 
      1      -0.3796      2.00000
      2       0.4896      2.00000
      3       2.7155      2.00000
      4       3.7224      2.00000
      5       4.7676      1.99999
      6       5.5969      0.15396
      7      11.0457      0.00000
      8      22.6271      0.00000
      9      24.0411      0.00000
     10      26.5434      0.00000

 k-point    11 :       0.5000    0.1000    0.0000
  band No.  band energies     occupation 
      1      -0.1547      2.00000
      2       0.5666      2.00000
      3       2.6286      2.00000
      4       3.5531      2.00000
      5       5.6189      0.11379
      6       5.8225      0.00252
      7       9.7285      0.00000
      8      22.6056      0.00000
      9      25.0094      0.00000
     10      25.0859      0.00000

 k-point    12 :       0.2000    0.2000    0.0000
  band No.  band energies     occupation 
      1      -1.0904      2.00000
      2       0.6337      2.00000
      3       1.2900      2.00000
      4       3.9470      2.00000
      5       4.8165      1.99996
      6       4.9887      1.99596
      7      17.3260      0.00000
      8      17.4276      0.00000
      9      24.3751      0.00000
     10      25.6855      0.00000

 k-point    13 :       0.3000    0.2000    0.0000
  band No.  band energies     occupation 
      1      -0.4390      2.00000
      2       0.9823      2.00000
      3       2.1229      2.00000
      4       3.8560      2.00000
      5       4.2679      2.00000
      6       5.0015      1.99464
      7      14.3610      0.00000
      8      18.7414      0.00000
      9      24.7044      0.00000
     10      26.1645      0.00000

 k-point    14 :       0.4000    0.2000    0.0000
  band No.  band energies     occupation 
      1       0.0230      2.00000
      2       1.2385      2.00000
      3       1.9839      2.00000
      4       3.8135      2.00000
      5       5.0679      1.97939
      6       5.5565      0.25440
      7      11.5893      0.00000
      8      20.2906      0.00000
      9      23.5177      0.00000
     10      26.0696      0.00000

 k-point    15 :       0.5000    0.2000    0.0000
  band No.  band energies     occupation 
      1       0.1979      2.00000
      2       1.4352      2.00000
      3       1.7053      2.00000
      4       3.6477      2.00000
      5       5.0944      1.96665
      6       7.1718      0.00000
      7       9.7854      0.00000
      8      21.9472      0.00000
      9      22.0592      0.00000
     10      24.9430      0.00000

 k-point    16 :       0.3000    0.3000    0.0000
  band No.  band energies     occupation 
      1      -0.0116      2.00000
      2       1.0298      2.00000
      3       3.1147      2.00000
      4       4.1998      2.00000
      5       4.3079      2.00000
      6       4.4586      2.00000
      7      14.5917      0.00000
      8      16.7312      0.00000
      9      23.8186      0.00000
     10      27.8505      0.00000

 k-point    17 :       0.4000    0.3000    0.0000
  band No.  band energies     occupation 
      1       0.2852      2.00000
      2       0.6842      2.00000
      3       3.5864      2.00000
      4       3.9280      2.00000
      5       4.4743      2.00000
      6       6.2378      0.00000
      7      12.1619      0.00000
      8      17.6966      0.00000
      9      22.0034      0.00000
     10      26.5550      0.00000

 k-point    18 :       0.5000    0.3000    0.0000
  band No.  band energies     occupation 
      1       0.4627      2.00000
      2       0.4692      2.00000
      3       3.6645      2.00000
      4       3.7674      2.00000
      5       4.5043      2.00000
      6       8.4441      0.00000
      7       9.8516      0.00000
      8      18.8577      0.00000
      9      20.5712      0.00000
     10      25.9250      0.00000

 k-point    19 :       0.4000    0.4000    0.0000
  band No.  band energies     occupation 
      1       0.0240      2.00000
      2       0.6027      2.00000
      3       4.0014      2.00000
      4       4.0543      2.00000
      5       5.4156      0.88606
      6       7.3277      0.00000
      7      11.7880      0.00000
      8      16.1616      0.00000
      9      20.1556      0.00000
     10      27.3667      0.00000

 k-point    20 :       0.5000    0.4000    0.0000
  band No.  band energies     occupation 
      1      -0.1633      2.00000
      2       0.6748      2.00000
      3       3.8666      2.00000
      4       4.0651      2.00000
      5       5.9219      0.00020
      6       9.4443      0.00000
      7       9.8815      0.00000
      8      16.0930      0.00000
      9      19.2184      0.00000
     10      27.2331      0.00000

 k-point    21 :       0.5000    0.5000    0.0000
  band No.  band energies     occupation 
      1      -0.3789      2.00000
      2       0.7538      2.00000
      3       3.9050      2.00000
      4       3.9050      2.00000
      5       7.1943      0.00000
      6       9.8507      0.00000
      7       9.8507      0.00000
      8      14.7201      0.00000
      9      18.6680      0.00000
     10      27.7594      0.00000

 k-point    22 :       0.1000    0.1000    0.1000
  band No.  band energies     occupation 
      1      -2.1563      2.00000
      2       0.1858      2.00000
      3       0.1858      2.00000
      4       5.0956      1.96594
      5       5.1864      1.86029
      6       5.1864      1.86029
      7      19.2293      0.00000
      8      20.1386      0.00000
      9      20.1386      0.00000
     10      28.8066      0.00000

 k-point    23 :       0.2000    0.1000    0.1000
  band No.  band energies     occupation 
      1      -1.4502      2.00000
      2       0.3227      2.00000
      3       0.9531      2.00000
      4       4.5612      2.00000
      5       4.5630      2.00000
      6       5.2270      1.76606
      7      16.7550      0.00000
      8      20.5659      0.00000
      9      21.2816      0.00000
     10      27.1712      0.00000

 k-point    24 :       0.3000    0.1000    0.1000
  band No.  band energies     occupation 
      1      -0.6667      2.00000
      2       0.5023      2.00000
      3       2.1126      2.00000
      4       3.8749      2.00000
      5       4.2162      2.00000
      6       5.3048      1.47762
      7      13.8722      0.00000
      8      21.7849      0.00000
      9      22.4841      0.00000
     10      25.9788      0.00000

 k-point    25 :       0.4000    0.1000    0.1000
  band No.  band energies     occupation 
      1      -0.0499      2.00000
      2       0.6591      2.00000
      3       2.4814      2.00000
      4       3.3644      2.00000
      5       5.2636      1.64835
      6       5.3893      1.03414
      7      11.2843      0.00000
      8      22.8685      0.00000
      9      23.1280      0.00000
     10      26.0001      0.00000

 k-point    26 :       0.5000    0.1000    0.1000
  band No.  band energies     occupation 
      1       0.2057      2.00000
      2       0.7229      2.00000
      3       2.3733      2.00000
      4       3.1770      2.00000
      5       5.3900      1.02985
      6       6.5459      0.00000
      7       9.7668      0.00000
      8      22.7917      0.00000
      9      24.4350      0.00000
     10      25.0120      0.00000

 k-point    27 :       0.2000    0.2000    0.1000
  band No.  band energies     occupation 
      1      -0.7599      2.00000
      2       0.8120      2.00000
      3       1.3338      2.00000
      4       3.9824      2.00000
      5       4.6004      2.00000
      6       4.6951      2.00000
      7      17.7097      0.00000
      8      17.8130      0.00000
      9      22.0087      0.00000
     10      27.3722      0.00000

 k-point    28 :       0.3000    0.2000    0.1000
  band No.  band energies     occupation 
      1      -0.0818      2.00000
      2       1.1060      2.00000
      3       2.1378      2.00000
      4       3.6288      2.00000
      5       4.3284      2.00000
      6       4.7600      1.99999
      7      14.7569      0.00000
      8      19.0657      0.00000
      9      23.1311      0.00000
     10      26.2739      0.00000

 k-point    29 :       0.4000    0.2000    0.1000
  band No.  band energies     occupation 
      1       0.4260      2.00000
      2       1.3091      2.00000
      3       2.0080      2.00000
      4       3.2898      2.00000
      5       4.8066      1.99997
      6       5.9980      0.00002
      7      11.8983      0.00000
      8      20.5723      0.00000
      9      23.5759      0.00000
     10      24.8474      0.00000

 k-point    30 :       0.5000    0.2000    0.1000
  band No.  band energies     occupation 
      1       0.6423      2.00000
      2       1.4469      2.00000
      3       1.7560      2.00000
      4       3.1165      2.00000
      5       4.8437      1.99990
      6       7.8156      0.00000
      7       9.8678      0.00000
      8      22.1998      0.00000
      9      22.4284      0.00000
     10      24.1384      0.00000

 k-point    31 :       0.3000    0.3000    0.1000
  band No.  band energies     occupation 
      1       0.3399      2.00000
      2       1.1551      2.00000
      3       3.0614      2.00000
      4       3.6179      2.00000
      5       4.2175      2.00000
      6       4.7952      1.99998
      7      15.1109      0.00000
      8      16.9452      0.00000
      9      23.9183      0.00000
     10      24.8302      0.00000

 k-point    32 :       0.4000    0.3000    0.1000
  band No.  band energies     occupation 
      1       0.5466      2.00000
      2       0.9156      2.00000
      3       3.3942      2.00000
      4       3.4318      2.00000
      5       4.3722      2.00000
      6       6.6632      0.00000
      7      12.5793      0.00000
      8      17.9603      0.00000
      9      22.1431      0.00000
     10      25.0372      0.00000

 k-point    33 :       0.5000    0.3000    0.1000
  band No.  band energies     occupation 
      1       0.5281      2.00000
      2       0.9071      2.00000
      3       3.2395      2.00000
      4       3.4825      2.00000
      5       4.4409      2.00000
      6       9.0735      0.00000
      7      10.0155      0.00000
      8      19.2780      0.00000
      9      20.4673      0.00000
     10      25.1644      0.00000

 k-point    34 :       0.4000    0.4000    0.1000
  band No.  band energies     occupation 
      1       0.1050      2.00000
      2       1.0353      2.00000
      3       3.4934      2.00000
      4       3.5377      2.00000
      5       5.5845      0.18098
      6       7.8093      0.00000
      7      12.3237      0.00000
      8      16.3375      0.00000
      9      20.0649      0.00000
     10      26.0182      0.00000

 k-point    35 :       0.5000    0.4000    0.1000
  band No.  band energies     occupation 
      1      -0.0833      2.00000
      2       1.1188      2.00000
      3       3.3598      2.00000
      4       3.5621      2.00000
      5       6.0841      0.00000
      6      10.0836      0.00000
      7      10.2423      0.00000
      8      16.3250      0.00000
      9      19.0100      0.00000
     10      26.4190      0.00000

 k-point    36 :       0.5000    0.5000    0.1000
  band No.  band energies     occupation 
      1      -0.2957      2.00000
      2       1.2046      2.00000
      3       3.4079      2.00000
      4       3.4079      2.00000
      5       7.2075      0.00000
      6      10.5018      0.00000
      7      10.5018      0.00000
      8      14.7595      0.00000
      9      18.4229      0.00000
     10      27.7142      0.00000

 k-point    37 :       0.2000    0.2000    0.2000
  band No.  band energies     occupation 
      1      -0.0206      2.00000
      2       1.4544      2.00000
      3       1.4544      2.00000
      4       3.9992      2.00000
      5       3.9992      2.00000
      6       4.2572      2.00000
      7      18.2889      0.00000
      8      19.0548      0.00000
      9      19.0548      0.00000
     10      29.1600      0.00000

 k-point    38 :       0.3000    0.2000    0.2000
  band No.  band energies     occupation 
      1       0.6100      2.00000
      2       1.6238      2.00000
      3       2.2065      2.00000
      4       3.2347      2.00000
      5       4.0470      2.00000
      6       4.6733      2.00000
      7      15.7268      0.00000
      8      19.5134      0.00000
      9      20.6319      0.00000
     10      27.2560      0.00000

 k-point    39 :       0.4000    0.2000    0.2000
  band No.  band energies     occupation 
      1       1.0638      2.00000
      2       1.8107      2.00000
      3       2.0540      2.00000
      4       2.6347      2.00000
      5       4.2450      2.00000
      6       6.6849      0.00000
      7      12.6779      0.00000
      8      20.6934      0.00000
      9      22.2189      0.00000
     10      24.9916      0.00000

 k-point    40 :       0.5000    0.2000    0.2000
  band No.  band energies     occupation 
      1       1.3016      2.00000
      2       1.8320      2.00000
      3       1.9381      2.00000
      4       2.3625      2.00000
      5       4.2991      2.00000
      6       9.0806      0.00000
      7      10.0802      0.00000
      8      21.7041      0.00000
      9      23.3693      0.00000
     10      23.3705      0.00000

 k-point    41 :       0.3000    0.3000    0.2000
  band No.  band energies     occupation 
      1       0.8735      2.00000
      2       1.8289      2.00000
      3       2.7514      2.00000
      4       3.0686      2.00000
      5       3.8622      2.00000
      6       5.3360      1.32525
      7      16.4239      0.00000
      8      17.4503      0.00000
      9      21.2773      0.00000
     10      25.0814      0.00000

 k-point    42 :       0.4000    0.3000    0.2000
  band No.  band energies     occupation 
      1       0.7790      2.00000
      2       1.8992      2.00000
      3       2.5297      2.00000
      4       2.9732      2.00000
      5       4.3484      2.00000
      6       7.4167      0.00000
      7      13.5952      0.00000
      8      18.5159      0.00000
      9      21.7559      0.00000
     10      23.4965      0.00000

 k-point    43 :       0.5000    0.3000    0.2000
  band No.  band energies     occupation 
      1       0.6892      2.00000
      2       2.0672      2.00000
      3       2.2366      2.00000
      4       2.9982      2.00000
      5       4.4762      2.00000
      6      10.3901      0.00000
      7      10.4132      0.00000
      8      19.9030      0.00000
      9      20.3640      0.00000
     10      24.0997      0.00000

 k-point    44 :       0.4000    0.4000    0.2000
  band No.  band energies     occupation 
      1       0.3152      2.00000
      2       2.0659      2.00000
      3       2.5632      2.00000
      4       2.7503      2.00000
      5       5.7917      0.00506
      6       8.7477      0.00000
      7      13.6291      0.00000
      8      16.7031      0.00000
      9      19.6719      0.00000
     10      24.3198      0.00000

 k-point    45 :       0.5000    0.4000    0.2000
  band No.  band energies     occupation 
      1       0.1335      2.00000
      2       2.2501      2.00000
      3       2.3451      2.00000
      4       2.7377      2.00000
      5       6.2990      0.00000
      6      11.0560      0.00000
      7      11.4769      0.00000
      8      16.9580      0.00000
      9      18.3578      0.00000
     10      25.1490      0.00000

 k-point    46 :       0.5000    0.5000    0.2000
  band No.  band energies     occupation 
      1      -0.0691      2.00000
      2       2.4012      2.00000
      3       2.4012      2.00000
      4       2.4941      2.00000
      5       7.2422      0.00000
      6      11.9495      0.00000
      7      11.9495      0.00000
      8      14.8700      0.00000
      9      17.7151      0.00000
     10      26.0265      0.00000

 k-point    47 :       0.3000    0.3000    0.3000
  band No.  band energies     occupation 
      1       0.9855      2.00000
      2       2.1552      2.00000
      3       2.1552      2.00000
      4       3.7814      2.00000
      5       3.7814      2.00000
      6       6.2392      0.00000
      7      17.9881      0.00000
      8      18.1034      0.00000
      9      18.1034      0.00000
     10      25.3816      0.00000

 k-point    48 :       0.4000    0.3000    0.3000
  band No.  band energies     occupation 
      1       0.8495      2.00000
      2       1.6583      2.00000
      3       2.0933      2.00000
      4       3.8109      2.00000
      5       4.6935      2.00000
      6       8.3028      0.00000
      7      14.7769      0.00000
      8      18.4745      0.00000
      9      19.7956      0.00000
     10      23.6953      0.00000

 k-point    49 :       0.5000    0.3000    0.3000
  band No.  band energies     occupation 
      1       0.7547      2.00000
      2       1.4750      2.00000
      3       2.1066      2.00000
      4       3.8306      2.00000
      5       4.9311      1.99897
      6      10.9853      0.00000
      7      11.7919      0.00000
      8      18.6774      0.00000
      9      20.7694      0.00000
     10      22.9635      0.00000

 k-point    50 :       0.4000    0.4000    0.3000
  band No.  band energies     occupation 
      1       0.5774      2.00000
      2       1.5168      2.00000
      3       1.6557      2.00000
      4       4.2575      2.00000
      5       5.9334      0.00014
      6       9.8114      0.00000
      7      15.1956      0.00000
      8      16.8414      0.00000
      9      18.6473      0.00000
     10      23.4850      0.00000

 k-point    51 :       0.5000    0.4000    0.3000
  band No.  band energies     occupation 
      1       0.4156      2.00000
      2       1.4016      2.00000
      3       1.6318      2.00000
      4       4.3221      2.00000
      5       6.4639      0.00000
      6      11.9967      0.00000
      7      12.9855      0.00000
      8      17.3726      0.00000
      9      17.6437      0.00000
     10      24.3504      0.00000

 k-point    52 :       0.5000    0.5000    0.3000
  band No.  band energies     occupation 
      1       0.2309      2.00000
      2       1.4542      2.00000
      3       1.4542      2.00000
      4       4.3997      2.00000
      5       7.2855      0.00000
      6      13.5472      0.00000
      7      13.5472      0.00000
      8      15.0347      0.00000
      9      16.7463      0.00000
     10      24.9822      0.00000

 k-point    53 :       0.4000    0.4000    0.4000
  band No.  band energies     occupation 
      1       0.7016      2.00000
      2       1.0440      2.00000
      3       1.0440      2.00000
      4       6.0204      0.00001
      5       6.0204      0.00001
      6      11.2692      0.00000
      7      16.5698      0.00000
      8      16.5698      0.00000
      9      16.5983      0.00000
     10      23.1675      0.00000

 k-point    54 :       0.5000    0.4000    0.4000
  band No.  band energies     occupation 
      1       0.6024      2.00000
      2       0.8302      2.00000
      3       1.0307      2.00000
      4       6.0505      0.00000
      5       6.7453      0.00000
      6      13.1669      0.00000
      7      14.2392      0.00000
      8      16.4189      0.00000
      9      17.1690      0.00000
     10      22.9865      0.00000

 k-point    55 :       0.5000    0.5000    0.4000
  band No.  band energies     occupation 
      1       0.4927      2.00000
      2       0.8192      2.00000
      3       0.8192      2.00000
      4       6.3845      0.00000
      5       7.3207      0.00000
      6      14.8485      0.00000
      7      14.8485      0.00000
      8      15.2397      0.00000
      9      15.9205      0.00000
     10      23.3545      0.00000

 k-point    56 :       0.5000    0.5000    0.5000
  band No.  band energies     occupation 
      1       0.5980      2.00000
      2       0.5980      2.00000
      3       0.5980      2.00000
      4       7.3342      0.00000
      5       7.3342      0.00000
      6      15.3782      0.00000
      7      15.3782      0.00000
      8      15.3782      0.00000
      9      15.5997      0.00000
     10      21.7145      0.00000


--------------------------------------------------------------------------------------------------------


 soft charge-density along one line, spin component           1
         0         1         2         3         4         5         6         7         8         9
 total charge-density along one line
 
 pseudopotential strength for first ion, spin component:           1
 -8.214  -0.000   0.000  -0.000   0.000  -0.148   0.000  -0.000
 -0.000  -8.214  -0.000  -0.000  -0.000   0.000  -0.148   0.000
  0.000  -0.000  -8.299  -0.000   0.000  -0.000   0.000  -0.140
 -0.000  -0.000  -0.000  -8.214   0.000   0.000   0.000   0.000
  0.000  -0.000   0.000   0.000  -8.299  -0.000   0.000  -0.000
 -0.148   0.000  -0.000   0.000  -0.000   0.216  -0.000   0.000
  0.000  -0.148   0.000   0.000   0.000  -0.000   0.216  -0.000
 -0.000   0.000  -0.140   0.000  -0.000   0.000  -0.000   0.215
  0.000   0.000   0.000  -0.148  -0.000  -0.000  -0.000  -0.000
 -0.000   0.000  -0.000  -0.000  -0.140   0.000  -0.000   0.000
  0.000   0.000  -0.000   0.000   0.000  -0.000  -0.000   0.000
 -0.000  -0.000   0.000  -0.000  -0.000   0.000   0.000  -0.000
  0.000   0.000   0.000   0.000   0.000  -0.000  -0.000  -0.000
  0.000  -0.000   0.000   0.000   0.000  -0.000   0.000  -0.000
 -0.000   0.000  -0.000   0.000   0.000   0.000  -0.000   0.000
 -0.000  -0.000  -0.000  -0.000  -0.000   0.000   0.000   0.000
 -0.000   0.000  -0.000  -0.000  -0.000   0.000  -0.000   0.000
  0.000  -0.000   0.000  -0.000  -0.000  -0.000   0.000  -0.000
 total augmentation occupancy for first ion, spin component:           1
  1.860   0.000   0.000   0.000   0.000  -0.073   0.000   0.000  -0.000  -0.000   0.000   0.000   0.000   0.000   0.000   0.000
  0.000   1.860  -0.000  -0.000   0.000  -0.000  -0.073  -0.000  -0.000  -0.000   0.000  -0.000   0.000   0.000   0.000   0.000
  0.000  -0.000   1.579   0.000  -0.000  -0.000  -0.000   0.339   0.000  -0.000   0.000   0.000   0.000   0.000   0.000   0.000
  0.000  -0.000   0.000   1.860   0.000   0.000  -0.000   0.000  -0.073   0.000   0.000   0.000   0.000   0.000   0.000   0.000
  0.000  -0.000  -0.000  -0.000   1.579   0.000  -0.000  -0.000   0.000   0.339  -0.000   0.000   0.000   0.000   0.000   0.000
 -0.073  -0.000  -0.000  -0.000  -0.000   0.228   0.000  -0.000  -0.000   0.000   0.000  -0.000   0.000   0.000   0.000   0.000
  0.000  -0.073   0.000  -0.000   0.000   0.000   0.228  -0.000   0.000   0.000  -0.000  -0.000   0.000   0.000   0.000   0.000
 -0.000  -0.000   0.339   0.000  -0.000  -0.000  -0.000   0.244   0.000  -0.000   0.000  -0.000   0.000   0.000   0.000   0.000
 -0.000   0.000   0.000  -0.073  -0.000  -0.000   0.000   0.000   0.228   0.000  -0.000   0.000   0.000   0.000   0.000   0.000
  0.000  -0.000  -0.000   0.000   0.339   0.000   0.000  -0.000  -0.000   0.244  -0.000   0.000   0.000   0.000   0.000   0.000
  0.000  -0.000   0.000  -0.000  -0.000  -0.000  -0.000   0.000  -0.000  -0.000   1.314  -0.314   0.000   0.000   0.000   0.000
  0.000  -0.000   0.000   0.000   0.000  -0.000  -0.000  -0.000   0.000   0.000  -0.314   0.138   0.000   0.000   0.000   0.000
  0.000   0.000   0.000   0.000   0.000   0.000   0.000   0.000   0.000   0.000   0.000   0.000   0.158  -0.000   0.000  -0.006
  0.000   0.000   0.000   0.000   0.000   0.000   0.000   0.000   0.000   0.000   0.000   0.000   0.000   0.158   0.000  -0.000
  0.000   0.000   0.000   0.000   0.000   0.000   0.000   0.000   0.000   0.000   0.000   0.000   0.000  -0.000   0.158  -0.000
  0.000   0.000   0.000   0.000   0.000   0.000   0.000   0.000   0.000   0.000   0.000   0.000  -0.006  -0.000   0.000   0.000
  0.000   0.000   0.000   0.000   0.000   0.000   0.000   0.000   0.000   0.000   0.000   0.000   0.000  -0.006   0.000   0.000
  0.000   0.000   0.000   0.000   0.000   0.000   0.000   0.000   0.000   0.000   0.000   0.000   0.000  -0.000  -0.006  -0.000


------------------------ aborting loop because EDIFF is reached ----------------------------------------


    CHARGE:  cpu time    0.0310: real time    0.0309
    FORLOC:  cpu time    0.0000: real time    0.0004
    FORNL :  cpu time    0.2360: real time    0.2358
    STRESS:  cpu time    0.7359: real time    0.7357
    FORCOR:  cpu time    0.0090: real time    0.0092
    FORHAR:  cpu time    0.0010: real time    0.0016
    MIXING:  cpu time    0.0010: real time    0.0004
    OFIELD:  cpu time    0.0000: real time    0.0000

  FORCE on cell =-STRESS in cart. coord.  units (eV):
  Direction    XX          YY          ZZ          XY          YZ          ZX
  --------------------------------------------------------------------------------------
  Alpha Z    80.13537    80.13537    80.13537
  Ewald    -259.08056  -259.08056  -259.08056    -0.00000    -0.00000    -0.00000
  Hartree    29.94671    29.94671    29.94671    -0.00000    -0.00000    -0.00000
  E(xc)     -44.38020   -44.38020   -44.38020    -0.00000     0.00000    -0.00000
  Local      42.40400    42.40400    42.40400    -0.00000     0.00000    -0.00000
  n-local   -43.92990   -30.09805   -24.77962     1.72932     0.42009     0.60752
  augment    38.80736    38.80736    38.80736    -0.00000     0.00000     0.00000
  Kinetic   142.71446   142.68424   149.93900     1.42047     1.16987     0.65774
  Fock        0.00000     0.00000     0.00000     0.00000     0.00000     0.00000
  -------------------------------------------------------------------------------------
  Total       0.00939     0.00939     0.00939     0.00000     0.00000     0.00000
  in kB       0.82892     0.82892     0.82892     0.00000     0.00000     0.00000
  external pressure =        0.83 kB  Pullay stress =        0.00 kB


 VOLUME and BASIS-vectors are now :
 -----------------------------------------------------------------------------
  energy-cutoff  :      500.00
  volume of cell :       18.16
      direct lattice vectors                 reciprocal lattice vectors
     2.628299652  0.000000000  0.000000000     0.380474121  0.000000000  0.000000000
     0.000000000  2.628299652  0.000000000     0.000000000  0.380474121  0.000000000
     0.000000000  0.000000000  2.628299652     0.000000000  0.000000000  0.380474121

  length of vectors
     2.628299652  2.628299652  2.628299652     0.380474121  0.380474121  0.380474121


 FORCES acting on ions
    electron-ion (+dipol)            ewald-force                    non-local-force                 convergence-correction
 -----------------------------------------------------------------------------------------------
   -.499E-14 0.164E-13 -.102E-13   -.117E-14 0.102E-14 0.782E-15   0.000E+00 0.000E+00 0.000E+00   -.191E-15 0.677E-15 -.958E-14
 -----------------------------------------------------------------------------------------------
   -.499E-14 0.164E-13 -.102E-13   -.117E-14 0.102E-14 0.782E-15   0.000E+00 0.000E+00 0.000E+00   -.191E-15 0.677E-15 -.958E-14
 
 
 POSITION                                       TOTAL-FORCE (eV/Angst)
 -----------------------------------------------------------------------------------
      0.00000      0.00000      0.00000         0.000000      0.000000      0.000000
 -----------------------------------------------------------------------------------
    total drift:                               -0.000000      0.000000     -0.000000


--------------------------------------------------------------------------------------------------------



  FREE ENERGIE OF THE ION-ELECTRON SYSTEM (eV)
  ---------------------------------------------------
  free  energy   TOTEN  =        -5.64533475 eV

  energy  without entropy=       -5.61860480  energy(sigma->0) =       -5.63196978
 


--------------------------------------------------------------------------------------------------------


    POTLOK:  cpu time    0.0320: real time    0.0322


--------------------------------------------------------------------------------------------------------


 Quasi-Newton relaxation of ions (Broydens 2nd method)
  g(Force)  = 0.000E+00   g(Stress)= 0.128E-04

 Reset! Starting new Quasi-Newton update for ions 


--------------------------------------------------------------------------------------------------------


  
 reached required accuracy - stopping structural energy minimisation
 writing wavefunctions
     LOOP+:  cpu time    4.0524: real time    4.1622
    4ORBIT:  cpu time    0.0000: real time    0.0000

 total amount of memory used by VASP on root node    35344. kBytes
========================================================================

   base      :      30000. kBytes
   nonlr-proj:        711. kBytes
   fftplans  :       2507. kBytes
   grid      :        956. kBytes
   one-center:         15. kBytes
   wavefun   :       1155. kBytes
 
  
  
 General timing and accounting informations for this job:
 ========================================================
  
                  Total CPU time used (sec):        4.867
                            User time (sec):        4.534
                          System time (sec):        0.333
                         Elapsed time (sec):        6.093
  
                   Maximum memory used (kb):       54568.
                   Average memory used (kb):           0.
  
                          Minor page faults:       113177
                          Major page faults:          262
                 Voluntary context switches:         2082
