unknown system                          
   1.00000000000000     
     3.905268    0.000000    0.000000
     0.000000    3.905268    0.000000
     0.000000    0.000000    3.905268
   Sr   Ti   O 
     1     1     3
Direct
  0.000000  0.000000  0.000000
  0.500000  0.500000  0.500000
  0.500000  0.500000  0.000000
  0.500000  0.000000  0.500000
  0.000000  0.500000  0.500000
 
   56   56   56
  193.17      193.20      193.02      191.92      188.91      183.05      173.67      160.60      144.22      125.38    
  105.29      85.274      66.580      50.185      36.664      26.154      18.413      12.949      9.1865      6.6514    
  4.9703      3.8644      3.1409      2.6722      2.3744      2.1915      2.0854      2.0312      2.0147      2.0312    
  2.0854      2.1915      2.3744      2.6722      3.1409      3.8644      4.9703      6.6514      9.1865      12.949    
  18.413      26.154      36.664      50.185      66.580      85.274      105.29      125.38      144.22      160.60    
  173.67      183.05      188.91      191.92      193.02      193.20      193.20      193.18      192.88      191.59    
  188.36      182.29      172.73      159.54      143.11      124.29      104.28      84.395      65.855      49.620    
  36.249      25.866      18.224      12.830      9.1163      6.6136      4.9537      3.8616      3.1471      2.6843    
  2.3904      2.2100      2.1054      2.0520      2.0357      2.0520      2.1054      2.2100      2.3904      2.6843    
  3.1471      3.8616      4.9537      6.6136      9.1163      12.830      18.224      25.866      36.249      49.620    
  65.855      84.395      104.28      124.29      143.11      159.54      172.73      182.29      188.36      191.59    
  192.88      193.18      193.02      192.88      192.22      190.40      186.56      179.89      169.84      156.33    
  139.78      121.05      101.30      81.799      63.720      47.961      35.032      25.023      17.672      12.485    
  8.9128      6.5052      4.9078      3.8564      3.1687      2.7236      2.4415      2.2686      2.1686      2.1176    
  2.1021      2.1176      2.1686      2.2686      2.4415      2.7236      3.1687      3.8564      4.9078      6.5052    
  8.9128      12.485      17.672      25.023      35.032      47.961      63.720      81.799      101.30      121.05    
  139.78      156.33      169.84      179.89      186.56      190.40      192.22      192.88      191.92      191.59    
  190.40      187.80      183.07      175.54      164.81      150.89      134.24      115.71      96.439      77.604    
  60.293      45.314      33.100      23.691      16.801      11.944      8.5966      6.3411      4.8442      3.8589    
  3.2150      2.7995      2.5371      2.3772      2.2852      2.2385      2.2243      2.2385      2.2852      2.3772    
  2.5371      2.7995      3.2150      3.8589      4.8442      6.3411      8.5966      11.944      16.801      23.691    
  33.100      45.314      60.293      77.604      96.439      115.71      134.24      150.89      164.81      175.54    
  183.07      187.80      190.40      191.59      188.91      188.36      186.56      183.07      177.33      168.87    
  157.43      143.15      126.53      108.43      89.886      72.011      55.766      41.845      30.587      21.969    
  15.684      11.254      8.2014      6.1461      4.7824      3.8859      3.3020      2.9273      2.6929      2.5517    
  2.4716      2.4314      2.4193      2.4314      2.4716      2.5517      2.6929      2.9273      3.3020      3.8859    
  4.7824      6.1461      8.2014      11.254      15.684      21.969      30.587      41.845      55.766      72.011    
  89.886      108.43      126.53      143.15      157.43      168.87      177.33      183.07      186.56      188.36    
  183.05      182.29      179.89      175.54      168.87      159.58      147.60      133.16      116.82      99.418    
  81.917      65.300      50.397      37.775      27.666      19.986      14.408      10.476      7.7711      5.9523    
  4.7479      3.9591      3.4492      3.1263      2.9279      2.8113      2.7469      2.7156      2.7063      2.7156    
  2.7469      2.8113      2.9279      3.1263      3.4492      3.9591      4.7479      5.9523      7.7711      10.476    
  14.408      19.986      27.666      37.775      50.397      65.300      81.917      99.418      116.82      133.16    
  147.60      159.58      168.87      175.54      179.89      182.29      173.67      172.73      169.84      164.81    
  157.43      147.60      135.38      121.12      105.41      89.045      72.897      57.819      44.495      33.356    
  24.532      17.882      13.069      9.6792      7.3544      5.7961      4.7690      4.1025      3.6785      3.4168    
  3.2623      3.1764      3.1324      3.1125      3.1069      3.1125      3.1324      3.1764      3.2623      3.4168    
  3.6785      4.1025      4.7690      5.7961      7.3544      9.6792      13.069      17.882      24.532      33.356    
  44.495      57.819      72.897      89.045      105.41      121.12      135.38      147.60      157.43      164.81    
  169.84      172.73      160.60      159.54      156.33      150.89      143.15      133.16      121.12      107.46    
  92.761      77.774      63.274      49.968      38.395      28.853      21.381      15.795      11.763      8.9314    
  6.9997      5.7134      4.8750      4.3418      4.0144      3.8242      3.7227      3.6753      3.6574      3.6528    
  3.6522      3.6528      3.6574      3.6753      3.7227      3.8242      4.0144      4.3418      4.8750      5.7134    
  6.9997      8.9314      11.763      15.795      21.381      28.853      38.395      49.968      63.274      77.774    
  92.761      107.46      121.12      133.16      143.15      150.89      156.33      159.54      144.22      143.11    
  139.78      134.24      126.53      116.82      105.41      92.761      79.453      66.157      53.537      42.161    
  32.427      24.516      18.392      13.846      10.574      8.2921      6.7505      5.7391      5.0971      4.7083    
  4.4906      4.3856      4.3504      4.3531      4.3705      4.3870      4.3935      4.3870      4.3705      4.3531    
  4.3504      4.3856      4.4906      4.7083      5.0971      5.7391      6.7505      8.2921      10.574      13.846    
  18.392      24.516      32.427      42.161      53.537      66.157      79.453      92.761      105.41      116.82    
  126.53      134.24      139.78      143.11      125.38      124.29      121.05      115.71      108.43      99.418    
  89.045      77.774      66.157      54.776      44.174      34.787      26.885      20.554      15.705      12.126    
  9.5691      7.8102      6.6458      5.9091      5.4729      5.2446      5.1566      5.1580      5.2096      5.2805    
  5.3474      5.3939      5.4105      5.3939      5.3474      5.2805      5.2096      5.1580      5.1566      5.2446    
  5.4729      5.9091      6.6458      7.8102      9.5691      12.126      15.705      20.554      26.885      34.787    
  44.174      54.776      66.157      77.774      89.045      99.418      108.43      115.71      121.05      124.29    
  105.29      104.28      101.30      96.439      89.886      81.917      72.897      63.274      53.537      44.174    
  35.611      28.160      21.989      17.111      13.410      10.700      8.7982      7.5255      6.7240      6.2656    
  6.0526      6.0109      6.0833      6.2234      6.3925      6.5583      6.6953      6.7848      6.8159      6.7848    
  6.6953      6.5583      6.3925      6.2234      6.0833      6.0109      6.0526      6.2656      6.7240      7.5255    
  8.7982      10.700      13.410      17.111      21.989      28.160      35.611      44.174      53.537      63.274    
  72.897      81.917      89.886      96.439      101.30      104.28      85.274      84.395      81.799      77.604    
  72.011      65.300      57.819      49.968      42.161      34.787      28.160      22.492      17.869      14.260    
  11.550      9.6083      8.2944      7.4732      7.0276      6.8626      6.9032      7.0884      7.3664      7.6912    
  8.0210      8.3190      8.5548      8.7056      8.7574      8.7056      8.5548      8.3190      8.0210      7.6912    
  7.3664      7.0884      6.9032      6.8626      7.0276      7.4732      8.2944      9.6083      11.550      14.260    
  17.869      22.492      28.160      34.787      42.161      49.968      57.819      65.300      72.011      77.604    
  81.799      84.395      66.580      65.855      63.720      60.293      55.766      50.397      44.495      38.395    
  32.427      26.885      21.989      17.869      14.557      12.007      10.142      8.8672      8.0814      7.6889    
  7.6072      7.7668      8.1084      8.5781      9.1243      9.6966      10.246      10.728      11.103      11.340    
  11.422      11.340      11.103      10.728      10.246      9.6966      9.1243      8.5781      8.1084      7.7668    
  7.6072      7.6889      8.0814      8.8672      10.142      12.007      14.557      17.869      21.989      26.885    
  32.427      38.395      44.495      50.397      55.766      60.293      63.720      65.855      50.185      49.620    
  47.961      45.314      41.845      37.775      33.356      28.853      24.516      20.554      17.111      14.260    
  12.007      10.328      9.1736      8.4795      8.1792      8.2113      8.5201      9.0545      9.7641      10.596    
  11.496      12.403      13.256      13.997      14.570      14.933      15.057      14.933      14.570      13.997    
  13.256      12.403      11.496      10.596      9.7641      9.0545      8.5201      8.2113      8.1792      8.4795    
  9.1736      10.328      12.007      14.260      17.111      20.554      24.516      28.853      33.356      37.775    
  41.845      45.314      47.961      49.620      36.664      36.249      35.032      33.100      30.587      27.666    
  24.532      21.381      18.392      15.705      13.410      11.550      10.142      9.1736      8.6181      8.4407    
  8.6063      9.0803      9.8270      10.807      11.975      13.277      14.650      16.020      17.307      18.425    
  19.295      19.847      20.036      19.847      19.295      18.425      17.307      16.020      14.650      13.277    
  11.975      10.807      9.8270      9.0803      8.6063      8.4407      8.6181      9.1736      10.142      11.550    
  13.410      15.705      18.392      21.381      24.532      27.666      30.587      33.100      35.032      36.249    
  26.154      25.866      25.023      23.691      21.969      19.986      17.882      15.795      13.846      12.126    
  10.700      9.6083      8.8672      8.4795      8.4407      8.7438      9.3794      10.334      11.588      13.111    
  14.863      16.790      18.820      20.857      22.789      24.486      25.816      26.667      26.959      26.667    
  25.816      24.486      22.789      20.857      18.820      16.790      14.863      13.111      11.588      10.334    
  9.3794      8.7438      8.4407      8.4795      8.8672      9.6083      10.700      12.126      13.846      15.795    
  17.882      19.986      21.969      23.691      25.023      25.866      18.413      18.224      17.672      16.801    
  15.684      14.408      13.069      11.763      10.574      9.5691      8.7982      8.2944      8.0814      8.1792    
  8.6063      9.3794      10.511      12.006      13.861      16.062      18.582      21.371      24.346      27.381    
  30.304      32.906      34.969      36.298      36.757      36.298      34.969      32.906      30.304      27.381    
  24.346      21.371      18.582      16.062      13.861      12.006      10.511      9.3794      8.6063      8.1792    
  8.0814      8.2944      8.7982      9.5691      10.574      11.763      13.069      14.408      15.684      16.801    
  17.672      18.224      12.949      12.830      12.485      11.944      11.254      10.476      9.6792      8.9314    
  8.2921      7.8102      7.5255      7.4732      7.6889      8.2113      9.0803      10.334      12.006      14.124    
  16.710      19.782      23.340      27.349      31.713      36.252      40.695      44.702      47.907      49.983    
  50.702      49.983      47.907      44.702      40.695      36.252      31.713      27.349      23.340      19.782    
  16.710      14.124      12.006      10.334      9.0803      8.2113      7.6889      7.4732      7.5255      7.8102    
  8.2921      8.9314      9.6792      10.476      11.254      11.944      12.485      12.830      9.1865      9.1163    
  8.9128      8.5966      8.2014      7.7711      7.3544      6.9997      6.7505      6.6458      6.7240      7.0276    
  7.6072      8.5201      9.8270      11.588      13.861      16.710      20.205      24.419      29.403      35.148    
  41.533      48.288      54.984      61.070      65.962      69.148      70.256      69.148      65.962      61.070    
  54.984      48.288      41.533      35.148      29.403      24.419      20.205      16.710      13.861      11.588    
  9.8270      8.5201      7.6072      7.0276      6.7240      6.6458      6.7505      6.9997      7.3544      7.7711    
  8.2014      8.5966      8.9128      9.1163      6.6514      6.6136      6.5052      6.3411      6.1461      5.9523    
  5.7961      5.7134      5.7391      5.9091      6.2656      6.8626      7.7668      9.0545      10.807      13.111    
  16.062      19.782      24.419      30.134      37.059      45.216      54.434      64.291      74.172      83.367    
  90.948      95.967      97.726      95.967      90.948      83.367      74.172      64.291      54.434      45.216    
  37.059      30.134      24.419      19.782      16.062      13.111      10.807      9.0545      7.7668      6.8626    
  6.2656      5.9091      5.7391      5.7134      5.7961      5.9523      6.1461      6.3411      6.5052      6.6136    
  4.9703      4.9537      4.9078      4.8442      4.7824      4.7479      4.7690      4.8750      5.0971      5.4729    
  6.0526      6.9032      8.1084      9.7641      11.975      14.863      18.582      23.340      29.403      37.059    
  46.541      57.894      70.864      85.105      99.926      114.02      125.73      133.50      136.23      133.50    
  125.73      114.02      99.926      85.105      70.864      57.894      46.541      37.059      29.403      23.340    
  18.582      14.863      11.975      9.7641      8.1084      6.9032      6.0526      5.4729      5.0971      4.8750    
  4.7690      4.7479      4.7824      4.8442      4.9078      4.9537      3.8644      3.8616      3.8564      3.8589    
  3.8859      3.9591      4.1025      4.3418      4.7083      5.2446      6.0109      7.0884      8.5781      10.596    
  13.277      16.790      21.371      27.349      35.148      45.216      57.894      73.253      91.423      112.08    
  133.84      154.50      171.56      182.80      186.72      182.80      171.56      154.50      133.84      112.08    
  91.423      73.253      57.894      45.216      35.148      27.349      21.371      16.790      13.277      10.596    
  8.5781      7.0884      6.0109      5.2446      4.7083      4.3418      4.1025      3.9591      3.8859      3.8589    
  3.8564      3.8616      3.1409      3.1471      3.1687      3.2150      3.3020      3.4492      3.6785      4.0144    
  4.4906      5.1566      6.0833      7.3664      9.1243      11.496      14.650      18.820      24.346      31.713    
  41.533      54.434      70.864      91.423      116.56      145.36      175.47      203.66      226.57      241.48    
  246.64      241.48      226.57      203.66      175.47      145.36      116.56      91.423      70.864      54.434    
  41.533      31.713      24.346      18.820      14.650      11.496      9.1243      7.3664      6.0833      5.1566    
  4.4906      4.0144      3.6785      3.4492      3.3020      3.2150      3.1687      3.1471      2.6722      2.6843    
  2.7236      2.7995      2.9273      3.1263      3.4168      3.8242      4.3856      5.1580      6.2234      7.6912    
  9.6966      12.403      16.020      20.857      27.381      36.252      48.288      64.291      85.105      112.08    
  145.36      183.15      221.96      257.51      285.83      303.95      310.17      303.95      285.83      257.51    
  221.96      183.15      145.36      112.08      85.105      64.291      48.288      36.252      27.381      20.857    
  16.020      12.403      9.6966      7.6912      6.2234      5.1580      4.3856      3.8242      3.4168      3.1263    
  2.9273      2.7995      2.7236      2.6843      2.3744      2.3904      2.4415      2.5371      2.6929      2.9279    
  3.2623      3.7227      4.3504      5.2096      6.3925      8.0210      10.246      13.256      17.307      22.789    
  30.304      40.695      54.984      74.172      99.926      133.84      175.47      221.96      268.62      310.32    
  342.74      363.09      370.00      363.09      342.74      310.32      268.62      221.96      175.47      133.84    
  99.926      74.172      54.984      40.695      30.304      22.789      17.307      13.256      10.246      8.0210    
  6.3925      5.2096      4.3504      3.7227      3.2623      2.9279      2.6929      2.5371      2.4415      2.3904    
  2.1915      2.2100      2.2686      2.3772      2.5517      2.8113      3.1764      3.6753      4.3531      5.2805    
  6.5583      8.3190      10.728      13.997      18.425      24.486      32.906      44.702      61.070      83.367    
  114.02      154.50      203.66      257.51      310.32      356.30      391.18      412.62      419.82      412.62    
  391.18      356.30      310.32      257.51      203.66      154.50      114.02      83.367      61.070      44.702    
  32.906      24.486      18.425      13.997      10.728      8.3190      6.5583      5.2805      4.3531      3.6753    
  3.1764      2.8113      2.5517      2.3772      2.2686      2.2100      2.0854      2.1054      2.1686      2.2852    
  2.4716      2.7469      3.1324      3.6574      4.3705      5.3474      6.6953      8.5548      11.103      14.570    
  19.295      25.816      34.969      47.907      65.962      90.948      125.73      171.56      226.57      285.83    
  342.74      391.18      427.08      448.73      455.91      448.73      427.08      391.18      342.74      285.83    
  226.57      171.56      125.73      90.948      65.962      47.907      34.969      25.816      19.295      14.570    
  11.103      8.5548      6.6953      5.3474      4.3705      3.6574      3.1324      2.7469      2.4716      2.2852    
  2.1686      2.1054      2.0312      2.0520      2.1176      2.2385      2.4314      2.7156      3.1125      3.6528    
  4.3870      5.3939      6.7848      8.7056      11.340      14.933      19.847      26.667      36.298      49.983    
  69.148      95.967      133.50      182.80      241.48      303.95      363.09      412.62      448.73      470.19    
  477.25      470.19      448.73      412.62      363.09      303.95      241.48      182.80      133.50      95.967    
  69.148      49.983      36.298      26.667      19.847      14.933      11.340      8.7056      6.7848      5.3939    
  4.3870      3.6528      3.1125      2.7156      2.4314      2.2385      2.1176      2.0520      2.0147      2.0357    
  2.1021      2.2243      2.4193      2.7063      3.1069      3.6522      4.3935      5.4105      6.8159      8.7574    
  11.422      15.057      20.036      26.959      36.757      50.702      70.256      97.726      136.23      186.72    
  246.64      310.17      370.00      419.82      455.91      477.25      484.25      477.25      455.91      419.82    
  370.00      310.17      246.64      186.72      136.23      97.726      70.256      50.702      36.757      26.959    
  20.036      15.057      11.422      8.7574      6.8159      5.4105      4.3935      3.6522      3.1069      2.7063    
  2.4193      2.2243      2.1021      2.0357      2.0312      2.0520      2.1176      2.2385      2.4314      2.7156    
  3.1125      3.6528      4.3870      5.3939      6.7848      8.7056      11.340      14.933      19.847      26.667    
  36.298      49.983      69.148      95.967      133.50      182.80      241.48      303.95      363.09      412.62    
  448.73      470.19      477.25      470.19      448.73      412.62      363.09      303.95      241.48      182.80    
  133.50      95.967      69.148      49.983      36.298      26.667      19.847      14.933      11.340      8.7056    
  6.7848      5.3939      4.3870      3.6528      3.1125      2.7156      2.4314      2.2385      2.1176      2.0520    
  2.0854      2.1054      2.1686      2.2852      2.4716      2.7469      3.1324      3.6574      4.3705      5.3474    
  6.6953      8.5548      11.103      14.570      19.295      25.816      34.969      47.907      65.962      90.948    
  125.73      171.56      226.57      285.83      342.74      391.18      427.08      448.73      455.91      448.73    
  427.08      391.18      342.74      285.83      226.57      171.56      125.73      90.948      65.962      47.907    
  34.969      25.816      19.295      14.570      11.103      8.5548      6.6953      5.3474      4.3705      3.6574    
  3.1324      2.7469      2.4716      2.2852      2.1686      2.1054      2.1915      2.2100      2.2686      2.3772    
  2.5517      2.8113      3.1764      3.6753      4.3531      5.2805      6.5583      8.3190      10.728      13.997    
  18.425      24.486      32.906      44.702      61.070      83.367      114.02      154.50      203.66      257.51    
  310.32      356.30      391.18      412.62      419.82      412.62      391.18      356.30      310.32      257.51    
  203.66      154.50      114.02      83.367      61.070      44.702      32.906      24.486      18.425      13.997    
  10.728      8.3190      6.5583      5.2805      4.3531      3.6753      3.1764      2.8113      2.5517      2.3772    
  2.2686      2.2100      2.3744      2.3904      2.4415      2.5371      2.6929      2.9279      3.2623      3.7227    
  4.3504      5.2096      6.3925      8.0210      10.246      13.256      17.307      22.789      30.304      40.695    
  54.984      74.172      99.926      133.84      175.47      221.96      268.62      310.32      342.74      363.09    
  370.00      363.09      342.74      310.32      268.62      221.96      175.47      133.84      99.926      74.172    
  54.984      40.695      30.304      22.789      17.307      13.256      10.246      8.0210      6.3925      5.2096    
  4.3504      3.7227      3.2623      2.9279      2.6929      2.5371      2.4415      2.3904      2.6722      2.6843    
  2.7236      2.7995      2.9273      3.1263      3.4168      3.8242      4.3856      5.1580      6.2234      7.6912    
  9.6966      12.403      16.020      20.857      27.381      36.252      48.288      64.291      85.105      112.08    
  145.36      183.15      221.96      257.51      285.83      303.95      310.17      303.95      285.83      257.51    
  221.96      183.15      145.36      112.08      85.105      64.291      48.288      36.252      27.381      20.857    
  16.020      12.403      9.6966      7.6912      6.2234      5.1580      4.3856      3.8242      3.4168      3.1263    
  2.9273      2.7995      2.7236      2.6843      3.1409      3.1471      3.1687      3.2150      3.3020      3.4492    
  3.6785      4.0144      4.4906      5.1566      6.0833      7.3664      9.1243      11.496      14.650      18.820    
  24.346      31.713      41.533      54.434      70.864      91.423      116.56      145.36      175.47      203.66    
  226.57      241.48      246.64      241.48      226.57      203.66      175.47      145.36      116.56      91.423    
  70.864      54.434      41.533      31.713      24.346      18.820      14.650      11.496      9.1243      7.3664    
  6.0833      5.1566      4.4906      4.0144      3.6785      3.4492      3.3020      3.2150      3.1687      3.1471    
  3.8644      3.8616      3.8564      3.8589      3.8859      3.9591      4.1025      4.3418      4.7083      5.2446    
  6.0109      7.0884      8.5781      10.596      13.277      16.790      21.371      27.349      35.148      45.216    
  57.894      73.253      91.423      112.08      133.84      154.50      171.56      182.80      186.72      182.80    
  171.56      154.50      133.84      112.08      91.423      73.253      57.894      45.216      35.148      27.349    
  21.371      16.790      13.277      10.596      8.5781      7.0884      6.0109      5.2446      4.7083      4.3418    
  4.1025      3.9591      3.8859      3.8589      3.8564      3.8616      4.9703      4.9537      4.9078      4.8442    
  4.7824      4.7479      4.7690      4.8750      5.0971      5.4729      6.0526      6.9032      8.1084      9.7641    
  11.975      14.863      18.582      23.340      29.403      37.059      46.541      57.894      70.864      85.105    
  99.926      114.02      125.73      133.50      136.23      133.50      125.73      114.02      99.926      85.105    
  70.864      57.894      46.541      37.059      29.403      23.340      18.582      14.863      11.975      9.7641    
  8.1084      6.9032      6.0526      5.4729      5.0971      4.8750      4.7690      4.7479      4.7824      4.8442    
  4.9078      4.9537      6.6514      6.6136      6.5052      6.3411      6.1461      5.9523      5.7961      5.7134    
  5.7391      5.9091      6.2656      6.8626      7.7668      9.0545      10.807      13.111      16.062      19.782    
  24.419      30.134      37.059      45.216      54.434      64.291      74.172      83.367      90.948      95.967    
  97.726      95.967      90.948      83.367      74.172      64.291      54.434      45.216      37.059      30.134    
  24.419      19.782      16.062      13.111      10.807      9.0545      7.7668      6.8626      6.2656      5.9091    
  5.7391      5.7134      5.7961      5.9523      6.1461      6.3411      6.5052      6.6136      9.1865      9.1163    
  8.9128      8.5966      8.2014      7.7711      7.3544      6.9997      6.7505      6.6458      6.7240      7.0276    
  7.6072      8.5201      9.8270      11.588      13.861      16.710      20.205      24.419      29.403      35.148    
  41.533      48.288      54.984      61.070      65.962      69.148      70.256      69.148      65.962      61.070    
  54.984      48.288      41.533      35.148      29.403      24.419      20.205      16.710      13.861      11.588    
  9.8270      8.5201      7.6072      7.0276      6.7240      6.6458      6.7505      6.9997      7.3544      7.7711    
  8.2014      8.5966      8.9128      9.1163      12.949      12.830      12.485      11.944      11.254      10.476    
  9.6792      8.9314      8.2921      7.8102      7.5255      7.4732      7.6889      8.2113      9.0803      10.334    
  12.006      14.124      16.710      19.782      23.340      27.349      31.713      36.252      40.695      44.702    
  47.907      49.983      50.702      49.983      47.907      44.702      40.695      36.252      31.713      27.349    
  23.340      19.782      16.710      14.124      12.006      10.334      9.0803      8.2113      7.6889      7.4732    
  7.5255      7.8102      8.2921      8.9314      9.6792      10.476      11.254      11.944      12.485      12.830    
  18.413      18.224      17.672      16.801      15.684      14.408      13.069      11.763      10.574      9.5691    
  8.7982      8.2944      8.0814      8.1792      8.6063      9.3794      10.511      12.006      13.861      16.062    
  18.582      21.371      24.346      27.381      30.304      32.906      34.969      36.298      36.757      36.298    
  34.969      32.906      30.304      27.381      24.346      21.371      18.582      16.062      13.861      12.006    
  10.511      9.3794      8.6063      8.1792      8.0814      8.2944      8.7982      9.5691      10.574      11.763    
  13.069      14.408      15.684      16.801      17.672      18.224      26.154      25.866      25.023      23.691    
  21.969      19.986      17.882      15.795      13.846      12.126      10.700      9.6083      8.8672      8.4795    
  8.4407      8.7438      9.3794      10.334      11.588      13.111      14.863      16.790      18.820      20.857    
  22.789      24.486      25.816      26.667      26.959      26.667      25.816      24.486      22.789      20.857    
  18.820      16.790      14.863      13.111      11.588      10.334      9.3794      8.7438      8.4407      8.4795    
  8.8672      9.6083      10.700      12.126      13.846      15.795      17.882      19.986      21.969      23.691    
  25.023      25.866      36.664      36.249      35.032      33.100      30.587      27.666      24.532      21.381    
  18.392      15.705      13.410      11.550      10.142      9.1736      8.6181      8.4407      8.6063      9.0803    
  9.8270      10.807      11.975      13.277      14.650      16.020      17.307      18.425      19.295      19.847    
  20.036      19.847      19.295      18.425      17.307      16.020      14.650      13.277      11.975      10.807    
  9.8270      9.0803      8.6063      8.4407      8.6181      9.1736      10.142      11.550      13.410      15.705    
  18.392      21.381      24.532      27.666      30.587      33.100      35.032      36.249      50.185      49.620    
  47.961      45.314      41.845      37.775      33.356      28.853      24.516      20.554      17.111      14.260    
  12.007      10.328      9.1736      8.4795      8.1792      8.2113      8.5201      9.0545      9.7641      10.596    
  11.496      12.403      13.256      13.997      14.570      14.933      15.057      14.933      14.570      13.997    