unknown system                          
   1.00000000000000     
     3.905268    0.000000    0.000000
     0.000000    3.905268    0.000000
     0.000000    0.000000    3.905268
   Sr   Ti   O 
     1     1     3
Direct
  0.000000  0.000000  0.000000
  0.500000  0.500000  0.500000
  0.500000  0.500000  0.000000
  0.500000  0.000000  0.500000
  0.000000  0.500000  0.500000
 
   56   56   56
 0.19316618838E+03 0.19319684275E+03 0.19302253563E+03 0.19191974520E+03 0.18891253579E+03
 0.18304904725E+03 0.17367112503E+03 0.16060355049E+03 0.14421972594E+03 0.12538235546E+03
 0.10529015337E+03 0.85273617496E+02 0.66580196840E+02 0.50185203213E+02 0.36663962594E+02
 0.26153849965E+02 0.18412729477E+02 0.12948570510E+02 0.91864730955E+01 0.66513700232E+01
 0.49702710386E+01 0.38643631801E+01 0.31408656707E+01 0.26721560021E+01 0.23744028440E+01
 0.21915159858E+01 0.20854426056E+01 0.20312333585E+01 0.20146971006E+01 0.20312333585E+01
 0.20854426056E+01 0.21915159858E+01 0.23744028440E+01 0.26721560021E+01 0.31408656707E+01
 0.38643631801E+01 0.49702710386E+01 0.66513700232E+01 0.91864730955E+01 0.12948570510E+02
 0.18412729477E+02 0.26153849965E+02 0.36663962594E+02 0.50185203213E+02 0.66580196840E+02
 0.85273617496E+02 0.10529015337E+03 0.12538235546E+03 0.14421972594E+03 0.16060355049E+03
 0.17367112503E+03 0.18304904725E+03 0.18891253579E+03 0.19191974520E+03 0.19302253563E+03
 0.19319684275E+03 0.19319684275E+03 0.19318247720E+03 0.19288077484E+03 0.19158969599E+03
 0.18836433355E+03 0.18228723291E+03 0.17273143995E+03 0.15954445614E+03 0.14311118529E+03
 0.12429458334E+03 0.10428426296E+03 0.84395048648E+02 0.65855172299E+02 0.49620292178E+02
 0.36248683545E+02 0.25865737407E+02 0.18223585383E+02 0.12830261155E+02 0.91163055548E+01
 0.66135831028E+01 0.49536933207E+01 0.38615693928E+01 0.31470826845E+01 0.26843077337E+01
 0.23904420231E+01 0.22100282217E+01 0.21054322938E+01 0.20519924902E+01 0.20356929134E+01
 0.20519924902E+01 0.21054322938E+01 0.22100282217E+01 0.23904420231E+01 0.26843077337E+01
 0.31470826845E+01 0.38615693928E+01 0.49536933207E+01 0.66135831028E+01 0.91163055548E+01
 0.12830261155E+02 0.18223585383E+02 0.25865737407E+02 0.36248683545E+02 0.49620292178E+02
 0.65855172299E+02 0.84395048648E+02 0.10428426296E+03 0.12429458334E+03 0.14311118529E+03
 0.15954445614E+03 0.17273143995E+03 0.18228723291E+03 0.18836433355E+03 0.19158969599E+03
 0.19288077484E+03 0.19318247720E+03 0.19302253563E+03 0.19288077484E+03 0.19221895095E+03
 0.19039681706E+03 0.18655857523E+03 0.17988535373E+03 0.16983930350E+03 0.15633244261E+03
 0.13978180412E+03 0.12105003980E+03 0.10129949177E+03 0.81798798531E+02 0.63719935286E+02
 0.47961365270E+02 0.35032122882E+02 0.25023417422E+02 0.17671532821E+02 0.12485465800E+02
 0.89127557553E+01 0.65051741424E+01 0.49077626776E+01 0.38563960572E+01 0.31686796279E+01
 0.27236433459E+01 0.24414957286E+01 0.22686277496E+01 0.21686125438E+01 0.21175990322E+01
 0.21020543834E+01 0.21175990322E+01 0.21686125438E+01 0.22686277496E+01 0.24414957286E+01
 0.27236433459E+01 0.31686796279E+01 0.38563960572E+01 0.49077626776E+01 0.65051741424E+01
 0.89127557553E+01 0.12485465800E+02 0.17671532821E+02 0.25023417422E+02 0.35032122882E+02
 0.47961365270E+02 0.63719935286E+02 0.81798798531E+02 0.10129949177E+03 0.12105003980E+03
 0.13978180412E+03 0.15633244261E+03 0.16983930350E+03 0.17988535373E+03 0.18655857523E+03
 0.19039681706E+03 0.19221895095E+03 0.19288077484E+03 0.19191974520E+03 0.19158969599E+03
 0.19039681706E+03 0.18779539113E+03 0.18306551837E+03 0.17553798990E+03 0.16480934486E+03
 0.15088776871E+03 0.13423651301E+03 0.11571452288E+03 0.96438914840E+02 0.77604081764E+02
 0.60292732165E+02 0.45313640720E+02 0.33099828269E+02 0.23691090587E+02 0.16801480836E+02
 0.11944016836E+02 0.85965730060E+01 0.63411168188E+01 0.48441646427E+01 0.38588856422E+01
 0.32150460463E+01 0.27994592939E+01 0.25370677346E+01 0.23771621471E+01 0.22851871813E+01
 0.22385213174E+01 0.22243473370E+01 0.22385213174E+01 0.22851871813E+01 0.23771621471E+01
 0.25370677346E+01 0.27994592939E+01 0.32150460463E+01 0.38588856422E+01 0.48441646427E+01
 0.63411168188E+01 0.85965730060E+01 0.11944016836E+02 0.16801480836E+02 0.23691090587E+02
 0.33099828269E+02 0.45313640720E+02 0.60292732165E+02 0.77604081764E+02 0.96438914840E+02
 0.11571452288E+03 0.13423651301E+03 0.15088776871E+03 0.16480934486E+03 0.17553798990E+03
 0.18306551837E+03 0.18779539113E+03 0.19039681706E+03 0.19158969599E+03 0.18891253579E+03
 0.18836433355E+03 0.18655857523E+03 0.18306551837E+03 0.17733122079E+03 0.16886800302E+03
 0.15743376941E+03 0.14315000471E+03 0.12653108205E+03 0.10842502545E+03 0.89886389408E+02
 0.72011155957E+02 0.55765957328E+02 0.41845049399E+02 0.30586751366E+02 0.21969460688E+02
 0.15683896140E+02 0.11253641037E+02 0.82014119179E+01 0.61460673008E+01 0.47823792014E+01
 0.38858950550E+01 0.33019633138E+01 0.29273148993E+01 0.26929096793E+01 0.25517241479E+01
 0.24715802167E+01 0.24314129188E+01 0.24193065232E+01 0.24314129188E+01 0.24715802167E+01
 0.25517241479E+01 0.26929096793E+01 0.29273148993E+01 0.33019633138E+01 0.38858950550E+01
 0.47823792014E+01 0.61460673008E+01 0.82014119179E+01 0.11253641037E+02 0.15683896140E+02
 0.21969460688E+02 0.30586751366E+02 0.41845049399E+02 0.55765957328E+02 0.72011155957E+02
 0.89886389408E+02 0.10842502545E+03 0.12653108205E+03 0.14315000471E+03 0.15743376941E+03
 0.16886800302E+03 0.17733122079E+03 0.18306551837E+03 0.18655857523E+03 0.18836433355E+03
 0.18304904725E+03 0.18228723291E+03 0.17988535373E+03 0.17553798990E+03 0.16886800302E+03
 0.15957930423E+03 0.14759763945E+03 0.13315889627E+03 0.11682352886E+03 0.99417545844E+02
 0.81916772253E+02 0.65299594369E+02 0.50397472651E+02 0.37774669354E+02 0.27665747162E+02
 0.19986050870E+02 0.14407600856E+02 0.10475855277E+02 0.77710515460E+01 0.59523375194E+01
 0.47478718624E+01 0.39591185572E+01 0.34492496478E+01 0.31262504465E+01 0.29278805128E+01
 0.28112771713E+01 0.27469481352E+01 0.27155893483E+01 0.27063071042E+01 0.27155893483E+01
 0.27469481352E+01 0.28112771713E+01 0.29278805128E+01 0.31262504465E+01 0.34492496478E+01
 0.39591185572E+01 0.47478718624E+01 0.59523375194E+01 0.77710515460E+01 0.10475855277E+02
 0.14407600856E+02 0.19986050870E+02 0.27665747162E+02 0.37774669354E+02 0.50397472651E+02
 0.65299594369E+02 0.81916772253E+02 0.99417545844E+02 0.11682352886E+03 0.13315889627E+03
 0.14759763945E+03 0.15957930423E+03 0.16886800302E+03 0.17553798990E+03 0.17988535373E+03
 0.18228723291E+03 0.17367112503E+03 0.17273143995E+03 0.16983930350E+03 0.16480934486E+03
 0.15743376941E+03 0.14759763945E+03 0.13538198368E+03 0.12112347416E+03 0.10541460951E+03
 0.89045044158E+02 0.72897415677E+02 0.57818975805E+02 0.44495441076E+02 0.33355711838E+02
 0.24531556335E+02 0.17881784662E+02 0.13069456648E+02 0.96792427619E+01 0.73543982968E+01
 0.57960789169E+01 0.47690161821E+01 0.41024640865E+01 0.36784604789E+01 0.34168003560E+01
 0.32623225382E+01 0.31764406365E+01 0.31323608190E+01 0.31125008913E+01 0.31069454994E+01
 0.31125008913E+01 0.31323608190E+01 0.31764406365E+01 0.32623225382E+01 0.34168003560E+01
 0.36784604789E+01 0.41024640865E+01 0.47690161821E+01 0.57960789169E+01 0.73543982968E+01
 0.96792427619E+01 0.13069456648E+02 0.17881784662E+02 0.24531556335E+02 0.33355711838E+02
 0.44495441076E+02 0.57818975805E+02 0.72897415677E+02 0.89045044158E+02 0.10541460951E+03
 0.12112347416E+03 0.13538198368E+03 0.14759763945E+03 0.15743376941E+03 0.16480934486E+03
 0.16983930350E+03 0.17273143995E+03 0.16060355049E+03 0.15954445614E+03 0.15633244261E+03
 0.15088776871E+03 0.14315000471E+03 0.13315889627E+03 0.12112347416E+03 0.10745626463E+03
 0.92760965175E+02 0.77774431568E+02 0.63273933301E+02 0.49968074155E+02 0.38395029306E+02
 0.28852962400E+02 0.21381106013E+02 0.15795115825E+02 0.11763306526E+02 0.89313919596E+01
 0.69996802297E+01 0.57134218108E+01 0.48750416251E+01 0.43417852591E+01 0.40143871193E+01
 0.38241609891E+01 0.37226860973E+01 0.36752661462E+01 0.36573836353E+01 0.36527816960E+01
 0.36522402576E+01 0.36527816960E+01 0.36573836353E+01 0.36752661462E+01 0.37226860973E+01
 0.38241609891E+01 0.40143871193E+01 0.43417852591E+01 0.48750416251E+01 0.57134218108E+01
 0.69996802297E+01 0.89313919596E+01 0.11763306526E+02 0.15795115825E+02 0.21381106013E+02
 0.28852962400E+02 0.38395029306E+02 0.49968074155E+02 0.63273933301E+02 0.77774431568E+02
 0.92760965175E+02 0.10745626463E+03 0.12112347416E+03 0.13315889627E+03 0.14315000471E+03
 0.15088776871E+03 0.15633244261E+03 0.15954445614E+03 0.14421972594E+03 0.14311118529E+03
 0.13978180412E+03 0.13423651301E+03 0.12653108205E+03 0.11682352886E+03 0.10541460951E+03
 0.92760965175E+02 0.79452791606E+02 0.66157256124E+02 0.53537197408E+02 0.42161438869E+02
 0.32427413557E+02 0.24516224855E+02 0.18392352388E+02 0.13846265078E+02 0.10573844042E+02
 0.82920772679E+01 0.67504967284E+01 0.57391161035E+01 0.50971259098E+01 0.47083082987E+01
 0.44906269652E+01 0.43855972821E+01 0.43503701276E+01 0.43530782960E+01 0.43705281332E+01
 0.43870090957E+01 0.43934829285E+01 0.43870090957E+01 0.43705281332E+01 0.43530782960E+01
 0.43503701276E+01 0.43855972821E+01 0.44906269652E+01 0.47083082987E+01 0.50971259098E+01
 0.57391161035E+01 0.67504967284E+01 0.82920772679E+01 0.10573844042E+02 0.13846265078E+02
 0.18392352388E+02 0.24516224855E+02 0.32427413557E+02 0.42161438869E+02 0.53537197408E+02
 0.66157256124E+02 0.79452791606E+02 0.92760965175E+02 0.10541460951E+03 0.11682352886E+03
 0.12653108205E+03 0.13423651301E+03 0.13978180412E+03 0.14311118529E+03 0.12538235546E+03
 0.12429458334E+03 0.12105003980E+03 0.11571452288E+03 0.10842502545E+03 0.99417545844E+02
 0.89045044158E+02 0.77774431568E+02 0.66157256124E+02 0.54775900193E+02 0.44174138932E+02
 0.34786661163E+02 0.26884868685E+02 0.20553673316E+02 0.15705387511E+02 0.12126146918E+02
 0.95691379727E+01 0.78102257680E+01 0.66458392302E+01 0.59090551297E+01 0.54729059907E+01
 0.52446148782E+01 0.51565565378E+01 0.51580129915E+01 0.52096188596E+01 0.52805426016E+01
 0.53474140183E+01 0.53939175058E+01 0.54104693547E+01 0.53939175058E+01 0.53474140183E+01
 0.52805426016E+01 0.52096188596E+01 0.51580129915E+01 0.51565565378E+01 0.52446148782E+01
 0.54729059907E+01 0.59090551297E+01 0.66458392302E+01 0.78102257680E+01 0.95691379727E+01
 0.12126146918E+02 0.15705387511E+02 0.20553673316E+02 0.26884868685E+02 0.34786661163E+02
 0.44174138932E+02 0.54775900193E+02 0.66157256124E+02 0.77774431568E+02 0.89045044158E+02
 0.99417545844E+02 0.10842502545E+03 0.11571452288E+03 0.12105003980E+03 0.12429458334E+03
 0.10529015337E+03 0.10428426296E+03 0.10129949177E+03 0.96438914840E+02 0.89886389408E+02
 0.81916772253E+02 0.72897415677E+02 0.63273933301E+02 0.53537197408E+02 0.44174138932E+02
 0.35610770620E+02 0.28160161443E+02 0.21988815180E+02 0.17110722544E+02 0.13410103520E+02
 0.10700208902E+02 0.87981979779E+01 0.75255250372E+01 0.67239584415E+01 0.62656117861E+01
 0.60525633729E+01 0.60108706620E+01 0.60832831007E+01 0.62234296850E+01 0.63925341311E+01
 0.65583410373E+01 0.66952646742E+01 0.67848270181E+01 0.68159147275E+01 0.67848270181E+01
 0.66952646742E+01 0.65583410373E+01 0.63925341311E+01 0.62234296850E+01 0.60832831007E+01
 0.60108706620E+01 0.60525633729E+01 0.62656117861E+01 0.67239584415E+01 0.75255250372E+01
 0.87981979779E+01 0.10700208902E+02 0.13410103520E+02 0.17110722544E+02 0.21988815180E+02
 0.28160161443E+02 0.35610770620E+02 0.44174138932E+02 0.53537197408E+02 0.63273933301E+02
 0.72897415677E+02 0.81916772253E+02 0.89886389408E+02 0.96438914840E+02 0.10129949177E+03
 0.10428426296E+03 0.85273617496E+02 0.84395048648E+02 0.81798798531E+02 0.77604081764E+02
 0.72011155957E+02 0.65299594369E+02 0.57818975805E+02 0.49968074155E+02 0.42161438869E+02
 0.34786661163E+02 0.28160161443E+02 0.22491936166E+02 0.17868670914E+02 0.14259707969E+02
 0.11550185079E+02 0.96082682943E+01 0.82943734568E+01 0.74731945255E+01 0.70275823698E+01
 0.68626350122E+01 0.69031772006E+01 0.70883676322E+01 0.73664303997E+01 0.76912147478E+01
 0.80209957625E+01 0.83190031806E+01 0.85547821919E+01 0.87055960221E+01 0.87574414323E+01
 0.87055960221E+01 0.85547821919E+01 0.83190031806E+01 0.80209957625E+01 0.76912147478E+01
 0.73664303997E+01 0.70883676322E+01 0.69031772006E+01 0.68626350122E+01 0.70275823698E+01
 0.74731945255E+01 0.82943734568E+01 0.96082682943E+01 0.11550185079E+02 0.14259707969E+02
 0.17868670914E+02 0.22491936166E+02 0.28160161443E+02 0.34786661163E+02 0.42161438869E+02
 0.49968074155E+02 0.57818975805E+02 0.65299594369E+02 0.72011155957E+02 0.77604081764E+02
 0.81798798531E+02 0.84395048648E+02 0.66580196840E+02 0.65855172299E+02 0.63719935286E+02
 0.60292732165E+02 0.55765957328E+02 0.50397472651E+02 0.44495441076E+02 0.38395029306E+02
 0.32427413557E+02 0.26884868685E+02 0.21988815180E+02 0.17868670914E+02 0.14557160399E+02
 0.12007024225E+02 0.10141706754E+02 0.88671870717E+01 0.80814393305E+01 0.76889334013E+01
 0.76071625558E+01 0.77668154284E+01 0.81084067259E+01 0.85780557942E+01 0.91242773615E+01
 0.96966421167E+01 0.10246325930E+02 0.10728057017E+02 0.11102774132E+02 0.11340324621E+02
 0.11421675977E+02 0.11340324621E+02 0.11102774132E+02 0.10728057017E+02 0.10246325930E+02
 0.96966421167E+01 0.91242773615E+01 0.85780557942E+01 0.81084067259E+01 0.77668154284E+01
 0.76071625558E+01 0.76889334013E+01 0.80814393305E+01 0.88671870717E+01 0.10141706754E+02
 0.12007024225E+02 0.14557160399E+02 0.17868670914E+02 0.21988815180E+02 0.26884868685E+02
 0.32427413557E+02 0.38395029306E+02 0.44495441076E+02 0.50397472651E+02 0.55765957328E+02
 0.60292732165E+02 0.63719935286E+02 0.65855172299E+02 0.50185203213E+02 0.49620292178E+02
 0.47961365270E+02 0.45313640720E+02 0.41845049399E+02 0.37774669354E+02 0.33355711838E+02
 0.28852962400E+02 0.24516224855E+02 0.20553673316E+02 0.17110722544E+02 0.14259707969E+02
 0.12007024225E+02 0.10328061254E+02 0.91736164920E+01 0.84794524074E+01 0.81792092998E+01
 0.82112617060E+01 0.85201421899E+01 0.90545396942E+01 0.97640587660E+01 0.10596372808E+02
 0.11495659141E+02 0.12402630237E+02 0.13256188218E+02 0.13996596746E+02 0.14569858631E+02
 0.14932644412E+02 0.15056824812E+02 0.14932644412E+02 0.14569858631E+02 0.13996596746E+02
 0.13256188218E+02 0.12402630237E+02 0.11495659141E+02 0.10596372808E+02 0.97640587660E+01
 0.90545396942E+01 0.85201421899E+01 0.82112617060E+01 0.81792092998E+01 0.84794524074E+01
 0.91736164920E+01 0.10328061254E+02 0.12007024225E+02 0.14259707969E+02 0.17110722544E+02
 0.20553673316E+02 0.24516224855E+02 0.28852962400E+02 0.33355711838E+02 0.37774669354E+02
 0.41845049399E+02 0.45313640720E+02 0.47961365270E+02 0.49620292178E+02 0.36663962594E+02
 0.36248683545E+02 0.35032122882E+02 0.33099828269E+02 0.30586751366E+02 0.27665747162E+02
 0.24531556335E+02 0.21381106013E+02 0.18392352388E+02 0.15705387511E+02 0.13410103520E+02
 0.11550185079E+02 0.10141706754E+02 0.91736164920E+01 0.86180749428E+01 0.84406861124E+01
 0.86062805310E+01 0.90802621553E+01 0.98270226172E+01 0.10807239166E+02 0.11975302277E+02
 0.13277350575E+02 0.14650025839E+02 0.16020277297E+02 0.17307008139E+02 0.18425462280E+02
 0.19294602390E+02 0.19846521050E+02 0.20035820285E+02 0.19846521050E+02 0.19294602390E+02
 0.18425462280E+02 0.17307008139E+02 0.16020277297E+02 0.14650025839E+02 0.13277350575E+02
 0.11975302277E+02 0.10807239166E+02 0.98270226172E+01 0.90802621553E+01 0.86062805310E+01
 0.84406861124E+01 0.86180749428E+01 0.91736164920E+01 0.10141706754E+02 0.11550185079E+02
 0.13410103520E+02 0.15705387511E+02 0.18392352388E+02 0.21381106013E+02 0.24531556335E+02
 0.27665747162E+02 0.30586751366E+02 0.33099828269E+02 0.35032122882E+02 0.36248683545E+02
 0.26153849965E+02 0.25865737407E+02 0.25023417422E+02 0.23691090587E+02 0.21969460688E+02
 0.19986050870E+02 0.17881784662E+02 0.15795115825E+02 0.13846265078E+02 0.12126146918E+02
 0.10700208902E+02 0.96082682943E+01 0.88671870717E+01 0.84794524074E+01 0.84406861124E+01
 0.87437874323E+01 0.93794136197E+01 0.10334081243E+02 0.11587591119E+02 0.13110742713E+02
 0.14863129269E+02 0.16790214298E+02 0.18819533724E+02 0.20857461129E+02 0.22789357654E+02
 0.24485867167E+02 0.25816243852E+02 0.26666717778E+02 0.26959443952E+02 0.26666717778E+02
 0.25816243852E+02 0.24485867167E+02 0.22789357654E+02 0.20857461129E+02 0.18819533724E+02
 0.16790214298E+02 0.14863129269E+02 0.13110742713E+02 0.11587591119E+02 0.10334081243E+02
 0.93794136197E+01 0.87437874323E+01 0.84406861124E+01 0.84794524074E+01 0.88671870717E+01
 0.96082682943E+01 0.10700208902E+02 0.12126146918E+02 0.13846265078E+02 0.15795115825E+02
 0.17881784662E+02 0.19986050870E+02 0.21969460688E+02 0.23691090587E+02 0.25023417422E+02
 0.25865737407E+02 0.18412729477E+02 0.18223585383E+02 0.17671532821E+02 0.16801480836E+02
 0.15683896140E+02 0.14407600856E+02 0.13069456648E+02 0.11763306526E+02 0.10573844042E+02
 0.95691379727E+01 0.87981979779E+01 0.82943734568E+01 0.80814393305E+01 0.81792092998E+01
 0.86062805310E+01 0.93794136197E+01 0.10510902194E+02 0.12005933745E+02 0.13860971933E+02
 0.16062254106E+02 0.18582050391E+02 0.21370778422E+02 0.24345730227E+02 0.27380766547E+02
 0.30303566946E+02 0.32906031122E+02 0.34969129307E+02 0.36297770175E+02 0.36756774995E+02
 0.36297770175E+02 0.34969129307E+02 0.32906031122E+02 0.30303566946E+02 0.27380766547E+02
 0.24345730227E+02 0.21370778422E+02 0.18582050391E+02 0.16062254106E+02 0.13860971933E+02
 0.12005933745E+02 0.10510902194E+02 0.93794136197E+01 0.86062805310E+01 0.81792092998E+01
 0.80814393305E+01 0.82943734568E+01 0.87981979779E+01 0.95691379727E+01 0.10573844042E+02
 0.11763306526E+02 0.13069456648E+02 0.14407600856E+02 0.15683896140E+02 0.16801480836E+02
 0.17671532821E+02 0.18223585383E+02 0.12948570510E+02 0.12830261155E+02 0.12485465800E+02
 0.11944016836E+02 0.11253641037E+02 0.10475855277E+02 0.96792427619E+01 0.89313919596E+01
 0.82920772679E+01 0.78102257680E+01 0.75255250372E+01 0.74731945255E+01 0.76889334013E+01
 0.82112617060E+01 0.90802621553E+01 0.10334081243E+02 0.12005933745E+02 0.14123537909E+02
 0.16709997068E+02 0.19781970745E+02 0.23340082779E+02 0.27349365254E+02 0.31713411932E+02
 0.36252055808E+02 0.40695179412E+02 0.44702118671E+02 0.47907419785E+02 0.49983321617E+02
 0.50702408484E+02 0.49983321617E+02 0.47907419785E+02 0.44702118671E+02 0.40695179412E+02
 0.36252055808E+02 0.31713411932E+02 0.27349365254E+02 0.23340082779E+02 0.19781970745E+02
 0.16709997068E+02 0.14123537909E+02 0.12005933745E+02 0.10334081243E+02 0.90802621553E+01
 0.82112617060E+01 0.76889334013E+01 0.74731945255E+01 0.75255250372E+01 0.78102257680E+01
 0.82920772679E+01 0.89313919596E+01 0.96792427619E+01 0.10475855277E+02 0.11253641037E+02
 0.11944016836E+02 0.12485465800E+02 0.12830261155E+02 0.91864730955E+01 0.91163055548E+01
 0.89127557553E+01 0.85965730060E+01 0.82014119179E+01 0.77710515460E+01 0.73543982968E+01
 0.69996802297E+01 0.67504967284E+01 0.66458392302E+01 0.67239584415E+01 0.70275823698E+01
 0.76071625558E+01 0.85201421899E+01 0.98270226172E+01 0.11587591119E+02 0.13860971933E+02
 0.16709997068E+02 0.20205051379E+02 0.24418609091E+02 0.29402622230E+02 0.35147681723E+02
 0.41533311165E+02 0.48288364746E+02 0.54983506949E+02 0.61069850431E+02 0.65962168213E+02
 0.69147587541E+02 0.70255642174E+02 0.69147587541E+02 0.65962168213E+02 0.61069850431E+02
 0.54983506949E+02 0.48288364746E+02 0.41533311165E+02 0.35147681723E+02 0.29402622230E+02
 0.24418609091E+02 0.20205051379E+02 0.16709997068E+02 0.13860971933E+02 0.11587591119E+02
 0.98270226172E+01 0.85201421899E+01 0.76071625558E+01 0.70275823698E+01 0.67239584415E+01
 0.66458392302E+01 0.67504967284E+01 0.69996802297E+01 0.73543982968E+01 0.77710515460E+01
 0.82014119179E+01 0.85965730060E+01 0.89127557553E+01 0.91163055548E+01 0.66513700232E+01
 0.66135831028E+01 0.65051741424E+01 0.63411168188E+01 0.61460673008E+01 0.59523375194E+01
 0.57960789169E+01 0.57134218108E+01 0.57391161035E+01 0.59090551297E+01 0.62656117861E+01
 0.68626350122E+01 0.77668154284E+01 0.90545396942E+01 0.10807239166E+02 0.13110742713E+02
 0.16062254106E+02 0.19781970745E+02 0.24418609091E+02 0.30134439510E+02 0.37059411035E+02
 0.45216059724E+02 0.54434371529E+02 0.64291308463E+02 0.74171944350E+02 0.83366865512E+02
 0.90947584770E+02 0.95967176948E+02 0.97725992804E+02 0.95967176948E+02 0.90947584770E+02
 0.83366865512E+02 0.74171944350E+02 0.64291308463E+02 0.54434371529E+02 0.45216059724E+02
 0.37059411035E+02 0.30134439510E+02 0.24418609091E+02 0.19781970745E+02 0.16062254106E+02
 0.13110742713E+02 0.10807239166E+02 0.90545396942E+01 0.77668154284E+01 0.68626350122E+01
 0.62656117861E+01 0.59090551297E+01 0.57391161035E+01 0.57134218108E+01 0.57960789169E+01
 0.59523375194E+01 0.61460673008E+01 0.63411168188E+01 0.65051741424E+01 0.66135831028E+01
 0.49702710386E+01 0.49536933207E+01 0.49077626776E+01 0.48441646427E+01 0.47823792014E+01
 0.47478718624E+01 0.47690161821E+01 0.48750416251E+01 0.50971259098E+01 0.54729059907E+01
 0.60525633729E+01 0.69031772006E+01 0.81084067259E+01 0.97640587660E+01 0.11975302277E+02
 0.14863129269E+02 0.18582050391E+02 0.23340082779E+02 0.29402622230E+02 0.37059411035E+02
 0.46541380351E+02 0.57893937227E+02 0.70863657885E+02 0.85104892508E+02 0.99926123461E+02
 0.11401624871E+03 0.12573097209E+03 0.13350409791E+03 0.13622777393E+03 0.13350409791E+03
 0.12573097209E+03 0.11401624871E+03 0.99926123461E+02 0.85104892508E+02 0.70863657885E+02
 0.57893937227E+02 0.46541380351E+02 0.37059411035E+02 0.29402622230E+02 0.23340082779E+02
 0.18582050391E+02 0.14863129269E+02 0.11975302277E+02 0.97640587660E+01 0.81084067259E+01
 0.69031772006E+01 0.60525633729E+01 0.54729059907E+01 0.50971259098E+01 0.48750416251E+01
 0.47690161821E+01 0.47478718624E+01 0.47823792014E+01 0.48441646427E+01 0.49077626776E+01
 0.49536933207E+01 0.38643631801E+01 0.38615693928E+01 0.38563960572E+01 0.38588856422E+01
 0.38858950550E+01 0.39591185572E+01 0.41024640865E+01 0.43417852591E+01 0.47083082987E+01
 0.52446148782E+01 0.60108706620E+01 0.70883676322E+01 0.85780557942E+01 0.10596372808E+02
 0.13277350575E+02 0.16790214298E+02 0.21370778422E+02 0.27349365254E+02 0.35147681723E+02
 0.45216059724E+02 0.57893937227E+02 0.73253224825E+02 0.91423076308E+02 0.11207714882E+03
 0.13383591347E+03 0.15449714540E+03 0.17155879084E+03 0.18279834738E+03 0.18671934906E+03
 0.18279834738E+03 0.17155879084E+03 0.15449714540E+03 0.13383591347E+03 0.11207714882E+03
 0.91423076308E+02 0.73253224825E+02 0.57893937227E+02 0.45216059724E+02 0.35147681723E+02
 0.27349365254E+02 0.21370778422E+02 0.16790214298E+02 0.13277350575E+02 0.10596372808E+02
 0.85780557942E+01 0.70883676322E+01 0.60108706620E+01 0.52446148782E+01 0.47083082987E+01
 0.43417852591E+01 0.41024640865E+01 0.39591185572E+01 0.38858950550E+01 0.38588856422E+01
 0.38563960572E+01 0.38615693928E+01 0.31408656707E+01 0.31470826845E+01 0.31686796279E+01
 0.32150460463E+01 0.33019633138E+01 0.34492496478E+01 0.36784604789E+01 0.40143871193E+01
 0.44906269652E+01 0.51565565378E+01 0.60832831007E+01 0.73664303997E+01 0.91242773615E+01
 0.11495659141E+02 0.14650025839E+02 0.18819533724E+02 0.24345730227E+02 0.31713411932E+02
 0.41533311165E+02 0.54434371529E+02 0.70863657885E+02 0.91423076308E+02 0.11656144038E+03
 0.14535803487E+03 0.17546932400E+03 0.20365534944E+03 0.22657256334E+03 0.24147891137E+03
 0.24664227508E+03 0.24147891137E+03 0.22657256334E+03 0.20365534944E+03 0.17546932400E+03
 0.14535803487E+03 0.11656144038E+03 0.91423076308E+02 0.70863657885E+02 0.54434371529E+02
 0.41533311165E+02 0.31713411932E+02 0.24345730227E+02 0.18819533724E+02 0.14650025839E+02
 0.11495659141E+02 0.91242773615E+01 0.73664303997E+01 0.60832831007E+01 0.51565565378E+01
 0.44906269652E+01 0.40143871193E+01 0.36784604789E+01 0.34492496478E+01 0.33019633138E+01
 0.32150460463E+01 0.31686796279E+01 0.31470826845E+01 0.26721560021E+01 0.26843077337E+01
 0.27236433459E+01 0.27994592939E+01 0.29273148993E+01 0.31262504465E+01 0.34168003560E+01
 0.38241609891E+01 0.43855972821E+01 0.51580129915E+01 0.62234296850E+01 0.76912147478E+01
 0.96966421167E+01 0.12402630237E+02 0.16020277297E+02 0.20857461129E+02 0.27380766547E+02
 0.36252055808E+02 0.48288364746E+02 0.64291308463E+02 0.85104892508E+02 0.11207714882E+03
 0.14535803487E+03 0.18314737875E+03 0.22195666383E+03 0.25751284824E+03 0.28582932269E+03
 0.30394787017E+03 0.31016706903E+03 0.30394787017E+03 0.28582932269E+03 0.25751284824E+03
 0.22195666383E+03 0.18314737875E+03 0.14535803487E+03 0.11207714882E+03 0.85104892508E+02
 0.64291308463E+02 0.48288364746E+02 0.36252055808E+02 0.27380766547E+02 0.20857461129E+02
 0.16020277297E+02 0.12402630237E+02 0.96966421167E+01 0.76912147478E+01 0.62234296850E+01
 0.51580129915E+01 0.43855972821E+01 0.38241609891E+01 0.34168003560E+01 0.31262504465E+01
 0.29273148993E+01 0.27994592939E+01 0.27236433459E+01 0.26843077337E+01 0.23744028440E+01
 0.23904420231E+01 0.24414957286E+01 0.25370677346E+01 0.26929096793E+01 0.29278805128E+01
 0.32623225382E+01 0.37226860973E+01 0.43503701276E+01 0.52096188596E+01 0.63925341311E+01
 0.80209957625E+01 0.10246325930E+02 0.13256188218E+02 0.17307008139E+02 0.22789357654E+02
 0.30303566946E+02 0.40695179412E+02 0.54983506949E+02 0.74171944350E+02 0.99926123461E+02
 0.13383591347E+03 0.17546932400E+03 0.22195666383E+03 0.26862197925E+03 0.31031767573E+03
 0.34273906560E+03 0.36309169495E+03 0.37000327324E+03 0.36309169495E+03 0.34273906560E+03
 0.31031767573E+03 0.26862197925E+03 0.22195666383E+03 0.17546932400E+03 0.13383591347E+03
 0.99926123461E+02 0.74171944350E+02 0.54983506949E+02 0.40695179412E+02 0.30303566946E+02
 0.22789357654E+02 0.17307008139E+02 0.13256188218E+02 0.10246325930E+02 0.80209957625E+01
 0.63925341311E+01 0.52096188596E+01 0.43503701276E+01 0.37226860973E+01 0.32623225382E+01
 0.29278805128E+01 0.26929096793E+01 0.25370677346E+01 0.24414957286E+01 0.23904420231E+01
 0.21915159858E+01 0.22100282217E+01 0.22686277496E+01 0.23771621471E+01 0.25517241479E+01
 0.28112771713E+01 0.31764406365E+01 0.36752661462E+01 0.43530782960E+01 0.52805426016E+01
 0.65583410373E+01 0.83190031806E+01 0.10728057017E+02 0.13996596746E+02 0.18425462280E+02
 0.24485867167E+02 0.32906031122E+02 0.44702118671E+02 0.61069850431E+02 0.83366865512E+02
 0.11401624871E+03 0.15449714540E+03 0.20365534944E+03 0.25751284824E+03 0.31031767573E+03
 0.35630239322E+03 0.39117617847E+03 0.41262408228E+03 0.41982253023E+03 0.41262408228E+03
 0.39117617847E+03 0.35630239322E+03 0.31031767573E+03 0.25751284824E+03 0.20365534944E+03
 0.15449714540E+03 0.11401624871E+03 0.83366865512E+02 0.61069850431E+02 0.44702118671E+02
 0.32906031122E+02 0.24485867167E+02 0.18425462280E+02 0.13996596746E+02 0.10728057017E+02
 0.83190031806E+01 0.65583410373E+01 0.52805426016E+01 0.43530782960E+01 0.36752661462E+01
 0.31764406365E+01 0.28112771713E+01 0.25517241479E+01 0.23771621471E+01 0.22686277496E+01
 0.22100282217E+01 0.20854426056E+01 0.21054322938E+01 0.21686125438E+01 0.22851871813E+01
 0.24715802167E+01 0.27469481352E+01 0.31323608190E+01 0.36573836353E+01 0.43705281332E+01
 0.53474140183E+01 0.66952646742E+01 0.85547821919E+01 0.11102774132E+02 0.14569858631E+02
 0.19294602390E+02 0.25816243852E+02 0.34969129307E+02 0.47907419785E+02 0.65962168213E+02
 0.90947584770E+02 0.12573097209E+03 0.17155879084E+03 0.22657256334E+03 0.28582932269E+03
 0.34273906560E+03 0.39117617847E+03 0.42707588490E+03 0.44872934364E+03 0.45591416119E+03
 0.44872934364E+03 0.42707588490E+03 0.39117617847E+03 0.34273906560E+03 0.28582932269E+03
 0.22657256334E+03 0.17155879084E+03 0.12573097209E+03 0.90947584770E+02 0.65962168213E+02
 0.47907419785E+02 0.34969129307E+02 0.25816243852E+02 0.19294602390E+02 0.14569858631E+02
 0.11102774132E+02 0.85547821919E+01 0.66952646742E+01 0.53474140183E+01 0.43705281332E+01
 0.36573836353E+01 0.31323608190E+01 0.27469481352E+01 0.24715802167E+01 0.22851871813E+01
 0.21686125438E+01 0.21054322938E+01 0.20312333585E+01 0.20519924902E+01 0.21175990322E+01
 0.22385213174E+01 0.24314129188E+01 0.27155893483E+01 0.31125008913E+01 0.36527816960E+01
 0.43870090957E+01 0.53939175058E+01 0.67848270181E+01 0.87055960221E+01 0.11340324621E+02
 0.14932644412E+02 0.19846521050E+02 0.26666717778E+02 0.36297770175E+02 0.49983321617E+02
 0.69147587541E+02 0.95967176948E+02 0.13350409791E+03 0.18279834738E+03 0.24147891137E+03
 0.30394787017E+03 0.36309169495E+03 0.41262408228E+03 0.44872934364E+03 0.47019260350E+03
 0.47725234561E+03 0.47019260350E+03 0.44872934364E+03 0.41262408228E+03 0.36309169495E+03
 0.30394787017E+03 0.24147891137E+03 0.18279834738E+03 0.13350409791E+03 0.95967176948E+02
 0.69147587541E+02 0.49983321617E+02 0.36297770175E+02 0.26666717778E+02 0.19846521050E+02
 0.14932644412E+02 0.11340324621E+02 0.87055960221E+01 0.67848270181E+01 0.53939175058E+01
 0.43870090957E+01 0.36527816960E+01 0.31125008913E+01 0.27155893483E+01 0.24314129188E+01
 0.22385213174E+01 0.21175990322E+01 0.20519924902E+01 0.20146971006E+01 0.20356929134E+01
 0.21020543834E+01 0.22243473370E+01 0.24193065232E+01 0.27063071042E+01 0.31069454994E+01
 0.36522402576E+01 0.43934829285E+01 0.54104693547E+01 0.68159147275E+01 0.87574414323E+01
 0.11421675977E+02 0.15056824812E+02 0.20035820285E+02 0.26959443952E+02 0.36756774995E+02
 0.50702408484E+02 0.70255642174E+02 0.97725992804E+02 0.13622777393E+03 0.18671934906E+03
 0.24664227508E+03 0.31016706903E+03 0.37000327324E+03 0.41982253023E+03 0.45591416119E+03
 0.47725234561E+03 0.48424758691E+03 0.47725234561E+03 0.45591416119E+03 0.41982253023E+03
 0.37000327324E+03 0.31016706903E+03 0.24664227508E+03 0.18671934906E+03 0.13622777393E+03
 0.97725992804E+02 0.70255642174E+02 0.50702408484E+02 0.36756774995E+02 0.26959443952E+02
 0.20035820285E+02 0.15056824812E+02 0.11421675977E+02 0.87574414323E+01 0.68159147275E+01
 0.54104693547E+01 0.43934829285E+01 0.36522402576E+01 0.31069454994E+01 0.27063071042E+01
 0.24193065232E+01 0.22243473370E+01 0.21020543834E+01 0.20356929134E+01 0.20312333585E+01