   5   5   0   0
  0.1191194E+02  0.3905268E-09  0.3905268E-09  0.3905268E-09  0.5000000E-15
  1.000000000000000E-004
  CAR 
 unknown system                          
     12.81665043    -32.12567615  301      2.55481919      1.00000000
    -32.126  0.0000E+00  0.0000E+00
    -31.976  0.0000E+00  0.0000E+00
    -31.826  0.0000E+00  0.0000E+00
    -31.676  0.0000E+00  0.0000E+00
    -31.526  0.0000E+00  0.0000E+00
    -31.377  0.0000E+00  0.0000E+00
    -31.227  0.0000E+00  0.0000E+00
    -31.077  0.0000E+00  0.0000E+00
    -30.927  0.0000E+00  0.0000E+00
    -30.777  0.0000E+00  0.0000E+00
    -30.628  0.0000E+00  0.0000E+00
    -30.478  0.0000E+00  0.0000E+00
    -30.328  0.0000E+00  0.0000E+00
    -30.178  0.0000E+00  0.0000E+00
    -30.028  0.1539E+02  0.1948E+01
    -29.879  0.0000E+00  0.2000E+01
    -29.729  0.0000E+00  0.2000E+01
    -29.579  0.0000E+00  0.2000E+01
    -29.429  0.0000E+00  0.2000E+01
    -29.279  0.0000E+00  0.2000E+01
    -29.130  0.0000E+00  0.2000E+01
    -28.980  0.0000E+00  0.2000E+01
    -28.830  0.0000E+00  0.2000E+01
    -28.680  0.0000E+00  0.2000E+01
    -28.530  0.0000E+00  0.2000E+01
    -28.380  0.0000E+00  0.2000E+01
    -28.231  0.0000E+00  0.2000E+01
    -28.081  0.0000E+00  0.2000E+01
    -27.931  0.0000E+00  0.2000E+01
    -27.781  0.0000E+00  0.2000E+01
    -27.631  0.0000E+00  0.2000E+01
    -27.482  0.0000E+00  0.2000E+01
    -27.332  0.0000E+00  0.2000E+01
    -27.182  0.0000E+00  0.2000E+01
    -27.032  0.0000E+00  0.2000E+01
    -26.882  0.0000E+00  0.2000E+01
    -26.733  0.0000E+00  0.2000E+01
    -26.583  0.0000E+00  0.2000E+01
    -26.433  0.0000E+00  0.2000E+01
    -26.283  0.0000E+00  0.2000E+01
    -26.133  0.0000E+00  0.2000E+01
    -25.984  0.0000E+00  0.2000E+01
    -25.834  0.0000E+00  0.2000E+01
    -25.684  0.0000E+00  0.2000E+01
    -25.534  0.0000E+00  0.2000E+01
    -25.384  0.0000E+00  0.2000E+01
    -25.235  0.0000E+00  0.2000E+01
    -25.085  0.0000E+00  0.2000E+01
    -24.935  0.0000E+00  0.2000E+01
    -24.785  0.0000E+00  0.2000E+01
    -24.635  0.0000E+00  0.2000E+01
    -24.485  0.0000E+00  0.2000E+01
    -24.336  0.0000E+00  0.2000E+01
    -24.186  0.0000E+00  0.2000E+01
    -24.036  0.0000E+00  0.2000E+01
    -23.886  0.0000E+00  0.2000E+01
    -23.736  0.0000E+00  0.2000E+01
    -23.587  0.0000E+00  0.2000E+01
    -23.437  0.0000E+00  0.2000E+01
    -23.287  0.0000E+00  0.2000E+01
    -23.137  0.0000E+00  0.2000E+01
    -22.987  0.0000E+00  0.2000E+01
    -22.838  0.0000E+00  0.2000E+01
    -22.688  0.0000E+00  0.2000E+01
    -22.538  0.0000E+00  0.2000E+01
    -22.388  0.0000E+00  0.2000E+01
    -22.238  0.0000E+00  0.2000E+01
    -22.089  0.0000E+00  0.2000E+01
    -21.939  0.0000E+00  0.2000E+01
    -21.789  0.0000E+00  0.2000E+01
    -21.639  0.0000E+00  0.2000E+01
    -21.489  0.0000E+00  0.2000E+01
    -21.340  0.0000E+00  0.2000E+01
    -21.190  0.0000E+00  0.2000E+01
    -21.040  0.0000E+00  0.2000E+01
    -20.890  0.0000E+00  0.2000E+01
    -20.740  0.0000E+00  0.2000E+01
    -20.590  0.0000E+00  0.2000E+01
    -20.441  0.0000E+00  0.2000E+01
    -20.291  0.0000E+00  0.2000E+01
    -20.141  0.0000E+00  0.2000E+01
    -19.991  0.0000E+00  0.2000E+01
    -19.841  0.0000E+00  0.2000E+01
    -19.692  0.0000E+00  0.2000E+01
    -19.542  0.0000E+00  0.2000E+01
    -19.392  0.0000E+00  0.2000E+01
    -19.242  0.0000E+00  0.2000E+01
    -19.092  0.0000E+00  0.2000E+01
    -18.943  0.0000E+00  0.2000E+01
    -18.793  0.0000E+00  0.2000E+01
    -18.643  0.0000E+00  0.2000E+01
    -18.493  0.0000E+00  0.2000E+01
    -18.343  0.0000E+00  0.2000E+01
    -18.194  0.0000E+00  0.2000E+01
    -18.044  0.0000E+00  0.2000E+01
    -17.894  0.0000E+00  0.2000E+01
    -17.744  0.0000E+00  0.2000E+01
    -17.594  0.0000E+00  0.2000E+01
    -17.445  0.0000E+00  0.2000E+01
    -17.295  0.0000E+00  0.2000E+01
    -17.145  0.0000E+00  0.2000E+01
    -16.995  0.0000E+00  0.2000E+01
    -16.845  0.0000E+00  0.2000E+01
    -16.695  0.0000E+00  0.2000E+01
    -16.546  0.0000E+00  0.2000E+01
    -16.396  0.0000E+00  0.2000E+01
    -16.246  0.0000E+00  0.2000E+01
    -16.096  0.0000E+00  0.2000E+01
    -15.946  0.0000E+00  0.2000E+01
    -15.797  0.0000E+00  0.2000E+01
    -15.647  0.0000E+00  0.2000E+01
    -15.497  0.0000E+00  0.2000E+01
    -15.347  0.0000E+00  0.2000E+01
    -15.197  0.0000E+00  0.2000E+01
    -15.048  0.0000E+00  0.2000E+01
    -14.898  0.2045E+01  0.2101E+01
    -14.748  0.3254E+01  0.2716E+01
    -14.598  0.2379E+01  0.3145E+01
    -14.448  0.1774E+01  0.3445E+01
    -14.299  0.1475E+01  0.3693E+01
    -14.149  0.7429E+00  0.3843E+01
    -13.999  0.2672E+01  0.4002E+01
    -13.849  0.1556E+02  0.5316E+01
    -13.699  0.6048E+01  0.7755E+01
    -13.550  0.0000E+00  0.8000E+01
    -13.400  0.0000E+00  0.8000E+01
    -13.250  0.0000E+00  0.8000E+01
    -13.100  0.0000E+00  0.8000E+01
    -12.950  0.0000E+00  0.8000E+01
    -12.800  0.0000E+00  0.8000E+01
    -12.651  0.0000E+00  0.8000E+01
    -12.501  0.0000E+00  0.8000E+01
    -12.351  0.7109E+00  0.8013E+01
    -12.201  0.4151E+01  0.8396E+01
    -12.051  0.8027E+01  0.1046E+02
    -11.902  0.9325E+01  0.1186E+02
    -11.752  0.1323E+02  0.1331E+02
    -11.602  0.6087E+00  0.1400E+02
    -11.452  0.0000E+00  0.1400E+02
    -11.302  0.0000E+00  0.1400E+02
    -11.153  0.0000E+00  0.1400E+02
    -11.003  0.0000E+00  0.1400E+02
    -10.853  0.0000E+00  0.1400E+02
    -10.703  0.0000E+00  0.1400E+02
    -10.553  0.0000E+00  0.1400E+02
    -10.404  0.0000E+00  0.1400E+02
    -10.254  0.0000E+00  0.1400E+02
    -10.104  0.0000E+00  0.1400E+02
     -9.954  0.0000E+00  0.1400E+02
     -9.804  0.0000E+00  0.1400E+02
     -9.655  0.0000E+00  0.1400E+02
     -9.505  0.0000E+00  0.1400E+02
     -9.355  0.0000E+00  0.1400E+02
     -9.205  0.0000E+00  0.1400E+02
     -9.055  0.0000E+00  0.1400E+02
     -8.905  0.0000E+00  0.1400E+02
     -8.756  0.0000E+00  0.1400E+02
     -8.606  0.0000E+00  0.1400E+02
     -8.456  0.0000E+00  0.1400E+02
     -8.306  0.0000E+00  0.1400E+02
     -8.156  0.0000E+00  0.1400E+02
     -8.007  0.0000E+00  0.1400E+02
     -7.857  0.0000E+00  0.1400E+02
     -7.707  0.0000E+00  0.1400E+02
     -7.557  0.0000E+00  0.1400E+02
     -7.407  0.0000E+00  0.1400E+02
     -7.258  0.0000E+00  0.1400E+02
     -7.108  0.0000E+00  0.1400E+02
     -6.958  0.0000E+00  0.1400E+02
     -6.808  0.0000E+00  0.1400E+02
     -6.658  0.0000E+00  0.1400E+02
     -6.509  0.0000E+00  0.1400E+02
     -6.359  0.0000E+00  0.1400E+02
     -6.209  0.0000E+00  0.1400E+02
     -6.059  0.0000E+00  0.1400E+02
     -5.909  0.0000E+00  0.1400E+02
     -5.760  0.0000E+00  0.1400E+02
     -5.610  0.0000E+00  0.1400E+02
     -5.460  0.0000E+00  0.1400E+02
     -5.310  0.0000E+00  0.1400E+02
     -5.160  0.0000E+00  0.1400E+02
     -5.010  0.0000E+00  0.1400E+02
     -4.861  0.0000E+00  0.1400E+02
     -4.711  0.0000E+00  0.1400E+02
     -4.561  0.0000E+00  0.1400E+02
     -4.411  0.0000E+00  0.1400E+02
     -4.261  0.0000E+00  0.1400E+02
     -4.112  0.0000E+00  0.1400E+02
     -3.962  0.0000E+00  0.1400E+02
     -3.812  0.0000E+00  0.1400E+02
     -3.662  0.0000E+00  0.1400E+02
     -3.512  0.0000E+00  0.1400E+02
     -3.363  0.0000E+00  0.1400E+02
     -3.213  0.0000E+00  0.1400E+02
     -3.063  0.0000E+00  0.1400E+02
     -2.913  0.0000E+00  0.1400E+02
     -2.763  0.0000E+00  0.1400E+02
     -2.614  0.0000E+00  0.1400E+02
     -2.464  0.0000E+00  0.1400E+02
     -2.314  0.0000E+00  0.1400E+02
     -2.164  0.0000E+00  0.1400E+02
     -2.014  0.0000E+00  0.1400E+02
     -1.865  0.1477E+01  0.1405E+02
     -1.715  0.4798E+01  0.1462E+02
     -1.565  0.3274E+01  0.1540E+02
     -1.415  0.4472E+01  0.1615E+02
     -1.265  0.3464E+01  0.1676E+02
     -1.115  0.3406E+01  0.1727E+02
     -0.966  0.4557E+01  0.1788E+02
     -0.816  0.4864E+01  0.1863E+02
     -0.666  0.5164E+01  0.1939E+02
     -0.516  0.6330E+01  0.2021E+02
     -0.366  0.7981E+01  0.2124E+02
     -0.217  0.3749E+01  0.2255E+02
     -0.067  0.3286E+01  0.2308E+02
      0.083  0.2514E+01  0.2350E+02
      0.233  0.2276E+01  0.2385E+02
      0.383  0.1830E+01  0.2414E+02
      0.532  0.2598E+01  0.2446E+02
      0.682  0.3128E+01  0.2490E+02
      0.832  0.3374E+01  0.2539E+02
      0.982  0.1086E+01  0.2575E+02
      1.132  0.1919E+01  0.2595E+02
      1.281  0.4371E+01  0.2641E+02
      1.431  0.5895E+01  0.2733E+02
      1.581  0.6175E+01  0.2838E+02
      1.731  0.5926E+01  0.2926E+02
      1.881  0.4963E+01  0.3010E+02
      2.030  0.3544E+01  0.3073E+02
      2.180  0.2957E+01  0.3122E+02
      2.330  0.2060E+01  0.3158E+02
      2.480  0.1704E+01  0.3190E+02
      2.630  0.0000E+00  0.3200E+02
      2.780  0.0000E+00  0.3200E+02
      2.929  0.0000E+00  0.3200E+02
      3.079  0.0000E+00  0.3200E+02
      3.229  0.0000E+00  0.3200E+02
      3.379  0.0000E+00  0.3200E+02
      3.529  0.0000E+00  0.3200E+02
      3.678  0.0000E+00  0.3200E+02
      3.828  0.0000E+00  0.3200E+02
      3.978  0.0000E+00  0.3200E+02
      4.128  0.0000E+00  0.3200E+02
      4.278  0.0000E+00  0.3200E+02
      4.427  0.1319E+00  0.3201E+02
      4.577  0.4767E+00  0.3205E+02
      4.727  0.8920E+00  0.3215E+02
      4.877  0.1531E+01  0.3234E+02
      5.027  0.1513E+01  0.3257E+02
      5.176  0.1435E+01  0.3279E+02
      5.326  0.1637E+01  0.3302E+02
      5.476  0.1846E+01  0.3328E+02
      5.626  0.2380E+01  0.3357E+02
      5.776  0.3106E+01  0.3401E+02
      5.925  0.3466E+01  0.3450E+02
      6.075  0.3952E+01  0.3506E+02
      6.225  0.8240E+01  0.3608E+02
      6.375  0.4084E+01  0.3687E+02
      6.525  0.2914E+01  0.3740E+02
      6.675  0.1267E+01  0.3771E+02
      6.824  0.1169E+00  0.3780E+02
      6.974  0.1105E+00  0.3782E+02
      7.124  0.1043E+00  0.3783E+02
      7.274  0.9819E-01  0.3785E+02
      7.424  0.9229E-01  0.3786E+02
      7.573  0.8656E-01  0.3787E+02
      7.723  0.8101E-01  0.3789E+02
      7.873  0.7563E-01  0.3790E+02
      8.023  0.7043E-01  0.3791E+02
      8.173  0.7612E-01  0.3792E+02
      8.322  0.1105E+00  0.3793E+02
      8.472  0.1694E+00  0.3795E+02
      8.622  0.2097E+00  0.3798E+02
      8.772  0.2259E+00  0.3802E+02
      8.922  0.2510E+00  0.3805E+02
      9.071  0.2895E+00  0.3809E+02
      9.221  0.3295E+00  0.3814E+02
      9.371  0.3806E+00  0.3819E+02
      9.521  0.4542E+00  0.3825E+02
      9.671  0.5458E+00  0.3833E+02
      9.820  0.6363E+00  0.3843E+02
      9.970  0.1369E+01  0.3860E+02
     10.120  0.1513E+01  0.3881E+02
     10.270  0.1652E+01  0.3906E+02
     10.420  0.1851E+01  0.3932E+02
     10.570  0.2512E+01  0.3967E+02
     10.719  0.1018E+01  0.3997E+02
     10.869  0.0000E+00  0.4000E+02
     11.019  0.0000E+00  0.4000E+02
     11.169  0.0000E+00  0.4000E+02
     11.319  0.0000E+00  0.4000E+02
     11.468  0.0000E+00  0.4000E+02
     11.618  0.0000E+00  0.4000E+02
     11.768  0.0000E+00  0.4000E+02
     11.918  0.0000E+00  0.4000E+02
     12.068  0.0000E+00  0.4000E+02
     12.217  0.0000E+00  0.4000E+02
     12.367  0.0000E+00  0.4000E+02
     12.517  0.0000E+00  0.4000E+02
     12.667  0.0000E+00  0.4000E+02
     12.817  0.0000E+00  0.4000E+02
