       N       E                     dE             d eps       ncg     rms          rms(c)
DAV:   1     0.353527216114E+03    0.35353E+03   -0.18679E+04   800   0.203E+03
DAV:   2    -0.946865925453E+01   -0.36300E+03   -0.34658E+03  1044   0.407E+02
DAV:   3    -0.485678480317E+02   -0.39099E+02   -0.37346E+02   952   0.143E+02
DAV:   4    -0.501988380134E+02   -0.16310E+01   -0.16254E+01  1304   0.275E+01
DAV:   5    -0.502410205836E+02   -0.42183E-01   -0.42143E-01  1020   0.330E+00    0.183E+01
RMM:   6    -0.404110330561E+02    0.98300E+01   -0.59045E+01   866   0.446E+01    0.622E+00
RMM:   7    -0.398121398662E+02    0.59889E+00   -0.15489E+00   963   0.102E+01    0.323E+00
RMM:   8    -0.397276093489E+02    0.84531E-01   -0.94212E-01   965   0.766E+00    0.856E-01
RMM:   9    -0.397136064312E+02    0.14003E-01   -0.61235E-02  1079   0.200E+00    0.576E-01
RMM:  10    -0.397084601699E+02    0.51463E-02   -0.99119E-02   961   0.182E+00    0.209E-01
RMM:  11    -0.397084729974E+02   -0.12828E-04   -0.10172E-02  1113   0.515E-01    0.998E-02
RMM:  12    -0.397093854012E+02   -0.91240E-03   -0.10604E-02  1054   0.563E-01    0.189E-01
RMM:  13    -0.397089624793E+02    0.42292E-03   -0.80853E-03   994   0.494E-01    0.846E-02
RMM:  14    -0.397087706481E+02    0.19183E-03   -0.13798E-03   979   0.210E-01    0.178E-02
RMM:  15    -0.397088085847E+02   -0.37937E-04   -0.45573E-04   909   0.623E-02    0.167E-02
RMM:  16    -0.397088104012E+02   -0.18165E-05   -0.85944E-05   810   0.497E-02
   1 F= -.39708810E+02 E0= -.39708810E+02  d E =0.000000E+00
