 vasp.5.4.4.18Apr17-6-g9f103f2a35 (build Jun 30 2017 11:15:00) complex          
  
 executed on    STALLO_VASP_5.4.4 date 2019.11.06  13:12:14
 running on    4 total cores
 distrk:  each k-point on    4 cores,    1 groups
 distr:  one band on NCORES_PER_BAND=   2 cores,    2 groups


--------------------------------------------------------------------------------------------------------


 INCAR:
 POTCAR:   PAW_PBE Sr_sv 07Sep2000                
 POTCAR:   PAW_PBE Ti 08Apr2002                   
 POTCAR:   PAW_PBE O 08Apr2002                    
 POTCAR:   PAW_PBE Sr_sv 07Sep2000                
   VRHFIN =Sr: 4s4p5s                                                           
   LEXCH  = PE                                                                  
   EATOM  =   842.4562 eV,   61.9188 Ry                                         
                                                                                
   TITEL  = PAW_PBE Sr_sv 07Sep2000                                             
   LULTRA =        F    use ultrasoft PP ?                                      
   IUNSCR =        1    unscreen: 0-lin 1-nonlin 2-no                           
   RPACOR =    2.200    partial core radius                                     
   POMASS =   87.620; ZVAL   =   10.000    mass and valenz                      
   RCORE  =    2.500    outmost cutoff radius                                   
   RWIGS  =    4.040; RWIGS  =    2.138    wigner-seitz radius (au A)           
   ENMAX  =  229.282; ENMIN  =  171.961 eV                                      
   RCLOC  =    2.201    cutoff for local pot                                    
   LCOR   =        T    correct aug charges                                     
   LPAW   =        T    paw PP                                                  
   EAUG   =  366.804                                                            
   DEXC   =     .000                                                            
   RMAX   =    3.045    core radius for proj-oper                               
   RAUG   =    1.300    factor for augmentation sphere                          
   RDEP   =    2.562    radius for radial grids                                 
   QCUT   =   -4.105; QGAM   =    8.210    optimization parameters              
                                                                                
   Description                                                                  
     l     E      TYP  RCUT    TYP  RCUT                                        
     0   .000     23  2.480                                                     
     0   .000     23  2.480                                                     
     1   .000     23  2.500                                                     
     1   .000     23  2.500                                                     
     2   .000     23  2.500                                                     
     2   .000     23  2.500                                                     
  local pseudopotential read in
  partial core-charges read in
  atomic valenz-charges read in
  non local Contribution for L=           0  read in
    real space projection operators read in
  non local Contribution for L=           0  read in
    real space projection operators read in
  non local Contribution for L=           1  read in
    real space projection operators read in
  non local Contribution for L=           1  read in
    real space projection operators read in
  non local Contribution for L=           2  read in
    real space projection operators read in
  non local Contribution for L=           2  read in
    real space projection operators read in
    PAW grid and wavefunctions read in
 
   number of l-projection  operators is LMAX  =           6
   number of lm-projection operators is LMMAX =          18
 
 POTCAR:   PAW_PBE Ti 08Apr2002                   
   VRHFIN =Ti: d3 s1                                                            
   LEXCH  = PE                                                                  
   EATOM  =    94.7929 eV,    6.9671 Ry                                         
                                                                                
   TITEL  = PAW_PBE Ti 08Apr2002                                                
   LULTRA =        F    use ultrasoft PP ?                                      
   IUNSCR =        1    unscreen: 0-lin 1-nonlin 2-no                           
   RPACOR =    2.200    partial core radius                                     
   POMASS =   47.880; ZVAL   =    4.000    mass and valenz                      
   RCORE  =    2.800    outmost cutoff radius                                   
   RWIGS  =    2.500; RWIGS  =    1.323    wigner-seitz radius (au A)           
   ENMAX  =  178.330; ENMIN  =  133.747 eV                                      
   RCLOC  =    2.215    cutoff for local pot                                    
   LCOR   =        T    correct aug charges                                     
   LPAW   =        T    paw PP                                                  
   EAUG   =  328.883                                                            
   DEXC   =    -.043                                                            
   RMAX   =    3.453    core radius for proj-oper                               
   RAUG   =    1.300    factor for augmentation sphere                          
   RDEP   =    2.885    radius for radial grids                                 
   QCUT   =   -3.620; QGAM   =    7.241    optimization parameters              
                                                                                
   Description                                                                  
     l     E      TYP  RCUT    TYP  RCUT                                        
     2   .000     23  2.800                                                     
     2   .000     23  2.800                                                     
     0   .000     23  2.800                                                     
     0  1.500     23  2.800                                                     
     1  -.400     23  2.800                                                     
     3   .000      7   .000                                                     
  local pseudopotential read in
  partial core-charges read in
  atomic valenz-charges read in
  non local Contribution for L=           2  read in
    real space projection operators read in
  non local Contribution for L=           2  read in
    real space projection operators read in
  non local Contribution for L=           0  read in
    real space projection operators read in
  non local Contribution for L=           0  read in
    real space projection operators read in
  non local Contribution for L=           1  read in
    real space projection operators read in
    PAW grid and wavefunctions read in
 
   number of l-projection  operators is LMAX  =           5
   number of lm-projection operators is LMMAX =          15
 
 POTCAR:   PAW_PBE O 08Apr2002                    
   VRHFIN =O: s2p4                                                              
   LEXCH  = PE                                                                  
   EATOM  =   432.3788 eV,   31.7789 Ry                                         
                                                                                
   TITEL  = PAW_PBE O 08Apr2002                                                 
   LULTRA =        F    use ultrasoft PP ?                                      
   IUNSCR =        0    unscreen: 0-lin 1-nonlin 2-no                           
   RPACOR =     .000    partial core radius                                     
   POMASS =   16.000; ZVAL   =    6.000    mass and valenz                      
   RCORE  =    1.520    outmost cutoff radius                                   
   RWIGS  =    1.550; RWIGS  =     .820    wigner-seitz radius (au A)           
   ENMAX  =  400.000; ENMIN  =  300.000 eV                                      
   ICORE  =        2    local potential                                         
   LCOR   =        T    correct aug charges                                     
   LPAW   =        T    paw PP                                                  
   EAUG   =  605.392                                                            
   DEXC   =     .000                                                            
   RMAX   =    2.264    core radius for proj-oper                               
   RAUG   =    1.300    factor for augmentation sphere                          
   RDEP   =    1.550    radius for radial grids                                 
   QCUT   =   -5.520; QGAM   =   11.041    optimization parameters              
                                                                                
   Description                                                                  
     l     E      TYP  RCUT    TYP  RCUT                                        
     0   .000     23  1.200                                                     
     0  -.700     23  1.200                                                     
     1   .000     23  1.520                                                     
     1   .600     23  1.520                                                     
     2   .000      7  1.500                                                     
  local pseudopotential read in
  atomic valenz-charges read in
  non local Contribution for L=           0  read in
    real space projection operators read in
  non local Contribution for L=           0  read in
    real space projection operators read in
  non local Contribution for L=           1  read in
    real space projection operators read in
  non local Contribution for L=           1  read in
    real space projection operators read in
    PAW grid and wavefunctions read in
 
   number of l-projection  operators is LMAX  =           4
   number of lm-projection operators is LMMAX =           8
 
 WARNING: PSMAXN for non-local potential too small
          PSMAXN should be >   13.5545592237991       NTYP=           2
 PAW_PBE Sr_sv 07Sep2000                :
 energy of atom  1       EATOM= -842.4562
 kinetic energy error for atom=    0.0004 (will be added to EATOM!!)
 PAW_PBE Ti 08Apr2002                   :
 energy of atom  2       EATOM=  -94.7929
 kinetic energy error for atom=    0.0000 (will be added to EATOM!!)
 PAW_PBE O 08Apr2002                    :
 energy of atom  3       EATOM= -432.3788
 kinetic energy error for atom=    0.0091 (will be added to EATOM!!)
 
 
 POSCAR: ICSD_CollCode262269                     
  positions in direct lattice
  No initial velocities read in
 exchange correlation table for  LEXCH =        8
   RHO(1)=    0.500       N(1)  =     2000
   RHO(2)=  100.500       N(2)  =     4000
 


--------------------------------------------------------------------------------------------------------


 ion  position               nearest neighbor table
   1  0.000  0.000  0.000-   3 2.76   4 2.76   5 2.76   4 2.76   5 2.76   3 2.76   5 2.76   5 2.76
                             3 2.76   4 2.76   4 2.76   3 2.76   2 3.38   2 3.38   2 3.38   2 3.38
   2  0.500  0.500  0.500-   3 1.95   4 1.95   5 1.95   3 1.95   4 1.95   5 1.95   1 3.38   1 3.38
                             1 3.38   1 3.38   1 3.38   1 3.38   1 3.38   1 3.38
   3  0.500  0.500  0.000-   2 1.95   2 1.95   1 2.76   1 2.76   1 2.76   1 2.76
   4  0.500  0.000  0.500-   2 1.95   2 1.95   1 2.76   1 2.76   1 2.76   1 2.76
   5  0.000  0.500  0.500-   2 1.95   2 1.95   1 2.76   1 2.76   1 2.76   1 2.76
 
  LATTYP: Found a simple cubic cell.
 ALAT       =     3.9052680000
  
  Lattice vectors:
  
 A1 = (   3.9052680000,   0.0000000000,   0.0000000000)
 A2 = (   0.0000000000,   3.9052680000,   0.0000000000)
 A3 = (   0.0000000000,   0.0000000000,   3.9052680000)


Analysis of symmetry for initial positions (statically):
=====================================================================
 Subroutine PRICEL returns:
 Original cell was already a primitive cell.
 

 Routine SETGRP: Setting up the symmetry group for a 
 simple cubic supercell.


 Subroutine GETGRP returns: Found 48 space group operations
 (whereof 48 operations were pure point group operations)
 out of a pool of 48 trial point group operations.


The static configuration has the point symmetry O_h .


Analysis of symmetry for dynamics (positions and initial velocities):
=====================================================================
 Subroutine PRICEL returns:
 Original cell was already a primitive cell.
 

 Routine SETGRP: Setting up the symmetry group for a 
 simple cubic supercell.


 Subroutine GETGRP returns: Found 48 space group operations
 (whereof 48 operations were pure point group operations)
 out of a pool of 48 trial point group operations.


The dynamic configuration has the point symmetry O_h .


 Subroutine INISYM returns: Found 48 space group operations
 (whereof 48 operations are pure point group operations),
 and found     1 'primitive' translations

 
 
 KPOINTS: k-density: 4.0                          

Automatic generation of k-mesh.
Space group operators:
 irot       det(A)        alpha          n_x          n_y          n_z        tau_x        tau_y        tau_z
    1     1.000000     0.000000     1.000000     0.000000     0.000000     0.000000     0.000000     0.000000
    2    -1.000000     0.000000     1.000000     0.000000     0.000000     0.000000     0.000000     0.000000
    3     1.000000   120.000000    -0.577350    -0.577350    -0.577350     0.000000     0.000000     0.000000
    4    -1.000000   120.000000    -0.577350    -0.577350    -0.577350     0.000000     0.000000     0.000000
    5     1.000000   120.000000     0.577350     0.577350     0.577350     0.000000     0.000000     0.000000
    6    -1.000000   120.000000     0.577350     0.577350     0.577350     0.000000     0.000000     0.000000
    7     1.000000    90.000000     0.000000     0.000000    -1.000000     0.000000     0.000000     0.000000
    8    -1.000000    90.000000     0.000000     0.000000    -1.000000     0.000000     0.000000     0.000000
    9     1.000000   180.000000     0.000000     0.707107     0.707107     0.000000     0.000000     0.000000
   10    -1.000000   180.000000     0.000000     0.707107     0.707107     0.000000     0.000000     0.000000
   11     1.000000    90.000000     0.000000     1.000000     0.000000     0.000000     0.000000     0.000000
   12    -1.000000    90.000000     0.000000     1.000000     0.000000     0.000000     0.000000     0.000000
   13     1.000000   180.000000     0.000000     0.000000     1.000000     0.000000     0.000000     0.000000
   14    -1.000000   180.000000     0.000000     0.000000     1.000000     0.000000     0.000000     0.000000
   15     1.000000   120.000000    -0.577350     0.577350     0.577350     0.000000     0.000000     0.000000
   16    -1.000000   120.000000    -0.577350     0.577350     0.577350     0.000000     0.000000     0.000000
   17     1.000000   120.000000    -0.577350     0.577350    -0.577350     0.000000     0.000000     0.000000
   18    -1.000000   120.000000    -0.577350     0.577350    -0.577350     0.000000     0.000000     0.000000
   19     1.000000    90.000000     0.000000     0.000000     1.000000     0.000000     0.000000     0.000000
   20    -1.000000    90.000000     0.000000     0.000000     1.000000     0.000000     0.000000     0.000000
   21     1.000000    90.000000    -1.000000     0.000000     0.000000     0.000000     0.000000     0.000000
   22    -1.000000    90.000000    -1.000000     0.000000     0.000000     0.000000     0.000000     0.000000
   23     1.000000   180.000000     0.707107     0.000000     0.707107     0.000000     0.000000     0.000000
   24    -1.000000   180.000000     0.707107     0.000000     0.707107     0.000000     0.000000     0.000000
   25     1.000000   120.000000     0.577350    -0.577350     0.577350     0.000000     0.000000     0.000000
   26    -1.000000   120.000000     0.577350    -0.577350     0.577350     0.000000     0.000000     0.000000
   27     1.000000   120.000000    -0.577350    -0.577350     0.577350     0.000000     0.000000     0.000000
   28    -1.000000   120.000000    -0.577350    -0.577350     0.577350     0.000000     0.000000     0.000000
   29     1.000000   180.000000     1.000000     0.000000     0.000000     0.000000     0.000000     0.000000
   30    -1.000000   180.000000     1.000000     0.000000     0.000000     0.000000     0.000000     0.000000
   31     1.000000    90.000000     0.000000    -1.000000     0.000000     0.000000     0.000000     0.000000
   32    -1.000000    90.000000     0.000000    -1.000000     0.000000     0.000000     0.000000     0.000000
   33     1.000000   180.000000     0.707107     0.707107     0.000000     0.000000     0.000000     0.000000
   34    -1.000000   180.000000     0.707107     0.707107     0.000000     0.000000     0.000000     0.000000
   35     1.000000    90.000000     1.000000     0.000000     0.000000     0.000000     0.000000     0.000000
   36    -1.000000    90.000000     1.000000     0.000000     0.000000     0.000000     0.000000     0.000000
   37     1.000000   120.000000     0.577350    -0.577350    -0.577350     0.000000     0.000000     0.000000
   38    -1.000000   120.000000     0.577350    -0.577350    -0.577350     0.000000     0.000000     0.000000
   39     1.000000   180.000000     0.000000     1.000000     0.000000     0.000000     0.000000     0.000000
   40    -1.000000   180.000000     0.000000     1.000000     0.000000     0.000000     0.000000     0.000000
   41     1.000000   120.000000     0.577350     0.577350    -0.577350     0.000000     0.000000     0.000000
   42    -1.000000   120.000000     0.577350     0.577350    -0.577350     0.000000     0.000000     0.000000
   43     1.000000   180.000000     0.000000    -0.707107     0.707107     0.000000     0.000000     0.000000
   44    -1.000000   180.000000     0.000000    -0.707107     0.707107     0.000000     0.000000     0.000000
   45     1.000000   180.000000     0.707107    -0.707107     0.000000     0.000000     0.000000     0.000000
   46    -1.000000   180.000000     0.707107    -0.707107     0.000000     0.000000     0.000000     0.000000
   47     1.000000   180.000000     0.707107     0.000000    -0.707107     0.000000     0.000000     0.000000
   48    -1.000000   180.000000     0.707107     0.000000    -0.707107     0.000000     0.000000     0.000000
 
 Subroutine IBZKPT returns following result:
 ===========================================
 
 Found     20 irreducible k-points:
 
 Following reciprocal coordinates:
            Coordinates               Weight
  0.000000  0.000000  0.000000      1.000000
  0.142857  0.000000  0.000000      6.000000
  0.285714  0.000000  0.000000      6.000000
  0.428571  0.000000  0.000000      6.000000
  0.142857  0.142857  0.000000     12.000000
  0.285714  0.142857  0.000000     24.000000
  0.428571  0.142857  0.000000     24.000000
  0.285714  0.285714  0.000000     12.000000
  0.428571  0.285714  0.000000     24.000000
  0.428571  0.428571  0.000000     12.000000
  0.142857  0.142857  0.142857      8.000000
  0.285714  0.142857  0.142857     24.000000
  0.428571  0.142857  0.142857     24.000000
  0.285714  0.285714  0.142857     24.000000
  0.428571  0.285714  0.142857     48.000000
  0.428571  0.428571  0.142857     24.000000
  0.285714  0.285714  0.285714      8.000000
  0.428571  0.285714  0.285714     24.000000
  0.428571  0.428571  0.285714     24.000000
  0.428571  0.428571  0.428571      8.000000
 
 Following cartesian coordinates:
            Coordinates               Weight
  0.000000  0.000000  0.000000      1.000000
  0.036581  0.000000  0.000000      6.000000
  0.073161  0.000000  0.000000      6.000000
  0.109742  0.000000  0.000000      6.000000
  0.036581  0.036581  0.000000     12.000000
  0.073161  0.036581  0.000000     24.000000
  0.109742  0.036581  0.000000     24.000000
  0.073161  0.073161  0.000000     12.000000
  0.109742  0.073161  0.000000     24.000000
  0.109742  0.109742  0.000000     12.000000
  0.036581  0.036581  0.036581      8.000000
  0.073161  0.036581  0.036581     24.000000
  0.109742  0.036581  0.036581     24.000000
  0.073161  0.073161  0.036581     24.000000
  0.109742  0.073161  0.036581     48.000000
  0.109742  0.109742  0.036581     24.000000
  0.073161  0.073161  0.073161      8.000000
  0.109742  0.073161  0.073161     24.000000
  0.109742  0.109742  0.073161     24.000000
  0.109742  0.109742  0.109742      8.000000
 
 TETIRR: Found    163 inequivalent tetrahedra from     2058


--------------------------------------------------------------------------------------------------------




 Dimension of arrays:
   k-points           NKPTS =     20   k-points in BZ     NKDIM =     20   number of bands    NBANDS=     20
   number of dos      NEDOS =    301   number of ions     NIONS =      5
   non local maximal  LDIM  =      6   non local SUM 2l+1 LMDIM =     18
   total plane-waves  NPLWV =  21952
   max r-space proj   IRMAX =      1   max aug-charges    IRDMAX=  25652
   dimension x,y,z NGX =    28 NGY =   28 NGZ =   28
   dimension x,y,z NGXF=    56 NGYF=   56 NGZF=   56
   support grid    NGXF=    56 NGYF=   56 NGZF=   56
   ions per type =               1   1   3
   NGX,Y,Z   is equivalent  to a cutoff of  11.92, 11.92, 11.92 a.u.
   NGXF,Y,Z  is equivalent  to a cutoff of  23.84, 23.84, 23.84 a.u.

 SYSTEM =  unknown system                          
 POSCAR =  ICSD_CollCode262269                     

 Startparameter for this run:
   NWRITE =      2    write-flag & timer
   PREC   = normal    normal or accurate (medium, high low for compatibility)
   ISTART =      0    job   : 0-new  1-cont  2-samecut
   ICHARG =      2    charge: 1-file 2-atom 10-const
   ISPIN  =      1    spin polarized calculation?
   LNONCOLLINEAR =      F non collinear calculations
   LSORBIT =      F    spin-orbit coupling
   INIWAV =      1    electr: 0-lowe 1-rand  2-diag
   LASPH  =      F    aspherical Exc in radial PAW
   METAGGA=      F    non-selfconsistent MetaGGA calc.

 Electronic Relaxation 1
   ENCUT  =  700.0 eV  51.45 Ry    7.17 a.u.   8.42  8.42  8.42*2*pi/ulx,y,z
   ENINI  =  700.0     initial cutoff
   ENAUG  =  605.4 eV  augmentation charge cutoff
   NELM   =     60;   NELMIN=  4; NELMDL= -5     # of ELM steps 
   EDIFF  = 0.1E-04   stopping-criterion for ELM
   LREAL  =      F    real-space projection
   NLSPLINE    = F    spline interpolate recip. space projectors
   LCOMPAT=      F    compatible to vasp.4.4
   GGA_COMPAT  = T    GGA compatible to vasp.4.4-vasp.4.6
   LMAXPAW     = -100 max onsite density
   LMAXMIX     =    2 max onsite mixed and CHGCAR
   VOSKOWN=      0    Vosko Wilk Nusair interpolation
   ROPT   =    0.00000   0.00000   0.00000
 Ionic relaxation
   EDIFFG = 0.1E-03   stopping-criterion for IOM
   NSW    =      0    number of steps for IOM
   NBLOCK =      1;   KBLOCK =      1    inner block; outer block 
   IBRION =     -1    ionic relax: 0-MD 1-quasi-New 2-CG
   NFREE  =      0    steps in history (QN), initial steepest desc. (CG)
   ISIF   =      2    stress and relaxation
   IWAVPR =     10    prediction:  0-non 1-charg 2-wave 3-comb
   ISYM   =      2    0-nonsym 1-usesym 2-fastsym
   LCORR  =      T    Harris-Foulkes like correction to forces

   POTIM  = 0.5000    time-step for ionic-motion
   TEIN   =    0.0    initial temperature
   TEBEG  =    0.0;   TEEND  =   0.0 temperature during run
   SMASS  =  -3.00    Nose mass-parameter (am)
   estimated Nose-frequenzy (Omega)   =  0.10E-29 period in steps =****** mass=  -0.349E-27a.u.
   SCALEE = 1.0000    scale energy and forces
   NPACO  =    256;   APACO  = 16.0  distance and # of slots for P.C.
   PSTRESS=    0.0 pullay stress

  Mass of Ions in am
   POMASS =  87.62 47.88 16.00
  Ionic Valenz
   ZVAL   =  10.00  4.00  6.00
  Atomic Wigner-Seitz radii
   RWIGS  =  -1.00 -1.00 -1.00
  virtual crystal weights 
   VCA    =   1.00  1.00  1.00
   NELECT =      32.0000    total number of electrons
   NUPDOWN=      -1.0000    fix difference up-down

 DOS related values:
   EMIN   =  10.00;   EMAX   =-10.00  energy-range for DOS
   EFERMI =   0.00
   ISMEAR =    -5;   SIGMA  =   0.20  broadening in eV -4-tet -1-fermi 0-gaus

 Electronic relaxation 2 (details)
   IALGO  =     68    algorithm
   LDIAG  =      T    sub-space diagonalisation (order eigenvalues)
   LSUBROT=      F    optimize rotation matrix (better conditioning)
   TURBO    =      0    0=normal 1=particle mesh
   IRESTART =      0    0=no restart 2=restart with 2 vectors
   NREBOOT  =      0    no. of reboots
   NMIN     =      0    reboot dimension
   EREF     =   0.00    reference energy to select bands
   IMIX   =      4    mixing-type and parameters
     AMIX     =   0.40;   BMIX     =  1.00
     AMIX_MAG =   1.60;   BMIX_MAG =  1.00
     AMIN     =   0.10
     WC   =   100.;   INIMIX=   1;  MIXPRE=   1;  MAXMIX= -45

 Intra band minimization:
   WEIMIN = 0.0000     energy-eigenvalue tresh-hold
   EBREAK =  0.13E-06  absolut break condition
   DEPER  =   0.30     relativ break condition  

   TIME   =   0.40     timestep for ELM

  volume/ion in A,a.u.               =      11.91        80.39
  Fermi-wavevector in a.u.,A,eV,Ry     =   1.330885  2.515009 24.099399  1.771256
  Thomas-Fermi vector in A             =   2.459938
 
 Write flags
   LWAVE        =      F    write WAVECAR
   LDOWNSAMPLE  =      F    k-point downsampling of WAVECAR
   LCHARG       =      T    write CHGCAR
   LVTOT        =      F    write LOCPOT, total local potential
   LVHAR        =      F    write LOCPOT, Hartree potential only
   LELF         =      F    write electronic localiz. function (ELF)
   LORBIT       =      0    0 simple, 1 ext, 2 COOP (PROOUT), +10 PAW based schemes


 Dipole corrections
   LMONO  =      F    monopole corrections only (constant potential shift)
   LDIPOL =      F    correct potential (dipole corrections)
   IDIPOL =      0    1-x, 2-y, 3-z, 4-all directions 
   EPSILON=  1.0000000 bulk dielectric constant

 Exchange correlation treatment:
   GGA     =    --    GGA type
   LEXCH   =     8    internal setting for exchange type
   VOSKOWN=      0    Vosko Wilk Nusair interpolation
   LHFCALC =     F    Hartree Fock is set to
   LHFONE  =     F    Hartree Fock one center treatment
   AEXX    =    0.0000 exact exchange contribution

 Linear response parameters
   LEPSILON=     F    determine dielectric tensor
   LRPA    =     F    only Hartree local field effects (RPA)
   LNABLA  =     F    use nabla operator in PAW spheres
   LVEL    =     F    velocity operator in full k-point grid
   LINTERFAST=   F  fast interpolation
   KINTER  =     0    interpolate to denser k-point grid
   CSHIFT  =0.1000    complex shift for real part using Kramers Kronig
   OMEGAMAX=  -1.0    maximum frequency
   DEG_THRESHOLD= 0.2000000E-02 threshold for treating states as degnerate
   RTIME   =   -0.100 relaxation time in fs
  (WPLASMAI=    0.000 imaginary part of plasma frequency in eV, 0.658/RTIME)
   DFIELD  = 0.0000000 0.0000000 0.0000000 field for delta impulse in time
 
 Orbital magnetization related:
   ORBITALMAG=     F  switch on orbital magnetization
   LCHIMAG   =     F  perturbation theory with respect to B field
   DQ        =  0.001000  dq finite difference perturbation B field
   LLRAUG    =     F  two centre corrections for induced B field



--------------------------------------------------------------------------------------------------------


 Static calculation
 charge density and potential will be updated during run
 non-spin polarized calculation
 RMM-DIIS sequential band-by-band and
  variant of blocked Davidson during initial phase
 perform sub-space diagonalisation
    before iterative eigenvector-optimisation
 modified Broyden-mixing scheme, WC =      100.0
 initial mixing is a Kerker type mixing with AMIX =  0.4000 and BMIX =      1.0000
 Hartree-type preconditioning will be used
 using additional bands            4
 reciprocal scheme for non local part
 use partial core corrections
 calculate Harris-corrections to forces 
   (improved forces if not selfconsistent)
 use gradient corrections 
 use of overlap-Matrix (Vanderbilt PP)
 Fermi weights with tetrahedron method with Bloechl corrections


--------------------------------------------------------------------------------------------------------


  energy-cutoff  :      700.00
  volume of cell :       59.56
      direct lattice vectors                 reciprocal lattice vectors
     3.905268000  0.000000000  0.000000000     0.256064373  0.000000000  0.000000000
     0.000000000  3.905268000  0.000000000     0.000000000  0.256064373  0.000000000
     0.000000000  0.000000000  3.905268000     0.000000000  0.000000000  0.256064373

  length of vectors
     3.905268000  3.905268000  3.905268000     0.256064373  0.256064373  0.256064373


 
 k-points in units of 2pi/SCALE and weight: k-density: 4.0                          
   0.00000000  0.00000000  0.00000000       0.003
   0.03658062  0.00000000  0.00000000       0.017
   0.07316125  0.00000000  0.00000000       0.017
   0.10974187  0.00000000  0.00000000       0.017
   0.03658062  0.03658062  0.00000000       0.035
   0.07316125  0.03658062  0.00000000       0.070
   0.10974187  0.03658062  0.00000000       0.070
   0.07316125  0.07316125  0.00000000       0.035
   0.10974187  0.07316125  0.00000000       0.070
   0.10974187  0.10974187  0.00000000       0.035
   0.03658062  0.03658062  0.03658062       0.023
   0.07316125  0.03658062  0.03658062       0.070
   0.10974187  0.03658062  0.03658062       0.070
   0.07316125  0.07316125  0.03658062       0.070
   0.10974187  0.07316125  0.03658062       0.140
   0.10974187  0.10974187  0.03658062       0.070
   0.07316125  0.07316125  0.07316125       0.023
   0.10974187  0.07316125  0.07316125       0.070
   0.10974187  0.10974187  0.07316125       0.070
   0.10974187  0.10974187  0.10974187       0.023
 
 k-points in reciprocal lattice and weights: k-density: 4.0                          
   0.00000000  0.00000000  0.00000000       0.003
   0.14285714  0.00000000  0.00000000       0.017
   0.28571429  0.00000000  0.00000000       0.017
   0.42857143  0.00000000  0.00000000       0.017
   0.14285714  0.14285714  0.00000000       0.035
   0.28571429  0.14285714  0.00000000       0.070
   0.42857143  0.14285714  0.00000000       0.070
   0.28571429  0.28571429  0.00000000       0.035
   0.42857143  0.28571429  0.00000000       0.070
   0.42857143  0.42857143  0.00000000       0.035
   0.14285714  0.14285714  0.14285714       0.023
   0.28571429  0.14285714  0.14285714       0.070
   0.42857143  0.14285714  0.14285714       0.070
   0.28571429  0.28571429  0.14285714       0.070
   0.42857143  0.28571429  0.14285714       0.140
   0.42857143  0.42857143  0.14285714       0.070
   0.28571429  0.28571429  0.28571429       0.023
   0.42857143  0.28571429  0.28571429       0.070
   0.42857143  0.42857143  0.28571429       0.070
   0.42857143  0.42857143  0.42857143       0.023
 
 position of ions in fractional coordinates (direct lattice) 
   0.00000000  0.00000000  0.00000000
   0.50000000  0.50000000  0.50000000
   0.50000000  0.50000000  0.00000000
   0.50000000  0.00000000  0.50000000
   0.00000000  0.50000000  0.50000000
 
 position of ions in cartesian coordinates  (Angst):
   0.00000000  0.00000000  0.00000000
   1.95263400  1.95263400  1.95263400
   1.95263400  1.95263400  0.00000000
   1.95263400  0.00000000  1.95263400
   0.00000000  1.95263400  1.95263400
 


--------------------------------------------------------------------------------------------------------


 k-point  1 :   0.0000 0.0000 0.0000  plane waves:    2517
 k-point  2 :   0.1429 0.0000 0.0000  plane waves:    2497
 k-point  3 :   0.2857 0.0000 0.0000  plane waves:    2505
 k-point  4 :   0.4286 0.0000 0.0000  plane waves:    2520
 k-point  5 :   0.1429 0.1429 0.0000  plane waves:    2518
 k-point  6 :   0.2857 0.1429 0.0000  plane waves:    2521
 k-point  7 :   0.4286 0.1429 0.0000  plane waves:    2506
 k-point  8 :   0.2857 0.2857 0.0000  plane waves:    2510
 k-point  9 :   0.4286 0.2857 0.0000  plane waves:    2505
 k-point 10 :   0.4286 0.4286 0.0000  plane waves:    2508
 k-point 11 :   0.1429 0.1429 0.1429  plane waves:    2512
 k-point 12 :   0.2857 0.1429 0.1429  plane waves:    2503
 k-point 13 :   0.4286 0.1429 0.1429  plane waves:    2509
 k-point 14 :   0.2857 0.2857 0.1429  plane waves:    2517
 k-point 15 :   0.4286 0.2857 0.1429  plane waves:    2504
 k-point 16 :   0.4286 0.4286 0.1429  plane waves:    2511
 k-point 17 :   0.2857 0.2857 0.2857  plane waves:    2503
 k-point 18 :   0.4286 0.2857 0.2857  plane waves:    2491
 k-point 19 :   0.4286 0.4286 0.2857  plane waves:    2479
 k-point 20 :   0.4286 0.4286 0.4286  plane waves:    2479

 maximum and minimum number of plane-waves per node :      1279     1230

 maximum number of plane-waves:      2521
 maximum index in each direction: 
   IXMAX=    8   IYMAX=    8   IZMAX=    8
   IXMIN=   -8   IYMIN=   -8   IZMIN=   -8


 parallel 3D FFT for wavefunctions:
    minimum data exchange during FFTs selected (reduces bandwidth)
 parallel 3D FFT for charge:
    minimum data exchange during FFTs selected (reduces bandwidth)


 total amount of memory used by VASP MPI-rank0    50600. kBytes
=======================================================================

   base      :      30000. kBytes
   nonl-proj :      11161. kBytes
   fftplans  :       1859. kBytes
   grid      :       3330. kBytes
   one-center:         46. kBytes
   wavefun   :       4204. kBytes
 
     INWAV:  cpu time    0.0000: real time    0.0002
 Broyden mixing: mesh for mixing (old mesh)
   NGX = 17   NGY = 17   NGZ = 17
  (NGX  = 56   NGY  = 56   NGZ  = 56)
  gives a total of   4913 points

 initial charge density was supplied:
 charge density of overlapping atoms calculated
 number of electron      32.0000000 magnetization 
 keeping initial charge density in first step


--------------------------------------------------------------------------------------------------------


 Maximum index for augmentation-charges         6233 (set IRDMAX)


--------------------------------------------------------------------------------------------------------


 First call to EWALD:  gamma=   0.454
 Maximum number of real-space cells 3x 3x 3
 Maximum number of reciprocal cells 3x 3x 3

    FEWALD:  cpu time    0.0020: real time    0.0015


--------------------------------------- Iteration      1(   1)  ---------------------------------------


    POTLOK:  cpu time    0.0290: real time    0.2924
    SETDIJ:  cpu time    0.0060: real time    0.0060
     EDDAV:  cpu time    0.3919: real time    0.3920
 BZINTS: Fermi energy: 20.409926; 32.000000 electrons
         Band energy: 139.841185;  BLOECHL correction: -0.348772
       DOS:  cpu time    0.0050: real time    0.0047
    --------------------------------------------
      LOOP:  cpu time    0.4319: real time    0.6952

 eigenvalue-minimisations  :   800
 total energy-change (2. order) : 0.3535272E+03  (-0.1867899E+04)
 number of electron      32.0000000 magnetization 
 augmentation part       32.0000000 magnetization 

 Free energy of the ion-electron system (eV)
  ---------------------------------------------------
  alpha Z        PSCENC =       185.39985751
  Ewald energy   TEWEN  =     -1934.07799583
  -Hartree energ DENC   =      -403.14003404
  -exchange      EXHF   =         0.00000000
  -V(xc)+E(xc)   XCENC  =        82.31787849
  PAW double counting   =      1333.61297253    -1284.78446064
  entropy T*S    EENTRO =         0.00000000
  eigenvalues    EBANDS =       139.84118478
  atomic energy  EATOM  =      2234.35781332
  Solvation  Ediel_sol  =         0.00000000
  ---------------------------------------------------
  free energy    TOTEN  =       353.52721611 eV

  energy without entropy =      353.52721611  energy(sigma->0) =      353.52721611


--------------------------------------------------------------------------------------------------------




--------------------------------------- Iteration      1(   2)  ---------------------------------------


     EDDAV:  cpu time    0.4799: real time    0.4808
 BZINTS: Fermi energy:  8.893053; 32.000000 electrons
         Band energy:-223.154691;  BLOECHL correction: -0.059043
       DOS:  cpu time    0.0040: real time    0.0045
    --------------------------------------------
      LOOP:  cpu time    0.4839: real time    0.4853

 eigenvalue-minimisations  :  1044
 total energy-change (2. order) :-0.3629959E+03  (-0.3465786E+03)
 number of electron      32.0000000 magnetization 
 augmentation part       32.0000000 magnetization 

 Free energy of the ion-electron system (eV)
  ---------------------------------------------------
  alpha Z        PSCENC =       185.39985751
  Ewald energy   TEWEN  =     -1934.07799583
  -Hartree energ DENC   =      -403.14003404
  -exchange      EXHF   =         0.00000000
  -V(xc)+E(xc)   XCENC  =        82.31787849
  PAW double counting   =      1333.61297253    -1284.78446064
  entropy T*S    EENTRO =         0.00000000
  eigenvalues    EBANDS =      -223.15469059
  atomic energy  EATOM  =      2234.35781332
  Solvation  Ediel_sol  =         0.00000000
  ---------------------------------------------------
  free energy    TOTEN  =        -9.46865925 eV

  energy without entropy =       -9.46865925  energy(sigma->0) =       -9.46865925


--------------------------------------------------------------------------------------------------------




--------------------------------------- Iteration      1(   3)  ---------------------------------------


     EDDAV:  cpu time    0.4419: real time    0.4420
 BZINTS: Fermi energy:  1.002940; 32.000000 electrons
         Band energy:-262.253879;  BLOECHL correction:  0.000000
       DOS:  cpu time    0.0010: real time    0.0016
    --------------------------------------------
      LOOP:  cpu time    0.4429: real time    0.4436

 eigenvalue-minimisations  :   952
 total energy-change (2. order) :-0.3909919E+02  (-0.3734570E+02)
 number of electron      32.0000000 magnetization 
 augmentation part       32.0000000 magnetization 

 Free energy of the ion-electron system (eV)
  ---------------------------------------------------
  alpha Z        PSCENC =       185.39985751
  Ewald energy   TEWEN  =     -1934.07799583
  -Hartree energ DENC   =      -403.14003404
  -exchange      EXHF   =         0.00000000
  -V(xc)+E(xc)   XCENC  =        82.31787849
  PAW double counting   =      1333.61297253    -1284.78446064
  entropy T*S    EENTRO =         0.00000000
  eigenvalues    EBANDS =      -262.25387937
  atomic energy  EATOM  =      2234.35781332
  Solvation  Ediel_sol  =         0.00000000
  ---------------------------------------------------
  free energy    TOTEN  =       -48.56784803 eV

  energy without entropy =      -48.56784803  energy(sigma->0) =      -48.56784803


--------------------------------------------------------------------------------------------------------




--------------------------------------- Iteration      1(   4)  ---------------------------------------


     EDDAV:  cpu time    0.5609: real time    0.5612
 BZINTS: Fermi energy: -0.525618; 32.000000 electrons
         Band energy:-263.884869;  BLOECHL correction:  0.000000
       DOS:  cpu time    0.0010: real time    0.0009
    --------------------------------------------
      LOOP:  cpu time    0.5619: real time    0.5622

 eigenvalue-minimisations  :  1304
 total energy-change (2. order) :-0.1630990E+01  (-0.1625404E+01)
 number of electron      32.0000000 magnetization 
 augmentation part       32.0000000 magnetization 

 Free energy of the ion-electron system (eV)
  ---------------------------------------------------
  alpha Z        PSCENC =       185.39985751
  Ewald energy   TEWEN  =     -1934.07799583
  -Hartree energ DENC   =      -403.14003404
  -exchange      EXHF   =         0.00000000
  -V(xc)+E(xc)   XCENC  =        82.31787849
  PAW double counting   =      1333.61297253    -1284.78446064
  entropy T*S    EENTRO =         0.00000000
  eigenvalues    EBANDS =      -263.88486935
  atomic energy  EATOM  =      2234.35781332
  Solvation  Ediel_sol  =         0.00000000
  ---------------------------------------------------
  free energy    TOTEN  =       -50.19883801 eV

  energy without entropy =      -50.19883801  energy(sigma->0) =      -50.19883801


--------------------------------------------------------------------------------------------------------




--------------------------------------- Iteration      1(   5)  ---------------------------------------


     EDDAV:  cpu time    0.4589: real time    0.4589
 BZINTS: Fermi energy: -0.513481; 32.000000 electrons
         Band energy:-263.927052;  BLOECHL correction:  0.000000
       DOS:  cpu time    0.0010: real time    0.0009
    CHARGE:  cpu time    0.0310: real time    0.0314
    MIXING:  cpu time    0.0010: real time    0.0008
    --------------------------------------------
      LOOP:  cpu time    0.4919: real time    0.4920

 eigenvalue-minimisations  :  1020
 total energy-change (2. order) :-0.4218257E-01  (-0.4214309E-01)
 number of electron      32.0000031 magnetization 
 augmentation part        3.4000354 magnetization 

 Broyden mixing:
  rms(total) = 0.18250E+01    rms(broyden)= 0.18250E+01
  rms(prec ) = 0.47633E+01
  weight for this iteration     100.00

 Free energy of the ion-electron system (eV)
  ---------------------------------------------------
  alpha Z        PSCENC =       185.39985751
  Ewald energy   TEWEN  =     -1934.07799583
  -Hartree energ DENC   =      -403.14003404
  -exchange      EXHF   =         0.00000000
  -V(xc)+E(xc)   XCENC  =        82.31787849
  PAW double counting   =      1333.61297253    -1284.78446064
  entropy T*S    EENTRO =         0.00000000
  eigenvalues    EBANDS =      -263.92705192
  atomic energy  EATOM  =      2234.35781332
  Solvation  Ediel_sol  =         0.00000000
  ---------------------------------------------------
  free energy    TOTEN  =       -50.24102058 eV

  energy without entropy =      -50.24102058  energy(sigma->0) =      -50.24102058


--------------------------------------------------------------------------------------------------------




--------------------------------------- Iteration      1(   6)  ---------------------------------------


    POTLOK:  cpu time    0.0260: real time    0.0262
    SETDIJ:  cpu time    0.0060: real time    0.0054
    EDDIAG:  cpu time    0.0800: real time    0.0804
  RMM-DIIS:  cpu time    0.3020: real time    0.3017
    ORTHCH:  cpu time    0.0080: real time    0.0081
 BZINTS: Fermi energy:  3.209459; 32.000000 electrons
         Band energy:-200.976263;  BLOECHL correction:  0.000000
       DOS:  cpu time    0.0010: real time    0.0009
    CHARGE:  cpu time    0.0300: real time    0.0307
    MIXING:  cpu time    0.0010: real time    0.0009
    --------------------------------------------
      LOOP:  cpu time    0.4539: real time    0.4543

 eigenvalue-minimisations  :   866
 total energy-change (2. order) : 0.9829988E+01  (-0.5904529E+01)
 number of electron      32.0000024 magnetization 
 augmentation part        3.4777062 magnetization 

 Broyden mixing:
  rms(total) = 0.62241E+00    rms(broyden)= 0.62231E+00
  rms(prec ) = 0.11331E+01
  weight for this iteration     100.00

 eigenvalues of (default mixing * dielectric matrix)
  average eigenvalue GAMMA=   0.7969
  0.7969

 Free energy of the ion-electron system (eV)
  ---------------------------------------------------
  alpha Z        PSCENC =       185.39985751
  Ewald energy   TEWEN  =     -1934.07799583
  -Hartree energ DENC   =      -457.83072114
  -exchange      EXHF   =         0.00000000
  -V(xc)+E(xc)   XCENC  =        87.10845220
  PAW double counting   =      1487.18738746    -1441.57956378
  entropy T*S    EENTRO =         0.00000000
  eigenvalues    EBANDS =      -200.97626280
  atomic energy  EATOM  =      2234.35781332
  Solvation  Ediel_sol  =         0.00000000
  ---------------------------------------------------
  free energy    TOTEN  =       -40.41103306 eV

  energy without entropy =      -40.41103306  energy(sigma->0) =      -40.41103306


--------------------------------------------------------------------------------------------------------




--------------------------------------- Iteration      1(   7)  ---------------------------------------


    POTLOK:  cpu time    0.0260: real time    0.0279
    SETDIJ:  cpu time    0.0060: real time    0.0056
    EDDIAG:  cpu time    0.0800: real time    0.0802
  RMM-DIIS:  cpu time    0.3439: real time    0.3441
    ORTHCH:  cpu time    0.0080: real time    0.0081
 BZINTS: Fermi energy:  2.704365; 32.000000 electrons
         Band energy:-210.405497;  BLOECHL correction:  0.000000
       DOS:  cpu time    0.0010: real time    0.0010
    CHARGE:  cpu time    0.0310: real time    0.0308
    MIXING:  cpu time    0.0010: real time    0.0009
    --------------------------------------------
      LOOP:  cpu time    0.4969: real time    0.4984

 eigenvalue-minimisations  :   963
 total energy-change (2. order) : 0.5988932E+00  (-0.1548873E+00)
 number of electron      32.0000025 magnetization 
 augmentation part        3.3946645 magnetization 

 Broyden mixing:
  rms(total) = 0.32302E+00    rms(broyden)= 0.32302E+00
  rms(prec ) = 0.56792E+00
  weight for this iteration     100.00

 eigenvalues of (default mixing * dielectric matrix)
  average eigenvalue GAMMA=   1.7058
  0.8863  2.5254

 Free energy of the ion-electron system (eV)
  ---------------------------------------------------
  alpha Z        PSCENC =       185.39985751
  Ewald energy   TEWEN  =     -1934.07799583
  -Hartree energ DENC   =      -445.66792803
  -exchange      EXHF   =         0.00000000
  -V(xc)+E(xc)   XCENC  =        86.24993205
  PAW double counting   =      1497.93456396    -1453.60288574
  entropy T*S    EENTRO =         0.00000000
  eigenvalues    EBANDS =      -210.40549711
  atomic energy  EATOM  =      2234.35781332
  Solvation  Ediel_sol  =         0.00000000
  ---------------------------------------------------
  free energy    TOTEN  =       -39.81213987 eV

  energy without entropy =      -39.81213987  energy(sigma->0) =      -39.81213987


--------------------------------------------------------------------------------------------------------




--------------------------------------- Iteration      1(   8)  ---------------------------------------


    POTLOK:  cpu time    0.0260: real time    0.0265
    SETDIJ:  cpu time    0.0060: real time    0.0056
    EDDIAG:  cpu time    0.0800: real time    0.0802
  RMM-DIIS:  cpu time    0.3449: real time    0.3448
    ORTHCH:  cpu time    0.0080: real time    0.0081
 BZINTS: Fermi energy:  2.415092; 32.000000 electrons
         Band energy:-216.702679;  BLOECHL correction:  0.000000
       DOS:  cpu time    0.0010: real time    0.0010
    CHARGE:  cpu time    0.0300: real time    0.0303
    MIXING:  cpu time    0.0010: real time    0.0009
    --------------------------------------------
      LOOP:  cpu time    0.4969: real time    0.4974

 eigenvalue-minimisations  :   965
 total energy-change (2. order) : 0.8453052E-01  (-0.9421227E-01)
 number of electron      32.0000025 magnetization 
 augmentation part        3.4526407 magnetization 

 Broyden mixing:
  rms(total) = 0.85558E-01    rms(broyden)= 0.85544E-01
  rms(prec ) = 0.19317E+00
  weight for this iteration     100.00

 eigenvalues of (default mixing * dielectric matrix)
  average eigenvalue GAMMA=   1.3298
  2.2990  0.8452  0.8452

 Free energy of the ion-electron system (eV)
  ---------------------------------------------------
  alpha Z        PSCENC =       185.39985751
  Ewald energy   TEWEN  =     -1934.07799583
  -Hartree energ DENC   =      -436.94496013
  -exchange      EXHF   =         0.00000000
  -V(xc)+E(xc)   XCENC  =        85.89561738
  PAW double counting   =      1545.74697338    -1503.40223608
  entropy T*S    EENTRO =         0.00000000
  eigenvalues    EBANDS =      -216.70267889
  atomic energy  EATOM  =      2234.35781332
  Solvation  Ediel_sol  =         0.00000000
  ---------------------------------------------------
  free energy    TOTEN  =       -39.72760935 eV

  energy without entropy =      -39.72760935  energy(sigma->0) =      -39.72760935


--------------------------------------------------------------------------------------------------------




--------------------------------------- Iteration      1(   9)  ---------------------------------------


    POTLOK:  cpu time    0.0250: real time    0.0252
    SETDIJ:  cpu time    0.0060: real time    0.0053
    EDDIAG:  cpu time    0.0790: real time    0.0798
  RMM-DIIS:  cpu time    0.3889: real time    0.3886
    ORTHCH:  cpu time    0.0080: real time    0.0081
 BZINTS: Fermi energy:  2.490894; 32.000000 electrons
         Band energy:-214.786486;  BLOECHL correction:  0.000000
       DOS:  cpu time    0.0010: real time    0.0009
    CHARGE:  cpu time    0.0310: real time    0.0309
    MIXING:  cpu time    0.0010: real time    0.0010
    --------------------------------------------
      LOOP:  cpu time    0.5399: real time    0.5397

 eigenvalue-minimisations  :  1079
 total energy-change (2. order) : 0.1400292E-01  (-0.6123481E-02)
 number of electron      32.0000025 magnetization 
 augmentation part        3.4448998 magnetization 

 Broyden mixing:
  rms(total) = 0.57556E-01    rms(broyden)= 0.57556E-01
  rms(prec ) = 0.12715E+00
  weight for this iteration     100.00

 eigenvalues of (default mixing * dielectric matrix)
  average eigenvalue GAMMA=   1.4800
  0.9155  0.9155  2.0445  2.0445

 Free energy of the ion-electron system (eV)
  ---------------------------------------------------
  alpha Z        PSCENC =       185.39985751
  Ewald energy   TEWEN  =     -1934.07799583
  -Hartree energ DENC   =      -438.82672482
  -exchange      EXHF   =         0.00000000
  -V(xc)+E(xc)   XCENC  =        86.03410801
  PAW double counting   =      1553.75211797    -1511.56629690
  entropy T*S    EENTRO =         0.00000000
  eigenvalues    EBANDS =      -214.78648569
  atomic energy  EATOM  =      2234.35781332
  Solvation  Ediel_sol  =         0.00000000
  ---------------------------------------------------
  free energy    TOTEN  =       -39.71360643 eV

  energy without entropy =      -39.71360643  energy(sigma->0) =      -39.71360643


--------------------------------------------------------------------------------------------------------




--------------------------------------- Iteration      1(  10)  ---------------------------------------


    POTLOK:  cpu time    0.0260: real time    0.0269
    SETDIJ:  cpu time    0.0060: real time    0.0055
    EDDIAG:  cpu time    0.0790: real time    0.0800
  RMM-DIIS:  cpu time    0.3349: real time    0.3344
    ORTHCH:  cpu time    0.0080: real time    0.0081
 BZINTS: Fermi energy:  2.647522; 32.000000 electrons
         Band energy:-212.022588;  BLOECHL correction:  0.000000
       DOS:  cpu time    0.0010: real time    0.0009
    CHARGE:  cpu time    0.0300: real time    0.0303
    MIXING:  cpu time    0.0010: real time    0.0009
    --------------------------------------------
      LOOP:  cpu time    0.4859: real time    0.4871

 eigenvalue-minimisations  :   961
 total energy-change (2. order) : 0.5146261E-02  (-0.9911898E-02)
 number of electron      32.0000025 magnetization 
 augmentation part        3.4154017 magnetization 

 Broyden mixing:
  rms(total) = 0.20868E-01    rms(broyden)= 0.20863E-01
  rms(prec ) = 0.41410E-01
  weight for this iteration     100.00

 eigenvalues of (default mixing * dielectric matrix)
  average eigenvalue GAMMA=   1.4038
  2.4876  0.9374  1.0247  1.2847  1.2847

 Free energy of the ion-electron system (eV)
  ---------------------------------------------------
  alpha Z        PSCENC =       185.39985751
  Ewald energy   TEWEN  =     -1934.07799583
  -Hartree energ DENC   =      -441.82497703
  -exchange      EXHF   =         0.00000000
  -V(xc)+E(xc)   XCENC  =        86.21259975
  PAW double counting   =      1559.15063269    -1516.90380264
  entropy T*S    EENTRO =         0.00000000
  eigenvalues    EBANDS =      -212.02258793
  atomic energy  EATOM  =      2234.35781332
  Solvation  Ediel_sol  =         0.00000000
  ---------------------------------------------------
  free energy    TOTEN  =       -39.70846017 eV

  energy without entropy =      -39.70846017  energy(sigma->0) =      -39.70846017


--------------------------------------------------------------------------------------------------------




--------------------------------------- Iteration      1(  11)  ---------------------------------------


    POTLOK:  cpu time    0.0260: real time    0.0257
    SETDIJ:  cpu time    0.0050: real time    0.0053
    EDDIAG:  cpu time    0.0800: real time    0.0800
  RMM-DIIS:  cpu time    0.3939: real time    0.3942
    ORTHCH:  cpu time    0.0080: real time    0.0081
 BZINTS: Fermi energy:  2.631788; 32.000000 electrons
         Band energy:-212.438364;  BLOECHL correction:  0.000000
       DOS:  cpu time    0.0010: real time    0.0010
    CHARGE:  cpu time    0.0310: real time    0.0307
    MIXING:  cpu time    0.0010: real time    0.0010
    --------------------------------------------
      LOOP:  cpu time    0.5459: real time    0.5460

 eigenvalue-minimisations  :  1113
 total energy-change (2. order) :-0.1282756E-04  (-0.1017198E-02)
 number of electron      32.0000025 magnetization 
 augmentation part        3.4177071 magnetization 

 Broyden mixing:
  rms(total) = 0.99845E-02    rms(broyden)= 0.99844E-02
  rms(prec ) = 0.22839E-01
  weight for this iteration     100.00

 eigenvalues of (default mixing * dielectric matrix)
  average eigenvalue GAMMA=   1.5592
  2.3295  2.3295  1.7670  0.9200  0.9200  1.0895

 Free energy of the ion-electron system (eV)
  ---------------------------------------------------
  alpha Z        PSCENC =       185.39985751
  Ewald energy   TEWEN  =     -1934.07799583
  -Hartree energ DENC   =      -441.37060015
  -exchange      EXHF   =         0.00000000
  -V(xc)+E(xc)   XCENC  =        86.19858318
  PAW double counting   =      1561.11072837    -1518.88849566
  entropy T*S    EENTRO =         0.00000000
  eigenvalues    EBANDS =      -212.43836374
  atomic energy  EATOM  =      2234.35781332
  Solvation  Ediel_sol  =         0.00000000
  ---------------------------------------------------
  free energy    TOTEN  =       -39.70847300 eV

  energy without entropy =      -39.70847300  energy(sigma->0) =      -39.70847300


--------------------------------------------------------------------------------------------------------




--------------------------------------- Iteration      1(  12)  ---------------------------------------


    POTLOK:  cpu time    0.0250: real time    0.0262
    SETDIJ:  cpu time    0.0060: real time    0.0053
    EDDIAG:  cpu time    0.0800: real time    0.0804
  RMM-DIIS:  cpu time    0.3679: real time    0.3673
    ORTHCH:  cpu time    0.0070: real time    0.0082
 BZINTS: Fermi energy:  2.540577; 32.000000 electrons
         Band energy:-213.169687;  BLOECHL correction:  0.000000
       DOS:  cpu time    0.0010: real time    0.0009
    CHARGE:  cpu time    0.0310: real time    0.0307
    MIXING:  cpu time    0.0010: real time    0.0010
    --------------------------------------------
      LOOP:  cpu time    0.5189: real time    0.5199

 eigenvalue-minimisations  :  1054
 total energy-change (2. order) :-0.9124037E-03  (-0.1060382E-02)
 number of electron      32.0000025 magnetization 
 augmentation part        3.4148944 magnetization 

 Broyden mixing:
  rms(total) = 0.18918E-01    rms(broyden)= 0.18917E-01
  rms(prec ) = 0.44323E-01
  weight for this iteration     100.00

 eigenvalues of (default mixing * dielectric matrix)
  average eigenvalue GAMMA=   1.5819
  3.0273  1.9191  1.9191  1.2160  1.2160  0.8879  0.8879

 Free energy of the ion-electron system (eV)
  ---------------------------------------------------
  alpha Z        PSCENC =       185.39985751
  Ewald energy   TEWEN  =     -1934.07799583
  -Hartree energ DENC   =      -440.71853101
  -exchange      EXHF   =         0.00000000
  -V(xc)+E(xc)   XCENC  =        86.14930665
  PAW double counting   =      1559.36534724    -1517.01549588
  entropy T*S    EENTRO =         0.00000000
  eigenvalues    EBANDS =      -213.16968740
  atomic energy  EATOM  =      2234.35781332
  Solvation  Ediel_sol  =         0.00000000
  ---------------------------------------------------
  free energy    TOTEN  =       -39.70938540 eV

  energy without entropy =      -39.70938540  energy(sigma->0) =      -39.70938540


--------------------------------------------------------------------------------------------------------




--------------------------------------- Iteration      1(  13)  ---------------------------------------


    POTLOK:  cpu time    0.0250: real time    0.0256
    SETDIJ:  cpu time    0.0060: real time    0.0054
    EDDIAG:  cpu time    0.0810: real time    0.1012
  RMM-DIIS:  cpu time    0.3449: real time    0.3448
    ORTHCH:  cpu time    0.0080: real time    0.0081
 BZINTS: Fermi energy:  2.660851; 32.000000 electrons
         Band energy:-212.465746;  BLOECHL correction:  0.000000
       DOS:  cpu time    0.0010: real time    0.0010
    CHARGE:  cpu time    0.0310: real time    0.0306
    MIXING:  cpu time    0.0010: real time    0.0011
    --------------------------------------------
      LOOP:  cpu time    0.4979: real time    0.5177

 eigenvalue-minimisations  :   994
 total energy-change (2. order) : 0.4229218E-03  (-0.8085264E-03)
 number of electron      32.0000025 magnetization 
 augmentation part        3.4176624 magnetization 

 Broyden mixing:
  rms(total) = 0.84600E-02    rms(broyden)= 0.84591E-02
  rms(prec ) = 0.23629E-01
  weight for this iteration     100.00

 eigenvalues of (default mixing * dielectric matrix)
  average eigenvalue GAMMA=   1.5303
  2.5173  2.2579  2.2579  1.2505  1.2505  1.1027  0.8030  0.8030

 Free energy of the ion-electron system (eV)
  ---------------------------------------------------
  alpha Z        PSCENC =       185.39985751
  Ewald energy   TEWEN  =     -1934.07799583
  -Hartree energ DENC   =      -441.45685792
  -exchange      EXHF   =         0.00000000
  -V(xc)+E(xc)   XCENC  =        86.20825622
  PAW double counting   =      1561.47947276    -1519.15376237
  entropy T*S    EENTRO =         0.00000000
  eigenvalues    EBANDS =      -212.46574617
  atomic energy  EATOM  =      2234.35781332
  Solvation  Ediel_sol  =         0.00000000
  ---------------------------------------------------
  free energy    TOTEN  =       -39.70896248 eV

  energy without entropy =      -39.70896248  energy(sigma->0) =      -39.70896248


--------------------------------------------------------------------------------------------------------




--------------------------------------- Iteration      1(  14)  ---------------------------------------


    POTLOK:  cpu time    0.0260: real time    0.0262
    SETDIJ:  cpu time    0.0050: real time    0.0055
    EDDIAG:  cpu time    0.0800: real time    0.0803
  RMM-DIIS:  cpu time    0.3519: real time    0.3512
    ORTHCH:  cpu time    0.0080: real time    0.0081
 BZINTS: Fermi energy:  2.661609; 32.000000 electrons
         Band energy:-212.617672;  BLOECHL correction:  0.000000
       DOS:  cpu time    0.0010: real time    0.0011
    CHARGE:  cpu time    0.0310: real time    0.0306
    MIXING:  cpu time    0.0010: real time    0.0011
    --------------------------------------------
      LOOP:  cpu time    0.5039: real time    0.5041

 eigenvalue-minimisations  :   979
 total energy-change (2. order) : 0.1918312E-03  (-0.1379757E-03)
 number of electron      32.0000025 magnetization 
 augmentation part        3.4129077 magnetization 

 Broyden mixing:
  rms(total) = 0.17829E-02    rms(broyden)= 0.17828E-02
  rms(prec ) = 0.40974E-02
  weight for this iteration     100.00

 eigenvalues of (default mixing * dielectric matrix)
  average eigenvalue GAMMA=   1.5634
  2.8986  2.8986  2.5138  1.2276  1.2276  1.1226  0.8006  0.8006  0.5802

 Free energy of the ion-electron system (eV)
  ---------------------------------------------------
  alpha Z        PSCENC =       185.39985751
  Ewald energy   TEWEN  =     -1934.07799583
  -Hartree energ DENC   =      -441.29675546
  -exchange      EXHF   =         0.00000000
  -V(xc)+E(xc)   XCENC  =        86.19139167
  PAW double counting   =      1561.05975723    -1518.72516695
  entropy T*S    EENTRO =         0.00000000
  eigenvalues    EBANDS =      -212.61767214
  atomic energy  EATOM  =      2234.35781332
  Solvation  Ediel_sol  =         0.00000000
  ---------------------------------------------------
  free energy    TOTEN  =       -39.70877065 eV

  energy without entropy =      -39.70877065  energy(sigma->0) =      -39.70877065


--------------------------------------------------------------------------------------------------------




--------------------------------------- Iteration      1(  15)  ---------------------------------------


    POTLOK:  cpu time    0.0250: real time    0.0260
    SETDIJ:  cpu time    0.0060: real time    0.0056
    EDDIAG:  cpu time    0.0800: real time    0.0803
  RMM-DIIS:  cpu time    0.3310: real time    0.3304
    ORTHCH:  cpu time    0.0070: real time    0.0081
 BZINTS: Fermi energy:  2.664603; 32.000000 electrons
         Band energy:-212.609786;  BLOECHL correction:  0.000000
       DOS:  cpu time    0.0010: real time    0.0011
    CHARGE:  cpu time    0.0310: real time    0.0309
    MIXING:  cpu time    0.0010: real time    0.0012
    --------------------------------------------
      LOOP:  cpu time    0.4819: real time    0.4836

 eigenvalue-minimisations  :   909
 total energy-change (2. order) :-0.3793662E-04  (-0.4557336E-04)
 number of electron      32.0000025 magnetization 
 augmentation part        3.4119078 magnetization 

 Broyden mixing:
  rms(total) = 0.16691E-02    rms(broyden)= 0.16690E-02
  rms(prec ) = 0.38881E-02
  weight for this iteration     100.00

 eigenvalues of (default mixing * dielectric matrix)
  average eigenvalue GAMMA=   1.5206
  3.0958  3.0958  2.4555  1.2246  1.2246  1.0348  0.7977  0.7977  0.7399  0.7399

 Free energy of the ion-electron system (eV)
  ---------------------------------------------------
  alpha Z        PSCENC =       185.39985751
  Ewald energy   TEWEN  =     -1934.07799583
  -Hartree energ DENC   =      -441.31766286
  -exchange      EXHF   =         0.00000000
  -V(xc)+E(xc)   XCENC  =        86.19280957
  PAW double counting   =      1561.08954929    -1518.74339315
  entropy T*S    EENTRO =         0.00000000
  eigenvalues    EBANDS =      -212.60978643
  atomic energy  EATOM  =      2234.35781332
  Solvation  Ediel_sol  =         0.00000000
  ---------------------------------------------------
  free energy    TOTEN  =       -39.70880858 eV

  energy without entropy =      -39.70880858  energy(sigma->0) =      -39.70880858


--------------------------------------------------------------------------------------------------------




--------------------------------------- Iteration      1(  16)  ---------------------------------------


    POTLOK:  cpu time    0.0270: real time    0.0290
    SETDIJ:  cpu time    0.0060: real time    0.0055
    EDDIAG:  cpu time    0.0790: real time    0.0802
  RMM-DIIS:  cpu time    0.2900: real time    0.2888
    ORTHCH:  cpu time    0.0080: real time    0.0083
 BZINTS: Fermi energy:  2.554819; 32.000000 electrons
         Band energy:-212.635275;  BLOECHL correction:  0.000000
       DOS:  cpu time    0.0010: real time    0.0009
    --------------------------------------------
      LOOP:  cpu time    0.4109: real time    0.4127

 eigenvalue-minimisations  :   810
 total energy-change (2. order) :-0.1816496E-05  (-0.8594359E-05)
 number of electron      32.0000025 magnetization 
 augmentation part        3.4119078 magnetization 

 Free energy of the ion-electron system (eV)
  ---------------------------------------------------
  alpha Z        PSCENC =       185.39985751
  Ewald energy   TEWEN  =     -1934.07799583
  -Hartree energ DENC   =      -441.30786416
  -exchange      EXHF   =         0.00000000
  -V(xc)+E(xc)   XCENC  =        86.19254932
  PAW double counting   =      1561.03232255    -1518.67021841
  entropy T*S    EENTRO =         0.00000000
  eigenvalues    EBANDS =      -212.63527471
  atomic energy  EATOM  =      2234.35781332
  Solvation  Ediel_sol  =         0.00000000
  ---------------------------------------------------
  free energy    TOTEN  =       -39.70881040 eV

  energy without entropy =      -39.70881040  energy(sigma->0) =      -39.70881040


--------------------------------------------------------------------------------------------------------




 average (electrostatic) potential at core
  the test charge radii are     1.1929  1.2598  0.7215
  (the norm of the test charge is              1.0000)
       1 -36.1371       2 -26.7985       3 -71.0655       4 -71.0655       5 -71.0655
 
 
 
 E-fermi :   2.5548     XC(G=0): -11.1506     alpha+bet :-12.6354


 k-point     1 :       0.0000    0.0000    0.0000
  band No.  band energies     occupation 
      1     -30.0828      2.00000
      2     -14.8211      2.00000
      3     -13.8146      2.00000
      4     -13.8146      2.00000
      5     -12.1470      2.00000
      6     -12.1470      2.00000
      7     -12.1470      2.00000
      8      -0.2156      2.00000
      9      -0.2156      2.00000
     10      -0.2156      2.00000
     11       1.4724      2.00000
     12       1.4724      2.00000
     13       1.4724      2.00000
     14       2.3123      2.00000
     15       2.3123      2.00000
     16       2.3123      2.00000
     17       4.3417      0.00000
     18       4.3417      0.00000
     19       4.3417      0.00000
     20       8.0433      0.00000

 k-point     2 :       0.1429    0.0000    0.0000
  band No.  band energies     occupation 
      1     -30.0784      2.00000
      2     -14.8336      2.00000
      3     -13.8367      2.00000
      4     -13.8070      2.00000
      5     -12.1379      2.00000
      6     -12.1379      2.00000
      7     -12.0123      2.00000
      8      -0.4798      2.00000
      9      -0.2289      2.00000
     10      -0.2289      2.00000
     11       1.2037      2.00000
     12       1.2037      2.00000
     13       1.2960      2.00000
     14       1.7100      2.00000
     15       2.1860      2.00000
     16       2.1860      2.00000
     17       4.3706      0.00000
     18       4.7910      0.00000
     19       4.7910      0.00000
     20       8.3820      0.00000

 k-point     3 :       0.2857    0.0000    0.0000
  band No.  band energies     occupation 
      1     -30.0685      2.00000
      2     -14.9187      2.00000
      3     -13.7899      2.00000
      4     -13.7709      2.00000
      5     -12.1174      2.00000
      6     -12.1174      2.00000
      7     -11.7580      2.00000
      8      -1.1041      2.00000
      9      -0.2482      2.00000
     10      -0.2482      2.00000
     11       0.6855      2.00000
     12       0.6855      2.00000
     13       0.7682      2.00000
     14       0.9428      2.00000
     15       2.0272      2.00000
     16       2.0272      2.00000
     17       4.4374      0.00000
     18       5.6008      0.00000
     19       5.6008      0.00000
     20       9.1993      0.00000

 k-point     4 :       0.4286    0.0000    0.0000
  band No.  band energies     occupation 
      1     -30.0605      2.00000
      2     -15.0196      2.00000
      3     -13.7761      2.00000
      4     -13.6412      2.00000
      5     -12.1007      2.00000
      6     -12.1007      2.00000
      7     -11.5866      2.00000
      8      -1.6350      2.00000
      9      -0.2370      2.00000
     10      -0.2370      2.00000
     11       0.2332      2.00000
     12       0.3125      2.00000
     13       0.3125      2.00000
     14       0.6921      2.00000
     15       1.9374      2.00000
     16       1.9374      2.00000
     17       4.4928      0.00000
     18       6.1663      0.00000
     19       6.1663      0.00000
     20       9.8275      0.00000

 k-point     5 :       0.1429    0.1429    0.0000
  band No.  band energies     occupation 
      1     -30.0741      2.00000
      2     -14.8199      2.00000
      3     -13.8709      2.00000
      4     -13.8009      2.00000
      5     -12.1286      2.00000
      6     -12.0645      2.00000
      7     -11.9671      2.00000
      8      -0.6418      2.00000
      9      -0.3474      2.00000
     10      -0.2407      2.00000
     11       0.6677      2.00000
     12       1.0004      2.00000
     13       1.4764      2.00000
     14       1.5311      2.00000
     15       1.8711      2.00000
     16       2.0052      2.00000
     17       4.7573      0.00000
     18       4.8613      0.00000
     19       5.0417      0.00000
     20       8.6921      0.00000

 k-point     6 :       0.2857    0.1429    0.0000
  band No.  band energies     occupation 
      1     -30.0645      2.00000
      2     -14.8492      2.00000
      3     -13.8621      2.00000
      4     -13.7620      2.00000
      5     -12.1074      2.00000
      6     -12.0317      2.00000
      7     -11.7738      2.00000
      8      -1.1583      2.00000
      9      -0.5141      2.00000
     10      -0.2567      2.00000
     11      -0.0030      2.00000
     12       0.5588      2.00000
     13       0.8955      2.00000
     14       1.4547      2.00000
     15       1.6902      2.00000
     16       1.7815      2.00000
     17       4.8498      0.00000
     18       5.6112      0.00000
     19       5.6668      0.00000
     20       9.4183      0.00000

 k-point     7 :       0.4286    0.1429    0.0000
  band No.  band energies     occupation 
      1     -30.0567      2.00000
      2     -14.9196      2.00000
      3     -13.7771      2.00000
      4     -13.7239      2.00000
      5     -12.0902      2.00000
      6     -12.0206      2.00000
      7     -11.6302      2.00000
      8      -1.6493      2.00000
      9      -0.6999      2.00000
     10      -0.3606      2.00000
     11      -0.2400      2.00000
     12       0.2119      2.00000
     13       0.5936      2.00000
     14       1.3919      2.00000
     15       1.5390      2.00000
     16       1.6677      2.00000
     17       4.8922      0.00000
     18       6.1672      0.00000
     19       6.1878      0.00000
     20      10.1596      0.00000

 k-point     8 :       0.2857    0.2857    0.0000
  band No.  band energies     occupation 
      1     -30.0555      2.00000
      2     -14.7132      2.00000
      3     -13.9798      2.00000
      4     -13.7307      2.00000
      5     -12.0847      2.00000
      6     -11.8926      2.00000
      7     -11.7805      2.00000
      8      -1.3921      2.00000
      9      -0.9266      2.00000
     10      -0.7811      2.00000
     11      -0.2693      2.00000
     12       0.2619      2.00000
     13       0.8626      2.00000
     14       1.2113      2.00000
     15       1.4226      2.00000
     16       2.0027      2.00000
     17       5.5622      0.00000
     18       5.6862      0.00000
     19       5.9789      0.00000
     20      10.0218      0.00000

 k-point     9 :       0.4286    0.2857    0.0000
  band No.  band energies     occupation 
      1     -30.0483      2.00000
      2     -14.6570      2.00000
      3     -13.9402      2.00000
      4     -13.7638      2.00000
      5     -12.0664      2.00000
      6     -11.8660      2.00000
      7     -11.7115      2.00000
      8      -1.7041      2.00000
      9      -1.4465      2.00000
     10      -0.9979      2.00000
     11      -0.2490      2.00000
     12      -0.0070      2.00000
     13       0.8264      2.00000
     14       1.1377      2.00000
     15       1.2311      2.00000
     16       2.1243      2.00000
     17       5.6390      0.00000
     18       6.1708      0.00000
     19       6.3527      0.00000
     20      10.6465      0.00000

 k-point    10 :       0.4286    0.4286    0.0000
  band No.  band energies     occupation 
      1     -30.0415      2.00000
      2     -14.3571      2.00000
      3     -14.0543      2.00000
      4     -13.8938      2.00000
      5     -12.0471      2.00000
      6     -11.7627      2.00000
      7     -11.7479      2.00000
      8      -1.9223      2.00000
      9      -1.7944      2.00000
     10      -1.4998      2.00000
     11      -0.2512      2.00000
     12      -0.1848      2.00000
     13       0.9700      2.00000
     14       1.0041      2.00000
     15       1.0832      2.00000
     16       2.4486      2.00000
     17       6.1624      0.00000
     18       6.1840      0.00000
     19       6.6008      0.00000
     20      10.5660      0.00000

 k-point    11 :       0.1429    0.1429    0.1429
  band No.  band energies     occupation 
      1     -30.0700      2.00000
      2     -14.7899      2.00000
      3     -13.8479      2.00000
      4     -13.8479      2.00000
      5     -12.0806      2.00000
      6     -12.0806      2.00000
      7     -11.9044      2.00000
      8      -0.8087      2.00000
      9      -0.3529      2.00000
     10      -0.3529      2.00000
     11       0.5628      2.00000
     12       0.5628      2.00000
     13       1.1592      2.00000
     14       1.6694      2.00000
     15       1.8157      2.00000
     16       1.8157      2.00000
     17       5.0071      0.00000
     18       5.0993      0.00000
     19       5.0993      0.00000
     20       8.9711      0.00000

 k-point    12 :       0.2857    0.1429    0.1429
  band No.  band energies     occupation 
      1     -30.0606      2.00000
      2     -14.7776      2.00000
      3     -13.8593      2.00000
      4     -13.7939      2.00000
      5     -12.1192      2.00000
      6     -11.9950      2.00000
      7     -11.7708      2.00000
      8      -1.2254      2.00000
      9      -0.6289      2.00000
     10      -0.3674      2.00000
     11      -0.0177      2.00000
     12       0.0387      2.00000
     13       0.8825      2.00000
     14       1.5587      2.00000
     15       1.6493      2.00000
     16       1.6857      2.00000
     17       5.1219      0.00000
     18       5.6903      0.00000
     19       5.6976      0.00000
     20       9.7645      0.00000

 k-point    13 :       0.4286    0.1429    0.1429
  band No.  band energies     occupation 
      1     -30.0530      2.00000
      2     -14.8203      2.00000
      3     -13.7841      2.00000
      4     -13.7481      2.00000
      5     -12.1528      2.00000
      6     -11.9317      2.00000
      7     -11.6793      2.00000
      8      -1.6611      2.00000
      9      -0.8541      2.00000
     10      -0.4539      2.00000
     11      -0.3949      2.00000
     12      -0.2369      2.00000
     13       0.9696      2.00000
     14       1.3031      2.00000
     15       1.5115      2.00000
     16       1.5984      2.00000
     17       5.1709      0.00000
     18       6.1976      0.00000
     19       6.2137      0.00000
     20      10.1828      0.00000

 k-point    14 :       0.2857    0.2857    0.1429
  band No.  band energies     occupation 
      1     -30.0518      2.00000
      2     -14.6327      2.00000
      3     -13.9297      2.00000
      4     -13.7510      2.00000
      5     -12.1240      2.00000
      6     -11.9576      2.00000
      7     -11.7527      2.00000
      8      -1.4343      2.00000
      9      -0.9218      2.00000
     10      -0.7213      2.00000
     11      -0.4895      2.00000
     12      -0.1061      2.00000
     13       0.4415      2.00000
     14       1.4935      2.00000
     15       1.5539      2.00000
     16       2.0121      2.00000
     17       5.6960      0.00000
     18       5.7916      0.00000
     19       6.0169      0.00000
     20      10.1270      0.00000

 k-point    15 :       0.4286    0.2857    0.1429
  band No.  band energies     occupation 
      1     -30.0447      2.00000
      2     -14.5601      2.00000
      3     -13.9049      2.00000
      4     -13.7347      2.00000
      5     -12.1607      2.00000
      6     -11.8746      2.00000
      7     -11.7664      2.00000
      8      -1.7016      2.00000
      9      -1.3791      2.00000
     10      -0.9881      2.00000
     11      -0.5101      2.00000
     12      -0.3643      2.00000
     13       0.4647      2.00000
     14       1.3881      2.00000
     15       1.4862      2.00000
     16       2.1339      2.00000
     17       5.7825      0.00000
     18       6.2430      0.00000
     19       6.3879      0.00000
     20      10.7738      0.00000

 k-point    16 :       0.4286    0.4286    0.1429
  band No.  band energies     occupation 
      1     -30.0380      2.00000
      2     -14.2630      2.00000
      3     -13.9877      2.00000
      4     -13.8323      2.00000
      5     -12.1301      2.00000
      6     -11.8618      2.00000
      7     -11.8194      2.00000
      8      -1.8271      2.00000
      9      -1.7303      2.00000
     10      -1.4961      2.00000
     11      -0.5252      2.00000
     12      -0.4671      2.00000
     13       0.3286      2.00000
     14       1.4274      2.00000
     15       1.4713      2.00000
     16       2.4630      2.00000
     17       6.2598      0.00000
     18       6.2798      0.00000
     19       6.6397      0.00000
     20      10.4729      0.00000

 k-point    17 :       0.2857    0.2857    0.2857
  band No.  band energies     occupation 
      1     -30.0434      2.00000
      2     -14.4499      2.00000
      3     -13.8034      2.00000
      4     -13.8034      2.00000
      5     -12.1176      2.00000
      6     -12.1176      2.00000
      7     -11.7693      2.00000
      8      -1.5245      2.00000
      9      -0.9103      2.00000
     10      -0.9103      2.00000
     11      -0.5706      2.00000
     12      -0.5706      2.00000
     13      -0.5473      2.00000
     14       1.8007      2.00000
     15       1.8007      2.00000
     16       2.1412      2.00000
     17       6.0678      0.00000
     18       6.1162      0.00000
     19       6.1162      0.00000
     20      10.4009      0.00000

 k-point    18 :       0.4286    0.2857    0.2857
  band No.  band energies     occupation 
      1     -30.0366      2.00000
      2     -14.3099      2.00000
      3     -13.8395      2.00000
      4     -13.6820      2.00000
      5     -12.2662      2.00000
      6     -12.0120      2.00000
      7     -11.8699      2.00000
      8      -1.7027      2.00000
      9      -1.3122      2.00000
     10      -1.0038      2.00000
     11      -0.8987      2.00000
     12      -0.8268      2.00000
     13      -0.4381      2.00000
     14       1.8312      2.00000
     15       1.9650      2.00000
     16       2.2440      2.00000
     17       6.1646      0.00000
     18       6.4546      0.00000
     19       6.4791      0.00000
     20      10.5522      0.00000

 k-point    19 :       0.4286    0.4286    0.2857
  band No.  band energies     occupation 
      1     -30.0301      2.00000
      2     -14.0275      2.00000
      3     -13.8122      2.00000
      4     -13.6943      2.00000
      5     -12.2871      2.00000
      6     -12.1095      2.00000
      7     -12.0154      2.00000
      8      -1.7948      2.00000
      9      -1.4872      2.00000
     10      -1.4162      2.00000
     11      -0.9434      2.00000
     12      -0.8530      2.00000
     13      -0.7483      2.00000
     14       2.0545      2.00000
     15       2.0906      2.00000
     16       2.4997      2.00000
     17       6.5238      0.00000
     18       6.5358      0.00000
     19       6.7287      0.00000
     20      10.0040      0.00000

 k-point    20 :       0.4286    0.4286    0.4286
  band No.  band energies     occupation 
      1     -30.0238      2.00000
      2     -13.7703      2.00000
      3     -13.6262      2.00000
      4     -13.6262      2.00000
      5     -12.3525      2.00000
      6     -12.3525      2.00000
      7     -12.2392      2.00000
      8      -1.8832      2.00000
      9      -1.4793      2.00000
     10      -1.4793      2.00000
     11      -1.1776      2.00000
     12      -1.0698      2.00000
     13      -1.0698      2.00000
     14       2.4670      2.00000
     15       2.4670      2.00000
     16       2.5546      2.00000
     17       6.8040      0.00000
     18       9.7824      0.00000
     19       9.8134      0.00000
     20       9.8246      0.00000


--------------------------------------------------------------------------------------------------------


 soft charge-density along one line, spin component           1
         0         1         2         3         4         5         6         7         8         9
 total charge-density along one line
 
 pseudopotential strength for first ion, spin component:           1
-11.343  -7.403  -0.000  -0.000  -0.000   0.000   0.000   0.000
 -7.403  -5.734  -0.000  -0.000  -0.000   0.000   0.000   0.000
 -0.000  -0.000 -14.872  -0.000   0.000   0.103   0.000  -0.000
 -0.000  -0.000  -0.000 -14.872  -0.000   0.000   0.103   0.000
 -0.000  -0.000   0.000  -0.000 -14.872  -0.000   0.000   0.103
  0.000   0.000   0.103   0.000  -0.000   0.037   0.000  -0.000
  0.000   0.000   0.000   0.103   0.000   0.000   0.037   0.000
  0.000   0.000  -0.000   0.000   0.103  -0.000   0.000   0.037
  0.000   0.000  -0.000  -0.000  -0.000   0.000   0.000   0.000
 -0.000  -0.000  -0.000  -0.000  -0.000   0.000   0.000   0.000
  0.000   0.000   0.000  -0.000   0.000  -0.000   0.000  -0.000
 -0.000  -0.000  -0.000  -0.000  -0.000   0.000   0.000   0.000
 -0.000   0.000   0.000  -0.000  -0.000  -0.000   0.000   0.000
  0.000   0.000  -0.000  -0.000  -0.000  -0.000  -0.000  -0.000
 -0.000  -0.000  -0.000  -0.000  -0.000  -0.000  -0.000  -0.000
  0.000   0.000   0.000  -0.000   0.000   0.000   0.000   0.000
 -0.000  -0.000  -0.000  -0.000  -0.000  -0.000  -0.000  -0.000
  0.000   0.000   0.000  -0.000  -0.000  -0.000  -0.000  -0.000
 total augmentation occupancy for first ion, spin component:           1
  2.105  -0.226   0.000   0.000   0.000   0.000   0.000   0.000  -0.000   0.000  -0.000  -0.000  -0.000   0.000   0.000   0.000
 -0.226   0.471   0.000   0.000   0.000   0.000   0.000   0.000   0.000  -0.000   0.000  -0.000  -0.000  -0.000   0.000   0.000
  0.000   0.000   2.025   0.000   0.000   0.073  -0.000   0.000   0.000   0.000   0.000   0.000   0.000   0.000   0.000   0.000
  0.000   0.000   0.000   2.025  -0.000   0.000   0.073   0.000   0.000   0.000   0.000   0.000   0.000   0.000   0.000   0.000
  0.000   0.000   0.000  -0.000   2.025   0.000  -0.000   0.073   0.000   0.000   0.000   0.000   0.000   0.000   0.000   0.000
  0.000   0.000   0.073   0.000   0.000   0.298  -0.000  -0.000   0.000   0.000   0.000   0.000   0.000   0.000   0.000   0.000
  0.000   0.000  -0.000   0.073  -0.000  -0.000   0.298   0.000   0.000   0.000   0.000   0.000   0.000   0.000   0.000   0.000
  0.000   0.000   0.000   0.000   0.073  -0.000   0.000   0.298   0.000   0.000   0.000   0.000   0.000   0.000   0.000   0.000
 -0.000   0.000   0.000   0.000   0.000   0.000   0.000   0.000   0.094   0.000   0.000  -0.000   0.000  -0.424  -0.000  -0.000
 -0.000  -0.000   0.000   0.000   0.000   0.000   0.000   0.000   0.000   0.094   0.000  -0.000  -0.000   0.000  -0.424  -0.000
  0.000  -0.000   0.000   0.000   0.000   0.000   0.000   0.000  -0.000   0.000   0.063   0.000   0.000   0.000  -0.000  -0.275
  0.000  -0.000   0.000   0.000   0.000   0.000   0.000   0.000  -0.000  -0.000   0.000   0.094   0.000   0.000   0.000  -0.000
 -0.000   0.000   0.000   0.000   0.000   0.000   0.000   0.000  -0.000  -0.000   0.000   0.000   0.063  -0.000   0.000   0.000
  0.000  -0.000   0.000   0.000   0.000   0.000   0.000   0.000  -0.424   0.000   0.000   0.000  -0.000   2.031  -0.000   0.000
  0.000  -0.000   0.000   0.000   0.000   0.000   0.000   0.000   0.000  -0.424  -0.000  -0.000  -0.000  -0.000   2.031  -0.000
  0.000   0.000   0.000   0.000   0.000   0.000   0.000   0.000  -0.000  -0.000  -0.275  -0.000   0.000   0.000   0.000   1.269
 -0.000   0.000   0.000   0.000   0.000   0.000   0.000   0.000  -0.000   0.000  -0.000  -0.424  -0.000  -0.000  -0.000  -0.000
  0.000   0.000   0.000   0.000   0.000   0.000   0.000   0.000  -0.000   0.000   0.000   0.000  -0.275   0.000   0.000   0.000


------------------------ aborting loop because EDIFF is reached ----------------------------------------


    CHARGE:  cpu time    0.0310: real time    0.0307
    FORLOC:  cpu time    0.0030: real time    0.0032
    FORNL :  cpu time    0.0840: real time    0.0835
    STRESS:  cpu time    0.3359: real time    0.3359
    FORCOR:  cpu time    0.0260: real time    0.0261
    FORHAR:  cpu time    0.0070: real time    0.0065
    MIXING:  cpu time    0.0000: real time    0.0012
    OFIELD:  cpu time    0.0000: real time    0.0000

  FORCE on cell =-STRESS in cart. coord.  units (eV):
  Direction    XX          YY          ZZ          XY          YZ          ZX
  --------------------------------------------------------------------------------------
  Alpha Z   185.39986   185.39986   185.39986
  Ewald    -644.69310  -644.69310  -644.69310     0.00000    -0.00000    -0.00000
  Hartree   147.11721   147.11721   147.11721    -0.00000    -0.00000    -0.00000
  E(xc)    -145.38987  -145.38987  -145.38987    -0.00000    -0.00000     0.00000
  Local      -9.95220    -9.95220    -9.95220     0.00000     0.00000     0.00000
  n-local  -123.28833  -119.10444  -114.67101    -0.47345    -0.41001    -0.30103
  augment    28.89205    28.89205    28.89205    -0.00000     0.00000    -0.00000
  Kinetic   550.39025   562.55328   566.96249    -2.56480    -2.75860    -1.78165
  Fock        0.00000     0.00000     0.00000     0.00000     0.00000     0.00000
  -------------------------------------------------------------------------------------
  Total       2.32136     2.32136     2.32136     0.00000     0.00000     0.00000
  in kB      62.44531    62.44531    62.44531     0.00000     0.00000     0.00000
  external pressure =       62.45 kB  Pullay stress =        0.00 kB


 VOLUME and BASIS-vectors are now :
 -----------------------------------------------------------------------------
  energy-cutoff  :      700.00
  volume of cell :       59.56
      direct lattice vectors                 reciprocal lattice vectors
     3.905268000  0.000000000  0.000000000     0.256064373  0.000000000  0.000000000
     0.000000000  3.905268000  0.000000000     0.000000000  0.256064373  0.000000000
     0.000000000  0.000000000  3.905268000     0.000000000  0.000000000  0.256064373

  length of vectors
     3.905268000  3.905268000  3.905268000     0.256064373  0.256064373  0.256064373


 FORCES acting on ions
    electron-ion (+dipol)            ewald-force                    non-local-force                 convergence-correction
 -----------------------------------------------------------------------------------------------
   -.507E-14 -.421E-14 -.414E-14   -.987E-14 0.226E-14 -.502E-14   0.000E+00 0.000E+00 0.000E+00   -.259E-13 0.728E-14 0.114E-13
   0.643E-14 -.322E-12 0.263E-12   0.387E-14 0.424E-14 -.122E-14   0.000E+00 0.000E+00 0.000E+00   0.940E-14 -.303E-15 -.572E-14
   0.152E-12 0.173E-11 0.110E-11   0.648E-14 0.208E-14 -.144E-14   0.000E+00 0.000E+00 0.000E+00   0.219E-13 0.193E-14 0.517E-14
   0.152E-12 -.690E-14 0.367E-11   0.284E-14 -.378E-14 0.434E-14   0.000E+00 0.000E+00 0.000E+00   0.246E-13 0.180E-14 -.335E-13
   -.984E-14 0.153E-12 0.153E-12   -.327E-14 -.425E-14 0.433E-14   0.000E+00 0.000E+00 0.000E+00   -.267E-13 0.102E-14 -.313E-13
 -----------------------------------------------------------------------------------------------
   0.296E-12 0.155E-11 0.518E-11   0.432E-16 0.547E-15 0.100E-14   0.000E+00 0.000E+00 0.000E+00   0.327E-14 0.117E-13 -.540E-13
 
 
 POSITION                                       TOTAL-FORCE (eV/Angst)
 -----------------------------------------------------------------------------------
      0.00000      0.00000      0.00000         0.000000      0.000000      0.000000
      1.95263      1.95263      1.95263         0.000000      0.000000      0.000000
      1.95263      1.95263      0.00000         0.000000      0.000000      0.000000
      1.95263      0.00000      1.95263         0.000000      0.000000      0.000000
      0.00000      1.95263      1.95263         0.000000      0.000000      0.000000
 -----------------------------------------------------------------------------------
    total drift:                                0.000000      0.000000      0.000000


--------------------------------------------------------------------------------------------------------



  FREE ENERGIE OF THE ION-ELECTRON SYSTEM (eV)
  ---------------------------------------------------
  free  energy   TOTEN  =       -39.70881040 eV

  energy  without entropy=      -39.70881040  energy(sigma->0) =      -39.70881040
 


--------------------------------------------------------------------------------------------------------


    POTLOK:  cpu time    0.0300: real time    0.0296


--------------------------------------------------------------------------------------------------------


     LOOP+:  cpu time    8.5527: real time    8.8946
    4ORBIT:  cpu time    0.0000: real time    0.0000
 BZINTS: Fermi energy:  2.554819; 32.000000 electrons
         Band energy:-212.635275;  BLOECHL correction:  0.000000

 total amount of memory used by VASP MPI-rank0    50600. kBytes
=======================================================================

   base      :      30000. kBytes
   nonl-proj :      11161. kBytes
   fftplans  :       1859. kBytes
   grid      :       3330. kBytes
   one-center:         46. kBytes
   wavefun   :       4204. kBytes
 
  
  
 General timing and accounting informations for this job:
 ========================================================
  
                  Total CPU time used (sec):        9.442
                            User time (sec):        9.289
                          System time (sec):        0.153
                         Elapsed time (sec):       11.157
  
                   Maximum memory used (kb):       50536.
                   Average memory used (kb):           0.
  
                          Minor page faults:        17000
                          Major page faults:           86
                 Voluntary context switches:         2830
