unknown system                          
   3.80000000000000     
     1.000000    0.000000    0.000000
     0.000000    1.000000    0.000000
     0.000000    0.000000    1.000000
   Pt
     4
Direct
  0.000000  0.000000  0.000000
  0.000000  0.500000  0.500000
  0.500000  0.000000  0.500000
  0.500000  0.500000  0.000000
 
   48   48   48
  208.96      205.41      195.59      181.62      165.99      150.61      136.17      122.23      107.88      92.516    
  76.405      60.624      46.575      35.329      27.188      21.639      17.728      14.929      12.957      11.564    
  10.574      9.8771      9.4133      9.1475      9.0610      9.1475      9.4133      9.8771      10.574      11.564    
  12.957      14.929      17.728      21.639      27.188      35.329      46.575      60.624      76.405      92.516    
  107.88      122.23      136.17      150.61      165.99      181.62      195.59      205.41      205.41      201.97    
  192.45      178.89      163.69      148.68      134.51      120.75      106.54      91.327      75.396      59.832    
  46.012      34.974      26.993      21.547      17.695      14.937      12.994      11.619      10.641      9.9534    
  9.4953      9.2329      9.1475      9.2329      9.4953      9.9534      10.641      11.619      12.994      14.937    
  17.695      21.547      26.993      34.974      46.012      59.832      75.396      91.327      106.54      120.75    
  134.51      148.68      163.69      178.89      192.45      201.97      195.59      192.45      183.74      171.29    
  157.25      143.23      129.79      116.53      102.70      87.895      72.486      57.552      44.399      33.964    
  26.445      21.290      17.609      14.973      13.112      11.792      10.851      10.188      9.7476      9.4953    
  9.4133      9.4953      9.7476      10.188      10.851      11.792      13.112      14.973      17.609      21.290    
  26.445      33.964      44.399      57.552      72.486      87.895      102.70      116.53      129.79      143.23    
  157.25      171.29      183.74      192.45      181.62      178.89      171.29      160.36      147.88      135.17    
  122.67      110.05      96.758      82.576      67.990      54.055      41.949      32.450      25.637      20.921    
  17.508      15.064      13.333      12.101      11.220      10.600      10.188      9.9534      9.8771      9.9534    
  10.188      10.600      11.220      12.101      13.333      15.064      17.508      20.921      25.637      32.450    
  41.949      54.055      67.990      82.576      96.758      110.05      122.67      135.17      147.88      160.36    
  171.29      178.89      165.99      163.69      157.25      147.88      136.98      125.55      113.95      101.96    
  89.260      75.867      62.360      49.728      38.964      30.641      24.698      20.510      17.446      15.251    
  13.691      12.577      11.780      11.220      10.851      10.641      10.574      10.641      10.851      11.220    
  11.780      12.577      13.691      15.251      17.446      20.510      24.698      30.641      38.964      49.728    
  62.360      75.867      89.260      101.96      113.95      125.55      136.98      147.88      157.25      163.69    
  150.61      148.68      143.23      135.17      125.55      115.14      104.24      92.796      80.744      68.301    
  56.097      45.001      35.775      28.763      23.759      20.140      17.482      15.580      14.228      13.263    
  12.577      12.101      11.792      11.619      11.564      11.619      11.792      12.101      12.577      13.263    
  14.228      15.580      17.482      20.140      23.759      28.763      35.775      45.001      56.097      68.301    
  80.744      92.796      104.24      115.14      125.55      135.17      143.23      148.68      136.17      134.51    
  129.79      122.67      113.95      104.24      93.863      82.960      71.676      60.380      49.685      40.283    
  32.687      27.010      22.923      19.891      17.681      16.111      15.004      14.228      13.691      13.333    
  13.112      12.994      12.957      12.994      13.112      13.333      13.691      14.228      15.004      16.111    
  17.681      19.891      22.923      27.010      32.687      40.283      49.685      60.380      71.676      82.960    
  93.863      104.24      113.95      122.67      129.79      134.51      122.23      120.75      116.53      110.05    
  101.96      92.796      82.960      72.744      62.465      52.554      43.543      35.915      29.933      25.516    
  22.265      19.845      18.116      16.919      16.111      15.580      15.251      15.064      14.973      14.937    
  14.929      14.937      14.973      15.064      15.251      15.580      16.111      16.919      18.116      19.845    
  22.265      25.516      29.933      35.915      43.543      52.554      62.465      72.744      82.960      92.796    
  101.96      110.05      116.53      120.75      107.88      106.54      102.70      96.758      89.260      80.744    
  71.676      62.465      53.508      45.223      38.007      32.134      27.654      24.348      21.869      20.086    
  18.879      18.116      17.681      17.482      17.446      17.508      17.609      17.695      17.728      17.695    
  17.609      17.508      17.446      17.482      17.681      18.116      18.879      20.086      21.869      24.348    
  27.654      32.134      38.007      45.223      53.508      62.465      71.676      80.744      89.260      96.758    
  102.70      106.54      92.516      91.327      87.895      82.576      75.867      68.301      60.380      52.554    
  45.223      38.727      33.311      29.068      25.896      23.529      21.824      20.710      20.086      19.845    
  19.891      20.140      20.510      20.921      21.290      21.547      21.639      21.547      21.290      20.921    
  20.510      20.140      19.891      19.845      20.086      20.710      21.824      23.529      25.896      29.068    
  33.311      38.727      45.223      52.554      60.380      68.301      75.867      82.576      87.895      91.327    
  76.405      75.396      72.486      67.990      62.360      56.097      49.685      43.543      38.007      33.311    
  29.562      26.723      24.619      23.126      22.215      21.824      21.869      22.265      22.923      23.759    
  24.698      25.637      26.445      26.993      27.188      26.993      26.445      25.637      24.698      23.759    
  22.923      22.265      21.869      21.824      22.215      23.126      24.619      26.723      29.562      33.311    
  38.007      43.543      49.685      56.097      62.360      67.990      72.486      75.396      60.624      59.832    
  57.552      54.055      49.728      45.001      40.283      35.915      32.134      29.068      26.723      24.999    
  23.824      23.208      23.126      23.529      24.348      25.516      27.010      28.763      30.641      32.450    
  33.964      34.974      35.329      34.974      33.964      32.450      30.641      28.763      27.010      25.516    
  24.348      23.529      23.126      23.208      23.824      24.999      26.723      29.068      32.134      35.915    
  40.283      45.001      49.728      54.055      57.552      59.832      46.575      46.012      44.399      41.949    
  38.964      35.775      32.687      29.933      27.654      25.896      24.619      23.824      23.555      23.824    
  24.619      25.896      27.654      29.933      32.687      35.775      38.964      41.949      44.399      46.012    
  46.575      46.012      44.399      41.949      38.964      35.775      32.687      29.933      27.654      25.896    
  24.619      23.824      23.555      23.824      24.619      25.896      27.654      29.933      32.687      35.775    
  38.964      41.949      44.399      46.012      35.329      34.974      33.964      32.450      30.641      28.763    
  27.010      25.516      24.348      23.529      23.126      23.208      23.824      24.999      26.723      29.068    
  32.134      35.915      40.283      45.001      49.728      54.055      57.552      59.832      60.624      59.832    
  57.552      54.055      49.728      45.001      40.283      35.915      32.134      29.068      26.723      24.999    
  23.824      23.208      23.126      23.529      24.348      25.516      27.010      28.763      30.641      32.450    
  33.964      34.974      27.188      26.993      26.445      25.637      24.698      23.759      22.923      22.265    
  21.869      21.824      22.215      23.126      24.619      26.723      29.562      33.311      38.007      43.543    
  49.685      56.097      62.360      67.990      72.486      75.396      76.405      75.396      72.486      67.990    
  62.360      56.097      49.685      43.543      38.007      33.311      29.562      26.723      24.619      23.126    
  22.215      21.824      21.869      22.265      22.923      23.759      24.698      25.637      26.445      26.993    
  21.639      21.547      21.290      20.921      20.510      20.140      19.891      19.845      20.086      20.710    
  21.824      23.529      25.896      29.068      33.311      38.727      45.223      52.554      60.380      68.301    
  75.867      82.576      87.895      91.327      92.516      91.327      87.895      82.576      75.867      68.301    
  60.380      52.554      45.223      38.727      33.311      29.068      25.896      23.529      21.824      20.710    
  20.086      19.845      19.891      20.140      20.510      20.921      21.290      21.547      17.728      17.695    
  17.609      17.508      17.446      17.482      17.681      18.116      18.879      20.086      21.869      24.348    
  27.654      32.134      38.007      45.223      53.508      62.465      71.676      80.744      89.260      96.758    
  102.70      106.54      107.88      106.54      102.70      96.758      89.260      80.744      71.676      62.465    
  53.508      45.223      38.007      32.134      27.654      24.348      21.869      20.086      18.879      18.116    
  17.681      17.482      17.446      17.508      17.609      17.695      14.929      14.937      14.973      15.064    
  15.251      15.580      16.111      16.919      18.116      19.845      22.265      25.516      29.933      35.915    
  43.543      52.554      62.465      72.744      82.960      92.796      101.96      110.05      116.53      120.75    
  122.23      120.75      116.53      110.05      101.96      92.796      82.960      72.744      62.465      52.554    
  43.543      35.915      29.933      25.516      22.265      19.845      18.116      16.919      16.111      15.580    
  15.251      15.064      14.973      14.937      12.957      12.994      13.112      13.333      13.691      14.228    
  15.004      16.111      17.681      19.891      22.923      27.010      32.687      40.283      49.685      60.380    
  71.676      82.960      93.863      104.24      113.95      122.67      129.79      134.51      136.17      134.51    
  129.79      122.67      113.95      104.24      93.863      82.960      71.676      60.380      49.685      40.283    
  32.687      27.010      22.923      19.891      17.681      16.111      15.004      14.228      13.691      13.333    
  13.112      12.994      11.564      11.619      11.792      12.101      12.577      13.263      14.228      15.580    
  17.482      20.140      23.759      28.763      35.775      45.001      56.097      68.301      80.744      92.796    
  104.24      115.14      125.55      135.17      143.23      148.68      150.61      148.68      143.23      135.17    
  125.55      115.14      104.24      92.796      80.744      68.301      56.097      45.001      35.775      28.763    
  23.759      20.140      17.482      15.580      14.228      13.263      12.577      12.101      11.792      11.619    
  10.574      10.641      10.851      11.220      11.780      12.577      13.691      15.251      17.446      20.510    
  24.698      30.641      38.964      49.728      62.360      75.867      89.260      101.96      113.95      125.55    
  136.98      147.88      157.25      163.69      165.99      163.69      157.25      147.88      136.98      125.55    
  113.95      101.96      89.260      75.867      62.360      49.728      38.964      30.641      24.698      20.510    
  17.446      15.251      13.691      12.577      11.780      11.220      10.851      10.641      9.8771      9.9534    
  10.188      10.600      11.220      12.101      13.333      15.064      17.508      20.921      25.637      32.450    
  41.949      54.055      67.990      82.576      96.758      110.05      122.67      135.17      147.88      160.36    
  171.29      178.89      181.62      178.89      171.29      160.36      147.88      135.17      122.67      110.05    
  96.758      82.576      67.990      54.055      41.949      32.450      25.637      20.921      17.508      15.064    
  13.333      12.101      11.220      10.600      10.188      9.9534      9.4133      9.4953      9.7476      10.188    
  10.851      11.792      13.112      14.973      17.609      21.290      26.445      33.964      44.399      57.552    
  72.486      87.895      102.70      116.53      129.79      143.23      157.25      171.29      183.74      192.45    
  195.59      192.45      183.74      171.29      157.25      143.23      129.79      116.53      102.70      87.895    
  72.486      57.552      44.399      33.964      26.445      21.290      17.609      14.973      13.112      11.792    
  10.851      10.188      9.7476      9.4953      9.1475      9.2329      9.4953      9.9534      10.641      11.619    
  12.994      14.937      17.695      21.547      26.993      34.974      46.012      59.832      75.396      91.327    
  106.54      120.75      134.51      148.68      163.69      178.89      192.45      201.97      205.41      201.97    
  192.45      178.89      163.69      148.68      134.51      120.75      106.54      91.327      75.396      59.832    
  46.012      34.974      26.993      21.547      17.695      14.937      12.994      11.619      10.641      9.9534    
  9.4953      9.2329      9.0610      9.1475      9.4133      9.8771      10.574      11.564      12.957      14.929    
  17.728      21.639      27.188      35.329      46.575      60.624      76.405      92.516      107.88      122.23    
  136.17      150.61      165.99      181.62      195.59      205.41      208.96      205.41      195.59      181.62    
  165.99      150.61      136.17      122.23      107.88      92.516      76.405      60.624      46.575      35.329    
  27.188      21.639      17.728      14.929      12.957      11.564      10.574      9.8771      9.4133      9.1475    
  9.1475      9.2329      9.4953      9.9534      10.641      11.619      12.994      14.937      17.695      21.547    
  26.993      34.974      46.012      59.832      75.396      91.327      106.54      120.75      134.51      148.68    
  163.69      178.89      192.45      201.97      205.41      201.97      192.45      178.89      163.69      148.68    
  134.51      120.75      106.54      91.327      75.396      59.832      46.012      34.974      26.993      21.547    
  17.695      14.937      12.994      11.619      10.641      9.9534      9.4953      9.2329      9.4133      9.4953    
  9.7476      10.188      10.851      11.792      13.112      14.973      17.609      21.290      26.445      33.964    
  44.399      57.552      72.486      87.895      102.70      116.53      129.79      143.23      157.25      171.29    
  183.74      192.45      195.59      192.45      183.74      171.29      157.25      143.23      129.79      116.53    
  102.70      87.895      72.486      57.552      44.399      33.964      26.445      21.290      17.609      14.973    
  13.112      11.792      10.851      10.188      9.7476      9.4953      9.8771      9.9534      10.188      10.600    
  11.220      12.101      13.333      15.064      17.508      20.921      25.637      32.450      41.949      54.055    
  67.990      82.576      96.758      110.05      122.67      135.17      147.88      160.36      171.29      178.89    
  181.62      178.89      171.29      160.36      147.88      135.17      122.67      110.05      96.758      82.576    
  67.990      54.055      41.949      32.450      25.637      20.921      17.508      15.064      13.333      12.101    
  11.220      10.600      10.188      9.9534      10.574      10.641      10.851      11.220      11.780      12.577    
  13.691      15.251      17.446      20.510      24.698      30.641      38.964      49.728      62.360      75.867    
  89.260      101.96      113.95      125.55      136.98      147.88      157.25      163.69      165.99      163.69    
  157.25      147.88      136.98      125.55      113.95      101.96      89.260      75.867      62.360      49.728    
  38.964      30.641      24.698      20.510      17.446      15.251      13.691      12.577      11.780      11.220    
  10.851      10.641      11.564      11.619      11.792      12.101      12.577      13.263      14.228      15.580    
  17.482      20.140      23.759      28.763      35.775      45.001      56.097      68.301      80.744      92.796    
  104.24      115.14      125.55      135.17      143.23      148.68      150.61      148.68      143.23      135.17    
  125.55      115.14      104.24      92.796      80.744      68.301      56.097      45.001      35.775      28.763    
  23.759      20.140      17.482      15.580      14.228      13.263      12.577      12.101      11.792      11.619    
  12.957      12.994      13.112      13.333      13.691      14.228      15.004      16.111      17.681      19.891    
  22.923      27.010      32.687      40.283      49.685      60.380      71.676      82.960      93.863      104.24    
  113.95      122.67      129.79      134.51      136.17      134.51      129.79      122.67      113.95      104.24    
  93.863      82.960      71.676      60.380      49.685      40.283      32.687      27.010      22.923      19.891    
  17.681      16.111      15.004      14.228      13.691      13.333      13.112      12.994      14.929      14.937    
  14.973      15.064      15.251      15.580      16.111      16.919      18.116      19.845      22.265      25.516    
  29.933      35.915      43.543      52.554      62.465      72.744      82.960      92.796      101.96      110.05    
  116.53      120.75      122.23      120.75      116.53      110.05      101.96      92.796      82.960      72.744    
  62.465      52.554      43.543      35.915      29.933      25.516      22.265      19.845      18.116      16.919    
  16.111      15.580      15.251      15.064      14.973      14.937      17.728      17.695      17.609      17.508    
  17.446      17.482      17.681      18.116      18.879      20.086      21.869      24.348      27.654      32.134    
  38.007      45.223      53.508      62.465      71.676      80.744      89.260      96.758      102.70      106.54    
  107.88      106.54      102.70      96.758      89.260      80.744      71.676      62.465      53.508      45.223    
  38.007      32.134      27.654      24.348      21.869      20.086      18.879      18.116      17.681      17.482    
  17.446      17.508      17.609      17.695      21.639      21.547      21.290      20.921      20.510      20.140    
  19.891      19.845      20.086      20.710      21.824      23.529      25.896      29.068      33.311      38.727    
  45.223      52.554      60.380      68.301      75.867      82.576      87.895      91.327      92.516      91.327    
  87.895      82.576      75.867      68.301      60.380      52.554      45.223      38.727      33.311      29.068    
  25.896      23.529      21.824      20.710      20.086      19.845      19.891      20.140      20.510      20.921    
  21.290      21.547      27.188      26.993      26.445      25.637      24.698      23.759      22.923      22.265    
  21.869      21.824      22.215      23.126      24.619      26.723      29.562      33.311      38.007      43.543    
  49.685      56.097      62.360      67.990      72.486      75.396      76.405      75.396      72.486      67.990    
  62.360      56.097      49.685      43.543      38.007      33.311      29.562      26.723      24.619      23.126    
  22.215      21.824      21.869      22.265      22.923      23.759      24.698      25.637      26.445      26.993    
  35.329      34.974      33.964      32.450      30.641      28.763      27.010      25.516      24.348      23.529    
  23.126      23.208      23.824      24.999      26.723      29.068      32.134      35.915      40.283      45.001    
  49.728      54.055      57.552      59.832      60.624      59.832      57.552      54.055      49.728      45.001    
  40.283      35.915      32.134      29.068      26.723      24.999      23.824      23.208      23.126      23.529    
  24.348      25.516      27.010      28.763      30.641      32.450      33.964      34.974      46.575      46.012    
  44.399      41.949      38.964      35.775      32.687      29.933      27.654      25.896      24.619      23.824    
  23.555      23.824      24.619      25.896      27.654      29.933      32.687      35.775      38.964      41.949    
  44.399      46.012      46.575      46.012      44.399      41.949      38.964      35.775      32.687      29.933    
  27.654      25.896      24.619      23.824      23.555      23.824      24.619      25.896      27.654      29.933    
  32.687      35.775      38.964      41.949      44.399      46.012      60.624      59.832      57.552      54.055    
  49.728      45.001      40.283      35.915      32.134      29.068      26.723      24.999      23.824      23.208    
  23.126      23.529      24.348      25.516      27.010      28.763      30.641      32.450      33.964      34.974    
  35.329      34.974      33.964      32.450      30.641      28.763      27.010      25.516      24.348      23.529    
  23.126      23.208      23.824      24.999      26.723      29.068      32.134      35.915      40.283      45.001    
  49.728      54.055      57.552      59.832      76.405      75.396      72.486      67.990      62.360      56.097    
  49.685      43.543      38.007      33.311      29.562      26.723      24.619      23.126      22.215      21.824    
  21.869      22.265      22.923      23.759      24.698      25.637      26.445      26.993      27.188      26.993    
  26.445      25.637      24.698      23.759      22.923      22.265      21.869      21.824      22.215      23.126    
  24.619      26.723      29.562      33.311      38.007      43.543      49.685      56.097      62.360      67.990    
  72.486      75.396      92.516      91.327      87.895      82.576      75.867      68.301      60.380      52.554    
  45.223      38.727      33.311      29.068      25.896      23.529      21.824      20.710      20.086      19.845    
  19.891      20.140      20.510      20.921      21.290      21.547      21.639      21.547      21.290      20.921    
  20.510      20.140      19.891      19.845      20.086      20.710      21.824      23.529      25.896      29.068    
  33.311      38.727      45.223      52.554      60.380      68.301      75.867      82.576      87.895      91.327    
  107.88      106.54      102.70      96.758      89.260      80.744      71.676      62.465      53.508      45.223    
  38.007      32.134      27.654      24.348      21.869      20.086      18.879      18.116      17.681      17.482    
  17.446      17.508      17.609      17.695      17.728      17.695      17.609      17.508      17.446      17.482    
  17.681      18.116      18.879      20.086      21.869      24.348      27.654      32.134      38.007      45.223    
  53.508      62.465      71.676      80.744      89.260      96.758      102.70      106.54      122.23      120.75    
  116.53      110.05      101.96      92.796      82.960      72.744      62.465      52.554      43.543      35.915    
  29.933      25.516      22.265      19.845      18.116      16.919      16.111      15.580      15.251      15.064    
  14.973      14.937      14.929      14.937      14.973      15.064      15.251      15.580      16.111      16.919    
  18.116      19.845      22.265      25.516      29.933      35.915      43.543      52.554      62.465      72.744    
  82.960      92.796      101.96      110.05      116.53      120.75      136.17      134.51      129.79      122.67    
  113.95      104.24      93.863      82.960      71.676      60.380      49.685      40.283      32.687      27.010    
  22.923      19.891      17.681      16.111      15.004      14.228      13.691      13.333      13.112      12.994    
  12.957      12.994      13.112      13.333      13.691      14.228      15.004      16.111      17.681      19.891    
  22.923      27.010      32.687      40.283      49.685      60.380      71.676      82.960      93.863      104.24    
  113.95      122.67      129.79      134.51      150.61      148.68      143.23      135.17      125.55      115.14    
  104.24      92.796      80.744      68.301      56.097      45.001      35.775      28.763      23.759      20.140    
  17.482      15.580      14.228      13.263      12.577      12.101      11.792      11.619      11.564      11.619    
  11.792      12.101      12.577      13.263      14.228      15.580      17.482      20.140      23.759      28.763    
  35.775      45.001      56.097      68.301      80.744      92.796      104.24      115.14      125.55      135.17    
  143.23      148.68      165.99      163.69      157.25      147.88      136.98      125.55      113.95      101.96    
  89.260      75.867      62.360      49.728      38.964      30.641      24.698      20.510      17.446      15.251    
  13.691      12.577      11.780      11.220      10.851      10.641      10.574      10.641      10.851      11.220    
  11.780      12.577      13.691      15.251      17.446      20.510      24.698      30.641      38.964      49.728    
  62.360      75.867      89.260      101.96      113.95      125.55      136.98      147.88      157.25      163.69    
  181.62      178.89      171.29      160.36      147.88      135.17      122.67      110.05      96.758      82.576    
  67.990      54.055      41.949      32.450      25.637      20.921      17.508      15.064      13.333      12.101    
  11.220      10.600      10.188      9.9534      9.8771      9.9534      10.188      10.600      11.220      12.101    
  13.333      15.064      17.508      20.921      25.637      32.450      41.949      54.055      67.990      82.576    
  96.758      110.05      122.67      135.17      147.88      160.36      171.29      178.89      195.59      192.45    
  183.74      171.29      157.25      143.23      129.79      116.53      102.70      87.895      72.486      57.552    
  44.399      33.964      26.445      21.290      17.609      14.973      13.112      11.792      10.851      10.188    
  9.7476      9.4953      9.4133      9.4953      9.7476      10.188      10.851      11.792      13.112      14.973    
  17.609      21.290      26.445      33.964      44.399      57.552      72.486      87.895      102.70      116.53    
  129.79      143.23      157.25      171.29      183.74      192.45      205.41      201.97      192.45      178.89    
  163.69      148.68      134.51      120.75      106.54      91.327      75.396      59.832      46.012      34.974    
  26.993      21.547      17.695      14.937      12.994      11.619      10.641      9.9534      9.4953      9.2329    
  9.1475      9.2329      9.4953      9.9534      10.641      11.619      12.994      14.937      17.695      21.547    
  26.993      34.974      46.012      59.832      75.396      91.327      106.54      120.75      134.51      148.68    
  163.69      178.89      192.45      201.97      205.41      201.97      192.45      178.89      163.69      148.68    
  134.51      120.75      106.54      91.327      75.396      59.832      46.012      34.974      26.993      21.547    
  17.695      14.937      12.994      11.619      10.641      9.9534      9.4953      9.2329      9.1475      9.2329    
  9.4953      9.9534      10.641      11.619      12.994      14.937      17.695      21.547      26.993      34.974    
  46.012      59.832      75.396      91.327      106.54      120.75      134.51      148.68      163.69      178.89    
  192.45      201.97      201.97      198.64      189.40      176.23      161.44      146.78      132.87      119.30    
  105.23      90.155      74.403      59.052      45.459      34.626      26.802      21.456      17.661      14.945    
  13.029      11.674      10.708      10.029      9.5762      9.3172      9.2329      9.3172      9.5762      10.029    
  10.708      11.674      13.029      14.945      17.661      21.456      26.802      34.626      45.459      59.052    
  74.403      90.155      105.23      119.30      132.87      146.78      161.44      176.23      189.40      198.64    
  192.45      189.40      180.94      168.83      155.16      141.45      128.23      115.13      101.43      86.768    
  71.534      56.810      43.874      33.634      26.263      21.201      17.575      14.979      13.144      11.843    
  10.914      10.260      9.8250      9.5762      9.4953      9.5762      9.8250      10.260      10.914      11.843    
  13.144      14.979      17.575      21.201      26.263      33.634      43.874      56.810      71.534      86.768    
  101.43      115.13      128.23      141.45      155.16      168.83      180.94      189.40      178.89      176.23    