unknown system                          
   3.80000000000000     
     1.000000    0.000000    0.000000
     0.000000    1.000000    0.000000
     0.000000    0.000000    1.000000
   Pt
     4
Direct
  0.000000  0.000000  0.000000
  0.000000  0.500000  0.500000
  0.500000  0.000000  0.500000
  0.500000  0.500000  0.000000
 
   48   48   48
 0.20896204802E+03 0.20541332795E+03 0.19559378126E+03 0.18162024653E+03 0.16599461726E+03
 0.15061150875E+03 0.13616630764E+03 0.12222724976E+03 0.10787502857E+03 0.92515586581E+02
 0.76404949214E+02 0.60623904847E+02 0.46574667048E+02 0.35328812794E+02 0.27187671547E+02
 0.21639127051E+02 0.17727801161E+02 0.14928532820E+02 0.12957140511E+02 0.11564227173E+02
 0.10573591006E+02 0.98771065024E+01 0.94133018180E+01 0.91475436550E+01 0.90610241677E+01
 0.91475436550E+01 0.94133018180E+01 0.98771065024E+01 0.10573591006E+02 0.11564227173E+02
 0.12957140511E+02 0.14928532820E+02 0.17727801161E+02 0.21639127051E+02 0.27187671547E+02
 0.35328812794E+02 0.46574667048E+02 0.60623904847E+02 0.76404949214E+02 0.92515586581E+02
 0.10787502857E+03 0.12222724976E+03 0.13616630764E+03 0.15061150875E+03 0.16599461726E+03
 0.18162024653E+03 0.19559378126E+03 0.20541332795E+03 0.20541332795E+03 0.20197301997E+03
 0.19245002725E+03 0.17888606630E+03 0.16368958763E+03 0.14867703980E+03 0.13450595751E+03
 0.12075346826E+03 0.10654224166E+03 0.91327375789E+02 0.75396390563E+02 0.59831705718E+02
 0.46011652644E+02 0.34974021568E+02 0.26993274140E+02 0.21546970059E+02 0.17694645924E+02
 0.14937016225E+02 0.12993723306E+02 0.11619434284E+02 0.10641306660E+02 0.99533860654E+01
 0.94953274645E+01 0.92329433971E+01 0.91475436550E+01 0.92329433971E+01 0.94953274645E+01
 0.99533860654E+01 0.10641306660E+02 0.11619434284E+02 0.12993723306E+02 0.14937016225E+02
 0.17694645924E+02 0.21546970059E+02 0.26993274140E+02 0.34974021568E+02 0.46011652644E+02
 0.59831705718E+02 0.75396390563E+02 0.91327375789E+02 0.10654224166E+03 0.12075346826E+03
 0.13450595751E+03 0.14867703980E+03 0.16368958763E+03 0.17888606630E+03 0.19245002725E+03
 0.20197301997E+03 0.19559378126E+03 0.19245002725E+03 0.18373673666E+03 0.17128666576E+03
 0.15724997424E+03 0.14323002671E+03 0.12978595397E+03 0.11652725615E+03 0.10269901915E+03
 0.87894520360E+02 0.72485509161E+02 0.57552216187E+02 0.44399075135E+02 0.33964235514E+02
 0.26444837939E+02 0.21290095484E+02 0.17608929675E+02 0.14972771413E+02 0.13111594336E+02
 0.11791980684E+02 0.10850825300E+02 0.10188406006E+02 0.97475629007E+01 0.94953274645E+01
 0.94133018180E+01 0.94953274645E+01 0.97475629007E+01 0.10188406006E+02 0.10850825300E+02
 0.11791980684E+02 0.13111594336E+02 0.14972771413E+02 0.17608929675E+02 0.21290095484E+02
 0.26444837939E+02 0.33964235514E+02 0.44399075135E+02 0.57552216187E+02 0.72485509161E+02
 0.87894520360E+02 0.10269901915E+03 0.11652725615E+03 0.12978595397E+03 0.14323002671E+03
 0.15724997424E+03 0.17128666576E+03 0.18373673666E+03 0.19245002725E+03 0.18162024653E+03
 0.17888606630E+03 0.17128666576E+03 0.16035635277E+03 0.14788120549E+03 0.13517323613E+03
 0.12267152482E+03 0.11005429146E+03 0.96757744325E+02 0.82575884292E+02 0.67989710950E+02
 0.54055400483E+02 0.41949143095E+02 0.32449846886E+02 0.25636881091E+02 0.20920702511E+02
 0.17508361366E+02 0.15063965579E+02 0.13333094366E+02 0.12101242046E+02 0.11220400631E+02
 0.10600294043E+02 0.10188406006E+02 0.99533860654E+01 0.98771065024E+01 0.99533860654E+01
 0.10188406006E+02 0.10600294043E+02 0.11220400631E+02 0.12101242046E+02 0.13333094366E+02
 0.15063965579E+02 0.17508361366E+02 0.20920702511E+02 0.25636881091E+02 0.32449846886E+02
 0.41949143095E+02 0.54055400483E+02 0.67989710950E+02 0.82575884292E+02 0.96757744325E+02
 0.11005429146E+03 0.12267152482E+03 0.13517323613E+03 0.14788120549E+03 0.16035635277E+03
 0.17128666576E+03 0.17888606630E+03 0.16599461726E+03 0.16368958763E+03 0.15724997424E+03
 0.14788120549E+03 0.13697690375E+03 0.12555137659E+03 0.11394783210E+03 0.10195935898E+03
 0.89259712477E+02 0.75867078224E+02 0.62359883348E+02 0.49727826062E+02 0.38963900365E+02
 0.30641393067E+02 0.24698020819E+02 0.20510292399E+02 0.17446062836E+02 0.15250563322E+02
 0.13690979865E+02 0.12577223390E+02 0.11780046234E+02 0.11220400631E+02 0.10850825300E+02
 0.10641306660E+02 0.10573591006E+02 0.10641306660E+02 0.10850825300E+02 0.11220400631E+02
 0.11780046234E+02 0.12577223390E+02 0.13690979865E+02 0.15250563322E+02 0.17446062836E+02
 0.20510292399E+02 0.24698020819E+02 0.30641393067E+02 0.38963900365E+02 0.49727826062E+02
 0.62359883348E+02 0.75867078224E+02 0.89259712477E+02 0.10195935898E+03 0.11394783210E+03
 0.12555137659E+03 0.13697690375E+03 0.14788120549E+03 0.15724997424E+03 0.16368958763E+03
 0.15061150875E+03 0.14867703980E+03 0.14323002671E+03 0.13517323613E+03 0.12555137659E+03
 0.11513714859E+03 0.10423512146E+03 0.92795646683E+02 0.80743539637E+02 0.68300918062E+02
 0.56097342232E+02 0.45000762895E+02 0.35775088399E+02 0.28763116393E+02 0.23758682015E+02
 0.20139961034E+02 0.17482190251E+02 0.15580159656E+02 0.14228042520E+02 0.13263464589E+02
 0.12577223390E+02 0.12101242046E+02 0.11791980684E+02 0.11619434284E+02 0.11564227173E+02
 0.11619434284E+02 0.11791980684E+02 0.12101242046E+02 0.12577223390E+02 0.13263464589E+02
 0.14228042520E+02 0.15580159656E+02 0.17482190251E+02 0.20139961034E+02 0.23758682015E+02
 0.28763116393E+02 0.35775088399E+02 0.45000762895E+02 0.56097342232E+02 0.68300918062E+02
 0.80743539637E+02 0.92795646683E+02 0.10423512146E+03 0.11513714859E+03 0.12555137659E+03
 0.13517323613E+03 0.14323002671E+03 0.14867703980E+03 0.13616630764E+03 0.13450595751E+03
 0.12978595397E+03 0.12267152482E+03 0.11394783210E+03 0.10423512146E+03 0.93863038559E+02
 0.82959905776E+02 0.71676273491E+02 0.60380042846E+02 0.49684639333E+02 0.40283488460E+02
 0.32686666580E+02 0.27009619901E+02 0.22923231048E+02 0.19891294505E+02 0.17681114395E+02
 0.16110517135E+02 0.15004260269E+02 0.14228042520E+02 0.13690979865E+02 0.13333094366E+02
 0.13111594336E+02 0.12993723306E+02 0.12957140511E+02 0.12993723306E+02 0.13111594336E+02
 0.13333094366E+02 0.13690979865E+02 0.14228042520E+02 0.15004260269E+02 0.16110517135E+02
 0.17681114395E+02 0.19891294505E+02 0.22923231048E+02 0.27009619901E+02 0.32686666580E+02
 0.40283488460E+02 0.49684639333E+02 0.60380042846E+02 0.71676273491E+02 0.82959905776E+02
 0.93863038559E+02 0.10423512146E+03 0.11394783210E+03 0.12267152482E+03 0.12978595397E+03
 0.13450595751E+03 0.12222724976E+03 0.12075346826E+03 0.11652725615E+03 0.11005429146E+03
 0.10195935898E+03 0.92795646683E+02 0.82959905776E+02 0.72744400013E+02 0.62464755898E+02
 0.52554378333E+02 0.43542559957E+02 0.35914751225E+02 0.29932568310E+02 0.25516362972E+02
 0.22265234472E+02 0.19845023160E+02 0.18116249415E+02 0.16919401415E+02 0.16110517135E+02
 0.15580159656E+02 0.15250563322E+02 0.15063965579E+02 0.14972771413E+02 0.14937016225E+02
 0.14928532820E+02 0.14937016225E+02 0.14972771413E+02 0.15063965579E+02 0.15250563322E+02
 0.15580159656E+02 0.16110517135E+02 0.16919401415E+02 0.18116249415E+02 0.19845023160E+02
 0.22265234472E+02 0.25516362972E+02 0.29932568310E+02 0.35914751225E+02 0.43542559957E+02
 0.52554378333E+02 0.62464755898E+02 0.72744400013E+02 0.82959905776E+02 0.92795646683E+02
 0.10195935898E+03 0.11005429146E+03 0.11652725615E+03 0.12075346826E+03 0.10787502857E+03
 0.10654224166E+03 0.10269901915E+03 0.96757744325E+02 0.89259712477E+02 0.80743539637E+02
 0.71676273491E+02 0.62464755898E+02 0.53507720718E+02 0.45223083984E+02 0.38006984723E+02
 0.32134103124E+02 0.27654261230E+02 0.24348071445E+02 0.21869321769E+02 0.20086197441E+02
 0.18879318043E+02 0.18116249415E+02 0.17681114395E+02 0.17482190251E+02 0.17446062836E+02
 0.17508361366E+02 0.17608929675E+02 0.17694645924E+02 0.17727801161E+02 0.17694645924E+02
 0.17608929675E+02 0.17508361366E+02 0.17446062836E+02 0.17482190251E+02 0.17681114395E+02
 0.18116249415E+02 0.18879318043E+02 0.20086197441E+02 0.21869321769E+02 0.24348071445E+02
 0.27654261230E+02 0.32134103124E+02 0.38006984723E+02 0.45223083984E+02 0.53507720718E+02
 0.62464755898E+02 0.71676273491E+02 0.80743539637E+02 0.89259712477E+02 0.96757744325E+02
 0.10269901915E+03 0.10654224166E+03 0.92515586581E+02 0.91327375789E+02 0.87894520360E+02
 0.82575884292E+02 0.75867078224E+02 0.68300918062E+02 0.60380042846E+02 0.52554378333E+02
 0.45223083984E+02 0.38726854961E+02 0.33310736993E+02 0.29067657272E+02 0.25895757869E+02
 0.23528600856E+02 0.21823703093E+02 0.20710433695E+02 0.20086197441E+02 0.19845023160E+02
 0.19891294505E+02 0.20139961034E+02 0.20510292399E+02 0.20920702511E+02 0.21290095484E+02
 0.21546970059E+02 0.21639127051E+02 0.21546970059E+02 0.21290095484E+02 0.20920702511E+02
 0.20510292399E+02 0.20139961034E+02 0.19891294505E+02 0.19845023160E+02 0.20086197441E+02
 0.20710433695E+02 0.21823703093E+02 0.23528600856E+02 0.25895757869E+02 0.29067657272E+02
 0.33310736993E+02 0.38726854961E+02 0.45223083984E+02 0.52554378333E+02 0.60380042846E+02
 0.68300918062E+02 0.75867078224E+02 0.82575884292E+02 0.87894520360E+02 0.91327375789E+02
 0.76404949214E+02 0.75396390563E+02 0.72485509161E+02 0.67989710950E+02 0.62359883348E+02
 0.56097342232E+02 0.49684639333E+02 0.43542559957E+02 0.38006984723E+02 0.33310736993E+02
 0.29561748072E+02 0.26723145753E+02 0.24618811604E+02 0.23125799976E+02 0.22215224585E+02
 0.21823703093E+02 0.21869321769E+02 0.22265234472E+02 0.22923231048E+02 0.23758682015E+02
 0.24698020819E+02 0.25636881091E+02 0.26444837939E+02 0.26993274140E+02 0.27187671547E+02
 0.26993274140E+02 0.26444837939E+02 0.25636881091E+02 0.24698020819E+02 0.23758682015E+02
 0.22923231048E+02 0.22265234472E+02 0.21869321769E+02 0.21823703093E+02 0.22215224585E+02
 0.23125799976E+02 0.24618811604E+02 0.26723145753E+02 0.29561748072E+02 0.33310736993E+02
 0.38006984723E+02 0.43542559957E+02 0.49684639333E+02 0.56097342232E+02 0.62359883348E+02
 0.67989710950E+02 0.72485509161E+02 0.75396390563E+02 0.60623904847E+02 0.59831705718E+02
 0.57552216187E+02 0.54055400483E+02 0.49727826062E+02 0.45000762895E+02 0.40283488460E+02
 0.35914751225E+02 0.32134103124E+02 0.29067657272E+02 0.26723145753E+02 0.24998942522E+02
 0.23824463399E+02 0.23207820502E+02 0.23125799976E+02 0.23528600856E+02 0.24348071445E+02
 0.25516362972E+02 0.27009619901E+02 0.28763116393E+02 0.30641393067E+02 0.32449846886E+02
 0.33964235514E+02 0.34974021568E+02 0.35328812794E+02 0.34974021568E+02 0.33964235514E+02
 0.32449846886E+02 0.30641393067E+02 0.28763116393E+02 0.27009619901E+02 0.25516362972E+02
 0.24348071445E+02 0.23528600856E+02 0.23125799976E+02 0.23207820502E+02 0.23824463399E+02
 0.24998942522E+02 0.26723145753E+02 0.29067657272E+02 0.32134103124E+02 0.35914751225E+02
 0.40283488460E+02 0.45000762895E+02 0.49727826062E+02 0.54055400483E+02 0.57552216187E+02
 0.59831705718E+02 0.46574667048E+02 0.46011652644E+02 0.44399075135E+02 0.41949143095E+02
 0.38963900365E+02 0.35775088399E+02 0.32686666580E+02 0.29932568310E+02 0.27654261230E+02
 0.25895757869E+02 0.24618811604E+02 0.23824463399E+02 0.23554867057E+02 0.23824463399E+02
 0.24618811604E+02 0.25895757869E+02 0.27654261230E+02 0.29932568310E+02 0.32686666580E+02
 0.35775088399E+02 0.38963900365E+02 0.41949143095E+02 0.44399075135E+02 0.46011652644E+02
 0.46574667048E+02 0.46011652644E+02 0.44399075135E+02 0.41949143095E+02 0.38963900365E+02
 0.35775088399E+02 0.32686666580E+02 0.29932568310E+02 0.27654261230E+02 0.25895757869E+02
 0.24618811604E+02 0.23824463399E+02 0.23554867057E+02 0.23824463399E+02 0.24618811604E+02
 0.25895757869E+02 0.27654261230E+02 0.29932568310E+02 0.32686666580E+02 0.35775088399E+02
 0.38963900365E+02 0.41949143095E+02 0.44399075135E+02 0.46011652644E+02 0.35328812794E+02
 0.34974021568E+02 0.33964235514E+02 0.32449846886E+02 0.30641393067E+02 0.28763116393E+02
 0.27009619901E+02 0.25516362972E+02 0.24348071445E+02 0.23528600856E+02 0.23125799976E+02
 0.23207820502E+02 0.23824463399E+02 0.24998942522E+02 0.26723145753E+02 0.29067657272E+02
 0.32134103124E+02 0.35914751225E+02 0.40283488460E+02 0.45000762895E+02 0.49727826062E+02
 0.54055400483E+02 0.57552216187E+02 0.59831705718E+02 0.60623904847E+02 0.59831705718E+02
 0.57552216187E+02 0.54055400483E+02 0.49727826062E+02 0.45000762895E+02 0.40283488460E+02
 0.35914751225E+02 0.32134103124E+02 0.29067657272E+02 0.26723145753E+02 0.24998942522E+02
 0.23824463399E+02 0.23207820502E+02 0.23125799976E+02 0.23528600856E+02 0.24348071445E+02
 0.25516362972E+02 0.27009619901E+02 0.28763116393E+02 0.30641393067E+02 0.32449846886E+02
 0.33964235514E+02 0.34974021568E+02 0.27187671547E+02 0.26993274140E+02 0.26444837939E+02
 0.25636881091E+02 0.24698020819E+02 0.23758682015E+02 0.22923231048E+02 0.22265234472E+02
 0.21869321769E+02 0.21823703093E+02 0.22215224585E+02 0.23125799976E+02 0.24618811604E+02
 0.26723145753E+02 0.29561748072E+02 0.33310736993E+02 0.38006984723E+02 0.43542559957E+02
 0.49684639333E+02 0.56097342232E+02 0.62359883348E+02 0.67989710950E+02 0.72485509161E+02
 0.75396390563E+02 0.76404949214E+02 0.75396390563E+02 0.72485509161E+02 0.67989710950E+02
 0.62359883348E+02 0.56097342232E+02 0.49684639333E+02 0.43542559957E+02 0.38006984723E+02
 0.33310736993E+02 0.29561748072E+02 0.26723145753E+02 0.24618811604E+02 0.23125799976E+02
 0.22215224585E+02 0.21823703093E+02 0.21869321769E+02 0.22265234472E+02 0.22923231048E+02
 0.23758682015E+02 0.24698020819E+02 0.25636881091E+02 0.26444837939E+02 0.26993274140E+02
 0.21639127051E+02 0.21546970059E+02 0.21290095484E+02 0.20920702511E+02 0.20510292399E+02
 0.20139961034E+02 0.19891294505E+02 0.19845023160E+02 0.20086197441E+02 0.20710433695E+02
 0.21823703093E+02 0.23528600856E+02 0.25895757869E+02 0.29067657272E+02 0.33310736993E+02
 0.38726854961E+02 0.45223083984E+02 0.52554378333E+02 0.60380042846E+02 0.68300918062E+02
 0.75867078224E+02 0.82575884292E+02 0.87894520360E+02 0.91327375789E+02 0.92515586581E+02
 0.91327375789E+02 0.87894520360E+02 0.82575884292E+02 0.75867078224E+02 0.68300918062E+02
 0.60380042846E+02 0.52554378333E+02 0.45223083984E+02 0.38726854961E+02 0.33310736993E+02
 0.29067657272E+02 0.25895757869E+02 0.23528600856E+02 0.21823703093E+02 0.20710433695E+02
 0.20086197441E+02 0.19845023160E+02 0.19891294505E+02 0.20139961034E+02 0.20510292399E+02
 0.20920702511E+02 0.21290095484E+02 0.21546970059E+02 0.17727801161E+02 0.17694645924E+02
 0.17608929675E+02 0.17508361366E+02 0.17446062836E+02 0.17482190251E+02 0.17681114395E+02
 0.18116249415E+02 0.18879318043E+02 0.20086197441E+02 0.21869321769E+02 0.24348071445E+02
 0.27654261230E+02 0.32134103124E+02 0.38006984723E+02 0.45223083984E+02 0.53507720718E+02
 0.62464755898E+02 0.71676273491E+02 0.80743539637E+02 0.89259712477E+02 0.96757744325E+02
 0.10269901915E+03 0.10654224166E+03 0.10787502857E+03 0.10654224166E+03 0.10269901915E+03
 0.96757744325E+02 0.89259712477E+02 0.80743539637E+02 0.71676273491E+02 0.62464755898E+02
 0.53507720718E+02 0.45223083984E+02 0.38006984723E+02 0.32134103124E+02 0.27654261230E+02
 0.24348071445E+02 0.21869321769E+02 0.20086197441E+02 0.18879318043E+02 0.18116249415E+02
 0.17681114395E+02 0.17482190251E+02 0.17446062836E+02 0.17508361366E+02 0.17608929675E+02
 0.17694645924E+02 0.14928532820E+02 0.14937016225E+02 0.14972771413E+02 0.15063965579E+02
 0.15250563322E+02 0.15580159656E+02 0.16110517135E+02 0.16919401415E+02 0.18116249415E+02
 0.19845023160E+02 0.22265234472E+02 0.25516362972E+02 0.29932568310E+02 0.35914751225E+02
 0.43542559957E+02 0.52554378333E+02 0.62464755898E+02 0.72744400013E+02 0.82959905776E+02
 0.92795646683E+02 0.10195935898E+03 0.11005429146E+03 0.11652725615E+03 0.12075346826E+03
 0.12222724976E+03 0.12075346826E+03 0.11652725615E+03 0.11005429146E+03 0.10195935898E+03
 0.92795646683E+02 0.82959905776E+02 0.72744400013E+02 0.62464755898E+02 0.52554378333E+02
 0.43542559957E+02 0.35914751225E+02 0.29932568310E+02 0.25516362972E+02 0.22265234472E+02
 0.19845023160E+02 0.18116249415E+02 0.16919401415E+02 0.16110517135E+02 0.15580159656E+02
 0.15250563322E+02 0.15063965579E+02 0.14972771413E+02 0.14937016225E+02 0.12957140511E+02
 0.12993723306E+02 0.13111594336E+02 0.13333094366E+02 0.13690979865E+02 0.14228042520E+02
 0.15004260269E+02 0.16110517135E+02 0.17681114395E+02 0.19891294505E+02 0.22923231048E+02
 0.27009619901E+02 0.32686666580E+02 0.40283488460E+02 0.49684639333E+02 0.60380042846E+02
 0.71676273491E+02 0.82959905776E+02 0.93863038559E+02 0.10423512146E+03 0.11394783210E+03
 0.12267152482E+03 0.12978595397E+03 0.13450595751E+03 0.13616630764E+03 0.13450595751E+03
 0.12978595397E+03 0.12267152482E+03 0.11394783210E+03 0.10423512146E+03 0.93863038559E+02
 0.82959905776E+02 0.71676273491E+02 0.60380042846E+02 0.49684639333E+02 0.40283488460E+02
 0.32686666580E+02 0.27009619901E+02 0.22923231048E+02 0.19891294505E+02 0.17681114395E+02
 0.16110517135E+02 0.15004260269E+02 0.14228042520E+02 0.13690979865E+02 0.13333094366E+02
 0.13111594336E+02 0.12993723306E+02 0.11564227173E+02 0.11619434284E+02 0.11791980684E+02
 0.12101242046E+02 0.12577223390E+02 0.13263464589E+02 0.14228042520E+02 0.15580159656E+02
 0.17482190251E+02 0.20139961034E+02 0.23758682015E+02 0.28763116393E+02 0.35775088399E+02
 0.45000762895E+02 0.56097342232E+02 0.68300918062E+02 0.80743539637E+02 0.92795646683E+02
 0.10423512146E+03 0.11513714859E+03 0.12555137659E+03 0.13517323613E+03 0.14323002671E+03
 0.14867703980E+03 0.15061150875E+03 0.14867703980E+03 0.14323002671E+03 0.13517323613E+03
 0.12555137659E+03 0.11513714859E+03 0.10423512146E+03 0.92795646683E+02 0.80743539637E+02
 0.68300918062E+02 0.56097342232E+02 0.45000762895E+02 0.35775088399E+02 0.28763116393E+02
 0.23758682015E+02 0.20139961034E+02 0.17482190251E+02 0.15580159656E+02 0.14228042520E+02
 0.13263464589E+02 0.12577223390E+02 0.12101242046E+02 0.11791980684E+02 0.11619434284E+02
 0.10573591006E+02 0.10641306660E+02 0.10850825300E+02 0.11220400631E+02 0.11780046234E+02
 0.12577223390E+02 0.13690979865E+02 0.15250563322E+02 0.17446062836E+02 0.20510292399E+02
 0.24698020819E+02 0.30641393067E+02 0.38963900365E+02 0.49727826062E+02 0.62359883348E+02
 0.75867078224E+02 0.89259712477E+02 0.10195935898E+03 0.11394783210E+03 0.12555137659E+03
 0.13697690375E+03 0.14788120549E+03 0.15724997424E+03 0.16368958763E+03 0.16599461726E+03
 0.16368958763E+03 0.15724997424E+03 0.14788120549E+03 0.13697690375E+03 0.12555137659E+03
 0.11394783210E+03 0.10195935898E+03 0.89259712477E+02 0.75867078224E+02 0.62359883348E+02
 0.49727826062E+02 0.38963900365E+02 0.30641393067E+02 0.24698020819E+02 0.20510292399E+02
 0.17446062836E+02 0.15250563322E+02 0.13690979865E+02 0.12577223390E+02 0.11780046234E+02
 0.11220400631E+02 0.10850825300E+02 0.10641306660E+02 0.98771065024E+01 0.99533860654E+01
 0.10188406006E+02 0.10600294043E+02 0.11220400631E+02 0.12101242046E+02 0.13333094366E+02
 0.15063965579E+02 0.17508361366E+02 0.20920702511E+02 0.25636881091E+02 0.32449846886E+02
 0.41949143095E+02 0.54055400483E+02 0.67989710950E+02 0.82575884292E+02 0.96757744325E+02
 0.11005429146E+03 0.12267152482E+03 0.13517323613E+03 0.14788120549E+03 0.16035635277E+03
 0.17128666576E+03 0.17888606630E+03 0.18162024653E+03 0.17888606630E+03 0.17128666576E+03
 0.16035635277E+03 0.14788120549E+03 0.13517323613E+03 0.12267152482E+03 0.11005429146E+03
 0.96757744325E+02 0.82575884292E+02 0.67989710950E+02 0.54055400483E+02 0.41949143095E+02
 0.32449846886E+02 0.25636881091E+02 0.20920702511E+02 0.17508361366E+02 0.15063965579E+02
 0.13333094366E+02 0.12101242046E+02 0.11220400631E+02 0.10600294043E+02 0.10188406006E+02
 0.99533860654E+01 0.94133018180E+01 0.94953274645E+01 0.97475629007E+01 0.10188406006E+02
 0.10850825300E+02 0.11791980684E+02 0.13111594336E+02 0.14972771413E+02 0.17608929675E+02
 0.21290095484E+02 0.26444837939E+02 0.33964235514E+02 0.44399075135E+02 0.57552216187E+02
 0.72485509161E+02 0.87894520360E+02 0.10269901915E+03 0.11652725615E+03 0.12978595397E+03
 0.14323002671E+03 0.15724997424E+03 0.17128666576E+03 0.18373673666E+03 0.19245002725E+03
 0.19559378126E+03 0.19245002725E+03 0.18373673666E+03 0.17128666576E+03 0.15724997424E+03
 0.14323002671E+03 0.12978595397E+03 0.11652725615E+03 0.10269901915E+03 0.87894520360E+02
 0.72485509161E+02 0.57552216187E+02 0.44399075135E+02 0.33964235514E+02 0.26444837939E+02
 0.21290095484E+02 0.17608929675E+02 0.14972771413E+02 0.13111594336E+02 0.11791980684E+02
 0.10850825300E+02 0.10188406006E+02 0.97475629007E+01 0.94953274645E+01 0.91475436550E+01
 0.92329433971E+01 0.94953274645E+01 0.99533860654E+01 0.10641306660E+02 0.11619434284E+02
 0.12993723306E+02 0.14937016225E+02 0.17694645924E+02 0.21546970059E+02 0.26993274140E+02
 0.34974021568E+02 0.46011652644E+02 0.59831705718E+02 0.75396390563E+02 0.91327375789E+02
 0.10654224166E+03 0.12075346826E+03 0.13450595751E+03 0.14867703980E+03 0.16368958763E+03
 0.17888606630E+03 0.19245002725E+03 0.20197301997E+03 0.20541332795E+03 0.20197301997E+03
 0.19245002725E+03 0.17888606630E+03 0.16368958763E+03 0.14867703980E+03 0.13450595751E+03
 0.12075346826E+03 0.10654224166E+03 0.91327375789E+02 0.75396390563E+02 0.59831705718E+02
 0.46011652644E+02 0.34974021568E+02 0.26993274140E+02 0.21546970059E+02 0.17694645924E+02
 0.14937016225E+02 0.12993723306E+02 0.11619434284E+02 0.10641306660E+02 0.99533860654E+01
 0.94953274645E+01 0.92329433971E+01 0.90610241677E+01 0.91475436550E+01 0.94133018180E+01
 0.98771065024E+01 0.10573591006E+02 0.11564227173E+02 0.12957140511E+02 0.14928532820E+02
 0.17727801161E+02 0.21639127051E+02 0.27187671547E+02 0.35328812794E+02 0.46574667048E+02
 0.60623904847E+02 0.76404949214E+02 0.92515586581E+02 0.10787502857E+03 0.12222724976E+03
 0.13616630764E+03 0.15061150875E+03 0.16599461726E+03 0.18162024653E+03 0.19559378126E+03
 0.20541332795E+03 0.20896204802E+03 0.20541332795E+03 0.19559378126E+03 0.18162024653E+03
 0.16599461726E+03 0.15061150875E+03 0.13616630764E+03 0.12222724976E+03 0.10787502857E+03
 0.92515586581E+02 0.76404949214E+02 0.60623904847E+02 0.46574667048E+02 0.35328812794E+02
 0.27187671547E+02 0.21639127051E+02 0.17727801161E+02 0.14928532820E+02 0.12957140511E+02
 0.11564227173E+02 0.10573591006E+02 0.98771065024E+01 0.94133018180E+01 0.91475436550E+01
 0.91475436550E+01 0.92329433971E+01 0.94953274645E+01 0.99533860654E+01 0.10641306660E+02
 0.11619434284E+02 0.12993723306E+02 0.14937016225E+02 0.17694645924E+02 0.21546970059E+02
 0.26993274140E+02 0.34974021568E+02 0.46011652644E+02 0.59831705718E+02 0.75396390563E+02
 0.91327375789E+02 0.10654224166E+03 0.12075346826E+03 0.13450595751E+03 0.14867703980E+03
 0.16368958763E+03 0.17888606630E+03 0.19245002725E+03 0.20197301997E+03 0.20541332795E+03
 0.20197301997E+03 0.19245002725E+03 0.17888606630E+03 0.16368958763E+03 0.14867703980E+03
 0.13450595751E+03 0.12075346826E+03 0.10654224166E+03 0.91327375789E+02 0.75396390563E+02
 0.59831705718E+02 0.46011652644E+02 0.34974021568E+02 0.26993274140E+02 0.21546970059E+02
 0.17694645924E+02 0.14937016225E+02 0.12993723306E+02 0.11619434284E+02 0.10641306660E+02
 0.99533860654E+01 0.94953274645E+01 0.92329433971E+01 0.94133018180E+01 0.94953274645E+01
 0.97475629007E+01 0.10188406006E+02 0.10850825300E+02 0.11791980684E+02 0.13111594336E+02
 0.14972771413E+02 0.17608929675E+02 0.21290095484E+02 0.26444837939E+02 0.33964235514E+02
 0.44399075135E+02 0.57552216187E+02 0.72485509161E+02 0.87894520360E+02 0.10269901915E+03
 0.11652725615E+03 0.12978595397E+03 0.14323002671E+03 0.15724997424E+03 0.17128666576E+03
 0.18373673666E+03 0.19245002725E+03 0.19559378126E+03 0.19245002725E+03 0.18373673666E+03
 0.17128666576E+03 0.15724997424E+03 0.14323002671E+03 0.12978595397E+03 0.11652725615E+03
 0.10269901915E+03 0.87894520360E+02 0.72485509161E+02 0.57552216187E+02 0.44399075135E+02
 0.33964235514E+02 0.26444837939E+02 0.21290095484E+02 0.17608929675E+02 0.14972771413E+02
 0.13111594336E+02 0.11791980684E+02 0.10850825300E+02 0.10188406006E+02 0.97475629007E+01
 0.94953274645E+01 0.98771065024E+01 0.99533860654E+01 0.10188406006E+02 0.10600294043E+02
 0.11220400631E+02 0.12101242046E+02 0.13333094366E+02 0.15063965579E+02 0.17508361366E+02
 0.20920702511E+02 0.25636881091E+02 0.32449846886E+02 0.41949143095E+02 0.54055400483E+02
 0.67989710950E+02 0.82575884292E+02 0.96757744325E+02 0.11005429146E+03 0.12267152482E+03
 0.13517323613E+03 0.14788120549E+03 0.16035635277E+03 0.17128666576E+03 0.17888606630E+03
 0.18162024653E+03 0.17888606630E+03 0.17128666576E+03 0.16035635277E+03 0.14788120549E+03
 0.13517323613E+03 0.12267152482E+03 0.11005429146E+03 0.96757744325E+02 0.82575884292E+02
 0.67989710950E+02 0.54055400483E+02 0.41949143095E+02 0.32449846886E+02 0.25636881091E+02
 0.20920702511E+02 0.17508361366E+02 0.15063965579E+02 0.13333094366E+02 0.12101242046E+02
 0.11220400631E+02 0.10600294043E+02 0.10188406006E+02 0.99533860654E+01 0.10573591006E+02
 0.10641306660E+02 0.10850825300E+02 0.11220400631E+02 0.11780046234E+02 0.12577223390E+02
 0.13690979865E+02 0.15250563322E+02 0.17446062836E+02 0.20510292399E+02 0.24698020819E+02
 0.30641393067E+02 0.38963900365E+02 0.49727826062E+02 0.62359883348E+02 0.75867078224E+02
 0.89259712477E+02 0.10195935898E+03 0.11394783210E+03 0.12555137659E+03 0.13697690375E+03
 0.14788120549E+03 0.15724997424E+03 0.16368958763E+03 0.16599461726E+03 0.16368958763E+03
 0.15724997424E+03 0.14788120549E+03 0.13697690375E+03 0.12555137659E+03 0.11394783210E+03
 0.10195935898E+03 0.89259712477E+02 0.75867078224E+02 0.62359883348E+02 0.49727826062E+02
 0.38963900365E+02 0.30641393067E+02 0.24698020819E+02 0.20510292399E+02 0.17446062836E+02
 0.15250563322E+02 0.13690979865E+02 0.12577223390E+02 0.11780046234E+02 0.11220400631E+02
 0.10850825300E+02 0.10641306660E+02 0.11564227173E+02 0.11619434284E+02 0.11791980684E+02
 0.12101242046E+02 0.12577223390E+02 0.13263464589E+02 0.14228042520E+02 0.15580159656E+02
 0.17482190251E+02 0.20139961034E+02 0.23758682015E+02 0.28763116393E+02 0.35775088399E+02
 0.45000762895E+02 0.56097342232E+02 0.68300918062E+02 0.80743539637E+02 0.92795646683E+02
 0.10423512146E+03 0.11513714859E+03 0.12555137659E+03 0.13517323613E+03 0.14323002671E+03
 0.14867703980E+03 0.15061150875E+03 0.14867703980E+03 0.14323002671E+03 0.13517323613E+03
 0.12555137659E+03 0.11513714859E+03 0.10423512146E+03 0.92795646683E+02 0.80743539637E+02
 0.68300918062E+02 0.56097342232E+02 0.45000762895E+02 0.35775088399E+02 0.28763116393E+02
 0.23758682015E+02 0.20139961034E+02 0.17482190251E+02 0.15580159656E+02 0.14228042520E+02
 0.13263464589E+02 0.12577223390E+02 0.12101242046E+02 0.11791980684E+02 0.11619434284E+02
 0.12957140511E+02 0.12993723306E+02 0.13111594336E+02 0.13333094366E+02 0.13690979865E+02
 0.14228042520E+02 0.15004260269E+02 0.16110517135E+02 0.17681114395E+02 0.19891294505E+02
 0.22923231048E+02 0.27009619901E+02 0.32686666580E+02 0.40283488460E+02 0.49684639333E+02
 0.60380042846E+02 0.71676273491E+02 0.82959905776E+02 0.93863038559E+02 0.10423512146E+03
 0.11394783210E+03 0.12267152482E+03 0.12978595397E+03 0.13450595751E+03 0.13616630764E+03
 0.13450595751E+03 0.12978595397E+03 0.12267152482E+03 0.11394783210E+03 0.10423512146E+03
 0.93863038559E+02 0.82959905776E+02 0.71676273491E+02 0.60380042846E+02 0.49684639333E+02
 0.40283488460E+02 0.32686666580E+02 0.27009619901E+02 0.22923231048E+02 0.19891294505E+02
 0.17681114395E+02 0.16110517135E+02 0.15004260269E+02 0.14228042520E+02 0.13690979865E+02
 0.13333094366E+02 0.13111594336E+02 0.12993723306E+02 0.14928532820E+02 0.14937016225E+02
 0.14972771413E+02 0.15063965579E+02 0.15250563322E+02 0.15580159656E+02 0.16110517135E+02
 0.16919401415E+02 0.18116249415E+02 0.19845023160E+02 0.22265234472E+02 0.25516362972E+02
 0.29932568310E+02 0.35914751225E+02 0.43542559957E+02 0.52554378333E+02 0.62464755898E+02
 0.72744400013E+02 0.82959905776E+02 0.92795646683E+02 0.10195935898E+03 0.11005429146E+03
 0.11652725615E+03 0.12075346826E+03 0.12222724976E+03 0.12075346826E+03 0.11652725615E+03
 0.11005429146E+03 0.10195935898E+03 0.92795646683E+02 0.82959905776E+02 0.72744400013E+02
 0.62464755898E+02 0.52554378333E+02 0.43542559957E+02 0.35914751225E+02 0.29932568310E+02
 0.25516362972E+02 0.22265234472E+02 0.19845023160E+02 0.18116249415E+02 0.16919401415E+02
 0.16110517135E+02 0.15580159656E+02 0.15250563322E+02 0.15063965579E+02 0.14972771413E+02
 0.14937016225E+02 0.17727801161E+02 0.17694645924E+02 0.17608929675E+02 0.17508361366E+02
 0.17446062836E+02 0.17482190251E+02 0.17681114395E+02 0.18116249415E+02 0.18879318043E+02
 0.20086197441E+02 0.21869321769E+02 0.24348071445E+02 0.27654261230E+02 0.32134103124E+02
 0.38006984723E+02 0.45223083984E+02 0.53507720718E+02 0.62464755898E+02 0.71676273491E+02
 0.80743539637E+02 0.89259712477E+02 0.96757744325E+02 0.10269901915E+03 0.10654224166E+03
 0.10787502857E+03 0.10654224166E+03 0.10269901915E+03 0.96757744325E+02 0.89259712477E+02
 0.80743539637E+02 0.71676273491E+02 0.62464755898E+02 0.53507720718E+02 0.45223083984E+02
 0.38006984723E+02 0.32134103124E+02 0.27654261230E+02 0.24348071445E+02 0.21869321769E+02
 0.20086197441E+02 0.18879318043E+02 0.18116249415E+02 0.17681114395E+02 0.17482190251E+02
 0.17446062836E+02 0.17508361366E+02 0.17608929675E+02 0.17694645924E+02 0.21639127051E+02
 0.21546970059E+02 0.21290095484E+02 0.20920702511E+02 0.20510292399E+02 0.20139961034E+02
 0.19891294505E+02 0.19845023160E+02 0.20086197441E+02 0.20710433695E+02 0.21823703093E+02
 0.23528600856E+02 0.25895757869E+02 0.29067657272E+02 0.33310736993E+02 0.38726854961E+02
 0.45223083984E+02 0.52554378333E+02 0.60380042846E+02 0.68300918062E+02 0.75867078224E+02
 0.82575884292E+02 0.87894520360E+02 0.91327375789E+02 0.92515586581E+02 0.91327375789E+02
 0.87894520360E+02 0.82575884292E+02 0.75867078224E+02 0.68300918062E+02 0.60380042846E+02
 0.52554378333E+02 0.45223083984E+02 0.38726854961E+02 0.33310736993E+02 0.29067657272E+02
 0.25895757869E+02 0.23528600856E+02 0.21823703093E+02 0.20710433695E+02 0.20086197441E+02