   4   4   0   0
  0.1371800E+02  0.3800000E-09  0.3800000E-09  0.3800000E-09  0.5000000E-15
  1.000000000000000E-004
  CAR 
 unknown system                          
     19.44582002     -3.83467769  301      9.49756301      1.00000000
     -3.835  0.0000E+00  0.0000E+00
     -3.757  0.0000E+00  0.0000E+00
     -3.679  0.0000E+00  0.0000E+00
     -3.602  0.0000E+00  0.0000E+00
     -3.524  0.0000E+00  0.0000E+00
     -3.447  0.0000E+00  0.0000E+00
     -3.369  0.0000E+00  0.0000E+00
     -3.291  0.0000E+00  0.0000E+00
     -3.214  0.0000E+00  0.0000E+00
     -3.136  0.0000E+00  0.0000E+00
     -3.059  0.0000E+00  0.0000E+00
     -2.981  0.0000E+00  0.0000E+00
     -2.903  0.0000E+00  0.0000E+00
     -2.826  0.0000E+00  0.0000E+00
     -2.748  0.0000E+00  0.0000E+00
     -2.671  0.0000E+00  0.0000E+00
     -2.593  0.0000E+00  0.0000E+00
     -2.515  0.0000E+00  0.0000E+00
     -2.438  0.0000E+00  0.0000E+00
     -2.360  0.0000E+00  0.0000E+00
     -2.283  0.0000E+00  0.0000E+00
     -2.205  0.0000E+00  0.0000E+00
     -2.127  0.0000E+00  0.0000E+00
     -2.050  0.0000E+00  0.0000E+00
     -1.972  0.0000E+00  0.0000E+00
     -1.895  0.0000E+00  0.0000E+00
     -1.817  0.2740E-03  0.1612E-05
     -1.739  0.7986E-02  0.2536E-03
     -1.662  0.2630E-01  0.1515E-02
     -1.584  0.5522E-01  0.4610E-02
     -1.507  0.9436E-01  0.1036E-01
     -1.429  0.1289E+00  0.1909E-01
     -1.351  0.1527E+00  0.3009E-01
     -1.274  0.1656E+00  0.4251E-01
     -1.196  0.1690E+00  0.5553E-01
     -1.119  0.1752E+00  0.6885E-01
     -1.041  0.1863E+00  0.8284E-01
     -0.963  0.2023E+00  0.9789E-01
     -0.886  0.2209E+00  0.1143E+00
     -0.808  0.2403E+00  0.1322E+00
     -0.731  0.2606E+00  0.1516E+00
     -0.653  0.2815E+00  0.1727E+00
     -0.575  0.2993E+00  0.1952E+00
     -0.498  0.3124E+00  0.2190E+00
     -0.420  0.3210E+00  0.2436E+00
     -0.343  0.3322E+00  0.2689E+00
     -0.265  0.3483E+00  0.2953E+00
     -0.187  0.3683E+00  0.3231E+00
     -0.110  0.3859E+00  0.3523E+00
     -0.032  0.4040E+00  0.3830E+00
      0.045  0.4227E+00  0.4151E+00
      0.123  0.4419E+00  0.4486E+00
      0.201  0.4616E+00  0.4836E+00
      0.278  0.4819E+00  0.5203E+00
      0.356  0.5040E+00  0.5585E+00
      0.433  0.5316E+00  0.5986E+00
      0.511  0.5620E+00  0.6410E+00
      0.589  0.6697E+00  0.6877E+00
      0.666  0.8173E+00  0.7455E+00
      0.744  0.9539E+00  0.8143E+00
      0.821  0.1008E+01  0.8937E+00
      0.899  0.9346E+00  0.9689E+00
      0.977  0.1015E+01  0.1044E+01
      1.054  0.1093E+01  0.1126E+01
      1.132  0.1409E+01  0.1222E+01
      1.209  0.2231E+01  0.1356E+01
      1.287  0.2229E+01  0.1564E+01
      1.365  0.1379E+01  0.1701E+01
      1.442  0.1561E+01  0.1814E+01
      1.520  0.1814E+01  0.1944E+01
      1.597  0.2367E+01  0.2105E+01
      1.675  0.3065E+01  0.2313E+01
      1.753  0.3360E+01  0.2566E+01
      1.830  0.4171E+01  0.2863E+01
      1.908  0.4654E+01  0.3205E+01
      1.985  0.4924E+01  0.3578E+01
      2.063  0.5398E+01  0.3977E+01
      2.141  0.5342E+01  0.4391E+01
      2.218  0.5381E+01  0.4806E+01
      2.296  0.6189E+01  0.5261E+01
      2.373  0.5442E+01  0.5723E+01
      2.451  0.4803E+01  0.6107E+01
      2.529  0.4832E+01  0.6481E+01
      2.606  0.4896E+01  0.6859E+01
      2.684  0.4888E+01  0.7239E+01
      2.761  0.4894E+01  0.7618E+01
      2.839  0.6026E+01  0.8032E+01
      2.917  0.6353E+01  0.8531E+01
      2.994  0.3309E+01  0.8998E+01
      3.072  0.3145E+01  0.9249E+01
      3.149  0.2911E+01  0.9481E+01
      3.227  0.2776E+01  0.9702E+01
      3.305  0.2683E+01  0.9913E+01
      3.382  0.2627E+01  0.1012E+02
      3.460  0.2736E+01  0.1033E+02
      3.537  0.2997E+01  0.1055E+02
      3.615  0.6663E+01  0.1093E+02
      3.693  0.4726E+01  0.1132E+02
      3.770  0.4896E+01  0.1169E+02
      3.848  0.4699E+01  0.1206E+02
      3.925  0.4799E+01  0.1242E+02
      4.003  0.4597E+01  0.1279E+02
      4.081  0.4522E+01  0.1315E+02
      4.158  0.4503E+01  0.1350E+02
      4.236  0.4490E+01  0.1385E+02
      4.313  0.4586E+01  0.1420E+02
      4.391  0.4860E+01  0.1457E+02
      4.469  0.4439E+01  0.1494E+02
      4.546  0.4345E+01  0.1528E+02
      4.624  0.5421E+01  0.1565E+02
      4.702  0.4659E+01  0.1603E+02
      4.779  0.9739E+01  0.1648E+02
      4.857  0.6029E+01  0.1705E+02
      4.934  0.4841E+01  0.1748E+02
      5.012  0.5108E+01  0.1786E+02
      5.090  0.6485E+01  0.1837E+02
      5.167  0.6270E+01  0.1886E+02
      5.245  0.9761E+01  0.1948E+02
      5.322  0.8594E+01  0.2022E+02
      5.400  0.8587E+01  0.2089E+02
      5.478  0.8369E+01  0.2156E+02
      5.555  0.6100E+01  0.2214E+02
      5.633  0.5120E+01  0.2259E+02
      5.710  0.3322E+01  0.2292E+02
      5.788  0.3140E+01  0.2315E+02
      5.866  0.3834E+01  0.2343E+02
      5.943  0.3871E+01  0.2373E+02
      6.021  0.3645E+01  0.2402E+02
      6.098  0.3511E+01  0.2430E+02
      6.176  0.4691E+01  0.2461E+02
      6.254  0.7541E+01  0.2509E+02
      6.331  0.5488E+01  0.2552E+02
      6.409  0.5445E+01  0.2594E+02
      6.486  0.5077E+01  0.2635E+02
      6.564  0.4343E+01  0.2675E+02
      6.642  0.4457E+01  0.2708E+02
      6.719  0.4919E+01  0.2744E+02
      6.797  0.4892E+01  0.2781E+02
      6.874  0.5596E+01  0.2821E+02
      6.952  0.4229E+01  0.2858E+02
      7.030  0.3949E+01  0.2890E+02
      7.107  0.3758E+01  0.2920E+02
      7.185  0.3777E+01  0.2949E+02
      7.262  0.3840E+01  0.2978E+02
      7.340  0.4605E+01  0.3017E+02
      7.418  0.4710E+01  0.3053E+02
      7.495  0.5406E+01  0.3090E+02
      7.573  0.4936E+01  0.3137E+02
      7.650  0.4554E+01  0.3174E+02
      7.728  0.4263E+01  0.3210E+02
      7.806  0.4063E+01  0.3243E+02
      7.883  0.3775E+01  0.3274E+02
      7.961  0.3395E+01  0.3302E+02
      8.038  0.3338E+01  0.3328E+02
      8.116  0.3410E+01  0.3354E+02
      8.194  0.3498E+01  0.3381E+02
      8.271  0.3547E+01  0.3409E+02
      8.349  0.3646E+01  0.3436E+02
      8.426  0.3885E+01  0.3466E+02
      8.504  0.4028E+01  0.3496E+02
      8.582  0.4561E+01  0.3529E+02
      8.659  0.4497E+01  0.3566E+02
      8.737  0.4193E+01  0.3601E+02
      8.814  0.4080E+01  0.3633E+02
      8.892  0.4017E+01  0.3664E+02
      8.970  0.4073E+01  0.3695E+02
      9.047  0.4213E+01  0.3727E+02
      9.125  0.5253E+01  0.3764E+02
      9.202  0.5319E+01  0.3807E+02
      9.280  0.7160E+01  0.3855E+02
      9.358  0.6711E+01  0.3912E+02
      9.435  0.6215E+01  0.3962E+02
      9.513  0.5775E+01  0.4009E+02
      9.590  0.5535E+01  0.4052E+02
      9.668  0.6236E+01  0.4096E+02
      9.746  0.4479E+01  0.4140E+02
      9.823  0.3277E+01  0.4170E+02
      9.901  0.2280E+01  0.4189E+02
      9.978  0.1917E+01  0.4206E+02
     10.056  0.1548E+01  0.4219E+02
     10.134  0.1189E+01  0.4230E+02
     10.211  0.1175E+01  0.4239E+02
     10.289  0.1229E+01  0.4250E+02
     10.366  0.1291E+01  0.4260E+02
     10.444  0.1215E+01  0.4270E+02
     10.522  0.9891E+00  0.4278E+02
     10.599  0.1009E+01  0.4286E+02
     10.677  0.1172E+01  0.4296E+02
     10.754  0.1185E+01  0.4305E+02
     10.832  0.1193E+01  0.4314E+02
     10.910  0.1198E+01  0.4324E+02
     10.987  0.1198E+01  0.4333E+02
     11.065  0.1194E+01  0.4342E+02
     11.142  0.1186E+01  0.4351E+02
     11.220  0.1084E+01  0.4360E+02
     11.298  0.1059E+01  0.4369E+02
     11.375  0.1034E+01  0.4377E+02
     11.453  0.1008E+01  0.4385E+02
     11.530  0.9830E+00  0.4392E+02
     11.608  0.1484E+01  0.4402E+02
     11.686  0.7388E+00  0.4412E+02
     11.763  0.7231E+00  0.4418E+02
     11.841  0.7095E+00  0.4423E+02
     11.918  0.7091E+00  0.4429E+02
     11.996  0.7169E+00  0.4434E+02
     12.074  0.7349E+00  0.4440E+02
     12.151  0.7528E+00  0.4446E+02
     12.229  0.7704E+00  0.4452E+02
     12.306  0.7879E+00  0.4458E+02
     12.384  0.8874E+00  0.4464E+02
     12.462  0.9247E+00  0.4471E+02
     12.539  0.9656E+00  0.4479E+02
     12.617  0.1010E+01  0.4486E+02
     12.694  0.1054E+01  0.4494E+02
     12.772  0.3501E+01  0.4505E+02
     12.850  0.1135E+01  0.4515E+02
     12.927  0.1151E+01  0.4524E+02
     13.005  0.1172E+01  0.4533E+02
     13.082  0.1193E+01  0.4542E+02
     13.160  0.1179E+01  0.4551E+02
     13.238  0.1140E+01  0.4560E+02
     13.315  0.1449E+01  0.4570E+02
     13.393  0.9413E+00  0.4578E+02
     13.470  0.9437E+00  0.4585E+02
     13.548  0.9456E+00  0.4593E+02
     13.626  0.9471E+00  0.4600E+02
     13.703  0.9482E+00  0.4607E+02
     13.781  0.9443E+00  0.4615E+02
     13.859  0.9360E+00  0.4622E+02
     13.936  0.9262E+00  0.4629E+02
     14.014  0.9148E+00  0.4636E+02
     14.091  0.9090E+00  0.4644E+02
     14.169  0.9112E+00  0.4651E+02
     14.247  0.9210E+00  0.4658E+02
     14.324  0.9392E+00  0.4665E+02
     14.402  0.9337E+00  0.4672E+02
     14.479  0.9326E+00  0.4679E+02
     14.557  0.9287E+00  0.4687E+02
     14.635  0.9222E+00  0.4694E+02
     14.712  0.9130E+00  0.4701E+02
     14.790  0.9011E+00  0.4708E+02
     14.867  0.8865E+00  0.4715E+02
     14.945  0.8693E+00  0.4722E+02
     15.023  0.8494E+00  0.4728E+02
     15.100  0.8261E+00  0.4735E+02
     15.178  0.8645E+00  0.4742E+02
     15.255  0.8015E+00  0.4748E+02
     15.333  0.7360E+00  0.4754E+02
     15.411  0.6686E+00  0.4760E+02
     15.488  0.6043E+00  0.4764E+02
     15.566  0.5514E+00  0.4769E+02
     15.643  0.5204E+00  0.4773E+02
     15.721  0.5131E+00  0.4777E+02
     15.799  0.5054E+00  0.4781E+02
     15.876  0.4973E+00  0.4785E+02
     15.954  0.2731E+00  0.4788E+02
     16.031  0.1830E+00  0.4789E+02
     16.109  0.1678E+00  0.4791E+02
     16.187  0.1533E+00  0.4792E+02
     16.264  0.1393E+00  0.4793E+02
     16.342  0.1260E+00  0.4794E+02
     16.419  0.1132E+00  0.4795E+02
     16.497  0.1010E+00  0.4796E+02
     16.575  0.8934E-01  0.4797E+02
     16.652  0.7830E-01  0.4797E+02
     16.730  0.6784E-01  0.4798E+02
     16.807  0.5796E-01  0.4798E+02
     16.885  0.4866E-01  0.4799E+02
     16.963  0.3995E-01  0.4799E+02
     17.040  0.3182E-01  0.4799E+02
     17.118  0.2427E-01  0.4800E+02
     17.195  0.1730E-01  0.4800E+02
     17.273  0.1092E-01  0.4800E+02
     17.351  0.5120E-02  0.4800E+02
     17.428  0.7009E-03  0.4800E+02
     17.506  0.0000E+00  0.4800E+02
     17.583  0.0000E+00  0.4800E+02
     17.661  0.0000E+00  0.4800E+02
     17.739  0.0000E+00  0.4800E+02
     17.816  0.0000E+00  0.4800E+02
     17.894  0.0000E+00  0.4800E+02
     17.971  0.0000E+00  0.4800E+02
     18.049  0.0000E+00  0.4800E+02
     18.127  0.0000E+00  0.4800E+02
     18.204  0.0000E+00  0.4800E+02
     18.282  0.0000E+00  0.4800E+02
     18.359  0.0000E+00  0.4800E+02
     18.437  0.0000E+00  0.4800E+02
     18.515  0.0000E+00  0.4800E+02
     18.592  0.0000E+00  0.4800E+02
     18.670  0.0000E+00  0.4800E+02
     18.747  0.0000E+00  0.4800E+02
     18.825  0.0000E+00  0.4800E+02
     18.903  0.0000E+00  0.4800E+02
     18.980  0.0000E+00  0.4800E+02
     19.058  0.0000E+00  0.4800E+02
     19.135  0.0000E+00  0.4800E+02
     19.213  0.0000E+00  0.4800E+02
     19.291  0.0000E+00  0.4800E+02
     19.368  0.0000E+00  0.4800E+02
     19.446  0.0000E+00  0.4800E+02
