    4    4    1    1
  0.1371800E+02  0.3800000E-09  0.3800000E-09  0.3800000E-09  0.5000000E-15
  1.000000000000000E-004
  CAR 
 unknown system                          
     40     20     24
 
  0.0000000E+00  0.0000000E+00  0.0000000E+00  0.2915452E-02
    1       -1.834678   1.000000
    2        1.301609   1.000000
    3        1.301609   1.000000
    4        1.301609   1.000000
    5        1.807813   1.000000
    6        1.807813   1.000000
    7        1.807813   1.000000
    8        5.082726   1.000000
    9        5.082726   1.000000
   10        5.082726   1.000000
   11        7.619111   1.000000
   12        7.619111   1.000000
   13        9.548582   0.998664
   14        9.548582   0.998627
   15        9.548582   0.993437
   16       10.109843   0.326516
   17       10.109843  -0.121019
   18       10.109843  -0.065292
   19       10.109843   0.000000
   20       10.109843   0.000000
   21       10.109843   0.000000
   22       11.144856   0.000000
   23       11.144856   0.000000
   24       11.144856   0.000000
 
  0.1428571E+00  0.0000000E+00  0.0000000E+00  0.1749271E-01
    1       -1.533369   1.000000
    2        1.428051   1.000000
    3        1.528058   1.000000
    4        1.528058   1.000000
    5        1.936347   1.000000
    6        2.009103   1.000000
    7        2.009103   1.000000
    8        4.871111   1.000000
    9        5.247622   1.000000
   10        5.247622   1.000000
   11        7.379505   1.000000
   12        7.703980   1.000000
   13        8.437829   1.000016
   14        8.437829   1.000019
   15        9.182086   0.999286
   16        9.182086   0.980145
   17        9.440176   0.912910
   18        9.685108   0.626501
   19        9.685108   0.170620
   20        9.869271  -0.020679
   21       10.110703   0.000000
   22       10.110703   0.000000
   23       12.952440   0.000000
   24       12.952440   0.000000
 
  0.2857143E+00  0.0000000E+00  0.0000000E+00  0.1749271E-01
    1       -0.675693   1.000000
    2        1.679233   1.000000
    3        2.131058   1.000000
    4        2.131058   1.000000
    5        2.309742   1.000000
    6        2.606924   1.000000
    7        2.606924   1.000000
    8        4.317212   1.000000
    9        5.735007   1.000000
   10        5.735007   1.000000
   11        6.549327   1.000000
   12        6.549327   1.000000
   13        6.764739   1.000000
   14        7.661620   1.000000
   15        7.946793   1.000000
   16        8.244251   1.000000
   17        8.244251   1.000000
   18        8.685986   1.003939
   19        8.685986   1.080734
   20        9.144838   0.935952
   21       10.112604  -0.000852
   22       10.112604  -0.000160
   23       15.218535   0.000000
   24       15.218535   0.000000
 
  0.4285714E+00  0.0000000E+00  0.0000000E+00  0.1749271E-01
    1        0.542028   1.000000
    2        1.540606   1.000000
    3        2.781234   1.000000
    4        2.781234   1.000000
    5        2.889037   1.000000
    6        3.583803   1.000000
    7        3.583803   1.000000
    8        3.599108   1.000000
    9        4.911163   1.000000
   10        4.911163   1.000000
   11        6.119439   1.000000
   12        6.183047   1.000000
   13        6.519561   1.000000
   14        6.519561   1.000000
   15        7.312709   1.000000
   16        7.312709   1.000000
   17        7.544360   1.000000
   18        7.544360   1.000000
   19        8.311657   1.002262
   20        8.738274   1.072006
   21       10.114143  -0.011781
   22       10.114143  -0.011271
   23       17.394306   0.000000
   24       17.445820   0.000000
 
  0.1428571E+00  0.1428571E+00  0.0000000E+00  0.3498542E-01
    1       -1.244009   1.000000
    2        1.659888   1.000000
    3        1.659888   1.000000
    4        1.684836   1.000000
    5        2.130392   1.000000
    6        2.130392   1.000000
    7        2.251464   1.000000
    8        4.783311   1.000000
    9        5.308754   1.000000
   10        5.365278   1.000000
   11        7.323603   1.000000
   12        7.668775   1.000000
   13        7.782510   1.000059
   14        7.783009   1.000063
   15        7.783009   1.000695
   16        8.892519   1.003645
   17        9.160956   0.998640
   18        9.160956   0.986710
   19        9.683609   0.300118
   20        9.683609   0.033055
   21        9.841315  -0.009616
   22       11.823673   0.000000
   23       11.823673   0.000000
   24       14.022158   0.000000
 
  0.2857143E+00  0.1428571E+00  0.0000000E+00  0.6997085E-01
    1       -0.419492   1.000000
    2        1.923619   1.000000
    3        2.165902   1.000000
    4        2.283240   1.000000
    5        2.481926   1.000000
    6        2.705057   1.000000
    7        2.880097   1.000000
    8        4.331262   1.000000
    9        5.655671   1.000000
   10        5.743093   1.000000
   11        6.011466   1.000000
   12        6.348337   1.000000
   13        6.487799   1.000000
   14        6.885863   1.000000
   15        7.966913   1.000000
   16        8.108579   1.000000
   17        8.345821   1.000000
   18        8.679222   1.002209
   19        8.681112   1.111729
   20        9.679115   0.302394
   21        9.699268   0.038421
   22       10.201465  -0.000155
   23       13.733469   0.000000
   24       16.003955   0.000000
 
  0.4285714E+00  0.1428571E+00  0.0000000E+00  0.6997085E-01
    1        0.762052   1.000000
    2        1.772128   1.000000
    3        2.867426   1.000000
    4        2.972081   1.000000
    5        3.023959   1.000000
    6        3.618777   1.000000
    7        3.636930   1.000000
    8        3.681326   1.000000
    9        4.552794   1.000000
   10        4.881335   1.000000
   11        5.550349   1.000000
   12        5.629567   1.000000
   13        6.516108   1.000000
   14        6.898828   1.000000
   15        7.323036   1.000000
   16        7.448609   1.000000
   17        7.538328   1.000000
   18        7.726557   1.000000
   19        8.498341   1.003321
   20        9.189110   1.010852
   21        9.672036   0.075939
   22        9.673024  -0.000884
   23       15.123162   0.000000
   24       15.894329   0.000000
 
  0.2857143E+00  0.2857143E+00  0.0000000E+00  0.3498542E-01
    1        0.308210   1.000000
    2        2.422986   1.000000
    3        2.598442   1.000000
    4        2.598442   1.000000
    5        2.985255   1.000000
    6        2.985255   1.000000
    7        3.461446   1.000000
    8        4.223935   1.000000
    9        5.064807   1.000000
   10        5.064807   1.000000
   11        5.561584   1.000000
   12        5.708939   1.000000
   13        5.954912   1.000000
   14        6.749113   1.000000
   15        7.656854   1.000000
   16        8.095019   1.000000
   17        8.095019   1.000000
   18        8.426964   1.000000
   19        8.673048   1.044370
   20        8.673048   1.161448
   21        9.096226   1.091785
   22       11.810718  -0.000128
   23       11.810718   0.000000
   24       15.059522   0.000000
 
  0.4285714E+00  0.2857143E+00  0.0000000E+00  0.6997085E-01
    1        1.364038   1.000000
    2        2.383327   1.000000
    3        2.990027   1.000000
    4        3.401789   1.000000
    5        3.456333   1.000000
    6        3.775176   1.000000
    7        3.865553   1.000000
    8        3.873913   1.000000
    9        3.884779   1.000000
   10        4.726927   1.000000
   11        4.751914   1.000000
   12        5.227854   1.000000
   13        6.583516   1.000000
   14        6.746066   1.000000
   15        7.149714   1.000000
   16        7.365827   1.000000
   17        7.370671   1.000000
   18        7.547762   1.000000
   19        8.687274   1.003736
   20        8.786177   1.016428
   21        9.312718   0.813681
   22       10.400201  -0.003438
   23       13.112675   0.000000
   24       14.031957   0.000000
 
  0.4285714E+00  0.4285714E+00  0.0000000E+00  0.3498542E-01
    1        2.174540   1.000000
    2        2.990231   1.000000
    3        2.990231   1.000000
    4        3.074062   1.000000
    5        3.929752   1.000000
    6        3.929752   1.000000
    7        3.984695   1.000000
    8        4.247038   1.000000
    9        4.319318   1.000000
   10        4.319318   1.000000
   11        4.434644   1.000000
   12        4.947180   1.000000
   13        6.439473   1.000000
   14        6.729215   1.000000
   15        6.807187   1.000000
   16        6.807187   1.000000
   17        6.923117   1.000000
   18        7.664478   1.000000
   19        7.664478   1.000000
   20        8.045419   1.000000
   21       10.452893  -0.144225
   22       11.662324   0.000000
   23       11.662324   0.000000
   24       12.763794   0.000000
 
  0.1428571E+00  0.1428571E+00  0.1428571E+00  0.2332362E-01
    1       -0.972343   1.000000
    2        1.804690   1.000000
    3        1.804690   1.000000
    4        1.804690   1.000000
    5        2.378253   1.000000
    6        2.378253   1.000000
    7        2.378253   1.000000
    8        4.735368   1.000000
    9        5.394584   1.000000
   10        5.394584   1.000000
   11        7.235569   1.000000
   12        7.235569   1.000000
   13        7.235569   1.000044
   14        7.482573   1.000040
   15        7.482573   1.000148
   16        8.490889   1.007458
   17        8.490889   1.016852
   18        8.490889   1.028487
   19        9.856337   0.124884
   20        9.856337  -0.013041
   21        9.856337  -0.026734
   22       12.707034   0.000000
   23       12.707034   0.000000
   24       12.707034   0.000000
 
  0.2857143E+00  0.1428571E+00  0.1428571E+00  0.6997085E-01
    1       -0.200406   1.000000
    2        2.030178   1.000000
    3        2.262228   1.000000
    4        2.262228   1.000000
    5        2.747660   1.000000
    6        3.003492   1.000000
    7        3.003492   1.000000
    8        4.396578   1.000000
    9        5.609230   1.000000
   10        5.669664   1.000000
   11        5.915258   1.000000
   12        5.915258   1.000000
   13        6.065302   1.000000
   14        7.129942   1.000000
   15        7.688116   1.000000
   16        7.897492   1.000000
   17        7.897492   1.000000
   18        7.916195   1.001974
   19        9.642762   0.578721
   20        9.651512   0.282430
   21        9.651512   0.066454
   22       10.579349  -0.000091
   23       14.313868   0.000000
   24       14.313868   0.000000
 
  0.4285714E+00  0.1428571E+00  0.1428571E+00  0.6997085E-01
    1        0.902872   1.000000
    2        1.858248   1.000000
    3        2.982135   1.000000
    4        2.982135   1.000000
    5        3.270475   1.000000
    6        3.550100   1.000000
    7        3.550100   1.000000
    8        3.845770   1.000000
    9        4.794922   1.000000
   10        4.794922   1.000000
   11        5.290584   1.000000
   12        5.473764   1.000000
   13        6.159374   1.000000
   14        6.855286   1.000000
   15        7.261285   1.000000
   16        7.261285   1.000000
   17        7.472592   1.000000
   18        8.517932   1.000000
   19        8.744894   1.023660
   20        9.147584   1.025238
   21        9.481693   0.555531
   22        9.481693   0.014797
   23       15.610440   0.000000
   24       15.610469   0.000000
 
  0.2857143E+00  0.2857143E+00  0.1428571E+00  0.6997085E-01
    1        0.413513   1.000000
    2        2.377971   1.000000
    3        2.377971   1.000000
    4        2.420377   1.000000
    5        3.401855   1.000000
    6        3.401855   1.000000
    7        3.557778   1.000000
    8        4.444965   1.000000
    9        5.117218   1.000000
   10        5.117218   1.000000
   11        5.535446   1.000000
   12        5.550363   1.000000
   13        5.676842   1.000000
   14        7.199379   1.000000
   15        7.235196   1.000000
   16        7.235196   1.000000
   17        7.247196   1.000000
   18        8.298465   1.000000
   19        9.409183   0.868206
   20        9.414075   0.814271
   21        9.414075   0.683307
   22       11.993073  -0.000060
   23       11.993073   0.000000
   24       15.458569   0.000000
 
  0.4285714E+00  0.2857143E+00  0.1428571E+00  0.1399417E+00
    1        1.277863   1.000000
    2        2.080963   1.000000
    3        2.792105   1.000000
    4        2.856123   1.000000
    5        3.768765   1.000000
    6        3.785732   1.000000
    7        3.948438   1.000000
    8        4.279732   1.000000
    9        4.751373   1.000000
   10        4.777602   1.000000
   11        5.148910   1.000000
   12        5.220737   1.000000
   13        5.929619   1.000000
   14        6.481664   1.000000
   15        6.753824   1.000000
   16        6.850148   1.000000
   17        7.625248   1.000000
   18        8.633810   1.000000
   19        9.079234   1.017190
   20        9.083806   1.027433
   21        9.169585   0.984052
   22       10.273611  -0.002163
   23       13.294398   0.000000
   24       14.332606   0.000000
 
  0.4285714E+00  0.4285714E+00  0.1428571E+00  0.6997085E-01
    1        1.783910   1.000000
    2        2.338996   1.000000
    3        2.338996   1.000000
    4        2.558728   1.000000
    5        4.159540   1.000000
    6        4.398434   1.000000
    7        4.398434   1.000000
    8        4.663124   1.000000
    9        4.839913   1.000000
   10        4.839913   1.000000
   11        5.054500   1.000000
   12        5.299360   1.000000
   13        5.833138   1.000000
   14        6.217827   1.000000
   15        6.217827   1.000000
   16        6.248053   1.000000
   17        7.687112   1.000000
   18        8.362921   1.000000
   19        8.362921   1.010890
   20        8.567516   1.010803
   21       10.293849  -0.116469
   22       11.564889   0.000000
   23       11.564889   0.000000
   24       12.778657   0.000000
 
  0.2857143E+00  0.2857143E+00  0.2857143E+00  0.2332362E-01
    1        0.719950   1.000000
    2        2.232391   1.000000
    3        2.232391   1.000000
    4        2.232391   1.000000
    5        3.943548   1.000000
    6        3.943548   1.000000
    7        3.943548   1.000000
    8        4.965790   1.000000
    9        5.306457   1.000000
   10        5.306457   1.000000
   11        5.306457   1.000000
   12        5.442392   1.000000
   13        5.442392   1.000000
   14        6.453924   1.000000
   15        6.453924   1.000000
   16        6.453924   1.000000
   17        8.099223   1.000000
   18        8.099223   1.000000
   19        9.693933   0.337114
   20        9.693933   0.286585
   21        9.693933  -0.002365
   22       12.634014  -0.000028
   23       12.634014   0.000000
   24       12.634014   0.000000
 
  0.4285714E+00  0.2857143E+00  0.2857143E+00  0.6997085E-01
    1        1.195206   1.000000
    2        1.758117   1.000000
    3        2.214125   1.000000
    4        2.214125   1.000000
    5        4.105356   1.000000
    6        4.105356   1.000000
    7        4.594866   1.000000
    8        5.164030   1.000000
    9        5.241806   1.000000
   10        5.285951   1.000000
   11        5.491554   1.000000
   12        5.723166   1.000000
   13        5.723166   1.000000
   14        5.842706   1.000000
   15        6.099946   1.000000
   16        6.099946   1.000000
   17        8.568047   1.000000
   18        8.936069   1.000000
   19        9.421087   0.952831
   20        9.421087   0.951900
   21        9.531029   0.303166
   22       10.211369  -0.000475
   23       13.347269   0.000000
   24       13.347269   0.000000
 
  0.4285714E+00  0.4285714E+00  0.2857143E+00  0.6997085E-01
    1        1.305161   1.000000
    2        1.658021   1.000000
    3        1.658021   1.000000
    4        1.808510   1.000000
    5        4.466811   1.000000
    6        4.636337   1.000000
    7        4.636337   1.000000
    8        5.058435   1.000000
    9        5.294332   1.000000
   10        5.523769   1.000000
   11        5.523769   1.000000
   12        5.594372   1.000000
   13        6.235370   1.000000
   14        6.255026   1.000000
   15        6.255026   1.000000
   16        6.453763   1.000000
   17        8.635640   1.000000
   18        9.231865   1.000000
   19        9.231865   1.045913
   20        9.271081   1.039853
   21        9.827004  -0.017022
   22       11.192355   0.000000
   23       11.192355   0.000000
   24       12.312198   0.000000
 
  0.4285714E+00  0.4285714E+00  0.4285714E+00  0.2332362E-01
    1        1.123109   1.000000
    2        1.296834   1.000000
    3        1.296834   1.000000
    4        1.296834   1.000000
    5        4.843496   1.000000
    6        4.843496   1.000000
    7        4.843496   1.000000
    8        5.064934   1.000000
    9        5.064934   1.000000
   10        5.171180   1.000000
   11        5.171180   1.000000
   12        5.171180   1.000000
   13        7.526863   1.000000
   14        7.526863   1.000000
   15        7.526863   1.000000
   16        7.762682   1.000000
   17        9.351028   1.000000
   18        9.351028   1.000000
   19        9.591132   0.407601
   20        9.591132   0.367664
   21        9.591133   0.000000
   22       10.641102   0.000000
   23       10.641102   0.000000
   24       10.641102   0.000000
