       N       E                     dE             d eps       ncg     rms          rms(c)
DAV:   1     0.486523159064E+03    0.48652E+03   -0.18533E+04   960   0.166E+03
DAV:   2     0.587140015284E+01   -0.48065E+03   -0.46836E+03   960   0.549E+02
DAV:   3    -0.235840262523E+02   -0.29455E+02   -0.28613E+02  1304   0.132E+02
DAV:   4    -0.245416991403E+02   -0.95767E+00   -0.95056E+00  1032   0.284E+01
DAV:   5    -0.245642212420E+02   -0.22522E-01   -0.22520E-01  1160   0.300E+00    0.715E+00
RMM:   6    -0.234012964670E+02    0.11629E+01   -0.20034E+00   960   0.158E+01    0.276E+00
RMM:   7    -0.232259221628E+02    0.17537E+00   -0.10538E+00   972   0.860E+00    0.503E-01
RMM:   8    -0.232083776037E+02    0.17545E-01   -0.52898E-02  1009   0.248E+00    0.156E-01
RMM:   9    -0.232079316633E+02    0.44594E-03   -0.72563E-03  1028   0.386E-01    0.381E-02
RMM:  10    -0.232079959337E+02   -0.64270E-04   -0.45414E-04  1022   0.223E-01    0.377E-02
RMM:  11    -0.232079746489E+02    0.21285E-04   -0.14185E-04   977   0.133E-01    0.790E-04
RMM:  12    -0.232079749462E+02   -0.29737E-06   -0.10446E-05   518   0.168E-02
   1 F= -.23207975E+02 E0= -.23207975E+02  d E =0.000000E+00
