unknown system                          
   1.00000000000000     
     2.573869    0.000000    0.000000
     1.286934    2.229036    0.000000
     0.000000    0.000000   30.304665
   Cu   H 
     4     1
Direct
  0.000000  0.000000  0.396427
  0.333332  0.333332  0.465162
  0.666668  0.666665  0.533889
  0.000000  0.000000  0.606712
  0.666668  0.666665  0.638129
 
   20   20  240
 0.47508E-01 0.43649E-01 0.34155E-01 0.22681E-01 0.12769E-01 0.63304E-02 0.30034E-02 0.97095E-03 -.11463E-02 -.31375E-02
 -.39349E-02 -.30806E-02 -.11463E-02 0.10377E-02 0.33211E-02 0.66727E-02 0.12768E-01 0.22485E-01 0.34205E-01 0.43894E-01
 0.43649E-01 0.37104E-01 0.27210E-01 0.16907E-01 0.86626E-02 0.35495E-02 0.51930E-03 -.22184E-02 -.48653E-02 -.60677E-02
 -.51627E-02 -.31026E-02 -.10371E-02 0.91066E-03 0.34719E-02 0.79217E-02 0.15663E-01 0.26574E-01 0.37562E-01 0.44095E-01
 0.34155E-01 0.27210E-01 0.18569E-01 0.10071E-01 0.34699E-02 -.10001E-02 -.49452E-02 -.92789E-02 -.12537E-01 -.12964E-01
 -.10959E-01 -.81019E-02 -.49907E-02 -.13183E-02 0.31976E-02 0.92080E-02 0.17591E-01 0.27390E-01 0.35085E-01 0.37421E-01
 0.22681E-01 0.16907E-01 0.10071E-01 0.34006E-02 -.20942E-02 -.73440E-02 -.13891E-01 -.20719E-01 -.24695E-01 -.24276E-01
 -.20616E-01 -.15165E-01 -.85494E-02 -.17347E-02 0.42695E-02 0.10058E-01 0.16822E-01 0.23516E-01 0.27235E-01 0.26590E-01
 0.12769E-01 0.86626E-02 0.34699E-02 -.20942E-02 -.82617E-02 -.16725E-01 -.27386E-01 -.36422E-01 -.39687E-01 -.36543E-01
 -.28918E-01 -.18764E-01 -.82630E-02 -.14274E-03 0.47237E-02 0.84299E-02 0.12764E-01 0.16462E-01 0.17429E-01 0.15778E-01
 0.63304E-02 0.35495E-02 -.10001E-02 -.73440E-02 -.16725E-01 -.29936E-01 -.43722E-01 -.52051E-01 -.51569E-01 -.43558E-01
 -.31086E-01 -.17275E-01 -.58608E-02 0.46778E-03 0.29418E-02 0.50742E-02 0.79104E-02 0.95609E-02 0.91287E-02 0.78613E-02
 0.30034E-02 0.51930E-03 -.49452E-02 -.13891E-01 -.27386E-01 -.43722E-01 -.56780E-01 -.60733E-01 -.54966E-01 -.42740E-01
 -.27667E-01 -.13483E-01 -.40642E-02 -.34049E-03 0.86838E-03 0.25448E-02 0.40461E-02 0.38889E-02 0.31050E-02 0.31733E-02
 0.97095E-03 -.22184E-02 -.92789E-02 -.20719E-01 -.36422E-01 -.52051E-01 -.60733E-01 -.59294E-01 -.49948E-01 -.36301E-01
 -.21384E-01 -.90138E-02 -.24250E-02 -.77211E-03 -.48061E-03 -.18825E-03 -.97641E-03 -.22575E-02 -.17207E-02 0.41771E-03
 -.11463E-02 -.48653E-02 -.12537E-01 -.24695E-01 -.39687E-01 -.51569E-01 -.54966E-01 -.49948E-01 -.39688E-01 -.26529E-01
 -.13138E-01 -.38824E-02 -.11415E-02 -.25771E-02 -.48731E-02 -.74311E-02 -.99213E-02 -.98502E-02 -.60671E-02 -.18191E-02
 -.31375E-02 -.60677E-02 -.12964E-01 -.24276E-01 -.36543E-01 -.43558E-01 -.42740E-01 -.36301E-01 -.26529E-01 -.14767E-01
 -.47189E-02 -.11616E-02 -.44482E-02 -.10472E-01 -.16134E-01 -.20595E-01 -.21872E-01 -.17661E-01 -.99770E-02 -.42024E-02
 -.39349E-02 -.51627E-02 -.10959E-01 -.20616E-01 -.28918E-01 -.31086E-01 -.27667E-01 -.21384E-01 -.13138E-01 -.47189E-02
 -.11588E-02 -.57263E-02 -.15476E-01 -.25228E-01 -.32629E-01 -.36312E-01 -.33562E-01 -.24199E-01 -.13348E-01 -.63574E-02
 -.30806E-02 -.31026E-02 -.81019E-02 -.15165E-01 -.18764E-01 -.17275E-01 -.13483E-01 -.90138E-02 -.38824E-02 -.11616E-02
 -.57263E-02 -.17524E-01 -.31183E-01 -.42391E-01 -.49635E-01 -.50460E-01 -.42434E-01 -.28445E-01 -.15428E-01 -.71806E-02
 -.11463E-02 -.10371E-02 -.49907E-02 -.85494E-02 -.82630E-02 -.58608E-02 -.40642E-02 -.24250E-02 -.11415E-02 -.44482E-02
 -.15476E-01 -.31183E-01 -.46167E-01 -.57689E-01 -.63524E-01 -.59840E-01 -.46165E-01 -.28794E-01 -.14825E-01 -.59374E-02
 0.10377E-02 0.91066E-03 -.13183E-02 -.17347E-02 -.14274E-03 0.46778E-03 -.34049E-03 -.77211E-03 -.25771E-02 -.10472E-01
 -.25228E-01 -.42391E-01 -.57689E-01 -.68452E-01 -.70554E-01 -.60672E-01 -.42338E-01 -.24161E-01 -.11277E-01 -.31518E-02
 0.33211E-02 0.34719E-02 0.31976E-02 0.42695E-02 0.47237E-02 0.29418E-02 0.86838E-03 -.48061E-03 -.48731E-02 -.16134E-01
 -.32629E-01 -.49635E-01 -.63524E-01 -.70554E-01 -.66292E-01 -.50903E-01 -.31712E-01 -.16403E-01 -.64403E-02 0.68057E-04
 0.66727E-02 0.79217E-02 0.92080E-02 0.10058E-01 0.84299E-02 0.50742E-02 0.25448E-02 -.18825E-03 -.74311E-02 -.20595E-01
 -.36312E-01 -.50460E-01 -.59840E-01 -.60672E-01 -.50903E-01 -.34597E-01 -.19398E-01 -.90010E-02 -.18119E-02 0.36183E-02
 0.12768E-01 0.15663E-01 0.17591E-01 0.16822E-01 0.12764E-01 0.79104E-02 0.40461E-02 -.97641E-03 -.99213E-02 -.21872E-01
 -.33562E-01 -.42434E-01 -.46165E-01 -.42338E-01 -.31712E-01 -.19398E-01 -.99198E-02 -.30910E-02 0.31606E-02 0.87648E-02
 0.22485E-01 0.26574E-01 0.27390E-01 0.23516E-01 0.16462E-01 0.95609E-02 0.38889E-02 -.22575E-02 -.98502E-02 -.17661E-01
 -.24199E-01 -.28445E-01 -.28794E-01 -.24161E-01 -.16403E-01 -.90010E-02 -.30910E-02 0.28988E-02 0.98447E-02 0.16710E-01
 0.34205E-01 0.37562E-01 0.35085E-01 0.27235E-01 0.17429E-01 0.91287E-02 0.31050E-02 -.17207E-02 -.60671E-02 -.99770E-02
 -.13348E-01 -.15428E-01 -.14825E-01 -.11277E-01 -.64403E-02 -.18119E-02 0.31606E-02 0.98447E-02 0.18257E-01 0.27006E-01
 0.43894E-01 0.44095E-01 0.37421E-01 0.26590E-01 0.15778E-01 0.78613E-02 0.31733E-02 0.41771E-03 -.18191E-02 -.42024E-02
 -.63574E-02 -.71806E-02 -.59374E-02 -.31518E-02 0.68057E-04 0.36183E-02 0.87648E-02 0.16710E-01 0.27006E-01 0.37232E-01
 -.22284E-01 -.20519E-01 -.16396E-01 -.10986E-01 -.55751E-02 -.15623E-02 0.35448E-03 0.64401E-03 0.21428E-03 -.39902E-03
 -.84587E-03 -.65821E-03 0.21512E-03 0.95735E-03 0.50152E-03 -.16715E-02 -.55767E-02 -.10905E-01 -.16619E-01 -.20911E-01
 -.20519E-01 -.17613E-01 -.12567E-01 -.71167E-02 -.28658E-02 -.56416E-03 -.49092E-04 -.55078E-03 -.10976E-02 -.10276E-02
 -.34614E-03 0.45163E-03 0.85950E-03 0.52353E-03 -.92326E-03 -.38091E-02 -.80593E-02 -.13001E-01 -.17532E-01 -.20393E-01
 -.16396E-01 -.12567E-01 -.76969E-02 -.38374E-02 -.16594E-02 -.77165E-03 -.74956E-03 -.10823E-02 -.99402E-03 -.27622E-03
 0.30082E-03 0.12124E-03 -.43846E-03 -.98662E-03 -.21171E-02 -.46065E-02 -.82591E-02 -.12208E-01 -.15609E-01 -.17404E-01
 -.10986E-01 -.71167E-02 -.38374E-02 -.21451E-02 -.12418E-02 -.60486E-03 -.56769E-03 -.90674E-03 -.84877E-03 -.59136E-03
 -.98309E-03 -.16911E-02 -.15786E-02 -.93747E-03 -.14447E-02 -.37731E-02 -.69547E-02 -.10020E-01 -.12436E-01 -.13092E-01
 -.55751E-02 -.28658E-02 -.16594E-02 -.12418E-02 -.49430E-03 -.84862E-04 -.84190E-03 -.18471E-02 -.20681E-02 -.20947E-02
 -.24482E-02 -.20833E-02 -.49560E-03 0.54784E-03 -.63632E-03 -.32316E-02 -.55795E-02 -.73968E-02 -.86237E-02 -.81238E-02
 -.15623E-02 -.56416E-03 -.77165E-03 -.60486E-03 -.84862E-04 -.81827E-03 -.26176E-02 -.34680E-02 -.29391E-02 -.24246E-02
 -.20562E-02 -.71673E-03 0.90356E-03 0.68112E-03 -.13584E-02 -.30342E-02 -.36009E-02 -.41555E-02 -.45955E-02 -.35778E-02
 0.35448E-03 -.49092E-04 -.74956E-03 -.56769E-03 -.84190E-03 -.26176E-02 -.40423E-02 -.33809E-02 -.19858E-02 -.15758E-02
 -.12904E-02 -.14218E-03 0.43186E-03 -.70704E-03 -.18499E-02 -.13990E-02 -.69934E-03 -.12187E-02 -.16668E-02 -.68161E-03
 0.64401E-03 -.55078E-03 -.10823E-02 -.90674E-03 -.18471E-02 -.34680E-02 -.33809E-02 -.17434E-02 -.11237E-02 -.18436E-02
 -.17606E-02 -.64646E-03 -.40758E-03 -.96419E-03 -.32910E-03 0.11784E-02 0.11945E-02 -.17400E-03 -.44976E-03 0.57623E-03
 0.21428E-03 -.10976E-02 -.99402E-03 -.84877E-03 -.20681E-02 -.29391E-02 -.19858E-02 -.11237E-02 -.20696E-02 -.29280E-02
 -.17273E-02 -.44848E-04 0.21800E-03 0.30725E-03 0.15384E-02 0.21811E-02 0.83984E-03 -.41302E-03 0.30075E-03 0.11731E-02
 -.39902E-03 -.10276E-02 -.27622E-03 -.59136E-03 -.20947E-02 -.24246E-02 -.15758E-02 -.18436E-02 -.29280E-02 -.21706E-02
 0.25558E-03 0.14062E-02 0.85236E-03 0.94887E-03 0.18856E-02 0.15240E-02 0.14276E-03 0.24563E-03 0.15792E-02 0.13748E-02
 -.84587E-03 -.34614E-03 0.30082E-03 -.98309E-03 -.24482E-02 -.20562E-02 -.12904E-02 -.17606E-02 -.17273E-02 0.25558E-03
 0.19134E-02 0.12143E-02 0.15869E-03 0.95331E-03 0.20390E-02 0.15522E-02 0.10269E-02 0.19605E-02 0.24093E-02 0.74643E-03
 -.65821E-03 0.45163E-03 0.12124E-03 -.16911E-02 -.20833E-02 -.71673E-03 -.14218E-03 -.64646E-03 -.44848E-04 0.14062E-02
 0.12143E-02 -.19189E-03 0.19763E-03 0.23970E-02 0.33774E-02 0.25935E-02 0.23638E-02 0.28191E-02 0.17883E-02 -.28716E-03
 0.21512E-03 0.85950E-03 -.43846E-03 -.15786E-02 -.49560E-03 0.90356E-03 0.43186E-03 -.40758E-03 0.21800E-03 0.85236E-03
 0.15869E-03 0.19763E-03 0.25278E-02 0.46659E-02 0.41761E-02 0.27339E-02 0.25294E-02 0.23142E-02 0.66957E-03 -.54844E-03
 0.95735E-03 0.52353E-03 -.98662E-03 -.93747E-03 0.54784E-03 0.68112E-03 -.70704E-03 -.96419E-03 0.30725E-03 0.94887E-03
 0.95331E-03 0.23970E-02 0.46659E-02 0.48403E-02 0.29594E-02 0.19580E-02 0.23325E-02 0.18197E-02 0.32159E-03 0.84777E-04
 0.50152E-03 -.92326E-03 -.21171E-02 -.14447E-02 -.63632E-03 -.13584E-02 -.18499E-02 -.32910E-03 0.15384E-02 0.18856E-02
 0.20390E-02 0.33774E-02 0.41761E-02 0.29594E-02 0.16800E-02 0.21843E-02 0.27804E-02 0.16376E-02 0.28563E-03 0.40887E-03
 -.16715E-02 -.38091E-02 -.46065E-02 -.37731E-02 -.32316E-02 -.30342E-02 -.13990E-02 0.11784E-02 0.21811E-02 0.15240E-02
 0.15522E-02 0.25935E-02 0.27339E-02 0.19580E-02 0.21843E-02 0.31584E-02 0.26251E-02 0.65616E-03 -.43946E-03 -.52370E-03
 -.55767E-02 -.80593E-02 -.82591E-02 -.69547E-02 -.55795E-02 -.36009E-02 -.69934E-03 0.11945E-02 0.83984E-03 0.14276E-03
 0.10269E-02 0.23638E-02 0.25294E-02 0.23325E-02 0.27804E-02 0.26251E-02 0.84174E-03 -.10522E-02 -.17989E-02 -.28867E-02
 -.10905E-01 -.13001E-01 -.12208E-01 -.10020E-01 -.73968E-02 -.41555E-02 -.12187E-02 -.17400E-03 -.41302E-03 0.24563E-03
 0.19605E-02 0.28191E-02 0.23142E-02 0.18197E-02 0.16376E-02 0.65616E-03 -.10522E-02 -.23646E-02 -.37973E-02 -.69041E-02
 -.16619E-01 -.17532E-01 -.15609E-01 -.12436E-01 -.86237E-02 -.45955E-02 -.16668E-02 -.44976E-03 0.30075E-03 0.15792E-02
 0.24093E-02 0.17883E-02 0.66957E-03 0.32159E-03 0.28563E-03 -.43946E-03 -.17989E-02 -.37973E-02 -.73930E-02 -.12484E-01
 -.20911E-01 -.20393E-01 -.17404E-01 -.13092E-01 -.81238E-02 -.35778E-02 -.68161E-03 0.57623E-03 0.11731E-02 0.13748E-02
 0.74643E-03 -.28716E-03 -.54844E-03 0.84777E-04 0.40887E-03 -.52370E-03 -.28867E-02 -.69041E-02 -.12484E-01 -.17969E-01
 -.47110E-01 -.43076E-01 -.34138E-01 -.22985E-01 -.12369E-01 -.48766E-02 -.12447E-02 0.25924E-03 0.15009E-02 0.24567E-02
 0.24390E-02 0.18806E-02 0.15011E-02 0.81742E-03 -.12698E-02 -.54375E-02 -.12370E-01 -.22627E-01 -.34633E-01 -.44106E-01
 -.43076E-01 -.36817E-01 -.26763E-01 -.15989E-01 -.73917E-02 -.23888E-02 -.89082E-04 0.15444E-02 0.34882E-02 0.51084E-02
 0.55667E-02 0.48250E-02 0.31851E-02 0.66600E-03 -.30293E-02 -.85385E-02 -.16632E-01 -.26996E-01 -.37114E-01 -.43270E-01
 -.34138E-01 -.26763E-01 -.17422E-01 -.92086E-02 -.34596E-02 0.55069E-03 0.43155E-02 0.85505E-02 0.12525E-01 0.14585E-01
 0.13538E-01 0.97822E-02 0.49841E-02 0.43998E-03 -.41017E-02 -.98839E-02 -.17570E-01 -.26227E-01 -.33495E-01 -.36651E-01
 -.22985E-01 -.15989E-01 -.92086E-02 -.39505E-02 0.10747E-02 0.73561E-02 0.14724E-01 0.21705E-01 0.26270E-01 0.26366E-01
 0.21451E-01 0.13750E-01 0.66130E-02 0.13246E-02 -.34174E-02 -.90664E-02 -.15581E-01 -.21889E-01 -.26376E-01 -.27043E-01
 -.12369E-01 -.73917E-02 -.34596E-02 0.10747E-02 0.86340E-02 0.18847E-01 0.29121E-01 0.36940E-01 0.40037E-01 0.36566E-01
 0.27439E-01 0.16886E-01 0.86324E-02 0.27026E-02 -.26688E-02 -.78916E-02 -.12370E-01 -.15913E-01 -.17861E-01 -.16687E-01
 -.48766E-02 -.23888E-02 0.55069E-03 0.73561E-02 0.18847E-01 0.31951E-01 0.43250E-01 0.50471E-01 0.51047E-01 0.43473E-01
 0.30623E-01 0.18132E-01 0.88911E-02 0.19887E-02 -.33718E-02 -.65652E-02 -.80070E-02 -.91173E-02 -.95672E-02 -.79144E-02
 -.12447E-02 -.89082E-04 0.43155E-02 0.14724E-01 0.29121E-01 0.43250E-01 0.54369E-01 0.59964E-01 0.56670E-01 0.44352E-01
 0.28502E-01 0.15167E-01 0.58013E-02 -.54294E-03 -.35205E-02 -.32197E-02 -.22826E-02 -.27389E-02 -.32754E-02 -.24104E-02
 0.25924E-03 0.15444E-02 0.85505E-02 0.21705E-01 0.36940E-01 0.50471E-01 0.59964E-01 0.61802E-01 0.53060E-01 0.36826E-01
 0.20660E-01 0.91584E-02 0.20404E-02 -.12140E-02 -.24445E-03 0.27258E-02 0.37655E-02 0.23095E-02 0.10028E-02 0.67003E-03
 0.15009E-02 0.34882E-02 0.12525E-01 0.26270E-01 0.40037E-01 0.51047E-01 0.56670E-01 0.53060E-01 0.40037E-01 0.23944E-01
 0.11658E-01 0.46107E-02 0.15016E-02 0.25070E-02 0.68958E-02 0.10545E-01 0.10290E-01 0.77719E-02 0.56129E-02 0.34828E-02
 0.24567E-02 0.51084E-02 0.14585E-01 0.26366E-01 0.36566E-01 0.43473E-01 0.44352E-01 0.36826E-01 0.23944E-01 0.12600E-01
 0.63272E-02 0.40906E-02 0.53887E-02 0.10831E-01 0.17755E-01 0.21145E-01 0.19657E-01 0.15999E-01 0.11597E-01 0.61906E-02
 0.24390E-02 0.55667E-02 0.13538E-01 0.21451E-01 0.27439E-01 0.30623E-01 0.28502E-01 0.20660E-01 0.11658E-01 0.63272E-02
 0.51842E-02 0.73922E-02 0.13998E-01 0.24343E-01 0.33170E-01 0.35601E-01 0.32079E-01 0.25330E-01 0.16372E-01 0.70862E-02
 0.18806E-02 0.48250E-02 0.97822E-02 0.13750E-01 0.16886E-01 0.18132E-01 0.15167E-01 0.91584E-02 0.46107E-02 0.40906E-02
 0.73922E-02 0.15247E-01 0.28391E-01 0.42815E-01 0.51305E-01 0.50563E-01 0.42793E-01 0.30896E-01 0.17110E-01 0.58417E-02
 0.15011E-02 0.31851E-02 0.49841E-02 0.66130E-02 0.86324E-02 0.88911E-02 0.58013E-02 0.20404E-02 0.15016E-02 0.53887E-02
 0.13998E-01 0.28391E-01 0.46523E-01 0.61125E-01 0.65524E-01 0.59413E-01 0.46524E-01 0.30235E-01 0.14370E-01 0.40777E-02
 0.81742E-03 0.66600E-03 0.43998E-03 0.13246E-02 0.27026E-02 0.19887E-02 -.54294E-03 -.12140E-02 0.25070E-02 0.10831E-01
 0.24343E-01 0.42815E-01 0.61125E-01 0.71286E-01 0.69627E-01 0.58692E-01 0.42635E-01 0.25011E-01 0.10383E-01 0.26365E-02
 -.12698E-02 -.30293E-02 -.41017E-02 -.34174E-02 -.26688E-02 -.33718E-02 -.35205E-02 -.24445E-03 0.68958E-02 0.17755E-01
 0.33170E-01 0.51305E-01 0.65524E-01 0.69627E-01 0.63300E-01 0.50187E-01 0.33736E-01 0.17528E-01 0.59576E-02 0.68273E-03
 -.54375E-02 -.85385E-02 -.98839E-02 -.90664E-02 -.78916E-02 -.65652E-02 -.32197E-02 0.27258E-02 0.10545E-01 0.21145E-01
 0.35601E-01 0.50563E-01 0.59413E-01 0.58692E-01 0.50187E-01 0.37096E-01 0.22148E-01 0.90642E-02 0.11156E-02 -.25403E-02
 -.12370E-01 -.16632E-01 -.17570E-01 -.15581E-01 -.12370E-01 -.80070E-02 -.22826E-02 0.37655E-02 0.10290E-01 0.19657E-01
 0.32079E-01 0.42793E-01 0.46524E-01 0.42635E-01 0.33736E-01 0.22148E-01 0.10292E-01 0.13874E-02 -.35958E-02 -.74338E-02
 -.22627E-01 -.26996E-01 -.26227E-01 -.21889E-01 -.15913E-01 -.91173E-02 -.27389E-02 0.23095E-02 0.77719E-02 0.15999E-01
 0.25330E-01 0.30896E-01 0.30235E-01 0.25011E-01 0.17528E-01 0.90642E-02 0.13874E-02 -.40429E-02 -.86879E-02 -.15177E-01
 -.34633E-01 -.37114E-01 -.33495E-01 -.26376E-01 -.17861E-01 -.95672E-02 -.32754E-02 0.10028E-02 0.56129E-02 0.11597E-01
 0.16372E-01 0.17110E-01 0.14370E-01 0.10383E-01 0.59576E-02 0.11156E-02 -.35958E-02 -.86879E-02 -.16228E-01 -.26240E-01
 -.44106E-01 -.43270E-01 -.36651E-01 -.27043E-01 -.16687E-01 -.79144E-02 -.24104E-02 0.67003E-03 0.34828E-02 0.61906E-02
 0.70862E-02 0.58417E-02 0.40777E-02 0.26365E-02 0.68273E-03 -.25403E-02 -.74338E-02 -.15177E-01 -.26240E-01 -.37594E-01
 0.21071E-01 0.20249E-01 0.15539E-01 0.96594E-02 0.55705E-02 0.32831E-02 0.15076E-02 0.33482E-03 0.17965E-03 0.10945E-03
 -.56067E-03 -.78312E-03 0.17871E-03 0.11361E-02 0.13090E-02 0.22702E-02 0.55700E-02 0.10295E-01 0.14772E-01 0.18582E-01
 0.20249E-01 0.17150E-01 0.11867E-01 0.71413E-02 0.41078E-02 0.19489E-02 0.22522E-03 -.45075E-03 -.77190E-04 0.40074E-03
 0.63668E-03 0.10480E-02 0.14197E-02 0.11609E-02 0.10258E-02 0.27576E-02 0.67975E-02 0.11834E-01 0.16475E-01 0.19735E-01
 0.15539E-01 0.11867E-01 0.77103E-02 0.42835E-02 0.18394E-02 0.28739E-03 -.18704E-03 0.45600E-03 0.15779E-02 0.23126E-02
 0.23101E-02 0.17163E-02 0.83899E-03 0.28096E-03 0.10136E-02 0.37024E-02 0.79772E-02 0.12579E-01 0.16038E-01 0.17172E-01
 0.96594E-02 0.71413E-02 0.42835E-02 0.17020E-02 0.40370E-03 0.64469E-03 0.16661E-02 0.26864E-02 0.33503E-02 0.32860E-02
 0.22536E-02 0.84211E-03 0.13322E-03 0.60082E-03 0.20688E-02 0.45032E-02 0.77951E-02 0.10887E-01 0.12290E-01 0.11610E-01
 0.55705E-02 0.41078E-02 0.18394E-02 0.40370E-03 0.10901E-02 0.27030E-02 0.34739E-02 0.34775E-02 0.34495E-02 0.29763E-02
 0.17167E-02 0.78180E-03 0.10893E-02 0.18705E-02 0.23972E-02 0.34731E-02 0.55728E-02 0.72885E-02 0.73487E-02 0.64658E-02
 0.32831E-02 0.19489E-02 0.28739E-03 0.64469E-03 0.27030E-02 0.37575E-02 0.32150E-02 0.30264E-02 0.36492E-02 0.34672E-02
 0.23394E-02 0.19053E-02 0.22062E-02 0.17100E-02 0.77599E-03 0.13777E-02 0.33008E-02 0.42609E-02 0.38004E-02 0.34618E-02
 0.15076E-02 0.22522E-03 -.18704E-03 0.16661E-02 0.34739E-02 0.32150E-02 0.27510E-02 0.40441E-02 0.52973E-02 0.43768E-02
 0.26837E-02 0.21261E-02 0.16032E-02 -.24132E-04 -.83961E-03 0.70942E-03 0.25216E-02 0.23656E-02 0.15032E-02 0.16105E-02
 0.33482E-03 -.45075E-03 0.45600E-03 0.26864E-02 0.34775E-02 0.30264E-02 0.40441E-02 0.60837E-02 0.58603E-02 0.32441E-02
 0.14490E-02 0.12357E-02 0.39896E-03 -.10024E-02 -.51779E-03 0.14545E-02 0.17945E-02 0.25139E-03 -.36300E-03 0.40558E-03
 0.17965E-03 -.77190E-04 0.15779E-02 0.33503E-02 0.34495E-02 0.36492E-02 0.52973E-02 0.58603E-02 0.34519E-02 0.77987E-03
 0.57875E-03 0.11152E-02 0.17728E-03 -.61076E-03 0.46180E-03 0.12531E-02 -.21044E-03 -.16979E-02 -.86615E-03 0.47532E-03
 0.10945E-03 0.40074E-03 0.23126E-02 0.32860E-02 0.29763E-02 0.34672E-02 0.43768E-02 0.32441E-02 0.77987E-03 0.23782E-03
 0.15555E-02 0.15711E-02 -.29527E-04 -.52436E-03 0.23394E-03 -.30054E-03 -.18946E-02 -.16369E-02 0.37786E-03 0.10531E-02
 -.56067E-03 0.63668E-03 0.23101E-02 0.22536E-02 0.17167E-02 0.23394E-02 0.26837E-02 0.14490E-02 0.57875E-03 0.15555E-02
 0.21696E-02 0.54025E-03 -.12516E-02 -.10586E-02 -.48432E-03 -.12661E-02 -.16542E-02 -.93377E-04 0.12445E-02 0.39617E-03
 -.78312E-03 0.10480E-02 0.17163E-02 0.84211E-03 0.78180E-03 0.19053E-02 0.21261E-02 0.12357E-02 0.11152E-02 0.15711E-02
 0.54025E-03 -.15142E-02 -.19719E-02 -.81279E-03 -.49134E-03 -.11919E-02 -.82352E-03 0.41426E-03 0.22858E-03 -.10593E-02
 0.17871E-03 0.14197E-02 0.83899E-03 0.13322E-03 0.10893E-02 0.22062E-02 0.16032E-02 0.39896E-03 0.17728E-03 -.29527E-04
 -.12516E-02 -.19719E-02 -.98601E-03 -.36851E-04 -.70692E-03 -.15287E-02 -.98513E-03 -.40260E-03 -.10193E-02 -.12498E-02
 0.11361E-02 0.11609E-02 0.28096E-03 0.60082E-03 0.18705E-02 0.17100E-02 -.24132E-04 -.10024E-02 -.61076E-03 -.52436E-03
 -.10586E-02 -.81279E-03 -.36851E-04 -.51401E-03 -.19498E-02 -.21919E-02 -.11074E-02 -.58801E-03 -.79115E-03 -.12925E-03
 0.13090E-02 0.10258E-02 0.10136E-02 0.20688E-02 0.23972E-02 0.77599E-03 -.83961E-03 -.51779E-03 0.46180E-03 0.23394E-03
 -.48432E-03 -.49134E-03 -.70692E-03 -.19498E-02 -.26554E-02 -.15338E-02 -.95525E-04 0.29003E-04 -.16028E-03 0.59866E-03
 0.22702E-02 0.27576E-02 0.37024E-02 0.45032E-02 0.34731E-02 0.13777E-02 0.70942E-03 0.14545E-02 0.12531E-02 -.30054E-03
 -.12661E-02 -.11919E-02 -.15287E-02 -.21919E-02 -.15338E-02 0.11539E-03 0.60112E-03 -.18247E-03 -.14572E-03 0.11937E-02
 0.55700E-02 0.67975E-02 0.79772E-02 0.77951E-02 0.55728E-02 0.33008E-02 0.25216E-02 0.17945E-02 -.21044E-03 -.18946E-02
 -.16542E-02 -.82352E-03 -.98513E-03 -.11074E-02 -.95525E-04 0.60112E-03 -.20951E-03 -.71373E-03 0.99549E-03 0.37324E-02
 0.10295E-01 0.11834E-01 0.12579E-01 0.10887E-01 0.72885E-02 0.42609E-02 0.23656E-02 0.25139E-03 -.16979E-02 -.16369E-02
 -.93378E-04 0.41426E-03 -.40260E-03 -.58801E-03 0.29003E-04 -.18247E-03 -.71373E-03 0.90350E-03 0.47595E-02 0.82662E-02
 0.14772E-01 0.16475E-01 0.16038E-01 0.12290E-01 0.73487E-02 0.38004E-02 0.15032E-02 -.36300E-03 -.86615E-03 0.37786E-03
 0.12445E-02 0.22858E-03 -.10193E-02 -.79115E-03 -.16028E-03 -.14572E-03 0.99549E-03 0.47595E-02 0.93831E-02 0.12608E-01
 0.18582E-01 0.19735E-01 0.17172E-01 0.11610E-01 0.64658E-02 0.34618E-02 0.16105E-02 0.40558E-03 0.47532E-03 0.10531E-02
 0.39617E-03 -.10593E-02 -.12498E-02 -.12925E-03 0.59866E-03 0.11937E-02 0.37324E-02 0.82662E-02 0.12608E-01 0.15854E-01
 0.47482E-01 0.44909E-01 0.34708E-01 0.22142E-01 0.12770E-01 0.72155E-02 0.33262E-02 0.47320E-03 -.11383E-02 -.24897E-02
 -.39183E-02 -.36981E-02 -.11394E-02 0.15185E-02 0.29543E-02 0.57505E-02 0.12769E-01 0.23056E-01 0.33669E-01 0.42607E-01
 0.44909E-01 0.38106E-01 0.26704E-01 0.16181E-01 0.91119E-02 0.41740E-02 0.11556E-04 -.29896E-02 -.46783E-02 -.56875E-02
 -.56732E-02 -.37634E-02 -.88972E-03 0.11258E-02 0.29666E-02 0.75585E-02 0.16138E-01 0.26871E-01 0.37051E-01 0.44075E-01
 0.34708E-01 0.26704E-01 0.17462E-01 0.98440E-02 0.40231E-02 -.11182E-02 -.58220E-02 -.95477E-02 -.11990E-01 -.12847E-01
 -.11539E-01 -.82593E-02 -.44392E-02 -.10215E-02 0.30124E-02 0.93571E-02 0.18144E-01 0.27593E-01 0.35063E-01 0.37918E-01
 0.22142E-01 0.16181E-01 0.98440E-02 0.38429E-02 -.18149E-02 -.76878E-02 -.14113E-01 -.20230E-01 -.24157E-01 -.24383E-01
 -.20842E-01 -.14787E-01 -.79663E-02 -.16701E-02 0.40430E-02 0.10142E-01 0.17082E-01 0.23501E-01 0.27010E-01 0.26319E-01
 0.12770E-01 0.91119E-02 0.40231E-02 -.18149E-02 -.82674E-02 -.16665E-01 -.27058E-01 -.36095E-01 -.39688E-01 -.36724E-01
 -.28891E-01 -.18546E-01 -.82660E-02 -.50837E-03 0.43492E-02 0.83429E-02 0.12774E-01 0.16206E-01 0.16898E-01 0.15337E-01
 0.72155E-02 0.41740E-02 -.11182E-02 -.76878E-02 -.16665E-01 -.29696E-01 -.43839E-01 -.52431E-01 -.51762E-01 -.43558E-01
 -.31203E-01 -.17545E-01 -.61005E-02 0.28836E-03 0.28117E-02 0.50928E-02 0.80052E-02 0.94820E-02 0.90125E-02 0.82370E-02
 0.33262E-02 0.11556E-04 -.58220E-02 -.14113E-01 -.27058E-01 -.43839E-01 -.57422E-01 -.60987E-01 -.54632E-01 -.42618E-01
 -.28019E-01 -.13637E-01 -.37305E-02 -.35240E-04 0.90853E-03 0.26823E-02 0.43622E-02 0.40935E-02 0.33176E-02 0.36735E-02
 0.47320E-03 -.29896E-02 -.95477E-02 -.20230E-01 -.36095E-01 -.52431E-01 -.60987E-01 -.58748E-01 -.49354E-01 -.36447E-01
 -.21659E-01 -.85977E-02 -.17877E-02 -.72711E-03 -.73728E-03 -.72397E-04 -.69547E-03 -.23261E-02 -.19857E-02 0.19261E-03
 -.11383E-02 -.46783E-02 -.11990E-01 -.24157E-01 -.39688E-01 -.51762E-01 -.54632E-01 -.49354E-01 -.39684E-01 -.26972E-01
 -.13121E-01 -.34154E-02 -.11422E-02 -.31851E-02 -.52288E-02 -.72558E-02 -.99276E-02 -.10383E-01 -.66012E-02 -.19904E-02
 -.24897E-02 -.56875E-02 -.12847E-01 -.24383E-01 -.36724E-01 -.43558E-01 -.42618E-01 -.36447E-01 -.26972E-01 -.15011E-01
 -.45967E-02 -.12000E-02 -.49432E-02 -.10895E-01 -.16008E-01 -.20320E-01 -.22019E-01 -.17992E-01 -.98562E-02 -.35806E-02
 -.39183E-02 -.56732E-02 -.11539E-01 -.20842E-01 -.28891E-01 -.31203E-01 -.28019E-01 -.21659E-01 -.13121E-01 -.45967E-02
 -.12043E-02 -.58863E-02 -.15464E-01 -.24940E-01 -.32288E-01 -.36161E-01 -.33536E-01 -.23995E-01 -.12845E-01 -.58675E-02
 -.36981E-02 -.37634E-02 -.82593E-02 -.14787E-01 -.18546E-01 -.17545E-01 -.13637E-01 -.85977E-02 -.34154E-02 -.12000E-02
 -.58863E-02 -.17220E-01 -.30671E-01 -.42254E-01 -.49791E-01 -.50450E-01 -.42254E-01 -.28404E-01 -.15597E-01 -.75345E-02
 -.11394E-02 -.88972E-03 -.44392E-02 -.79663E-02 -.82660E-02 -.61005E-02 -.37305E-02 -.17877E-02 -.11422E-02 -.49432E-02
 -.15464E-01 -.30671E-01 -.46170E-01 -.58350E-01 -.63889E-01 -.59623E-01 -.46171E-01 -.29377E-01 -.15371E-01 -.60739E-02
 0.15185E-02 0.11258E-02 -.10215E-02 -.16701E-02 -.50837E-03 0.28836E-03 -.35240E-04 -.72711E-03 -.31851E-02 -.10895E-01
 -.24940E-01 -.42254E-01 -.58350E-01 -.69044E-01 -.70258E-01 -.60229E-01 -.42664E-01 -.24667E-01 -.10981E-01 -.23521E-02
 0.29543E-02 0.29666E-02 0.30124E-02 0.40430E-02 0.43492E-02 0.28117E-02 0.90853E-03 -.73728E-03 -.52288E-02 -.16008E-01
 -.32288E-01 -.49791E-01 -.63889E-01 -.70258E-01 -.65563E-01 -.50757E-01 -.32075E-01 -.16191E-01 -.55345E-02 0.56856E-03
 0.57505E-02 0.75585E-02 0.93571E-02 0.10142E-01 0.83429E-02 0.50928E-02 0.26823E-02 -.72397E-04 -.72558E-02 -.20320E-01
 -.36161E-01 -.50450E-01 -.59623E-01 -.60229E-01 -.50757E-01 -.34892E-01 -.19519E-01 -.86466E-02 -.16634E-02 0.29713E-02
 0.12769E-01 0.16138E-01 0.18144E-01 0.17082E-01 0.12774E-01 0.80052E-02 0.43622E-02 -.69547E-03 -.99276E-02 -.22019E-01
 -.33536E-01 -.42254E-01 -.46171E-01 -.42664E-01 -.32075E-01 -.19519E-01 -.99288E-02 -.33350E-02 0.26233E-02 0.82964E-02
 0.23056E-01 0.26871E-01 0.27593E-01 0.23501E-01 0.16206E-01 0.94820E-02 0.40935E-02 -.23261E-02 -.10383E-01 -.17992E-01
 -.23995E-01 -.28404E-01 -.29377E-01 -.24667E-01 -.16191E-01 -.86466E-02 -.33350E-02 0.24743E-02 0.10052E-01 0.17425E-01
 0.33669E-01 0.37051E-01 0.35063E-01 0.27010E-01 0.16898E-01 0.90125E-02 0.33176E-02 -.19857E-02 -.66012E-02 -.98562E-02
 -.12845E-01 -.15597E-01 -.15371E-01 -.10981E-01 -.55345E-02 -.16634E-02 0.26233E-02 0.10052E-01 0.19333E-01 0.27510E-01
 0.42607E-01 0.44075E-01 0.37918E-01 0.26319E-01 0.15337E-01 0.82370E-02 0.36735E-02 0.19261E-03 -.19904E-02 -.35806E-02
 -.58675E-02 -.75345E-02 -.60739E-02 -.23521E-02 0.56856E-03 0.29713E-02 0.82964E-02 0.17425E-01 0.27510E-01 0.36225E-01
 -.19144E-01 -.16341E-01 -.13568E-01 -.10041E-01 -.47781E-02 -.33290E-03 0.78967E-03 0.14887E-03 0.15091E-03 0.11597E-03
 -.98812E-03 -.14083E-02 0.15090E-03 0.14404E-02 0.24569E-03 -.22505E-02 -.47790E-02 -.88500E-02 -.14880E-01 -.19282E-01
 -.16341E-01 -.14135E-01 -.11306E-01 -.67980E-02 -.19204E-02 0.23162E-03 -.55760E-03 -.14382E-02 -.11285E-02 -.93228E-03
 -.11390E-02 -.42243E-03 0.89248E-03 0.73541E-03 -.12605E-02 -.36764E-02 -.65386E-02 -.10938E-01 -.15572E-01 -.17497E-01
 -.13568E-01 -.11306E-01 -.76613E-02 -.34709E-02 -.90076E-03 -.94230E-03 -.18897E-02 -.18226E-02 -.10918E-02 -.87382E-03
 -.92321E-03 -.50596E-03 -.14930E-03 -.74274E-03 -.20981E-02 -.38648E-02 -.65630E-02 -.10238E-01 -.13357E-01 -.14436E-01
 -.10041E-01 -.67980E-02 -.34709E-02 -.14827E-02 -.10518E-02 -.13508E-02 -.15440E-02 -.15136E-02 -.16247E-02 -.20142E-02
 -.23082E-02 -.20686E-02 -.13959E-02 -.96010E-03 -.14510E-02 -.30959E-02 -.56495E-02 -.85481E-02 -.10897E-01 -.11601E-01
 -.47781E-02 -.19204E-02 -.90076E-03 -.10518E-02 -.95627E-03 -.96073E-03 -.19819E-02 -.34177E-02 -.41333E-02 -.41756E-02
 -.38915E-02 -.28028E-02 -.95340E-03 0.95788E-04 -.80359E-03 -.28225E-02 -.47745E-02 -.66127E-02 -.80189E-02 -.75239E-02
 -.33290E-03 0.23162E-03 -.94230E-03 -.13508E-02 -.96073E-03 -.21888E-02 -.49934E-02 -.65070E-02 -.57906E-02 -.46812E-02
 -.37843E-02 -.19228E-02 0.26243E-03 0.45000E-03 -.13183E-02 -.26741E-02 -.30176E-02 -.36529E-02 -.41293E-02 -.27111E-02
 0.78967E-03 -.55760E-03 -.18897E-02 -.15440E-02 -.19819E-02 -.49934E-02 -.75703E-02 -.67593E-02 -.45356E-02 -.37096E-02
 -.31098E-02 -.10515E-02 0.50095E-03 -.40461E-03 -.16993E-02 -.11006E-02 -.19364E-03 -.81440E-03 -.12656E-02 -.20250E-04
 0.14887E-03 -.14382E-02 -.18226E-02 -.15136E-02 -.34177E-02 -.65070E-02 -.67593E-02 -.43205E-02 -.31877E-02 -.38882E-02
 -.31338E-02 -.70260E-03 0.11363E-03 -.91632E-03 -.60206E-03 0.12165E-02 0.13530E-02 -.36652E-03 -.79532E-03 0.33348E-03
 0.15091E-03 -.11285E-02 -.10918E-02 -.16247E-02 -.41333E-02 -.57906E-02 -.45356E-02 -.31877E-02 -.41305E-02 -.46868E-02
 -.23555E-02 0.20657E-03 0.14753E-03 -.44142E-03 0.87214E-03 0.18905E-02 0.30536E-03 -.14138E-02 -.54502E-03 0.86092E-03
 0.11597E-03 -.93228E-03 -.87382E-03 -.20142E-02 -.41756E-02 -.46812E-02 -.37096E-02 -.38882E-02 -.46868E-02 -.31273E-02
 0.94904E-04 0.12358E-02 0.10234E-03 -.23946E-04 0.11424E-02 0.72680E-03 -.10772E-02 -.95420E-03 0.11520E-02 0.17435E-02
 -.98812E-03 -.11390E-02 -.92321E-03 -.23082E-02 -.38915E-02 -.37843E-02 -.31098E-02 -.31338E-02 -.23555E-02 0.94904E-04
 0.17096E-02 0.72228E-03 -.58015E-03 -.24594E-04 0.69726E-03 -.13969E-03 -.62936E-03 0.90003E-03 0.21634E-02 0.90493E-03
 -.14083E-02 -.42243E-03 -.50596E-03 -.20686E-02 -.28028E-02 -.19228E-02 -.10515E-02 -.70260E-03 0.20657E-03 0.12358E-02
 0.72228E-03 -.71972E-03 -.80847E-03 0.35372E-03 0.63589E-03 0.17593E-04 0.36420E-03 0.13434E-02 0.78724E-03 -.97511E-03
 0.15090E-03 0.89248E-03 -.14930E-03 -.13959E-02 -.95340E-03 0.26243E-03 0.50095E-03 0.11363E-03 0.14753E-03 0.10234E-03
 -.58015E-03 -.80847E-03 0.15334E-03 0.95959E-03 0.50910E-03 -.95582E-04 0.15171E-03 0.21442E-03 -.62825E-03 -.94249E-03
 0.14404E-02 0.73541E-03 -.74274E-03 -.96010E-03 0.95788E-04 0.45000E-03 -.40461E-03 -.91632E-03 -.44142E-03 -.23946E-04
 -.24594E-04 0.35372E-03 0.95959E-03 0.67297E-03 -.32037E-03 -.64664E-03 -.17184E-03 0.50597E-04 0.68234E-04 0.74270E-03
 0.24569E-03 -.12605E-02 -.20981E-02 -.14510E-02 -.80359E-03 -.13183E-02 -.16993E-02 -.60206E-03 0.87214E-03 0.11424E-02
 0.69726E-03 0.63589E-03 0.50910E-03 -.32037E-03 -.89383E-03 -.25566E-03 0.73635E-03 0.98255E-03 0.88156E-03 0.89431E-03
 -.22505E-02 -.36764E-02 -.38648E-02 -.30959E-02 -.28225E-02 -.26741E-02 -.11006E-02 0.12165E-02 0.18905E-02 0.72680E-03
 -.13969E-03 0.17593E-04 -.95582E-04 -.64664E-03 -.25566E-03 0.10221E-02 0.14333E-02 0.54314E-03 -.36921E-03 -.10080E-02
 -.47790E-02 -.65386E-02 -.65630E-02 -.56495E-02 -.47745E-02 -.30176E-02 -.19364E-03 0.13530E-02 0.30536E-03 -.10772E-02
 -.62936E-03 0.36420E-03 0.15171E-03 -.17184E-03 0.73635E-03 0.14333E-02 0.30277E-03 -.14213E-02 -.21470E-02 -.28648E-02
 -.88500E-02 -.10938E-01 -.10238E-01 -.85481E-02 -.66127E-02 -.36529E-02 -.81440E-03 -.36652E-03 -.14138E-02 -.95420E-03
 0.90003E-03 0.13434E-02 0.21442E-03 0.50597E-04 0.98255E-03 0.54314E-03 -.14213E-02 -.25899E-02 -.30082E-02 -.51486E-02
 -.14880E-01 -.15572E-01 -.13357E-01 -.10897E-01 -.80189E-02 -.41293E-02 -.12656E-02 -.79532E-03 -.54502E-03 0.11520E-02
 0.21634E-02 0.78724E-03 -.62825E-03 0.68234E-04 0.88156E-03 -.36921E-03 -.21470E-02 -.30082E-02 -.51811E-02 -.10215E-01
 -.19282E-01 -.17497E-01 -.14436E-01 -.11601E-01 -.75239E-02 -.27111E-02 -.20250E-04 0.33348E-03 0.86092E-03 0.17435E-02
 0.90493E-03 -.97511E-03 -.94249E-03 0.74270E-03 0.89431E-03 -.10080E-02 -.28648E-02 -.51486E-02 -.10215E-01 -.16502E-01
 -.47141E-01 -.41824E-01 -.33601E-01 -.23545E-01 -.12384E-01 -.39988E-02 -.92540E-03 -.24134E-03 0.15096E-02 0.31112E-02
 0.24651E-02 0.12700E-02 0.15103E-02 0.12969E-02 -.16417E-02 -.63697E-02 -.12385E-01 -.22076E-01 -.35187E-01 -.45404E-01
 -.41824E-01 -.35822E-01 -.27283E-01 -.16736E-01 -.69610E-02 -.17727E-02 -.59631E-03 0.77623E-03 0.36772E-02 0.54916E-02
 0.50640E-02 0.41752E-02 0.33390E-02 0.87645E-03 -.35490E-02 -.89186E-02 -.16173E-01 -.26715E-01 -.37643E-01 -.43303E-01