unknown system                          
   1.00000000000000     
     2.573869    0.000000    0.000000
     1.286934    2.229036    0.000000
     0.000000    0.000000   30.304665
   Cu   H 
     4     1
Direct
  0.000000  0.000000  0.396427
  0.333332  0.333332  0.465162
  0.666668  0.666665  0.533889
  0.000000  0.000000  0.606712
  0.666668  0.666665  0.638129
 
   20   20  240
 0.47507830109E-01 0.43649244108E-01 0.34154856392E-01 0.22680573577E-01 0.12768859971E-01
 0.63303584586E-02 0.30033690255E-02 0.97095357943E-03 -.11462971135E-02 -.31374964492E-02
 -.39349203286E-02 -.30806294911E-02 -.11462688320E-02 0.10377088490E-02 0.33211121600E-02
 0.66726694600E-02 0.12768245918E-01 0.22485127554E-01 0.34205299135E-01 0.43893576792E-01
 0.43649244108E-01 0.37104272743E-01 0.27209502650E-01 0.16906513267E-01 0.86625666861E-02
 0.35494609407E-02 0.51930408669E-03 -.22183950101E-02 -.48652684734E-02 -.60676788858E-02
 -.51627241479E-02 -.31025812370E-02 -.10371349218E-02 0.91065618003E-03 0.34719115574E-02
 0.79216565917E-02 0.15663099867E-01 0.26573952252E-01 0.37562064353E-01 0.44094708924E-01
 0.34154856393E-01 0.27209502651E-01 0.18569303133E-01 0.10070942745E-01 0.34698591710E-02
 -.10001094756E-02 -.49451934551E-02 -.92788751686E-02 -.12536987199E-01 -.12963898896E-01
 -.10958885882E-01 -.81019060042E-02 -.49907224077E-02 -.13183001695E-02 0.31976274780E-02
 0.92079785986E-02 0.17590820440E-01 0.27389870735E-01 0.35085200699E-01 0.37420673355E-01
 0.22680573577E-01 0.16906513267E-01 0.10070942745E-01 0.34005695679E-02 -.20941574166E-02
 -.73439635567E-02 -.13891303214E-01 -.20718797866E-01 -.24695015854E-01 -.24276085273E-01
 -.20616390581E-01 -.15165307525E-01 -.85493529355E-02 -.17346670458E-02 0.42695316719E-02
 0.10057514198E-01 0.16822146609E-01 0.23515894187E-01 0.27235093612E-01 0.26590398260E-01
 0.12768859971E-01 0.86625666857E-02 0.34698591705E-02 -.20941574171E-02 -.82616517855E-02
 -.16725007054E-01 -.27385578275E-01 -.36422367052E-01 -.39687400544E-01 -.36543141596E-01
 -.28917616704E-01 -.18763559129E-01 -.82630139420E-02 -.14273831422E-03 0.47236750113E-02
 0.84298690638E-02 0.12764478863E-01 0.16461906830E-01 0.17429396044E-01 0.15777635793E-01
 0.63303584586E-02 0.35494609401E-02 -.10001094768E-02 -.73439635578E-02 -.16725007055E-01
 -.29935758348E-01 -.43721927770E-01 -.52051296156E-01 -.51568682186E-01 -.43558415393E-01
 -.31085641612E-01 -.17275058255E-01 -.58607813869E-02 0.46778248173E-03 0.29418185400E-02
 0.50741667508E-02 0.79103997062E-02 0.95609271117E-02 0.91287251606E-02 0.78613068051E-02
 0.30033690253E-02 0.51930408563E-03 -.49451934569E-02 -.13891303215E-01 -.27385578276E-01
 -.43721927770E-01 -.56779965989E-01 -.60733325732E-01 -.54965708918E-01 -.42740337008E-01
 -.27666741356E-01 -.13483488326E-01 -.40642284127E-02 -.34049379968E-03 0.86838104588E-03
 0.25447953717E-02 0.40460744521E-02 0.38889258028E-02 0.31049988471E-02 0.31732575535E-02
 0.97095357894E-03 -.22183950114E-02 -.92788751704E-02 -.20718797868E-01 -.36422367053E-01
 -.52051296155E-01 -.60733325731E-01 -.59293911943E-01 -.49947722460E-01 -.36301366931E-01
 -.21383691965E-01 -.90138043023E-02 -.24249950410E-02 -.77210870901E-03 -.48061446849E-03
 -.18825078148E-03 -.97640689707E-03 -.22575142886E-02 -.17206906992E-02 0.41771008352E-03
 -.11462971143E-02 -.48652684746E-02 -.12536987201E-01 -.24695015855E-01 -.39687400544E-01
 -.51568682185E-01 -.54965708917E-01 -.49947722459E-01 -.39688495207E-01 -.26528901237E-01
 -.13137626931E-01 -.38824410840E-02 -.11415310599E-02 -.25770505644E-02 -.48730804526E-02
 -.74310624805E-02 -.99212561627E-02 -.98501987184E-02 -.60670771517E-02 -.18191176839E-02
 -.31374964502E-02 -.60676788868E-02 -.12963898898E-01 -.24276085276E-01 -.36543141597E-01
 -.43558415392E-01 -.42740337006E-01 -.36301366929E-01 -.26528901237E-01 -.14767332161E-01
 -.47188503008E-02 -.11616179013E-02 -.44481638579E-02 -.10472403052E-01 -.16133708564E-01
 -.20594600706E-01 -.21871740842E-01 -.17661316605E-01 -.99769527596E-02 -.42023746047E-02
 -.39349203298E-02 -.51627241493E-02 -.10958885885E-01 -.20616390584E-01 -.28917616706E-01
 -.31085641612E-01 -.27666741355E-01 -.21383691964E-01 -.13137626932E-01 -.47188503015E-02
 -.11588027022E-02 -.57263023329E-02 -.15476419677E-01 -.25227778504E-01 -.32628505413E-01
 -.36311757648E-01 -.33561911391E-01 -.24199163645E-01 -.13348302672E-01 -.63574323203E-02
 -.30806294925E-02 -.31025812390E-02 -.81019060079E-02 -.15165307529E-01 -.18763559133E-01
 -.17275058256E-01 -.13483488327E-01 -.90138043034E-02 -.38824410859E-02 -.11616179032E-02
 -.57263023337E-02 -.17523962300E-01 -.31183353143E-01 -.42390583275E-01 -.49635275167E-01
 -.50459984584E-01 -.42434099960E-01 -.28445453733E-01 -.15427873104E-01 -.71805746297E-02
 -.11462688334E-02 -.10371349243E-02 -.49907224119E-02 -.85493529401E-02 -.82630139457E-02
 -.58607813889E-02 -.40642284143E-02 -.24249950430E-02 -.11415310621E-02 -.44481638591E-02
 -.15476419676E-01 -.31183353141E-01 -.46167254011E-01 -.57688892493E-01 -.63523864484E-01
 -.59840122300E-01 -.46165141330E-01 -.28793748855E-01 -.14825476759E-01 -.59373759809E-02
 0.10377088477E-02 0.91065617752E-03 -.13183001736E-02 -.17346670502E-02 -.14273831768E-03
 0.46778247942E-03 -.34049380176E-03 -.77210871117E-03 -.25770505657E-02 -.10472403050E-01
 -.25227778499E-01 -.42390583268E-01 -.57688892487E-01 -.68451558893E-01 -.70554158355E-01
 -.60671773608E-01 -.42338447831E-01 -.24161208755E-01 -.11277472642E-01 -.31517591465E-02
 0.33211121594E-02 0.34719115556E-02 0.31976274751E-02 0.42695316693E-02 0.47236750094E-02
 0.29418185387E-02 0.86838104443E-03 -.48061446932E-03 -.48730804509E-02 -.16133708557E-01
 -.32628505401E-01 -.49635275152E-01 -.63523864470E-01 -.70554158347E-01 -.66292400094E-01
 -.50903475354E-01 -.31711903988E-01 -.16403336073E-01 -.64402908508E-02 0.68056623924E-04
 0.66726694599E-02 0.79216565906E-02 0.92079785972E-02 0.10057514197E-01 0.84298690635E-02
 0.50741667503E-02 0.25447953710E-02 -.18825078102E-03 -.74310624760E-02 -.20594600694E-01
 -.36311757630E-01 -.50459984563E-01 -.59840122281E-01 -.60671773595E-01 -.50903475348E-01
 -.34597454477E-01 -.19398443619E-01 -.90010085620E-02 -.18118811910E-02 0.36183050802E-02
 0.12768245918E-01 0.15663099866E-01 0.17590820440E-01 0.16822146610E-01 0.12764478863E-01
 0.79103997060E-02 0.40460744518E-02 -.97640689576E-03 -.99212561570E-02 -.21871740830E-01
 -.33561911372E-01 -.42434099938E-01 -.46165141310E-01 -.42338447817E-01 -.31711903981E-01
 -.19398443617E-01 -.99198025413E-02 -.30910391788E-02 0.31606393462E-02 0.87647757518E-02
 0.22485127554E-01 0.26573952252E-01 0.27389870735E-01 0.23515894188E-01 0.16461906831E-01
 0.95609271113E-02 0.38889258021E-02 -.22575142875E-02 -.98501987134E-02 -.17661316595E-01
 -.24199163630E-01 -.28445453716E-01 -.28793748840E-01 -.24161208744E-01 -.16403336067E-01
 -.90010085602E-02 -.30910391789E-02 0.28988422105E-02 0.98447089359E-02 0.16709939570E-01
 0.34205299135E-01 0.37562064353E-01 0.35085200699E-01 0.27235093612E-01 0.17429396044E-01
 0.91287251599E-02 0.31049988462E-02 -.17206906988E-02 -.60670771486E-02 -.99769527529E-02
 -.13348302663E-01 -.15427873094E-01 -.14825476750E-01 -.11277472636E-01 -.64402908483E-02
 -.18118811907E-02 0.31606393455E-02 0.98447089358E-02 0.18257266872E-01 0.27005931844E-01
 0.43893576793E-01 0.44094708925E-01 0.37420673356E-01 0.26590398260E-01 0.15777635792E-01
 0.78613068044E-02 0.31732575527E-02 0.41771008356E-03 -.18191176825E-02 -.42023746018E-02
 -.63574323165E-02 -.71805746255E-02 -.59373759774E-02 -.31517591443E-02 0.68056624507E-04
 0.36183050798E-02 0.87647757512E-02 0.16709939570E-01 0.27005931844E-01 0.37232321386E-01
 -.22283803372E-01 -.20519154113E-01 -.16396384923E-01 -.10985669986E-01 -.55750692910E-02
 -.15623136499E-02 0.35448111682E-03 0.64401463052E-03 0.21428233780E-03 -.39902339961E-03
 -.84587447896E-03 -.65821483872E-03 0.21512402889E-03 0.95735289454E-03 0.50152063871E-03
 -.16715390283E-02 -.55766613082E-02 -.10905062986E-01 -.16618683080E-01 -.20911457855E-01
 -.20519154114E-01 -.17612893055E-01 -.12567481315E-01 -.71167286858E-02 -.28657816422E-02
 -.56415963932E-03 -.49091747563E-04 -.55077997848E-03 -.10976163446E-02 -.10276294471E-02
 -.34613960600E-03 0.45163059455E-03 0.85949622317E-03 0.52353366871E-03 -.92326494436E-03
 -.38091230213E-02 -.80592868542E-02 -.13001342392E-01 -.17532339329E-01 -.20393167717E-01
 -.16396384924E-01 -.12567481314E-01 -.76969296309E-02 -.38374086366E-02 -.16593990984E-02
 -.77164698389E-03 -.74955524361E-03 -.10823297399E-02 -.99401870016E-03 -.27621765935E-03
 0.30082323264E-03 0.12124219798E-03 -.43845578411E-03 -.98662028532E-03 -.21170940146E-02
 -.46065149856E-02 -.82590900803E-02 -.12208311800E-01 -.15608983646E-01 -.17403798681E-01
 -.10985669986E-01 -.71167286857E-02 -.38374086367E-02 -.21450520951E-02 -.12418051665E-02
 -.60485769735E-03 -.56768520147E-03 -.90674074143E-03 -.84877149890E-03 -.59136125823E-03
 -.98309025971E-03 -.16910949028E-02 -.15786077660E-02 -.93746839740E-03 -.14446521218E-02
 -.37730882958E-02 -.69546858379E-02 -.10020183998E-01 -.12436038540E-01 -.13091838943E-01
 -.55750692912E-02 -.28657816425E-02 -.16593990990E-02 -.12418051667E-02 -.49429692880E-03
 -.84862080858E-04 -.84189839063E-03 -.18471182807E-02 -.20681073929E-02 -.20947388640E-02
 -.24481626196E-02 -.20833099723E-02 -.49559872841E-03 0.54784458811E-03 -.63632352290E-03
 -.32316279269E-02 -.55794800983E-02 -.73968316530E-02 -.86237317639E-02 -.81238368367E-02
 -.15623136508E-02 -.56415964022E-03 -.77164698489E-03 -.60485769796E-03 -.84862081103E-04
 -.81827385906E-03 -.26176290119E-02 -.34680072056E-02 -.29391054282E-02 -.24245628251E-02
 -.20562414962E-02 -.71672617531E-03 0.90356010009E-03 0.68112238704E-03 -.13583520302E-02
 -.30342077445E-02 -.36009346748E-02 -.41554838432E-02 -.45954595460E-02 -.35778281996E-02
 0.35448111447E-03 -.49091749581E-04 -.74955524529E-03 -.56768520225E-03 -.84189839039E-03
 -.26176290115E-02 -.40422798973E-02 -.33808835336E-02 -.19858455365E-02 -.15757879889E-02
 -.12904147805E-02 -.14217641721E-03 0.43186094530E-03 -.70704286718E-03 -.18498836403E-02
 -.13990436209E-02 -.69934273334E-03 -.12186999829E-02 -.16667703578E-02 -.68160814733E-03
 0.64401462640E-03 -.55077998182E-03 -.10823297421E-02 -.90674074192E-03 -.18471182801E-02
 -.34680072044E-02 -.33808835324E-02 -.17434054279E-02 -.11236948163E-02 -.18436439018E-02
 -.17605539532E-02 -.64646020890E-03 -.40757925698E-03 -.96418527215E-03 -.32910382330E-03
 0.11784468529E-02 0.11944682812E-02 -.17400141505E-03 -.44976217937E-03 0.57623462568E-03
 0.21428233200E-03 -.10976163494E-02 -.99401870288E-03 -.84877149910E-03 -.20681073918E-02
 -.29391054263E-02 -.19858455353E-02 -.11236948153E-02 -.20695621882E-02 -.29279872515E-02
 -.17273081449E-02 -.44847556385E-04 0.21800396102E-03 0.30725236183E-03 0.15383647721E-02
 0.21810524222E-02 0.83984438573E-03 -.41301611597E-03 0.30074800448E-03 0.11731357225E-02
 -.39902340692E-03 -.10276294528E-02 -.27621766259E-03 -.59136125876E-03 -.20947388630E-02
 -.24245628239E-02 -.15757879883E-02 -.18436439018E-02 -.29279872515E-02 -.21705598098E-02
 0.25558490355E-03 0.14062106027E-02 0.85236478624E-03 0.94886733499E-03 0.18855993380E-02
 0.15240396542E-02 0.14275857406E-03 0.24562822519E-03 0.15792345835E-02 0.13747984437E-02
 -.84587448713E-03 -.34613961268E-03 0.30082322881E-03 -.98309026103E-03 -.24481626203E-02
 -.20562414968E-02 -.12904147814E-02 -.17605539540E-02 -.17273081451E-02 0.25558490371E-03
 0.19134219607E-02 0.12143356878E-02 0.15869268676E-03 0.95331346669E-03 0.20390339474E-02
 0.15522491493E-02 0.10269448407E-02 0.19605356136E-02 0.24092621184E-02 0.74642525335E-03
 -.65821484701E-03 0.45163058786E-03 0.12124219382E-03 -.16910949053E-02 -.20833099748E-02
 -.71672617833E-03 -.14217642000E-03 -.64646021037E-03 -.44847556516E-04 0.14062106027E-02
 0.12143356873E-02 -.19189367272E-03 0.19762824403E-03 0.23969708423E-02 0.33773510902E-02
 0.25935386213E-02 0.23638467101E-02 0.28191139306E-02 0.17882744768E-02 -.28716001357E-03
 0.21512402157E-03 0.85949621754E-03 -.43845578787E-03 -.15786077692E-02 -.49559873280E-03
 0.90356009568E-03 0.43186094224E-03 -.40757925769E-03 0.21800396160E-03 0.85236478605E-03
 0.15869268457E-03 0.19762824127E-03 0.25277566523E-02 0.46659409358E-02 0.41761004086E-02
 0.27339186384E-02 0.25294017062E-02 0.23141784043E-02 0.66957342594E-03 -.54844100965E-03
 0.95735288885E-03 0.52353366500E-03 -.98662028823E-03 -.93746840093E-03 0.54784458331E-03
 0.68112238282E-03 -.70704286906E-03 -.96418527113E-03 0.30725236327E-03 0.94886733387E-03
 0.95331346088E-03 0.23969708340E-02 0.46659409297E-02 0.48403189666E-02 0.29594302819E-02
 0.19579548820E-02 0.23325103445E-02 0.18196810770E-02 0.32159066350E-03 0.84776890052E-04
 0.50152063562E-03 -.92326494574E-03 -.21170940159E-02 -.14446521245E-02 -.63632352668E-03
 -.13583520325E-02 -.18498836395E-02 -.32910381962E-03 0.15383647747E-02 0.18855993357E-02
 0.20390339381E-02 0.33773510764E-02 0.41761003954E-02 0.29594302750E-02 0.16799742555E-02
 0.21842577731E-02 0.27804274823E-02 0.16376158277E-02 0.28563026146E-03 0.40886919638E-03
 -.16715390291E-02 -.38091230209E-02 -.46065149855E-02 -.37730882975E-02 -.32316279292E-02
 -.30342077447E-02 -.13990436175E-02 0.11784468585E-02 0.21810524258E-02 0.15240396516E-02
 0.15522491383E-02 0.25935386048E-02 0.27339186221E-02 0.19579548711E-02 0.21842577689E-02
 0.31583907766E-02 0.26251124086E-02 0.65616173344E-03 -.43945543881E-03 -.52370406924E-03
 -.55766613076E-02 -.80592868531E-02 -.82590900797E-02 -.69546858385E-02 -.55794800992E-02
 -.36009346735E-02 -.69934272850E-03 0.11944682877E-02 0.83984438996E-03 0.14275857210E-03
 0.10269448313E-02 0.23638466961E-02 0.25294016925E-02 0.23325103354E-02 0.27804274785E-02
 0.26251124083E-02 0.84174115291E-03 -.10522296399E-02 -.17988809531E-02 -.28866549170E-02
 -.10905062984E-01 -.13001342391E-01 -.12208311799E-01 -.10020183998E-01 -.73968316531E-02
 -.41554838415E-02 -.12186999784E-02 -.17400140879E-03 -.41301611122E-03 0.24562822582E-03
 0.19605356091E-02 0.28191139234E-02 0.23141783976E-02 0.18196810736E-02 0.16376158276E-02
 0.65616173505E-03 -.10522296388E-02 -.23645868268E-02 -.37972635796E-02 -.69040724018E-02
 -.16618683079E-01 -.17532339328E-01 -.15608983645E-01 -.12436038541E-01 -.86237317644E-02
 -.45954595448E-02 -.16667703542E-02 -.44976217391E-03 0.30074800984E-03 0.15792345874E-02
 0.24092621203E-02 0.17882744774E-02 0.66957342716E-03 0.32159066626E-03 0.28563026488E-03
 -.43945543550E-03 -.17988809513E-02 -.37972635787E-02 -.73929679440E-02 -.12483585045E-01
 -.20911457854E-01 -.20393167716E-01 -.17403798681E-01 -.13091838943E-01 -.81238368370E-02
 -.35778281986E-02 -.68160814456E-03 0.57623463034E-03 0.11731357286E-02 0.13747984503E-02
 0.74642525982E-03 -.28716000692E-03 -.54844100317E-03 0.84776895918E-04 0.40886920088E-03
 -.52370406650E-03 -.28866549161E-02 -.69040724017E-02 -.12483585046E-01 -.17968990935E-01
 -.47109925731E-01 -.43076052567E-01 -.34138405718E-01 -.22985348612E-01 -.12369053057E-01
 -.48765878749E-02 -.12446839823E-02 0.25923557461E-03 0.15008825986E-02 0.24566859584E-02
 0.24390415171E-02 0.18806294628E-02 0.15011270701E-02 0.81742119061E-03 -.12697816085E-02
 -.54375376233E-02 -.12370407515E-01 -.22627358977E-01 -.34633299404E-01 -.44105592362E-01
 -.43076052566E-01 -.36816771665E-01 -.26762942267E-01 -.15989064950E-01 -.73917078638E-02
 -.23888263858E-02 -.89082499066E-04 0.15444305773E-02 0.34882281702E-02 0.51083867983E-02
 0.55667392948E-02 0.48250046710E-02 0.31851181017E-02 0.66600058373E-03 -.30292940814E-02
 -.85385083144E-02 -.16632372700E-01 -.26996349813E-01 -.37113953852E-01 -.43269621767E-01
 -.34138405718E-01 -.26762942268E-01 -.17422324887E-01 -.92085849886E-02 -.34596118532E-02
 0.55069363400E-03 0.43154521692E-02 0.85505446297E-02 0.12524547548E-01 0.14585184592E-01
 0.13537639203E-01 0.97822376601E-02 0.49841073384E-02 0.43998348586E-03 -.41016526383E-02
 -.98838706910E-02 -.17569733336E-01 -.26226871852E-01 -.33495011980E-01 -.36651368356E-01
 -.22985348612E-01 -.15989064950E-01 -.92085849886E-02 -.39505478948E-02 0.10746772186E-02
 0.73561343990E-02 0.14723505828E-01 0.21705100094E-01 0.26269791017E-01 0.26366333633E-01
 0.21450503765E-01 0.13749627388E-01 0.66129765726E-02 0.13246055631E-02 -.34174042178E-02
 -.90664004412E-02 -.15580850018E-01 -.21889013264E-01 -.26375621842E-01 -.27043129805E-01
 -.12369053057E-01 -.73917078637E-02 -.34596118529E-02 0.10746772189E-02 0.86339560129E-02
 0.18846526268E-01 0.29120737661E-01 0.36940499139E-01 0.40036784610E-01 0.36566189794E-01
 0.27439082665E-01 0.16886465567E-01 0.86323987717E-02 0.27026195566E-02 -.26687834747E-02
 -.78915929342E-02 -.12370427324E-01 -.15912885177E-01 -.17861391427E-01 -.16687098983E-01
 -.48765878758E-02 -.23888263858E-02 0.55069363450E-03 0.73561343997E-02 0.18846526268E-01
 0.31951076969E-01 0.43249991159E-01 0.50471402516E-01 0.51047276770E-01 0.43472808871E-01
 0.30623358882E-01 0.18131967815E-01 0.88911493051E-02 0.19887180020E-02 -.33718274731E-02
 -.65651555245E-02 -.80070202592E-02 -.91173231558E-02 -.95671706533E-02 -.79144137486E-02
 -.12446839845E-02 -.89082499883E-04 0.43154521694E-02 0.14723505829E-01 0.29120737662E-01
 0.43249991160E-01 0.54368806241E-01 0.59963781790E-01 0.56670064306E-01 0.44352147912E-01
 0.28502162002E-01 0.15166811154E-01 0.58012695320E-02 -.54293773894E-03 -.35205441769E-02
 -.32196775961E-02 -.22825957190E-02 -.27389141010E-02 -.32753967292E-02 -.24103546065E-02
 0.25923557093E-03 0.15444305753E-02 0.85505446295E-02 0.21705100095E-01 0.36940499140E-01
 0.50471402517E-01 0.59963781790E-01 0.61801982545E-01 0.53060037557E-01 0.36825649538E-01
 0.20660031461E-01 0.91584038528E-02 0.20403558137E-02 -.12140462885E-02 -.24445026322E-03
 0.27257974272E-02 0.37654783289E-02 0.23095440562E-02 0.10027827815E-02 0.67003249210E-03
 0.15008825934E-02 0.34882281667E-02 0.12524547547E-01 0.26269791019E-01 0.40036784611E-01
 0.51047276771E-01 0.56670064306E-01 0.53060037557E-01 0.40036550040E-01 0.23944427326E-01
 0.11658049611E-01 0.46107464490E-02 0.15016078773E-02 0.25070120769E-02 0.68958473797E-02
 0.10544616598E-01 0.10289717414E-01 0.77719432015E-02 0.56128622137E-02 0.34828344277E-02
 0.24566859520E-02 0.51083867937E-02 0.14585184591E-01 0.26366333634E-01 0.36566189795E-01
 0.43472808872E-01 0.44352147911E-01 0.36825649537E-01 0.23944427326E-01 0.12599921658E-01
 0.63272037205E-02 0.40905839342E-02 0.53887214760E-02 0.10831318574E-01 0.17754938141E-01
 0.21144743197E-01 0.19657013117E-01 0.15999344970E-01 0.11597212245E-01 0.61906331064E-02
 0.24390415100E-02 0.55667392893E-02 0.13537639202E-01 0.21450503767E-01 0.27439082666E-01
 0.30623358882E-01 0.28502162000E-01 0.20660031460E-01 0.11658049611E-01 0.63272037215E-02
 0.51841711176E-02 0.73921757024E-02 0.13998431735E-01 0.24343366186E-01 0.33170217579E-01
 0.35600662814E-01 0.32078991430E-01 0.25329630823E-01 0.16372119915E-01 0.70862341222E-02
 0.18806294558E-02 0.48250046662E-02 0.97822376594E-02 0.13749627389E-01 0.16886465568E-01
 0.18131967814E-01 0.15166811152E-01 0.91584038524E-02 0.46107464508E-02 0.40905839360E-02
 0.73921757024E-02 0.15247218083E-01 0.28391207817E-01 0.42814798926E-01 0.51305466556E-01
 0.50563062093E-01 0.42792922773E-01 0.30896097708E-01 0.17109781368E-01 0.58416800343E-02
 0.15011270639E-02 0.31851180983E-02 0.49841073387E-02 0.66129765740E-02 0.86323987710E-02
 0.88911493029E-02 0.58012695306E-02 0.20403558151E-02 0.15016078803E-02 0.53887214771E-02
 0.13998431732E-01 0.28391207812E-01 0.46522569432E-01 0.61124821970E-01 0.65523801148E-01
 0.59412519302E-01 0.46524077866E-01 0.30234833145E-01 0.14369968246E-01 0.40776555121E-02
 0.81742118586E-03 0.66600058237E-03 0.43998348686E-03 0.13246055638E-02 0.27026195551E-02
 0.19887180000E-02 -.54293773884E-03 -.12140462854E-02 0.25070120795E-02 0.10831318571E-01
 0.24343366175E-01 0.42814798910E-01 0.61124821958E-01 0.71286039458E-01 0.69627104583E-01
 0.58692383700E-01 0.42634932683E-01 0.25011404429E-01 0.10383424088E-01 0.26365251275E-02
 -.12697816110E-02 -.30292940808E-02 -.41016526368E-02 -.34174042177E-02 -.26687834766E-02
 -.33718274738E-02 -.35205441745E-02 -.24445025848E-03 0.68958473807E-02 0.17754938132E-01
 0.33170217557E-01 0.51305466526E-01 0.65523801121E-01 0.69627104569E-01 0.63300337872E-01
 0.50187172281E-01 0.33735658394E-01 0.17528283800E-01 0.59576174117E-02 0.68272856147E-03
 -.54375376241E-02 -.85385083126E-02 -.98838706897E-02 -.90664004421E-02 -.78915929361E-02
 -.65651555240E-02 -.32196775919E-02 0.27257974325E-02 0.10544616598E-01 0.21144743183E-01
 0.35600662785E-01 0.50563062055E-01 0.59412519266E-01 0.58692383676E-01 0.50187172270E-01
 0.37095687041E-01 0.22147526205E-01 0.90641908610E-02 0.11156367377E-02 -.25403449494E-02
 -.12370407514E-01 -.16632372698E-01 -.17569733335E-01 -.15580850019E-01 -.12370427325E-01
 -.80070202577E-02 -.22825957137E-02 0.37654783343E-02 0.10289717412E-01 0.19657013103E-01
 0.32078991402E-01 0.42792922737E-01 0.46524077832E-01 0.42634932659E-01 0.33735658382E-01
 0.22147526202E-01 0.10291770792E-01 0.13874024758E-02 -.35958370383E-02 -.74338176424E-02
 -.22627358975E-01 -.26996349811E-01 -.26226871851E-01 -.21889013265E-01 -.15912885178E-01
 -.91173231536E-02 -.27389140958E-02 0.23095440614E-02 0.77719432013E-02 0.15999344960E-01
 0.25329630803E-01 0.30896097684E-01 0.30234833122E-01 0.25011404414E-01 0.17528283794E-01
 0.90641908608E-02 0.13874024769E-02 -.40428950104E-02 -.86879308730E-02 -.15176868315E-01
 -.34633299402E-01 -.37113953850E-01 -.33495011980E-01 -.26375621843E-01 -.17861391427E-01
 -.95671706515E-02 -.32753967247E-02 0.10027827866E-02 0.56128622161E-02 0.11597212243E-01
 0.16372119908E-01 0.17109781358E-01 0.14369968238E-01 0.10383424085E-01 0.59576174125E-02
 0.11156367406E-02 -.35958370360E-02 -.86879308719E-02 -.16227858706E-01 -.26240387499E-01
 -.44105592361E-01 -.43269621767E-01 -.36651368356E-01 -.27043129805E-01 -.16687098983E-01
 -.79144137471E-02 -.24103546031E-02 0.67003249671E-03 0.34828344326E-02 0.61906331103E-02
 0.70862341249E-02 0.58416800369E-02 0.40776555152E-02 0.26365251315E-02 0.68272856549E-03
 -.25403449463E-02 -.74338176408E-02 -.15176868315E-01 -.26240387499E-01 -.37593659001E-01
 0.21070589962E-01 0.20248612259E-01 0.15538912330E-01 0.96593798941E-02 0.55705471282E-02
 0.32830758937E-02 0.15076035659E-02 0.33481584824E-03 0.17965412997E-03 0.10945471760E-03
 -.56067447867E-03 -.78312066455E-03 0.17871438195E-03 0.11361462023E-02 0.13089771573E-02
 0.22702472314E-02 0.55699623584E-02 0.10295318437E-01 0.14772061972E-01 0.18582418688E-01
 0.20248612259E-01 0.17150257301E-01 0.11866991282E-01 0.71412765471E-02 0.41078412328E-02
 0.19488987681E-02 0.22521970388E-03 -.45074501109E-03 -.77190029899E-04 0.40074404819E-03
 0.63668450449E-03 0.10480315471E-02 0.14196634411E-02 0.11608627324E-02 0.10258092923E-02
 0.27576019803E-02 0.67975301268E-02 0.11833793776E-01 0.16474769185E-01 0.19735209309E-01
 0.15538912330E-01 0.11866991282E-01 0.77103415825E-02 0.42835031745E-02 0.18393502231E-02
 0.28739064895E-03 -.18703652162E-03 0.45600240034E-03 0.15779079832E-02 0.23125962737E-02
 0.23100511445E-02 0.17162954274E-02 0.83898690613E-03 0.28095812510E-03 0.10135786812E-02
 0.37024410302E-02 0.79771815783E-02 0.12578957788E-01 0.16037599520E-01 0.17171737278E-01
 0.96593798937E-02 0.71412765468E-02 0.42835031747E-02 0.17019853715E-02 0.40369848452E-03
 0.64468561981E-03 0.16661299926E-02 0.26864035930E-02 0.33502996943E-02 0.32860145250E-02
 0.22536268266E-02 0.84210554920E-03 0.13321638748E-03 0.60082188458E-03 0.20687790012E-02
 0.45032476976E-02 0.77951046638E-02 0.10886605045E-01 0.12289841937E-01 0.11610434224E-01
 0.55705471278E-02 0.41078412333E-02 0.18393502239E-02 0.40369848532E-03 0.10900637273E-02
 0.27030033448E-02 0.34738866664E-02 0.34775227432E-02 0.34494892270E-02 0.29763093985E-02
 0.17166835592E-02 0.78180377812E-03 0.10893359443E-02 0.18704837269E-02 0.23972192119E-02
 0.34731155532E-02 0.55727935403E-02 0.72884994530E-02 0.73487338639E-02 0.64658253762E-02
 0.32830758937E-02 0.19488987693E-02 0.28739065058E-03 0.64468562132E-03 0.27030033454E-02
 0.37575296898E-02 0.32150279686E-02 0.30264072157E-02 0.36491649951E-02 0.34671642828E-02
 0.23393622842E-02 0.19053491586E-02 0.22061577589E-02 0.17099979625E-02 0.77599219122E-03
 0.13776719090E-02 0.33008154394E-02 0.42609297242E-02 0.38004358852E-02 0.34617920793E-02
 0.15076035661E-02 0.22521970513E-03 -.18703651968E-03 0.16661299942E-02 0.34738866674E-02
 0.32150279685E-02 0.27510414779E-02 0.40441422221E-02 0.52972995838E-02 0.43767979057E-02
 0.26836747705E-02 0.21261359813E-02 0.16032223877E-02 -.24131831758E-04 -.83961435696E-03
 0.70941927214E-03 0.25216036240E-02 0.23656203068E-02 0.15031859267E-02 0.16105056026E-02
 0.33481584864E-03 -.45074500969E-03 0.45600240227E-03 0.26864035947E-02 0.34775227435E-02
 0.30264072150E-02 0.40441422219E-02 0.60837462526E-02 0.58603229970E-02 0.32440798549E-02
 0.14490269593E-02 0.12356523782E-02 0.39895906263E-03 -.10024082018E-02 -.51778660423E-03
 0.14544513344E-02 0.17945493188E-02 0.25139403363E-03 -.36299617943E-03 0.40557731916E-03
 0.17965413062E-03 -.77190028822E-04 0.15779079849E-02 0.33502996959E-02 0.34494892273E-02
 0.36491649944E-02 0.52972995823E-02 0.58603229964E-02 0.34518847548E-02 0.77986886188E-03
 0.57875150733E-03 0.11152367735E-02 0.17727652861E-03 -.61075976629E-03 0.46180220588E-03
 0.12531038992E-02 -.21044437849E-03 -.16978920379E-02 -.86614671726E-03 0.47531943767E-03
 0.10945471842E-03 0.40074404934E-03 0.23125962755E-02 0.32860145271E-02 0.29763093992E-02
 0.34671642821E-02 0.43767979039E-02 0.32440798536E-02 0.77986886139E-03 0.23782336467E-03
 0.15555088218E-02 0.15710961591E-02 -.29526661720E-04 -.52435768210E-03 0.23393889746E-03
 -.30054325830E-03 -.18945806075E-02 -.16368602473E-02 0.37786261144E-03 0.10530691725E-02
 -.56067447762E-03 0.63668450569E-03 0.23100511471E-02 0.22536268296E-02 0.17166835609E-02
 0.23393622843E-02 0.26836747697E-02 0.14490269588E-02 0.57875150797E-03 0.15555088228E-02
 0.21696480153E-02 0.54024753707E-03 -.12515541591E-02 -.10585673494E-02 -.48431980578E-03
 -.12660584475E-02 -.16541544790E-02 -.93377494931E-04 0.12445225299E-02 0.39617496354E-03
 -.78312066340E-03 0.10480315488E-02 0.17162954308E-02 0.84210555336E-03 0.78180378126E-03
 0.19053491599E-02 0.21261359817E-02 0.12356523792E-02 0.11152367756E-02 0.15710961610E-02
 0.54024753758E-03 -.15141767721E-02 -.19719431142E-02 -.81278715441E-03 -.49133534946E-03
 -.11918708416E-02 -.82352291085E-03 0.41425953195E-03 0.22858352027E-03 -.10592785762E-02
 0.17871438303E-03 0.14196634433E-02 0.83898691023E-03 0.13321639237E-03 0.10893359478E-02
 0.22061577611E-02 0.16032223894E-02 0.39895906496E-03 0.17727653115E-03 -.29526660274E-04
 -.12515541600E-02 -.19719431164E-02 -.98601483075E-03 -.36851293654E-04 -.70691903734E-03
 -.15286782481E-02 -.98512669309E-03 -.40259914815E-03 -.10192804077E-02 -.12497571621E-02
 0.11361462029E-02 0.11608627346E-02 0.28095812889E-03 0.60082188887E-03 0.18704837301E-02
 0.17099979649E-02 -.24131829775E-04 -.10024081996E-02 -.61075976516E-03 -.52435768375E-03
 -.10585673553E-02 -.81278716261E-03 -.36851299924E-04 -.51400826194E-03 -.19498180703E-02
 -.21919487480E-02 -.11074023383E-02 -.58801418967E-03 -.79114749659E-03 -.12924843530E-03
 0.13089771579E-02 0.10258092944E-02 0.10135786842E-02 0.20687790042E-02 0.23972192140E-02
 0.77599219316E-03 -.83961435521E-03 -.51778660288E-03 0.46180220416E-03 0.23393889095E-03
 -.48431981846E-03 -.49133536557E-03 -.70691905197E-03 -.19498180784E-02 -.26554494916E-02
 -.15337763636E-02 -.95525440219E-04 0.29002788999E-04 -.16028208658E-03 0.59866125559E-03
 0.22702472318E-02 0.27576019816E-02 0.37024410319E-02 0.45032476984E-02 0.34731155538E-02
 0.13776719100E-02 0.70941927328E-03 0.14544513344E-02 0.12531038949E-02 -.30054326917E-03
 -.12660584655E-02 -.11918708635E-02 -.15286782686E-02 -.21919487623E-02 -.15337763696E-02
 0.11538920493E-03 0.60112158425E-03 -.18246743471E-03 -.14572355026E-03 0.11936801166E-02
 0.55699623584E-02 0.67975301275E-02 0.79771815787E-02 0.77951046640E-02 0.55727935404E-02
 0.33008154398E-02 0.25216036248E-02 0.17945493179E-02 -.21044438416E-03 -.18945806202E-02
 -.16541544986E-02 -.82352293346E-03 -.98512671399E-03 -.11074023534E-02 -.95525448383E-04
 0.60112158185E-03 -.20951197878E-03 -.71372743472E-03 0.99548636288E-03 0.37323766526E-02
 0.10295318437E-01 0.11833793776E-01 0.12578957788E-01 0.10886605045E-01 0.72884994526E-02
 0.42609297247E-02 0.23656203074E-02 0.25139403282E-03 -.16978920429E-02 -.16368602579E-02
 -.93377510879E-04 0.41425951391E-03 -.40259916455E-03 -.58801420099E-03 0.29002782938E-04
 -.18246743657E-03 -.71372743496E-03 0.90349552283E-03 0.47595317463E-02 0.82661986418E-02
 0.14772061973E-01 0.16474769186E-01 0.16037599520E-01 0.12289841937E-01 0.73487338639E-02
 0.38004358858E-02 0.15031859277E-02 -.36299617960E-03 -.86614672033E-03 0.37786260493E-03
 0.12445225202E-02 0.22858350962E-03 -.10192804169E-02 -.79114750226E-03 -.16028208923E-03
 -.14572355053E-03 0.99548636315E-03 0.47595317467E-02 0.93831147764E-02 0.12607838081E-01
 0.18582418689E-01 0.19735209309E-01 0.17171737278E-01 0.11610434224E-01 0.64658253766E-02
 0.34617920800E-02 0.16105056033E-02 0.40557731922E-03 0.47531943670E-03 0.10530691699E-02
 0.39617495958E-03 -.10592785801E-02 -.12497571652E-02 -.12924843698E-03 0.59866125514E-03
 0.11936801169E-02 0.37323766528E-02 0.82661986422E-02 0.12607838081E-01 0.15853666322E-01
 0.47482407492E-01 0.44909396854E-01 0.34708329625E-01 0.22142073124E-01 0.12769673621E-01
 0.72154824878E-02 0.33261667817E-02 0.47320199008E-03 -.11383323487E-02 -.24897035872E-02
 -.39183047835E-02 -.36980895368E-02 -.11394108423E-02 0.15185359994E-02 0.29542987508E-02
 0.57504546864E-02 0.12769261057E-01 0.23055535672E-01 0.33669466645E-01 0.42606668308E-01
 0.44909396854E-01 0.38105989647E-01 0.26704065929E-01 0.16181286122E-01 0.91119277904E-02