    5    5    1    1
  0.3477306E+02  0.2573869E-09  0.2573869E-09  0.3030466E-08  0.5000000E-15
  1.000000000000000E-004
  CAR 
 unknown system                          
     45     14     28
 
  0.0000000E+00  0.0000000E+00  0.0000000E+00  0.1000000E-01
    1      -11.564782   1.000000
    2      -10.636223   1.000000
    3       -8.961167   1.000000
    4       -7.487768   1.000000
    5       -5.933379   1.000000
    6       -5.555111   1.000000
    7       -5.499765   1.000000
    8       -5.499526   1.000000
    9       -5.270949   1.000000
   10       -5.215455   1.000000
   11       -5.215143   1.000000
   12       -5.186541   1.000000
   13       -5.186268   1.000000
   14       -4.948035   1.000000
   15       -4.947734   1.000000
   16       -4.856264   1.000000
   17       -4.703036   1.000000
   18       -4.702971   1.000000
   19       -4.446593   1.000000
   20       -4.446514   1.000000
   21       -4.227030   1.000000
   22       -4.226992   1.000000
   23       -3.949846   1.000000
   24       -3.949774   1.000000
   25       -2.885529   1.000000
   26        1.565955   0.000000
   27        1.898719   0.000000
   28        2.305682   0.000000
 
  0.1000000E+00  0.6938894E-17  0.0000000E+00  0.6000000E-01
    1      -11.264663   1.000000
    2      -10.337374   1.000000
    3       -8.693521   1.000000
    4       -7.267185   1.000000
    5       -5.960302   1.000000
    6       -5.668938   1.000000
    7       -5.573997   1.000000
    8       -5.392007   1.000000
    9       -5.323694   1.000000
   10       -5.288338   1.000000
   11       -5.268312   1.000000
   12       -5.116212   1.000000
   13       -5.106162   1.000000
   14       -5.063889   1.000000
   15       -4.966270   1.000000
   16       -4.861481   1.000000
   17       -4.721665   1.000000
   18       -4.636524   1.000000
   19       -4.461252   1.000000
   20       -4.425971   1.000000
   21       -4.258644   1.000000
   22       -4.223052   1.000000
   23       -3.944627   1.000000
   24       -3.744545   1.000000
   25       -2.204249   0.102994
   26        1.809304   0.000000
   27        2.201513   0.000000
   28        2.608388   0.000000
 
  0.2000000E+00 -0.1387779E-16  0.0000000E+00  0.6000000E-01
    1      -10.410503   1.000000
    2       -9.489203   1.000000
    3       -7.991449   1.000000
    4       -6.747717   1.000000
    5       -6.132212   1.000000
    6       -5.870893   1.000000
    7       -5.679009   1.000000
    8       -5.611039   1.000000
    9       -5.455488   1.000000
   10       -5.232535   1.000000
   11       -5.165735   1.000000
   12       -5.109582   1.000000
   13       -5.009446   1.000000
   14       -4.970713   1.000000
   15       -4.839033   1.000000
   16       -4.800119   1.000000
   17       -4.750225   1.000000
   18       -4.571935   1.000000
   19       -4.521233   1.000000
   20       -4.410554   1.000000
   21       -4.224273   1.000000
   22       -4.049511   1.000000
   23       -3.937598   1.000000
   24       -2.886408   1.000000
   25       -0.892017   0.000000
   26        2.535119   0.000000
   27        3.108778   0.000000
   28        3.524671   0.000000
 
  0.3000000E+00 -0.2775558E-16  0.0000000E+00  0.6000000E-01
    1       -9.208171   1.000000
    2       -8.301515   1.000000
    3       -7.274479   1.000000
    4       -6.498251   1.000000
    5       -6.260460   1.000000
    6       -6.102049   1.000000
    7       -5.810364   1.000000
    8       -5.587957   1.000000
    9       -5.489761   1.000000
   10       -5.242718   1.000000
   11       -5.075324   1.000000
   12       -5.019470   1.000000
   13       -4.864072   1.000000
   14       -4.799206   1.000000
   15       -4.699634   1.000000
   16       -4.587692   1.000000
   17       -4.489286   1.000000
   18       -4.329113   1.000000
   19       -4.286746   1.000000
   20       -4.213623   1.000000
   21       -4.099229   1.000000
   22       -3.922530   1.000000
   23       -3.590459   1.000000
   24       -1.718926   0.000000
   25        0.753996   0.000000
   26        3.705858   0.000000
   27        4.590090   0.000000
   28        4.977193   0.000000
 
  0.4000000E+00 -0.2775558E-16  0.0000000E+00  0.6000000E-01
    1       -8.287540   1.000000
    2       -7.312605   1.000000
    3       -6.950857   1.000000
    4       -6.517632   1.000000
    5       -6.427926   1.000000
    6       -6.247271   1.000000
    7       -5.928374   1.000000
    8       -5.401370   1.000000
    9       -5.252509   1.000000
   10       -5.163679   1.000000
   11       -5.130197   1.000000
   12       -4.904598   1.000000
   13       -4.823931   1.000000
   14       -4.451345   1.000000
   15       -4.333231   1.000000
   16       -4.284732   1.000000
   17       -4.076823   1.000000
   18       -4.062876   1.000000
   19       -3.997711   1.000000
   20       -3.922203   1.000000
   21       -3.783012   1.000000
   22       -3.504637   1.000000
   23       -2.525205   0.999470
   24       -0.324056   0.000000
   25        2.058197   0.000000
   26        2.479070   0.000000
   27        3.296819   0.000000
   28        4.621271   0.000000
 
  0.5000000E+00 -0.2775558E-16  0.0000000E+00  0.3000000E-01
    1       -8.057047   1.000000
    2       -7.023994   1.000000
    3       -6.877205   1.000000
    4       -6.509913   1.000000
    5       -6.501658   1.000000
    6       -6.299617   1.000000
    7       -5.949101   1.000000
    8       -5.365317   1.000000
    9       -5.198356   1.000000
   10       -5.193924   1.000000
   11       -4.924628   1.000000
   12       -4.910991   1.000000
   13       -4.575974   1.000000
   14       -4.426064   1.000000
   15       -4.227417   1.000000
   16       -4.098812   1.000000
   17       -4.004780   1.000000
   18       -3.901949   1.000000
   19       -3.842718   1.000000
   20       -3.667683   1.000000
   21       -3.647774   1.000000
   22       -2.178961   0.052370
   23       -1.318080   0.000000
   24       -0.780298   0.000000
   25        1.004406   0.000000
   26        1.717425   0.000000
   27        2.815452   0.000000
   28        4.039936   0.000000
 
  0.2000000E+00  0.1000000E+00  0.0000000E+00  0.6000000E-01
    1      -10.685689   1.000000
    2       -9.761739   1.000000
    3       -8.202812   1.000000
    4       -6.884364   1.000000
    5       -6.068272   1.000000
    6       -5.769302   1.000000
    7       -5.715451   1.000000
    8       -5.530085   1.000000
    9       -5.431234   1.000000
   10       -5.291528   1.000000
   11       -5.182481   1.000000
   12       -5.116655   1.000000
   13       -5.061921   1.000000
   14       -5.020969   1.000000
   15       -4.899063   1.000000
   16       -4.805524   1.000000
   17       -4.667167   1.000000
   18       -4.579681   1.000000
   19       -4.557973   1.000000
   20       -4.413879   1.000000
   21       -4.309017   1.000000
   22       -4.045677   1.000000
   23       -3.986142   1.000000
   24       -3.132786   1.000000
   25       -1.276195   0.000000
   26        2.295081   0.000000
   27        2.806817   0.000000
   28        3.213423   0.000000
 
  0.3000000E+00  0.1000000E+00  0.0000000E+00  0.1200000E+00
    1       -9.638685   1.000000
    2       -8.722110   1.000000
    3       -7.458678   1.000000
    4       -6.471088   1.000000
    5       -6.152515   1.000000
    6       -5.968127   1.000000
    7       -5.791955   1.000000
    8       -5.720716   1.000000
    9       -5.575090   1.000000
   10       -5.268367   1.000000
   11       -5.232513   1.000000
   12       -5.093442   1.000000
   13       -4.999561   1.000000
   14       -4.879475   1.000000
   15       -4.798455   1.000000
   16       -4.718827   1.000000
   17       -4.559750   1.000000
   18       -4.440657   1.000000
   19       -4.324134   1.000000
   20       -4.253460   1.000000
   21       -4.108884   1.000000
   22       -4.001060   1.000000
   23       -3.700570   1.000000
   24       -2.140363   0.015073
   25        0.154962   0.000000
   26        3.271583   0.000000
   27        4.012344   0.000000
   28        4.454678   0.000000
 
  0.4000000E+00  0.1000000E+00  0.0000000E+00  0.1200000E+00
    1       -8.522142   1.000000
    2       -7.572557   1.000000
    3       -6.954920   1.000000
    4       -6.454834   1.000000
    5       -6.274155   1.000000
    6       -6.113771   1.000000
    7       -5.877747   1.000000
    8       -5.589397   1.000000
    9       -5.487226   1.000000
   10       -5.244259   1.000000
   11       -5.201784   1.000000
   12       -5.037280   1.000000
   13       -4.891429   1.000000
   14       -4.705767   1.000000
   15       -4.592035   1.000000
   16       -4.462816   1.000000
   17       -4.333943   1.000000
   18       -4.201558   1.000000
   19       -4.124373   1.000000
   20       -3.942061   1.000000
   21       -3.898146   1.000000
   22       -3.589677   1.000000
   23       -2.830109   1.000000
   24       -0.739313   0.000000
   25        1.881398   0.000000
   26        3.921460   0.000000
   27        4.398356   0.000000
   28        5.244970   0.000000
 
  0.5000000E+00  0.1000000E+00  0.0000000E+00  0.1200000E+00
    1       -8.012903   1.000000
    2       -6.947982   1.000000
    3       -6.785094   1.000000
    4       -6.424985   1.000000
    5       -6.402407   1.000000
    6       -6.197048   1.000000
    7       -5.946917   1.000000
    8       -5.450073   1.000000
    9       -5.333961   1.000000
   10       -5.180940   1.000000
   11       -5.124698   1.000000
   12       -5.005293   1.000000
   13       -4.770372   1.000000
   14       -4.491664   1.000000
   15       -4.372991   1.000000
   16       -4.212715   1.000000
   17       -4.088499   1.000000
   18       -4.027656   1.000000
   19       -3.976248   1.000000
   20       -3.828565   1.000000
   21       -3.359247   1.000000
   22       -2.302822   0.551463
   23       -1.327687   0.000000
   24        0.111815   0.000000
   25        1.560302   0.000000
   26        1.990588   0.000000
   27        3.095449   0.000000
   28        4.451616   0.000000
 
  0.4000000E+00  0.2000000E+00  0.0000000E+00  0.6000000E-01
    1       -8.619499   1.000000
    2       -7.662754   1.000000
    3       -6.909058   1.000000
    4       -6.406739   1.000000
    5       -6.044663   1.000000
    6       -5.974037   1.000000
    7       -5.882392   1.000000
    8       -5.792876   1.000000
    9       -5.543211   1.000000
   10       -5.399555   1.000000
   11       -5.289199   1.000000
   12       -5.239534   1.000000
   13       -4.946250   1.000000
   14       -4.882561   1.000000
   15       -4.747369   1.000000
   16       -4.566797   1.000000
   17       -4.383547   1.000000
   18       -4.230394   1.000000
   19       -4.152029   1.000000
   20       -3.938148   1.000000
   21       -3.885063   1.000000
   22       -3.539381   1.000000
   23       -2.831812   1.000000
   24       -0.868192   0.000000
   25        1.691906   0.000000
   26        4.497199   0.000000
   27        5.319307   0.000000
   28        5.625193   0.000000
 
  0.5000000E+00  0.2000000E+00  0.0000000E+00  0.1200000E+00
    1       -7.932697   1.000000
    2       -6.784596   1.000000
    3       -6.578026   1.000000
    4       -6.336667   1.000000
    5       -6.168047   1.000000
    6       -6.014136   1.000000
    7       -5.886163   1.000000
    8       -5.713256   1.000000
    9       -5.543345   1.000000
   10       -5.437420   1.000000
   11       -5.299760   1.000000
   12       -5.025479   1.000000
   13       -4.946090   1.000000
   14       -4.796885   1.000000
   15       -4.610714   1.000000
   16       -4.498749   1.000000
   17       -4.338878   1.000000
   18       -4.156509   1.000000
   19       -3.987379   1.000000
   20       -3.846870   1.000000
   21       -3.139702   1.000000
   22       -2.330748   0.699964
   23       -1.220392   0.000000
   24        0.813628   0.000000
   25        2.995464   0.000000
   26        3.124531   0.000000
   27        3.979642   0.000000
   28        5.179474   0.000000
 
 -0.4000000E+00  0.2000000E+00  0.0000000E+00  0.6000000E-01
    1       -7.766938   1.000000
    2       -6.564942   1.000000
    3       -6.516186   1.000000
    4       -6.246705   1.000000
    5       -6.157389   1.000000
    6       -6.041456   1.000000
    7       -5.901710   1.000000
    8       -5.753114   1.000000
    9       -5.504336   1.000000
   10       -5.381919   1.000000
   11       -5.220727   1.000000
   12       -5.067392   1.000000
   13       -4.890830   1.000000
   14       -4.667383   1.000000
   15       -4.528976   1.000000
   16       -4.440719   1.000000
   17       -4.235884   1.000000
   18       -4.067764   1.000000
   19       -4.020891   1.000000
   20       -3.914338   1.000000
   21       -2.325111   0.671684
   22       -0.685234   0.000000
   23       -0.147371   0.000000
   24        0.608042   0.000000
   25        1.959435   0.000000
   26        2.173288   0.000000
   27        3.488150   0.000000
   28        4.641570   0.000000
 
 -0.4000000E+00  0.3000000E+00  0.0000000E+00  0.6000000E-01
    1       -7.653776   1.000000
    2       -6.318657   1.000000
    3       -6.272088   1.000000
    4       -6.205166   1.000000
    5       -6.043813   1.000000
    6       -5.959379   1.000000
    7       -5.910472   1.000000
    8       -5.818082   1.000000
    9       -5.667694   1.000000
   10       -5.496625   1.000000
   11       -5.384059   1.000000
   12       -5.012380   1.000000
   13       -4.963722   1.000000
   14       -4.819242   1.000000
   15       -4.626570   1.000000
   16       -4.470103   1.000000
   17       -4.405991   1.000000
   18       -4.111635   1.000000
   19       -4.032520   1.000000
   20       -3.938501   1.000000
   21       -1.900736   0.000000
   22       -0.362215   0.000000
   23        0.760385   0.000000
   24        2.036172   0.000000
   25        2.432405   0.000000
   26        2.951202   0.000000
   27        3.200980   0.000000
   28        3.971326   0.000000
