unknown system                          
   1.00000000000000     
     2.573869    0.000000    0.000000
     1.286934    2.229036    0.000000
     0.000000    0.000000   30.304665
   Cu   H 
     4     1
Direct
  0.000000  0.000000  0.396427
  0.333332  0.333332  0.465162
  0.666668  0.666665  0.533889
  0.000000  0.000000  0.606712
  0.666668  0.666665  0.638129
 
   10   10  120
  0.0000     0.15699E-15 0.39621E-14 0.40072E-08 0.31170E-13 0.29593E-11 0.89928E-14 0.76616E-10 0.17347E-14 0.90206E-16
 0.91940E-16 0.51348E-15 0.92641E-13 0.32406E-10 0.37428E-13 0.67968E-10 0.11852E-13 0.51149E-12 0.10998E-14 0.17694E-15
 0.39482E-14 0.92662E-13 0.20568E-12 0.79645E-13 0.71193E-14 0.75842E-13 0.14017E-13 0.90719E-13 0.16584E-14 0.67828E-15
 0.40072E-08 0.32406E-10 0.79617E-13 0.12559E-12 0.14766E-13 0.24510E-11 0.80491E-14 0.16957E-11 0.53249E-13 0.71992E-12
 0.31170E-13 0.37512E-13 0.70777E-14 0.14710E-13 0.98949E-14 0.31364E-13 0.16098E-14 0.29254E-13 0.34417E-13 0.23467E-13
 0.29592E-11 0.67968E-10 0.75925E-13 0.24509E-11 0.31308E-13 0.14091E-11 0.10464E-13 0.15521E-12 0.27867E-13 0.10616E-07
 0.90067E-14 0.11963E-13 0.14058E-13 0.80630E-14 0.15821E-14 0.10422E-13 0.59674E-14 0.27756E-14 0.14294E-14 0.75079E-14
 0.76616E-10 0.51155E-12 0.90705E-13 0.16957E-11 0.29296E-13 0.15540E-12 0.26090E-14 0.16986E-13 0.27492E-13 0.50219E-11
 0.17555E-14 0.11553E-14 0.16237E-14 0.53235E-13 0.34320E-13 0.27825E-13 0.15404E-14 0.27589E-13 0.51070E-13 0.38428E-13
  0.0000     0.55511E-16 0.60195E-15 0.71994E-12 0.23412E-13 0.10616E-07 0.74246E-14 0.50218E-11 0.38400E-13 0.19238E-14
 0.48572E-16 0.20123E-15 0.84030E-14 0.22060E-11 0.88818E-14 0.57757E-12 0.39482E-13 0.25478E-11 0.14433E-14 0.14572E-15
 0.11449E-15 0.58287E-15 0.11974E-12 0.64552E-11 0.17514E-13 0.91197E-11 0.31891E-13 0.66098E-12 0.17555E-14 0.20123E-15
 0.84308E-14 0.11979E-12 0.26439E-12 0.51861E-13 0.41356E-14 0.56427E-13 0.28089E-13 0.11038E-12 0.26194E-14 0.72164E-15
 0.22061E-11 0.64554E-11 0.51875E-13 0.29657E-13 0.44686E-14 0.57156E-12 0.23787E-13 0.18454E-11 0.58883E-13 0.86813E-12
 0.88540E-14 0.17569E-13 0.41356E-14 0.45242E-14 0.38580E-14 0.15085E-13 0.20400E-14 0.18027E-13 0.32196E-13 0.13239E-13
 0.57769E-12 0.91197E-11 0.56399E-13 0.57152E-12 0.15057E-13 0.14114E-11 0.22621E-13 0.13484E-11 0.62075E-13 0.46662E-11
 0.39510E-13 0.31974E-13 0.28103E-13 0.23800E-13 0.19706E-14 0.22607E-13 0.20206E-13 0.10963E-13 0.30947E-14 0.15959E-13
 0.25478E-11 0.66095E-12 0.11036E-12 0.18454E-11 0.18055E-13 0.13486E-11 0.10908E-13 0.99226E-13 0.72720E-13 0.59500E-10
 0.14710E-14 0.18111E-14 0.25188E-14 0.58842E-13 0.32210E-13 0.62131E-13 0.29837E-14 0.72678E-13 0.52860E-13 0.41404E-13
 0.78063E-16 0.15266E-15 0.68695E-15 0.86812E-12 0.13142E-13 0.46663E-11 0.15779E-13 0.59500E-10 0.41363E-13 0.31364E-14
 0.62450E-16 0.17000E-15 0.99643E-14 0.38775E-13 0.26090E-14 0.42508E-13 0.45033E-13 0.47504E-13 0.55511E-15 0.12837E-15
 0.13878E-15 0.43021E-15 0.14105E-12 0.19325E-11 0.91593E-14 0.11654E-11 0.67127E-13 0.86778E-12 0.21788E-14 0.19429E-15
 0.99989E-14 0.14108E-12 0.23183E-12 0.15626E-13 0.24841E-14 0.22440E-13 0.36901E-13 0.10565E-12 0.30531E-14 0.87430E-15
 0.38761E-13 0.19325E-11 0.15557E-13 0.97283E-14 0.15127E-14 0.13713E-12 0.48961E-13 0.20341E-11 0.65295E-13 0.10666E-11
 0.25951E-14 0.91593E-14 0.24702E-14 0.14710E-14 0.16098E-14 0.81046E-14 0.19013E-14 0.89928E-14 0.21441E-13 0.64809E-14
 0.42480E-13 0.11654E-11 0.22482E-13 0.13703E-12 0.81046E-14 0.15736E-11 0.53041E-13 0.14866E-09 0.78493E-13 0.21882E-11
 0.45047E-13 0.67155E-13 0.37012E-13 0.48933E-13 0.19429E-14 0.53180E-13 0.72581E-13 0.46602E-13 0.55234E-14 0.39455E-13
 0.47504E-13 0.86783E-12 0.10565E-12 0.20340E-11 0.90344E-14 0.14866E-09 0.46435E-13 0.12968E-11 0.95882E-13 0.15346E-09
 0.55511E-15 0.22135E-14 0.30045E-14 0.65184E-13 0.21358E-13 0.78382E-13 0.56344E-14 0.95868E-13 0.35569E-13 0.47282E-13
 0.10408E-15 0.86736E-16 0.88124E-15 0.10667E-11 0.63699E-14 0.21882E-11 0.39371E-13 0.15346E-09 0.47240E-13 0.46491E-14
 0.13878E-16 0.20817E-15 0.78271E-14 0.70360E-14 0.11935E-14 0.71332E-14 0.11852E-13 0.94091E-14 0.13878E-15 0.90206E-16
 0.18041E-15 0.56899E-15 0.15456E-12 0.11021E-11 0.52180E-14 0.52205E-12 0.28191E-12 0.97747E-12 0.31225E-14 0.22204E-15
 0.78410E-14 0.15457E-12 0.22553E-12 0.11408E-13 0.15682E-14 0.16473E-13 0.55192E-13 0.11008E-12 0.34972E-14 0.92981E-15
 0.70777E-14 0.11021E-11 0.11366E-13 0.51625E-14 0.66613E-15 0.87055E-13 0.21881E-12 0.21333E-11 0.58051E-13 0.10457E-11
 0.11935E-14 0.52736E-14 0.16098E-14 0.74940E-15 0.77716E-15 0.49127E-14 0.22482E-14 0.63977E-14 0.14960E-13 0.43854E-14
 0.72720E-14 0.52200E-12 0.16487E-13 0.86944E-13 0.49405E-14 0.16400E-11 0.16392E-12 0.12309E-10 0.11688E-12 0.11925E-11
 0.11907E-13 0.28198E-12 0.55178E-13 0.21876E-12 0.22066E-14 0.16398E-12 0.33032E-12 0.15651E-12 0.10325E-13 0.11990E-12
 0.94785E-14 0.97759E-12 0.11009E-12 0.21332E-11 0.63699E-14 0.12309E-10 0.15654E-12 0.23747E-11 0.15815E-12 0.85630E-11
 0.13878E-15 0.31641E-14 0.34278E-14 0.57912E-13 0.14919E-13 0.11693E-12 0.10381E-13 0.15815E-12 0.19484E-13 0.41092E-13
 0.11102E-15 0.19429E-15 0.86042E-15 0.10457E-11 0.43576E-14 0.11927E-11 0.11985E-12 0.85630E-11 0.41023E-13 0.72581E-14
 0.41633E-16 0.16653E-15 0.51487E-14 0.18180E-14 0.41633E-15 0.22482E-14 0.16792E-14 0.26923E-14 0.83267E-16 0.11102E-15
 0.16653E-15 0.33307E-15 0.17811E-12 0.53875E-12 0.30809E-14 0.22395E-12 0.11740E-11 0.11749E-11 0.42188E-14 0.30531E-15
 0.51070E-14 0.17809E-12 0.19335E-12 0.31641E-14 0.91593E-15 0.59119E-14 0.48225E-13 0.11684E-12 0.41911E-14 0.14155E-14
 0.17764E-14 0.53876E-12 0.30809E-14 0.22621E-14 0.23592E-15 0.38164E-13 0.80091E-12 0.23659E-11 0.80602E-13 0.14405E-11
 0.45797E-15 0.31086E-14 0.95757E-15 0.22204E-15 0.24980E-15 0.29282E-14 0.16931E-14 0.31086E-14 0.10131E-13 0.21649E-14
 0.22760E-14 0.22399E-12 0.59813E-14 0.38136E-13 0.29143E-14 0.19422E-11 0.38961E-12 0.50662E-12 0.75329E-13 0.15116E-11
 0.17902E-14 0.11740E-11 0.48239E-13 0.80089E-12 0.17208E-14 0.38980E-12 0.28549E-12 0.60507E-13 0.11824E-13 0.26024E-12
 0.27339E-14 0.11749E-11 0.11682E-12 0.23659E-11 0.31364E-14 0.50659E-12 0.60230E-13 0.35638E-13 0.92815E-13 0.38123E-11
 0.41633E-16 0.43021E-14 0.41078E-14 0.80630E-13 0.10159E-13 0.75107E-13 0.12046E-13 0.92815E-13 0.88263E-14 0.48656E-13
 0.12490E-15 0.19429E-15 0.14017E-14 0.14406E-11 0.21649E-14 0.15118E-11 0.26018E-12 0.38123E-11 0.48656E-13 0.14141E-13
 0.13878E-16 0.12490E-15 0.33862E-14 0.76328E-15 0.27756E-15 0.94369E-15 0.58287E-15 0.12351E-14  0.0000     0.97145E-16
 0.18041E-15 0.41633E-15 0.29582E-12 0.37161E-12 0.21094E-14 0.14745E-12 0.23530E-10 0.13054E-11 0.70638E-14 0.29143E-15
 0.33584E-14 0.29586E-12 0.18266E-12 0.20817E-14 0.66613E-15 0.42882E-14 0.40620E-13 0.16989E-12 0.57593E-14 0.13600E-14
 0.79103E-15 0.37158E-12 0.19845E-14 0.16515E-14 0.11102E-15 0.26854E-13 0.25863E-10 0.24279E-11 0.86944E-13 0.14197E-11
 0.36082E-15 0.20262E-14 0.74940E-15 0.10408E-15 0.20817E-15 0.19984E-14 0.19706E-14 0.23315E-14 0.79103E-14 0.16098E-14
 0.10547E-14 0.14749E-12 0.42188E-14 0.26784E-13 0.18874E-14 0.20855E-11 0.10917E-11 0.39885E-13 0.63338E-13 0.18099E-11
 0.61062E-15 0.23530E-10 0.40634E-13 0.25863E-10 0.19984E-14 0.10917E-11 0.16134E-12 0.20595E-13 0.13156E-13 0.57793E-12
 0.12629E-14 0.13054E-11 0.16991E-12 0.24279E-11 0.23315E-14 0.39968E-13 0.20484E-13 0.49405E-14 0.74746E-13 0.18539E-11
 -.13878E-16 0.70499E-14 0.57870E-14 0.86917E-13 0.80214E-14 0.63338E-13 0.13212E-13 0.74857E-13 0.31919E-14 0.47601E-13
 0.55511E-16 0.29143E-15 0.14017E-14 0.14198E-11 0.15266E-14 0.18101E-11 0.57782E-12 0.18538E-11 0.47670E-13 0.22607E-13
 0.83267E-16 0.13878E-15 0.18180E-14 0.27756E-15 0.19429E-15 0.33307E-15 0.13878E-15 0.45797E-15 0.13878E-16 0.13878E-15
 0.19429E-15 0.20817E-16 0.27262E-12 0.21844E-12 0.11102E-14 0.81220E-13 0.10457E-09 0.14572E-11 0.85348E-14 0.54123E-15
 0.18319E-14 0.27256E-12 0.15083E-12 0.62450E-15 0.37817E-15 0.18666E-14 0.15939E-13 0.14705E-12 0.57870E-14 0.13045E-14
 0.29143E-15 0.21838E-12 0.57593E-15 0.97838E-15 0.58981E-16 0.15675E-13 0.94640E-10 0.26136E-11 0.94896E-13 0.19658E-11
 0.16653E-15 0.11657E-14 0.49266E-15 0.27756E-16 0.48572E-16 0.11657E-14 0.12768E-14 0.14433E-14 0.55511E-14 0.80491E-15
 0.52736E-15 0.81241E-13 0.19360E-14 0.15654E-13 0.11102E-14 0.27258E-11 0.76719E-12 0.22204E-15 0.31419E-13 0.42978E-09
 0.27756E-15 0.10457E-09 0.16001E-13 0.94640E-10 0.13045E-14 0.76719E-12 0.33723E-13 0.54956E-14 0.51070E-14 0.35791E-12
 0.54123E-15 0.14573E-11 0.14702E-12 0.26137E-11 0.14433E-14 0.33307E-15 0.53291E-14 0.44409E-15 0.35472E-13 0.13378E-11
 0.13878E-16 0.85626E-14 0.57870E-14 0.94869E-13 0.54956E-14 0.31281E-13 0.53013E-14 0.35388E-13 0.11102E-15 0.48531E-13
 0.11102E-15 0.52736E-15 0.13461E-14 0.19660E-11 0.91593E-15 0.42978E-09 0.35791E-12 0.13379E-11 0.48600E-13 0.46629E-13
 0.13878E-16 0.16653E-15 0.13739E-14 0.22204E-15 0.13878E-15 0.27756E-15 0.69389E-16 0.30531E-15 -.27756E-16 0.76328E-16
 0.16653E-15 0.13878E-16 0.63209E-12 0.16791E-12 0.80491E-15 0.59924E-13 0.16922E-10 0.15068E-11 0.13857E-13 0.77716E-15
 0.14017E-14 0.63199E-12 0.15570E-12 0.30531E-15 0.28970E-15 0.11241E-14 0.71887E-14 0.21889E-12 0.82018E-14 0.18180E-14
 0.22204E-15 0.16794E-12 0.28449E-15 0.72685E-15  0.0000     0.11553E-13 0.95061E-11 0.26171E-11 0.10880E-12 0.24800E-11
 0.20817E-15 0.83267E-15 0.35388E-15 0.69389E-17 0.76328E-16 0.79103E-15 0.13323E-14 0.11380E-14 0.43854E-14 0.69389E-15
 0.47184E-15 0.59928E-13 0.10686E-14 0.11539E-13 0.72164E-15 0.29722E-11 0.40604E-12 0.83267E-16 0.20178E-13 0.28165E-11
 0.12490E-15 0.16922E-10 0.72026E-14 0.95061E-11 0.13600E-14 0.40601E-12 0.13212E-13 0.25813E-14 0.28588E-14 0.18402E-12
 0.33307E-15 0.15068E-11 0.21894E-12 0.26171E-11 0.11102E-14 0.11102E-15 0.25535E-14 0.27756E-15 0.22926E-13 0.89598E-12
 0.55511E-16 0.13843E-13 0.81740E-14 0.10870E-12 0.43854E-14 0.20234E-13 0.29421E-14 0.22898E-13 0.13878E-14 0.49863E-13
 0.10408E-15 0.80491E-15 0.18457E-14 0.24800E-11 0.49960E-15 0.28167E-11 0.18394E-12 0.89589E-12 0.49932E-13 0.10700E-12
  0.0000     0.13878E-15 0.10131E-14 0.55511E-16 0.55511E-16 0.13878E-15 -.55511E-16 0.11796E-15  0.0000     0.62450E-16
 0.97145E-16 0.34694E-16 0.68383E-12 0.11904E-12 0.55511E-15 0.43972E-13 0.14479E-11 0.15990E-11 0.19276E-13 0.11380E-14
 0.10339E-14 0.68377E-12 0.17384E-12 0.19429E-15 0.15699E-15 0.75634E-15 0.29837E-14 0.22695E-12 0.89651E-14 0.24356E-14
 0.11102E-15 0.11909E-12 0.18041E-15 0.49266E-15 -.69389E-17 0.92565E-14 0.72448E-12 0.27943E-11 0.98976E-13 0.13347E-11
 0.83267E-16 0.44409E-15 0.26628E-15 -.34694E-17 -.38164E-16 0.55511E-15 0.10963E-14 0.72164E-15 0.34694E-14 0.36082E-15
 0.27756E-15 0.43920E-13 0.74940E-15 0.93441E-14 0.62450E-15 0.45382E-11 0.15579E-12 0.27756E-15 0.13489E-13 0.26845E-12
 0.41633E-16 0.14480E-11 0.30462E-14 0.72456E-12 0.11935E-14 0.15585E-12 0.57732E-14 0.11935E-14 0.13323E-14 0.75537E-13
 0.22204E-15 0.15990E-11 0.22698E-12 0.27944E-11 0.68001E-15 0.38858E-15 0.11102E-14  0.0000     0.15168E-13 0.74887E-12
 0.69389E-16 0.19318E-13 0.89651E-14 0.98990E-13 0.34972E-14 0.13461E-13 0.13878E-14 0.15168E-13 0.48850E-14 0.45332E-13
 0.34694E-16 0.10547E-14 0.24356E-14 0.13348E-11 0.33307E-15 0.26851E-12 0.75551E-13 0.74893E-12 0.45276E-13 0.44417E-12
 0.27756E-16 0.17347E-15 0.10686E-14 0.55511E-16 0.48572E-16 0.55511E-16 0.27756E-16 0.10408E-15 0.11102E-15 0.62450E-16
 0.11102E-15 -.27756E-16 0.10238E-11 0.82073E-13 0.35388E-15 0.32495E-13 0.28809E-12 0.14818E-11 0.31489E-13 0.23037E-14
 0.10617E-14 0.10238E-11 0.18993E-12 0.45103E-16 0.17217E-15 0.39552E-15 0.75634E-15 0.28426E-12 0.12199E-13 0.48711E-14
 0.27756E-16 0.82098E-13 0.58981E-16 0.38684E-15 -.20817E-16 0.82122E-14 0.13679E-12 0.27420E-11 0.11721E-12 0.22261E-11
 0.62450E-16 0.34694E-15 0.20470E-15 -.11449E-15 0.50307E-16 0.38858E-15 0.79103E-15 0.48572E-15 0.26923E-14 0.33307E-15
 0.24980E-15 0.32502E-13 0.37123E-15 0.82365E-14 0.44409E-15 0.54412E-11 0.65808E-13 0.83267E-15 0.82295E-14 0.68390E-13
 0.13878E-16 0.28813E-12 0.83267E-15 0.13686E-12 0.88818E-15 0.65711E-13 0.29698E-14 0.66613E-15 0.77716E-15 0.34930E-13
 0.12490E-15 0.14818E-11 0.28434E-12 0.27420E-11 0.58287E-15 0.88818E-15 0.66613E-15 0.27756E-16 0.93953E-14 0.57918E-12
 0.13878E-15 0.31475E-13 0.12206E-13 0.11715E-12 0.26368E-14 0.82989E-14 0.66613E-15 0.93606E-14 0.81879E-14 0.45533E-13
 0.83267E-16 0.22898E-14 0.48989E-14 0.22262E-11 0.18041E-15 0.68556E-13 0.34889E-13 0.57906E-12 0.45505E-13 0.17970E-10
 0.27756E-16 0.11102E-15 0.89512E-15 0.69389E-16 0.69389E-16 0.76328E-16 0.55511E-16 0.20817E-16 0.48572E-16 -.13878E-16
 0.83267E-16 0.47670E-14 0.28617E-11 0.67855E-13 0.24980E-15 0.26305E-13 0.12329E-12 0.15380E-11 0.41550E-13 0.43993E-14
 0.84655E-15 0.28617E-11 0.20103E-12 -.20817E-16 0.62450E-16 0.28449E-15 0.13878E-15 0.34866E-12 0.13406E-13 0.36568E-14
 0.90206E-16 0.67849E-13 0.38164E-16 0.31572E-15  0.0000     0.86736E-14 0.63130E-13 0.28765E-11 0.12443E-12 0.15190E-11
 0.34694E-16 0.20817E-15 0.19429E-15 -.34694E-16 -.55511E-16 0.31225E-15 0.72164E-15 0.44409E-15 0.21372E-14 0.24980E-15
 0.41633E-16 0.26271E-13 0.30531E-15 0.86493E-14 0.27756E-15 0.82667E-11 0.32967E-13 0.58287E-15 0.57662E-14 0.32058E-13
 0.11102E-15 0.12337E-12 0.11796E-15 0.63130E-13 0.78410E-15 0.33050E-13 0.15543E-14 0.51348E-15 0.29143E-15 0.19450E-13
 0.13878E-15 0.15380E-11 0.34874E-12 0.28765E-11 0.39552E-15 0.63838E-15 0.37470E-15 0.13878E-16 0.64046E-14 0.49225E-12
 -.41633E-16 0.41550E-13 0.13323E-13 0.12443E-12 0.21094E-14 0.57454E-14 0.47184E-15 0.63560E-14 0.10970E-13 0.42813E-13
 0.69389E-17 0.44270E-14 0.36013E-14 0.15192E-11 0.21511E-15 0.32099E-13 0.19519E-13 0.49222E-12 0.42813E-13 0.19383E-11
 0.69389E-16 0.90206E-16 0.86042E-15 0.69389E-17 -.13878E-16 0.11796E-15 0.48572E-16  0.0000     0.20817E-16 0.90206E-16
 0.76328E-16 0.32065E-13 0.12737E-11 0.47275E-13 0.26368E-15 0.20386E-13 0.45082E-13 0.13388E-11 0.59910E-13 0.98255E-14
 0.81879E-15 0.12737E-11 0.21113E-12 -.41633E-16 0.11796E-15 0.21511E-15 0.76328E-16 0.30343E-12 0.15515E-13 0.47531E-14
 0.27756E-16 0.47316E-13 0.13878E-16 0.36082E-15 0.13878E-16 0.87291E-14 0.21878E-13 0.27755E-11 0.13207E-12 0.86257E-12
 0.83267E-16 0.18735E-15 0.13184E-15 -.83267E-16 0.15959E-15 0.24980E-15 0.52736E-15 0.28449E-15 0.18943E-14 0.23592E-15
 0.83267E-16 0.20477E-13 0.28449E-15 0.86944E-14 0.24980E-15 0.14021E-10 0.17236E-13 0.53429E-15 0.43854E-14 0.10117E-13
 0.27756E-16 0.45013E-13 0.69389E-16 0.21830E-13 0.61062E-15 0.17153E-13 0.10825E-14 0.33307E-15 0.31225E-15 0.10381E-13
 0.69389E-16 0.13389E-11 0.30355E-12 0.27756E-11 0.32613E-15 0.58981E-15 0.43021E-15 0.27756E-16 0.51140E-14 0.42046E-12
  0.0000     0.59897E-13 0.15467E-13 0.13198E-12 0.17208E-14 0.44964E-14 0.28449E-15 0.49544E-14 0.12185E-13 0.40190E-13
 0.41633E-16 0.97908E-14 0.47670E-14 0.86255E-12 0.15266E-15 0.10228E-13 0.10367E-13 0.42050E-12 0.40176E-13 0.59504E-12
 0.69389E-17 0.62450E-16 0.83267E-15 0.34694E-16 0.62450E-16 -.69389E-17  0.0000     -.76328E-16 -.13878E-16 0.62450E-16
 0.13878E-16 0.21103E-12 0.80447E-11 0.40107E-13 0.11796E-15 0.16966E-13 0.26992E-13 0.13074E-11 0.10021E-12 0.31218E-13
 0.84655E-15 0.80447E-11 0.22500E-12 -.20817E-16 0.76328E-16 0.17347E-15 0.27756E-16 0.42560E-12 0.20907E-13 0.99157E-14
 0.55511E-16 0.40162E-13 0.69389E-17 0.38164E-15 0.69389E-16 0.88402E-14 0.13059E-13 0.28185E-11 0.13301E-12 0.47234E-12
 0.62450E-16 0.11102E-15 0.11796E-15 -.97145E-16 -.69389E-17 0.18735E-15 0.58287E-15 0.24286E-15 0.15474E-14 0.22204E-15
 -.69389E-17 0.16841E-13 0.19429E-15 0.88332E-14 0.16653E-15 0.42025E-10 0.10561E-13 0.49960E-15 0.29352E-14 0.59466E-14
 -.69389E-17 0.26985E-13 0.69389E-16 0.12983E-13 0.62450E-15 0.10596E-13 0.61756E-15 0.19429E-15 0.76328E-16 0.67377E-14
 0.97145E-16 0.13074E-11 0.42567E-12 0.28186E-11 0.29143E-15 0.56899E-15 0.11796E-15 0.13878E-16 0.35943E-14 0.36435E-12
 0.48572E-16 0.10018E-12 0.20844E-13 0.13299E-12 0.15474E-14 0.30045E-14 0.18041E-15 0.35111E-14 0.13274E-13 0.38067E-13
 0.20817E-16 0.31163E-13 0.10006E-13 0.47243E-12 0.20817E-15 0.59813E-14 0.67030E-14 0.36442E-12 0.38122E-13 0.28794E-12
  0.0000     0.34694E-16 0.65919E-15 -.13878E-16 -.20817E-16 0.48572E-16 -.13878E-16 -.48572E-16 0.41633E-16 0.76328E-16
 0.76328E-16 0.77771E-12 0.25635E-11 0.30101E-13 0.97145E-16 0.14190E-13 0.14391E-13 0.12007E-11 0.11676E-12 0.95639E-13
 0.70777E-15 0.25635E-11 0.26047E-12 -.27756E-16 0.55511E-16 0.13184E-15 0.13878E-16 0.33465E-12 0.19096E-13 0.20296E-13
 0.20817E-16 0.30122E-13 0.27756E-16 0.31225E-15 -.20817E-16 0.90900E-14 0.66475E-14 0.26336E-11 0.12330E-12 0.77618E-13
 -.13878E-16 0.10408E-15 0.76328E-16 -.55511E-16 0.97145E-16 0.11796E-15 0.38858E-15 0.11102E-15 0.14433E-14 0.76328E-16
 0.83267E-16 0.14176E-13 0.15266E-15 0.90622E-14 0.15266E-15 0.68517E-10 0.66683E-14 0.38858E-15 0.23037E-14 0.26784E-14
 0.41633E-16 0.14412E-13 0.27756E-16 0.65711E-14 0.44409E-15 0.66405E-14 0.44409E-15 0.17347E-15 0.11102E-15 0.42674E-14
 0.27756E-16 0.12007E-11 0.33470E-12 0.26338E-11 0.21511E-15 0.47184E-15 0.24980E-15 0.13878E-16 0.28033E-14 0.32236E-12
 0.90206E-16 0.11671E-12 0.19110E-13 0.12322E-12 0.14641E-14 0.25188E-14 0.62450E-16 0.27825E-14 0.12469E-13 0.35187E-13
 0.27756E-16 0.95583E-13 0.20296E-13 0.77598E-13 0.55511E-16 0.28103E-14 0.43923E-14 0.32231E-12 0.35215E-13 0.24340E-12
 -.27756E-16 0.27756E-16 0.77716E-15 -.34694E-16  0.0000     0.41633E-16 0.13878E-16 0.34694E-16 0.34694E-16 0.34694E-16
 0.13878E-16 0.18063E-12 0.19910E-09 0.23655E-13 0.12490E-15 0.12240E-13 0.89373E-14 0.14348E-11 0.16168E-12 0.14418E-11
 0.79797E-15 0.19910E-09 0.26592E-12 0.83267E-16 0.13878E-16 0.48572E-16 -.34694E-16 0.64865E-12 0.26285E-13 0.43847E-13
 0.90206E-16 0.23641E-13 0.27756E-16 0.36082E-15 0.13878E-16 0.92981E-14 0.41633E-14 0.26539E-11 0.13705E-12 0.85418E-14
 0.11102E-15 0.83267E-16 0.90206E-16  0.0000     0.13878E-16 0.69389E-16 0.38858E-15 0.15959E-15 0.12143E-14 0.62450E-16
 0.41633E-16 0.12254E-13 0.13878E-15 0.92842E-14 0.90206E-16 0.76539E-09 0.44409E-14 0.43715E-15 0.17972E-14 0.17625E-14
 0.34694E-16 0.88471E-14 0.55511E-16 0.41772E-14 0.41633E-15 0.45033E-14 0.39378E-15 0.13184E-15 0.31225E-16 0.30739E-14
 0.41633E-16 0.14348E-11 0.64868E-12 0.26541E-11 0.23592E-15 0.44409E-15 0.18388E-15 0.22551E-16 0.29213E-14 0.30149E-12
 0.20817E-16 0.16168E-12 0.26285E-13 0.13706E-12 0.11866E-14 0.18978E-14 0.62450E-16 0.27686E-14 0.14162E-13 0.33189E-13
  0.0000     0.14417E-11 0.43854E-13 0.86181E-14 0.11102E-15 0.18388E-14 0.32613E-14 0.30156E-12 0.33189E-13 0.19466E-12
 -.27756E-16 -.13878E-16 0.61062E-15 0.13878E-16 0.20817E-16 0.34694E-16 0.69389E-17 -.69389E-17 0.48572E-16 0.20817E-16
 0.55511E-16 0.88284E-13 0.63704E-11 0.19110E-13 0.90206E-16 0.91316E-14 0.58634E-14 0.15969E-11 0.14520E-12 0.65876E-10
 0.63144E-15 0.63704E-11 0.29664E-12 0.27756E-16 0.83267E-16 -.13878E-16 -.27756E-16 0.95294E-12 0.19797E-13 0.28033E-13
 -.13878E-16 0.19137E-13 -.34694E-16 0.29837E-15 0.48572E-16 0.80144E-14 0.25743E-14 0.24422E-11 0.13115E-12 0.65531E-13
 0.62450E-16 0.83267E-16 0.69389E-17 0.20817E-16 -.13878E-16  0.0000     0.31919E-15 0.55511E-16 0.12212E-14 0.34694E-17
 -.13878E-16 0.91177E-14 0.27756E-16 0.79450E-14 0.83267E-16 0.11748E-09 0.28588E-14 0.35735E-15 0.11866E-14 0.13531E-15
 -.20817E-16 0.58703E-14 0.41633E-16 0.25951E-14 0.30531E-15 0.28623E-14 0.15092E-15 -.15699E-15 -.36429E-16 0.20782E-14
 0.69389E-17 0.15968E-11 0.95304E-12 0.24423E-11 0.97145E-16 0.38337E-15 0.38164E-16 -.12143E-16 0.18770E-14 0.27017E-12
 -.34694E-16 0.14517E-12 0.19693E-13 0.13108E-12 0.12351E-14 0.13080E-14 -.48572E-16 0.18700E-14 0.13333E-13 0.29914E-13
 -.27756E-16 0.65876E-10 0.28012E-13 0.65579E-13 0.13878E-16 0.18388E-15 0.20955E-14 0.27023E-12 0.30011E-13 0.16737E-12
 0.55511E-16 0.48572E-16 0.76328E-15 0.48572E-16 0.55511E-16 0.83267E-16 0.13878E-16  0.0000     0.48572E-16 0.13878E-16
 0.20817E-16 0.78555E-13 0.99258E-12 0.14169E-13 0.11102E-15 0.85071E-14 0.37678E-14 0.15044E-11 0.19032E-12 0.67397E-10
 0.76328E-15 0.99259E-12 0.28762E-12 0.27756E-16 0.10408E-15 0.69389E-16 0.16653E-15 0.83930E-12 0.25216E-13 0.65170E-13
  0.0000     0.14141E-13 0.13878E-16 0.38858E-15 0.55511E-16 0.97422E-14 0.15959E-14 0.24039E-11 0.14232E-12 0.80283E-13
 0.55511E-16 0.97145E-16 0.62450E-16 -.55511E-16  0.0000     0.17347E-15 0.33307E-15 0.13878E-15 0.12559E-14 0.45103E-16
 0.13878E-15 0.84793E-14 0.13878E-15 0.97145E-14 0.12490E-15 0.26290E-10 0.26090E-14 0.42674E-15 0.14988E-14 0.58113E-15
 0.62450E-16 0.37678E-14 0.13878E-15 0.15404E-14 0.24980E-15 0.24702E-14 0.19863E-15 0.55511E-16 0.24286E-16 0.17868E-14
 0.41633E-16 0.15044E-11 0.83936E-12 0.24039E-11 0.26368E-15 0.52085E-15 0.16653E-15 0.12577E-15 0.28345E-14 0.23286E-12
 0.10408E-15 0.19029E-12 0.25202E-13 0.14228E-12 0.11727E-14 0.15474E-14 0.81966E-16 0.27339E-14 0.12934E-13 0.27450E-13
 -.13878E-16 0.67397E-10 0.65212E-13 0.80339E-13 0.20123E-15 0.66093E-15 0.19620E-14 0.23283E-12 0.27499E-13 0.19023E-12
 0.41633E-16  0.0000     0.62450E-15 -.62450E-16 0.13878E-16 -.69389E-16 0.34694E-16 0.13878E-16 -.27756E-16 0.27756E-16
 0.13878E-16 0.73247E-13 0.24417E-09 0.11852E-13 0.69389E-17 0.68556E-14 0.26784E-14 0.16187E-11 0.16678E-12 0.69748E-12
 0.66613E-15 0.24417E-09 0.36293E-12 -.13878E-16 0.27756E-16 0.41633E-16  0.0000     0.12155E-11 0.20831E-13 0.55123E-13
 -.97145E-16 0.11803E-13 -.62450E-16 0.30531E-15  0.0000     0.95202E-14 0.11310E-14 0.21982E-11 0.12183E-12 0.16442E-12
 -.27756E-16 -.41633E-16 0.69389E-16  0.0000     0.55511E-16 -.27756E-16 0.28449E-15 0.69389E-17 0.15335E-14  0.0000    
 0.27756E-16 0.68279E-14 0.83267E-16 0.94647E-14  0.0000     0.11364E-10 0.16653E-14 0.36429E-15 0.99920E-15 -.72858E-16
 0.41633E-16 0.26923E-14 0.83267E-16 0.11588E-14 0.25674E-15 0.15959E-14 0.65919E-16 -.12490E-15 -.91940E-16 0.10651E-14
 -.13878E-16 0.16185E-11 0.12155E-11 0.21982E-11 0.48572E-16 0.36776E-15 0.11102E-15 -.22725E-15 0.19360E-14 0.22102E-12
 0.34694E-16 0.16675E-12 0.20733E-13 0.12177E-12 0.14676E-14 0.10131E-14 -.13531E-15 0.18527E-14 0.10929E-13 0.24918E-13
 0.27756E-16 0.69741E-12 0.55095E-13 0.16444E-12  0.0000     -.55511E-16 0.11137E-14 0.22098E-12 0.24966E-13 0.20007E-12
 0.27756E-16 0.55511E-16 0.83267E-15 0.27756E-16 -.27756E-16  0.0000     -.41633E-16  0.0000     0.55511E-16  0.0000    
 0.55511E-16 0.89595E-13 0.40005E-09 0.10436E-13 0.69389E-16 0.59952E-14 0.21441E-14 0.17712E-11 0.18886E-12 0.11562E-12
 0.86042E-15 0.40005E-09 0.33309E-12 -.69389E-17 -.27756E-16 0.97145E-16 0.41633E-16 0.16685E-11 0.26687E-13 0.35652E-13
 0.41633E-16 0.10436E-13 -.48572E-16 0.27756E-15 -.55511E-16 0.93259E-14 0.90206E-15 0.21520E-11 0.13388E-12 0.97297E-13
 0.55511E-16 0.34694E-16 0.55511E-16 -.27756E-16 -.55511E-16 0.27756E-16 0.16653E-15 0.11102E-15 0.15404E-14  0.0000    
 0.83267E-16 0.58842E-14 0.55511E-16 0.93814E-14 0.27756E-16 0.51589E-11 0.14988E-14 0.45797E-15 0.15682E-14 -.69389E-17
 -.13878E-16 0.21927E-14 0.83267E-16 0.92287E-15 0.20817E-15 0.14988E-14 0.25674E-15 0.27756E-16 0.58981E-16 0.88818E-15
  0.0000     0.17711E-11 0.16686E-11 0.21520E-11 0.13878E-15 0.48572E-15 0.13878E-16 0.12837E-15 0.26368E-14 0.19637E-12
 0.27756E-16 0.18885E-12 0.26715E-13 0.13384E-12 0.14988E-14 0.17208E-14 0.65919E-16 0.25813E-14 0.10499E-13 0.29254E-13
 0.27756E-16 0.11556E-12 0.35638E-13 0.97297E-13 0.83267E-16 0.34694E-16 0.10270E-14 0.19637E-12 0.29310E-13 0.22105E-12
  0.0000     -.27756E-16 0.63838E-15 -.41633E-16 -.97145E-16 -.13878E-16 -.97145E-16 -.13878E-16 0.41633E-16 0.13878E-16
  0.0000     0.10622E-12 0.66222E-11 0.82157E-14 -.69389E-17 0.53013E-14 0.15959E-14 0.17250E-11 0.14024E-12 0.32252E-13
 0.70777E-15 0.66222E-11 0.37373E-12 0.13878E-16 0.27756E-16 0.27756E-16 0.41633E-16 0.25497E-11 0.18749E-13 0.41772E-14
 -.27756E-16 0.81879E-14 -.69389E-16 0.47184E-15 -.13878E-16 0.95479E-14 0.59674E-15 0.19229E-11 0.11631E-12 0.15752E-12
 -.13878E-16 -.27756E-16 -.27756E-16 -.27756E-16 0.13878E-16 -.55511E-16 0.16653E-15 0.13878E-16 0.14572E-14 -.27756E-16
 -.83267E-16 0.51625E-14 0.69389E-16 0.94785E-14 -.13878E-16 0.36227E-11 0.90206E-15 0.19429E-15 0.94369E-15 -.69389E-17
  0.0000     0.16098E-14 0.11102E-15 0.63838E-15 0.12490E-15 0.92981E-15 0.13878E-16 -.83267E-16 -.55511E-16 0.61062E-15
 -.13878E-16 0.17250E-11 0.25497E-11 0.19230E-11 0.69389E-16 0.37470E-15 0.69389E-16 -.15266E-15 0.20817E-14 0.18036E-12
 -.27756E-16 0.14017E-12 0.18832E-13 0.11614E-12 0.14572E-14 0.10270E-14 -.83267E-16 0.20262E-14 0.98532E-14 0.27450E-13
 0.13878E-16 0.32155E-13 0.41495E-14 0.15755E-12 -.27756E-16 -.48572E-16 0.55511E-15 0.18027E-12 0.27492E-13 0.24370E-12
 0.41633E-16 0.55511E-16 0.84655E-15 0.13878E-16 -.27756E-16 -.83267E-16 -.55511E-16 -.55511E-16 0.27756E-16 0.97145E-16
 0.41633E-16 0.18738E-12 0.11907E-11 0.79242E-14 -.27756E-16 0.64948E-14 0.13184E-14 0.19543E-11 0.13910E-12 0.12434E-13
 0.88818E-15 0.11907E-11 0.38214E-12 0.13878E-16 0.27756E-16 -.41633E-16 0.55511E-16 0.55671E-11 0.21524E-13 0.31225E-14
 -.83267E-16 0.79103E-14 0.13878E-16 0.36082E-15 -.27756E-16 0.11074E-13 0.55511E-15 0.18694E-11 0.11510E-12 0.14946E-12
 0.55511E-16 0.41633E-16 0.97145E-16 -.41633E-16 -.41633E-16 0.41633E-16 0.12490E-15 0.83267E-16 0.17625E-14 0.11102E-15
 -.27756E-16 0.63560E-14 0.69389E-16 0.11005E-13 0.13878E-16 0.18986E-11 0.79103E-15 0.12490E-15 0.90206E-15 -.34694E-16
 0.41633E-16 0.13184E-14 0.41633E-16 0.58287E-15 0.83267E-16 0.83267E-15 0.13878E-15 0.13878E-16 0.12490E-15 0.58287E-15
 0.41633E-16 0.19542E-11 0.55672E-11 0.18693E-11 0.11102E-15 0.23592E-15 0.27756E-16 0.27756E-16 0.22760E-14 0.17221E-12
 -.69389E-16 0.13910E-12 0.21511E-13 0.11505E-12 0.16792E-14 0.97145E-15 0.41633E-16 0.22066E-14 0.87985E-14 0.34833E-13
 0.83267E-16 0.12407E-13 0.31086E-14 0.14952E-12 0.83267E-16 -.11102E-15 0.69389E-15 0.17228E-12 0.34875E-13 0.25206E-12
 0.76328E-16 0.13878E-16 0.86042E-15 0.69389E-16 -.13878E-16 0.27756E-16 0.55511E-16 0.27756E-16 0.83267E-16 -.69389E-17
 0.76328E-16 0.56771E-12 0.11638E-10 0.61479E-14 0.13878E-16 0.70499E-14 0.10408E-14 0.19941E-11 0.12502E-12 0.59883E-14
 0.91593E-15 0.11638E-10 0.46081E-12 -.13878E-16  0.0000     0.13878E-16 -.27756E-16 0.10617E-10 0.18055E-13 0.13323E-14
  0.0000     0.62172E-14  0.0000     0.36082E-15 -.13878E-16 0.10728E-13 0.38858E-15 0.16703E-11 0.10573E-12 0.12149E-12
 0.27756E-16 0.13878E-16 -.41633E-16 -.13878E-16 0.69389E-16 -.13878E-16 0.16653E-15 0.27756E-16 0.17902E-14 0.97145E-16
 0.27756E-16 0.70499E-14 0.55511E-16 0.10617E-13 -.13878E-16 0.28891E-11 0.49960E-15 0.22204E-15 0.10408E-14 0.27756E-16
  0.0000     0.10686E-14 0.55511E-16 0.49960E-15 0.15266E-15 0.61062E-15 0.97145E-16 0.27756E-16 0.55511E-16 0.61062E-15
  0.0000     0.19939E-11 0.10617E-10 0.16704E-11 0.11102E-15 0.36082E-15 0.12490E-15 0.41633E-16 0.24009E-14 0.14859E-12
 0.69389E-16 0.12496E-12 0.18055E-13 0.10572E-12 0.18596E-14 0.11380E-14 0.13878E-15 0.23315E-14 0.78687E-14 0.34917E-13
 0.69389E-17 0.59119E-14 0.13045E-14 0.12156E-12 0.13878E-16 0.69389E-16 0.47184E-15 0.14862E-12 0.35000E-13 0.34845E-12
 0.17347E-16 -.20817E-16 0.77716E-15 0.13878E-16 -.27756E-16 -.69389E-16 -.11102E-15  0.0000     0.48572E-16  0.0000    
 0.20817E-16 0.13829E-08 0.28672E-13 0.56621E-14 -.41633E-16 0.89928E-14 0.88818E-15 0.20686E-11 0.10476E-12 0.30878E-14
 0.81185E-15 0.28616E-13 0.49420E-12 0.13878E-16  0.0000     0.41633E-16 0.55511E-16 0.13595E-10 0.14128E-13 0.83961E-15
 -.13878E-16 0.57038E-14 -.69389E-16 0.43021E-15 -.69389E-16 0.15210E-13 0.33307E-15 0.15637E-11 0.85584E-13 0.14005E-12
 -.55511E-16 0.13878E-16 0.13878E-16 -.69389E-16 -.55511E-16 0.27756E-16 0.69389E-16 0.41633E-16 0.21372E-14 0.97145E-16
 -.41633E-16 0.89373E-14 0.69389E-16 0.15307E-13  0.0000     0.15146E-11 0.62450E-15 0.83267E-16 0.13045E-14 -.13878E-16
 0.41633E-16 0.95757E-15 0.97145E-16 0.33307E-15 0.55511E-16 0.56899E-15 0.13878E-15 0.11102E-15 0.55511E-16 0.52736E-15
 0.27756E-16 0.20685E-11 0.13595E-10 0.15637E-11 0.13878E-16 0.16653E-15 -.13878E-16 0.41633E-16 0.30947E-14 0.14382E-12
 0.20817E-16 0.10473E-12 0.14273E-13 0.85557E-13 0.21927E-14 0.13184E-14 0.27756E-16 0.29143E-14 0.67724E-14 0.35999E-13
  0.0000     0.30739E-14 0.78410E-15 0.14010E-12 -.13878E-16 -.55511E-16 0.55511E-15 0.14390E-12 0.36027E-13 0.36073E-12
 -.34694E-17 -.83267E-16 0.11310E-14 -.27756E-16 0.27756E-16 -.97145E-16 0.69389E-16 0.55511E-16 0.20817E-16 -.52042E-16
 -.10408E-16 0.57470E-12 0.10127E-12 0.57315E-14 0.55511E-16 0.10297E-13 0.12074E-14 0.24638E-11 0.11434E-12 0.16306E-14
 0.11866E-14 0.10125E-12 0.56670E-12 -.13878E-16 0.13878E-16 0.41633E-16 0.27756E-16 0.99674E-08 0.15245E-13 0.14641E-14
 -.41633E-16 0.57593E-14 -.27756E-16 0.49960E-15 -.55511E-16 0.13739E-13 0.23592E-15 0.15152E-11 0.12675E-12 0.67599E-13
 0.55511E-16 -.55511E-16 -.13878E-16 0.27756E-16 -.13878E-16 -.13878E-16 0.12490E-15 0.13878E-16 0.24702E-14 0.55511E-16
 0.41633E-16 0.10297E-13 0.13878E-16 0.13656E-13  0.0000     0.32983E-11 0.76328E-15 0.13878E-15 0.12351E-14 0.97145E-16
 0.41633E-16 0.12629E-14 0.27756E-16 0.33307E-15 0.69389E-16 0.88818E-15 0.20817E-15 0.41633E-16 -.27756E-16 0.58287E-15
 -.13878E-16 0.24637E-11 0.99674E-08 0.15152E-11 0.55511E-16 0.16653E-15  0.0000     -.27756E-16 0.29698E-14 0.16906E-12
 0.48572E-16 0.11433E-12 0.15279E-13 0.12670E-12 0.24564E-14 0.13600E-14 0.55511E-16 0.29282E-14 0.62450E-14 0.51362E-13
 -.36429E-16 0.15370E-14 0.14710E-14 0.67640E-13 -.55511E-16 0.69389E-16 0.51348E-15 0.16913E-12 0.51334E-13 0.50824E-12
 -.29924E-16 -.13796E-16 0.11588E-14 0.22551E-16 -.17347E-17 -.61583E-16 -.26888E-16 -.17855E-16 0.62450E-16 -.37242E-16
 0.99204E-17 0.76497E-13 0.59307E-13 0.56422E-14 0.29490E-16 0.14209E-13 0.18397E-14 0.27363E-11 0.10920E-12 0.11229E-14
 0.11284E-14 0.59263E-13 0.67299E-12 0.14962E-16 0.17347E-17 -.50741E-16 0.55511E-16 0.42485E-10 0.13346E-13 0.31225E-15
 0.28189E-16 0.56587E-14 0.11926E-16 0.61409E-15 0.29490E-16 0.19678E-13 0.33610E-15 0.14283E-11 0.16143E-12 0.40294E-13