PROCAR lm decomposed
# of k-points:   14         # of bands:   28         # of ions:    5

 k-point     1 :    0.00000000 0.00000000 0.00000000     weight = 0.01000000

band     1 # energy  -11.56478229 # occ.  2.00000000
 
ion      s     py     pz     px    dxy    dyz    dz2    dxz  x2-y2    tot
    1  0.006  0.000  0.001  0.000  0.000  0.000  0.000  0.000  0.000  0.007
    2  0.038  0.000  0.001  0.000  0.000  0.000  0.000  0.000  0.000  0.040
    3  0.109  0.000  0.002  0.000  0.000  0.000  0.000  0.000  0.000  0.111
    4  0.314  0.000  0.001  0.000  0.000  0.000  0.012  0.000  0.000  0.328
    5  0.103  0.000  0.001  0.000  0.000  0.000  0.000  0.000  0.000  0.104
tot    0.571  0.000  0.006  0.000  0.000  0.000  0.012  0.000  0.000  0.590
 
band     2 # energy  -10.63622291 # occ.  2.00000000
 
ion      s     py     pz     px    dxy    dyz    dz2    dxz  x2-y2    tot
    1  0.116  0.000  0.010  0.000  0.000  0.000  0.000  0.000  0.000  0.127
    2  0.270  0.000  0.000  0.000  0.000  0.000  0.002  0.000  0.000  0.272
    3  0.063  0.000  0.016  0.000  0.000  0.000  0.001  0.000  0.000  0.080
    4  0.059  0.000  0.008  0.000  0.000  0.000  0.011  0.000  0.000  0.078
    5  0.037  0.000  0.000  0.000  0.000  0.000  0.000  0.000  0.000  0.037
tot    0.545  0.000  0.035  0.000  0.000  0.000  0.014  0.000  0.000  0.594
 
band     3 # energy   -8.96116654 # occ.  2.00000000
 
ion      s     py     pz     px    dxy    dyz    dz2    dxz  x2-y2    tot
    1  0.197  0.000  0.002  0.000  0.000  0.000  0.021  0.000  0.000  0.220
    2  0.003  0.000  0.048  0.000  0.000  0.000  0.001  0.000  0.000  0.052
    3  0.211  0.000  0.000  0.000  0.000  0.000  0.037  0.000  0.000  0.248
    4  0.006  0.000  0.027  0.000  0.000  0.000  0.022  0.000  0.000  0.055
    5  0.026  0.000  0.000  0.000  0.000  0.000  0.000  0.000  0.000  0.026
tot    0.444  0.000  0.077  0.000  0.000  0.000  0.081  0.000  0.000  0.601
 
band     4 # energy   -7.48776836 # occ.  2.00000000
 
ion      s     py     pz     px    dxy    dyz    dz2    dxz  x2-y2    tot
    1  0.103  0.000  0.005  0.000  0.000  0.000  0.133  0.000  0.000  0.242
    2  0.098  0.000  0.002  0.000  0.000  0.000  0.236  0.000  0.000  0.337
    3  0.035  0.000  0.014  0.000  0.000  0.000  0.088  0.000  0.000  0.137
    4  0.000  0.000  0.011  0.000  0.000  0.000  0.013  0.000  0.000  0.024
    5  0.005  0.000  0.000  0.000  0.000  0.000  0.000  0.000  0.000  0.005
tot    0.241  0.000  0.033  0.000  0.000  0.000  0.470  0.000  0.000  0.744
 
band     5 # energy   -5.93337889 # occ.  2.00000000
 
ion      s     py     pz     px    dxy    dyz    dz2    dxz  x2-y2    tot
    1  0.000  0.000  0.000  0.000  0.000  0.000  0.003  0.000  0.000  0.003
    2  0.000  0.000  0.001  0.000  0.000  0.000  0.007  0.000  0.000  0.008
    3  0.001  0.000  0.001  0.000  0.000  0.000  0.044  0.000  0.000  0.046
    4  0.003  0.000  0.035  0.000  0.000  0.000  0.671  0.000  0.000  0.709
    5  0.040  0.000  0.001  0.000  0.000  0.000  0.000  0.000  0.000  0.041
tot    0.044  0.000  0.038  0.000  0.000  0.000  0.724  0.000  0.000  0.807
 
band     6 # energy   -5.55511078 # occ.  2.00000000
 
ion      s     py     pz     px    dxy    dyz    dz2    dxz  x2-y2    tot
    1  0.000  0.000  0.001  0.000  0.000  0.000  0.060  0.000  0.000  0.061
    2  0.003  0.000  0.002  0.000  0.000  0.000  0.002  0.000  0.000  0.007
    3  0.002  0.000  0.015  0.000  0.000  0.000  0.610  0.000  0.000  0.627
    4  0.006  0.000  0.032  0.000  0.000  0.000  0.143  0.000  0.000  0.181
    5  0.010  0.000  0.000  0.000  0.000  0.000  0.000  0.000  0.000  0.010
tot    0.021  0.000  0.051  0.000  0.000  0.000  0.815  0.000  0.000  0.887
 
band     7 # energy   -5.49976476 # occ.  2.00000000
 
ion      s     py     pz     px    dxy    dyz    dz2    dxz  x2-y2    tot
    1  0.000  0.000  0.000  0.000  0.000  0.000  0.000  0.000  0.000  0.000
    2  0.000  0.000  0.000  0.000  0.001  0.000  0.000  0.000  0.004  0.005
    3  0.000  0.000  0.000  0.000  0.003  0.011  0.000  0.004  0.008  0.025
    4  0.000  0.000  0.000  0.000  0.235  0.002  0.000  0.001  0.698  0.936
    5  0.000  0.001  0.000  0.000  0.000  0.000  0.000  0.000  0.000  0.002
tot    0.000  0.001  0.000  0.000  0.239  0.013  0.000  0.004  0.710  0.967
 
band     8 # energy   -5.49952563 # occ.  2.00000000
 
ion      s     py     pz     px    dxy    dyz    dz2    dxz  x2-y2    tot
    1  0.000  0.000  0.000  0.000  0.000  0.000  0.000  0.000  0.000  0.000
    2  0.000  0.000  0.000  0.000  0.004  0.000  0.000  0.000  0.001  0.005
    3  0.000  0.000  0.000  0.000  0.008  0.004  0.000  0.011  0.003  0.025
    4  0.000  0.000  0.000  0.000  0.698  0.001  0.000  0.002  0.235  0.936
    5  0.000  0.000  0.000  0.001  0.000  0.000  0.000  0.000  0.000  0.002
tot    0.000  0.000  0.000  0.001  0.710  0.004  0.000  0.013  0.239  0.967
 
band     9 # energy   -5.27094933 # occ.  2.00000000
 
ion      s     py     pz     px    dxy    dyz    dz2    dxz  x2-y2    tot
    1  0.001  0.000  0.005  0.000  0.000  0.000  0.252  0.000  0.000  0.258
    2  0.004  0.000  0.000  0.000  0.000  0.000  0.577  0.000  0.000  0.581
    3  0.001  0.000  0.011  0.000  0.000  0.000  0.080  0.000  0.000  0.092
    4  0.001  0.000  0.004  0.000  0.000  0.000  0.001  0.000  0.000  0.007
    5  0.002  0.000  0.000  0.000  0.000  0.000  0.000  0.000  0.000  0.002
tot    0.009  0.000  0.020  0.000  0.000  0.000  0.910  0.000  0.000  0.939
 
band    10 # energy   -5.21545541 # occ.  2.00000000
 
ion      s     py     pz     px    dxy    dyz    dz2    dxz  x2-y2    tot
    1  0.000  0.000  0.000  0.000  0.006  0.014  0.000  0.005  0.018  0.043
    2  0.000  0.000  0.000  0.000  0.177  0.002  0.000  0.001  0.531  0.710
    3  0.000  0.000  0.000  0.000  0.043  0.014  0.000  0.005  0.129  0.191
    4  0.000  0.000  0.000  0.000  0.004  0.003  0.000  0.001  0.013  0.021
    5  0.000  0.000  0.000  0.000  0.000  0.000  0.000  0.000  0.000  0.000
tot    0.000  0.000  0.000  0.000  0.231  0.033  0.000  0.011  0.690  0.965
 
band    11 # energy   -5.21514266 # occ.  2.00000000
 
ion      s     py     pz     px    dxy    dyz    dz2    dxz  x2-y2    tot
    1  0.000  0.000  0.000  0.000  0.018  0.005  0.000  0.014  0.006  0.043
    2  0.000  0.000  0.000  0.000  0.531  0.001  0.000  0.002  0.177  0.710
    3  0.000  0.000  0.000  0.000  0.129  0.005  0.000  0.014  0.043  0.191
    4  0.000  0.000  0.000  0.000  0.013  0.001  0.000  0.003  0.004  0.021
    5  0.000  0.000  0.000  0.000  0.000  0.000  0.000  0.000  0.000  0.000
tot    0.000  0.000  0.000  0.000  0.690  0.011  0.000  0.033  0.231  0.965
 
band    12 # energy   -5.18654148 # occ.  2.00000000
 
ion      s     py     pz     px    dxy    dyz    dz2    dxz  x2-y2    tot
    1  0.000  0.000  0.000  0.000  0.004  0.011  0.000  0.004  0.011  0.029
    2  0.000  0.000  0.000  0.000  0.037  0.068  0.000  0.022  0.110  0.237
    3  0.000  0.000  0.000  0.000  0.143  0.039  0.000  0.013  0.432  0.626
    4  0.000  0.000  0.000  0.000  0.000  0.055  0.000  0.018  0.001  0.075
    5  0.000  0.000  0.000  0.000  0.000  0.000  0.000  0.000  0.000  0.000
tot    0.000  0.000  0.000  0.000  0.183  0.173  0.000  0.057  0.554  0.968
 
band    13 # energy   -5.18626848 # occ.  2.00000000
 
ion      s     py     pz     px    dxy    dyz    dz2    dxz  x2-y2    tot
    1  0.000  0.000  0.000  0.000  0.011  0.004  0.000  0.011  0.004  0.029
    2  0.000  0.000  0.000  0.000  0.110  0.023  0.000  0.068  0.037  0.237
    3  0.000  0.000  0.000  0.000  0.432  0.013  0.000  0.039  0.143  0.626
    4  0.000  0.000  0.000  0.000  0.001  0.018  0.000  0.055  0.000  0.075
    5  0.000  0.000  0.000  0.000  0.000  0.000  0.000  0.000  0.000  0.000
tot    0.000  0.000  0.000  0.000  0.554  0.057  0.000  0.174  0.183  0.968
 
band    14 # energy   -4.94803477 # occ.  2.00000000
 
ion      s     py     pz     px    dxy    dyz    dz2    dxz  x2-y2    tot
    1  0.000  0.000  0.000  0.000  0.203  0.005  0.000  0.002  0.608  0.818
    2  0.000  0.000  0.000  0.000  0.000  0.055  0.000  0.018  0.000  0.074
    3  0.000  0.000  0.000  0.000  0.015  0.002  0.000  0.001  0.046  0.064
    4  0.000  0.000  0.000  0.000  0.000  0.008  0.000  0.003  0.001  0.013
    5  0.000  0.000  0.000  0.000  0.000  0.000  0.000  0.000  0.000  0.000
tot    0.000  0.000  0.000  0.000  0.219  0.070  0.000  0.023  0.656  0.968
 
band    15 # energy   -4.94773442 # occ.  2.00000000
 
ion      s     py     pz     px    dxy    dyz    dz2    dxz  x2-y2    tot
    1  0.000  0.000  0.000  0.000  0.608  0.002  0.000  0.005  0.203  0.818
    2  0.000  0.000  0.000  0.000  0.000  0.018  0.000  0.055  0.000  0.074
    3  0.000  0.000  0.000  0.000  0.046  0.001  0.000  0.002  0.015  0.064
    4  0.000  0.000  0.000  0.000  0.001  0.003  0.000  0.008  0.000  0.013
    5  0.000  0.000  0.000  0.000  0.000  0.000  0.000  0.000  0.000  0.000
tot    0.000  0.000  0.000  0.000  0.656  0.023  0.000  0.070  0.219  0.968
 
band    16 # energy   -4.85626389 # occ.  2.00000000
 
ion      s     py     pz     px    dxy    dyz    dz2    dxz  x2-y2    tot
    1  0.028  0.000  0.000  0.000  0.000  0.000  0.411  0.000  0.000  0.439
    2  0.013  0.000  0.047  0.000  0.000  0.000  0.054  0.000  0.000  0.113
    3  0.000  0.000  0.076  0.000  0.000  0.000  0.009  0.000  0.000  0.086
    4  0.013  0.000  0.042  0.000  0.000  0.000  0.013  0.000  0.000  0.068
    5  0.016  0.000  0.000  0.000  0.000  0.000  0.000  0.000  0.000  0.016
tot    0.069  0.000  0.165  0.000  0.000  0.000  0.488  0.000  0.000  0.723
 
band    17 # energy   -4.70303611 # occ.  2.00000000
 
ion      s     py     pz     px    dxy    dyz    dz2    dxz  x2-y2    tot
    1  0.000  0.000  0.000  0.000  0.000  0.003  0.000  0.001  0.001  0.004
    2  0.000  0.000  0.000  0.000  0.003  0.003  0.000  0.001  0.010  0.017
    3  0.000  0.000  0.000  0.000  0.020  0.049  0.000  0.013  0.074  0.156
    4  0.000  0.000  0.000  0.000  0.000  0.634  0.000  0.172  0.000  0.806
    5  0.000  0.001  0.000  0.000  0.000  0.000  0.000  0.000  0.000  0.001
tot    0.000  0.001  0.000  0.000  0.023  0.688  0.000  0.187  0.085  0.984
 
band    18 # energy   -4.70297091 # occ.  2.00000000
 
ion      s     py     pz     px    dxy    dyz    dz2    dxz  x2-y2    tot
    1  0.000  0.000  0.000  0.000  0.001  0.001  0.000  0.003  0.000  0.004
    2  0.000  0.000  0.000  0.000  0.010  0.001  0.000  0.003  0.003  0.017
    3  0.000  0.000  0.000  0.000  0.074  0.013  0.000  0.049  0.020  0.156
    4  0.000  0.000  0.000  0.000  0.000  0.172  0.000  0.633  0.000  0.805
    5  0.000  0.000  0.000  0.001  0.000  0.000  0.000  0.000  0.000  0.001
tot    0.000  0.000  0.000  0.001  0.085  0.187  0.000  0.688  0.023  0.984
 
band    19 # energy   -4.44659284 # occ.  2.00000000
 
ion      s     py     pz     px    dxy    dyz    dz2    dxz  x2-y2    tot
    1  0.000  0.000  0.000  0.000  0.027  0.038  0.000  0.014  0.073  0.152
    2  0.000  0.000  0.000  0.000  0.019  0.321  0.000  0.120  0.051  0.511
    3  0.000  0.000  0.000  0.000  0.011  0.180  0.000  0.067  0.030  0.287
    4  0.000  0.000  0.000  0.000  0.002  0.020  0.000  0.008  0.005  0.034
    5  0.000  0.000  0.000  0.000  0.000  0.000  0.000  0.000  0.000  0.000
tot    0.000  0.000  0.000  0.000  0.059  0.558  0.000  0.208  0.158  0.984
 
band    20 # energy   -4.44651371 # occ.  2.00000000
 
ion      s     py     pz     px    dxy    dyz    dz2    dxz  x2-y2    tot
    1  0.000  0.000  0.000  0.000  0.073  0.014  0.000  0.037  0.027  0.152
    2  0.000  0.000  0.000  0.000  0.051  0.120  0.000  0.321  0.019  0.510
    3  0.000  0.000  0.000  0.000  0.030  0.067  0.000  0.180  0.011  0.287
    4  0.000  0.000  0.000  0.000  0.005  0.008  0.000  0.020  0.002  0.034
    5  0.000  0.000  0.000  0.000  0.000  0.000  0.000  0.000  0.000  0.000
tot    0.000  0.000  0.000  0.000  0.158  0.208  0.000  0.558  0.059  0.984
 
band    21 # energy   -4.22702983 # occ.  2.00000000
 
ion      s     py     pz     px    dxy    dyz    dz2    dxz  x2-y2    tot
    1  0.000  0.000  0.000  0.000  0.002  0.268  0.000  0.083  0.007  0.361
    2  0.000  0.000  0.000  0.000  0.000  0.070  0.000  0.022  0.000  0.092
    3  0.000  0.000  0.000  0.000  0.002  0.357  0.000  0.110  0.005  0.474
    4  0.000  0.000  0.000  0.000  0.002  0.040  0.000  0.012  0.005  0.059
    5  0.000  0.000  0.000  0.000  0.000  0.000  0.000  0.000  0.000  0.000
tot    0.000  0.000  0.000  0.000  0.005  0.736  0.000  0.227  0.017  0.986
 
band    22 # energy   -4.22699168 # occ.  2.00000000
 
ion      s     py     pz     px    dxy    dyz    dz2    dxz  x2-y2    tot
    1  0.000  0.000  0.000  0.000  0.007  0.083  0.000  0.268  0.002  0.361
    2  0.000  0.000  0.000  0.000  0.000  0.022  0.000  0.070  0.000  0.092
    3  0.000  0.000  0.000  0.000  0.005  0.110  0.000  0.357  0.002  0.474
    4  0.000  0.000  0.000  0.000  0.005  0.012  0.000  0.040  0.002  0.059
    5  0.000  0.000  0.000  0.000  0.000  0.000  0.000  0.000  0.000  0.000
tot    0.000  0.000  0.000  0.000  0.017  0.227  0.000  0.736  0.005  0.986
 
band    23 # energy   -3.94984579 # occ.  2.00000000
 
ion      s     py     pz     px    dxy    dyz    dz2    dxz  x2-y2    tot
    1  0.000  0.000  0.000  0.000  0.002  0.406  0.000  0.133  0.006  0.546
    2  0.000  0.000  0.000  0.000  0.006  0.212  0.000  0.069  0.019  0.307
    3  0.000  0.000  0.000  0.000  0.002  0.091  0.000  0.030  0.005  0.129
    4  0.000  0.000  0.000  0.000  0.000  0.005  0.000  0.002  0.001  0.008
    5  0.000  0.000  0.000  0.000  0.000  0.000  0.000  0.000  0.000  0.000
tot    0.000  0.000  0.000  0.000  0.010  0.714  0.000  0.234  0.031  0.990
 
band    24 # energy   -3.94977430 # occ.  2.00000000
 
ion      s     py     pz     px    dxy    dyz    dz2    dxz  x2-y2    tot
    1  0.000  0.000  0.000  0.000  0.006  0.133  0.000  0.406  0.002  0.546
    2  0.000  0.000  0.000  0.000  0.019  0.069  0.000  0.212  0.006  0.307
    3  0.000  0.000  0.000  0.000  0.005  0.030  0.000  0.091  0.002  0.129
    4  0.000  0.000  0.000  0.000  0.001  0.002  0.000  0.005  0.000  0.008
    5  0.000  0.000  0.000  0.000  0.000  0.000  0.000  0.000  0.000  0.000
tot    0.000  0.000  0.000  0.000  0.031  0.234  0.000  0.714  0.010  0.990
 
band    25 # energy   -2.88552881 # occ.  2.00000000
 
ion      s     py     pz     px    dxy    dyz    dz2    dxz  x2-y2    tot
    1  0.020  0.000  0.153  0.000  0.000  0.000  0.029  0.000  0.000  0.202
    2  0.016  0.000  0.079  0.000  0.000  0.000  0.024  0.000  0.000  0.118
    3  0.013  0.000  0.033  0.000  0.000  0.000  0.023  0.000  0.000  0.069
    4  0.009  0.000  0.013  0.000  0.000  0.000  0.007  0.000  0.000  0.029
    5  0.004  0.000  0.000  0.000  0.000  0.000  0.000  0.000  0.000  0.004
tot    0.061  0.000  0.278  0.000  0.000  0.000  0.083  0.000  0.000  0.422
 
band    26 # energy    1.56595464 # occ.  0.00000000
 
ion      s     py     pz     px    dxy    dyz    dz2    dxz  x2-y2    tot
    1  0.015  0.000  0.003  0.000  0.000  0.000  0.016  0.000  0.000  0.034
    2  0.024  0.000  0.003  0.000  0.000  0.000  0.022  0.000  0.000  0.049
    3  0.036  0.000  0.003  0.000  0.000  0.000  0.033  0.000  0.000  0.071
    4  0.040  0.000  0.000  0.000  0.000  0.000  0.042  0.000  0.000  0.082
    5  0.000  0.000  0.003  0.000  0.000  0.000  0.000  0.000  0.000  0.003
tot    0.116  0.000  0.011  0.000  0.000  0.000  0.112  0.000  0.000  0.239
 
band    27 # energy    1.89871937 # occ.  0.00000000
 
ion      s     py     pz     px    dxy    dyz    dz2    dxz  x2-y2    tot
    1  0.006  0.000  0.003  0.000  0.000  0.000  0.006  0.000  0.000  0.015
    2  0.002  0.000  0.003  0.000  0.000  0.000  0.001  0.000  0.000  0.006
    3  0.000  0.000  0.003  0.000  0.000  0.000  0.000  0.000  0.000  0.003
    4  0.001  0.000  0.002  0.000  0.000  0.000  0.003  0.000  0.000  0.006
    5  0.001  0.000  0.000  0.000  0.000  0.000  0.000  0.000  0.000  0.002
tot    0.010  0.000  0.012  0.000  0.000  0.000  0.010  0.000  0.000  0.032
 
band    28 # energy    2.30568154 # occ.  0.00000000
 
ion      s     py     pz     px    dxy    dyz    dz2    dxz  x2-y2    tot
    1  0.004  0.000  0.003  0.000  0.000  0.000  0.004  0.000  0.000  0.011
    2  0.001  0.000  0.004  0.000  0.000  0.000  0.000  0.000  0.000  0.005
    3  0.000  0.000  0.004  0.000  0.000  0.000  0.000  0.000  0.000  0.005
    4  0.003  0.000  0.001  0.000  0.000  0.000  0.005  0.000  0.000  0.010
    5  0.001  0.000  0.001  0.000  0.000  0.000  0.000  0.000  0.000  0.001
tot    0.009  0.000  0.012  0.000  0.000  0.000  0.010  0.000  0.000  0.031
 

 k-point     2 :    0.10000000 0.00000000 0.00000000     weight = 0.06000000

band     1 # energy  -11.26466285 # occ.  2.00000000
 
ion      s     py     pz     px    dxy    dyz    dz2    dxz  x2-y2    tot
    1  0.006  0.000  0.001  0.000  0.000  0.000  0.000  0.000  0.000  0.007
    2  0.035  0.000  0.001  0.001  0.000  0.000  0.000  0.000  0.000  0.037
    3  0.102  0.001  0.002  0.002  0.000  0.000  0.000  0.000  0.000  0.107
    4  0.306  0.003  0.001  0.008  0.001  0.000  0.011  0.000  0.000  0.331
    5  0.107  0.000  0.001  0.000  0.000  0.000  0.000  0.000  0.000  0.109
tot    0.556  0.004  0.006  0.011  0.001  0.000  0.012  0.001  0.000  0.591
 
band     2 # energy  -10.33737449 # occ.  2.00000000
 
ion      s     py     pz     px    dxy    dyz    dz2    dxz  x2-y2    tot
    1  0.111  0.001  0.010  0.002  0.000  0.000  0.000  0.001  0.000  0.126
    2  0.264  0.002  0.000  0.006  0.000  0.000  0.001  0.000  0.000  0.273
    3  0.065  0.000  0.016  0.001  0.000  0.000  0.000  0.001  0.000  0.085
    4  0.052  0.001  0.008  0.002  0.000  0.000  0.010  0.001  0.000  0.075
    5  0.036  0.000  0.000  0.000  0.000  0.000  0.000  0.000  0.000  0.037
tot    0.529  0.004  0.035  0.011  0.001  0.001  0.012  0.003  0.000  0.595
 
band     3 # energy   -8.69352138 # occ.  2.00000000
 
ion      s     py     pz     px    dxy    dyz    dz2    dxz  x2-y2    tot
    1  0.186  0.002  0.002  0.005  0.000  0.000  0.018  0.000  0.000  0.214
    2  0.004  0.000  0.047  0.000  0.000  0.002  0.001  0.005  0.000  0.060
    3  0.202  0.002  0.000  0.005  0.000  0.000  0.034  0.000  0.000  0.243
    4  0.004  0.000  0.027  0.000  0.001  0.002  0.023  0.005  0.000  0.061
    5  0.026  0.000  0.000  0.000  0.000  0.000  0.000  0.000  0.000  0.027
tot    0.423  0.003  0.077  0.010  0.001  0.003  0.076  0.010  0.000  0.604
 
band     4 # energy   -7.26718486 # occ.  2.00000000
 
ion      s     py     pz     px    dxy    dyz    dz2    dxz  x2-y2    tot
    1  0.099  0.001  0.005  0.004  0.001  0.000  0.135  0.000  0.000  0.245
    2  0.088  0.001  0.003  0.004  0.001  0.000  0.240  0.001  0.000  0.338
    3  0.028  0.000  0.015  0.001  0.000  0.001  0.086  0.003  0.000  0.134
    4  0.000  0.000  0.010  0.000  0.001  0.001  0.013  0.003  0.000  0.029
    5  0.005  0.000  0.000  0.000  0.000  0.000  0.000  0.000  0.000  0.005
tot    0.221  0.003  0.032  0.009  0.003  0.002  0.474  0.007  0.001  0.751
 
band     5 # energy   -5.96030158 # occ.  2.00000000
 
ion      s     py     pz     px    dxy    dyz    dz2    dxz  x2-y2    tot
    1  0.000  0.000  0.000  0.000  0.000  0.000  0.004  0.000  0.000  0.005
    2  0.001  0.000  0.000  0.000  0.003  0.000  0.000  0.000  0.001  0.005
    3  0.000  0.000  0.004  0.000  0.009  0.001  0.113  0.002  0.003  0.132
    4  0.006  0.000  0.039  0.001  0.031  0.029  0.429  0.087  0.010  0.632
    5  0.040  0.000  0.001  0.000  0.000  0.000  0.000  0.000  0.000  0.041
tot    0.047  0.000  0.045  0.001  0.043  0.030  0.547  0.089  0.014  0.815
 
band     6 # energy   -5.66893837 # occ.  2.00000000
 
ion      s     py     pz     px    dxy    dyz    dz2    dxz  x2-y2    tot
    1  0.001  0.000  0.001  0.000  0.001  0.000  0.026  0.000  0.000  0.030
    2  0.002  0.000  0.001  0.000  0.031  0.001  0.065  0.003  0.010  0.113
    3  0.000  0.000  0.020  0.000  0.003  0.019  0.219  0.058  0.001  0.321
    4  0.006  0.000  0.011  0.000  0.058  0.009  0.316  0.026  0.019  0.445
    5  0.002  0.000  0.000  0.000  0.000  0.000  0.000  0.000  0.000  0.002
tot    0.011  0.000  0.033  0.001  0.094  0.029  0.626  0.087  0.031  0.911
 
band     7 # energy   -5.57399716 # occ.  2.00000000
 
ion      s     py     pz     px    dxy    dyz    dz2    dxz  x2-y2    tot
    1  0.000  0.000  0.000  0.000  0.001  0.000  0.020  0.000  0.000  0.022
    2  0.000  0.000  0.003  0.000  0.004  0.003  0.015  0.009  0.001  0.035
    3  0.001  0.000  0.000  0.000  0.005  0.002  0.130  0.007  0.002  0.147
    4  0.000  0.000  0.003  0.001  0.536  0.002  0.017  0.006  0.179  0.745
    5  0.000  0.000  0.000  0.001  0.000  0.000  0.000  0.000  0.000  0.002
tot    0.002  0.001  0.006  0.002  0.545  0.008  0.182  0.023  0.182  0.950
 
band     8 # energy   -5.39200686 # occ.  2.00000000
 
ion      s     py     pz     px    dxy    dyz    dz2    dxz  x2-y2    tot
    1  0.000  0.000  0.000  0.000  0.000  0.000  0.000  0.000  0.000  0.000
    2  0.000  0.000  0.000  0.000  0.002  0.000  0.000  0.000  0.005  0.007
    3  0.000  0.000  0.000  0.000  0.002  0.014  0.000  0.005  0.007  0.027
    4  0.000  0.001  0.000  0.000  0.233  0.002  0.000  0.001  0.697  0.934
    5  0.000  0.001  0.000  0.000  0.000  0.000  0.000  0.000  0.000  0.001
tot    0.000  0.002  0.000  0.001  0.237  0.016  0.000  0.005  0.709  0.969
 
band     9 # energy   -5.32369369 # occ.  2.00000000
 
ion      s     py     pz     px    dxy    dyz    dz2    dxz  x2-y2    tot
    1  0.003  0.000  0.002  0.000  0.034  0.007  0.053  0.021  0.011  0.132
    2  0.003  0.000  0.006  0.000  0.053  0.022  0.217  0.065  0.018  0.382
    3  0.000  0.000  0.014  0.000  0.165  0.003  0.065  0.009  0.055  0.312
    4  0.001  0.000  0.005  0.000  0.033  0.009  0.014  0.026  0.011  0.099
    5  0.002  0.000  0.000  0.000  0.000  0.000  0.000  0.000  0.000  0.002
tot    0.009  0.000  0.026  0.000  0.285  0.040  0.350  0.120  0.095  0.926
 
band    10 # energy   -5.28833766 # occ.  2.00000000
 
ion      s     py     pz     px    dxy    dyz    dz2    dxz  x2-y2    tot
    1  0.003  0.000  0.001  0.000  0.006  0.005  0.096  0.014  0.002  0.125
    2  0.001  0.000  0.006  0.001  0.165  0.024  0.097  0.073  0.055  0.422
    3  0.000  0.000  0.012  0.000  0.155  0.002  0.025  0.006  0.052  0.254
    4  0.002  0.000  0.004  0.000  0.013  0.018  0.035  0.053  0.004  0.129
    5  0.001  0.000  0.000  0.000  0.000  0.000  0.000  0.000  0.000  0.001
tot    0.008  0.000  0.023  0.001  0.339  0.049  0.253  0.145  0.113  0.932
 
band    11 # energy   -5.26831198 # occ.  2.00000000
 
ion      s     py     pz     px    dxy    dyz    dz2    dxz  x2-y2    tot
    1  0.000  0.000  0.001  0.000  0.048  0.002  0.026  0.006  0.016  0.099
    2  0.001  0.000  0.001  0.000  0.343  0.005  0.104  0.014  0.115  0.582
    3  0.000  0.000  0.002  0.000  0.064  0.006  0.111  0.018  0.022  0.223
    4  0.000  0.000  0.001  0.000  0.028  0.000  0.011  0.000  0.009  0.049
    5  0.000  0.000  0.000  0.000  0.000  0.000  0.000  0.000  0.000  0.001
tot    0.002  0.000  0.004  0.001  0.483  0.013  0.252  0.038  0.162  0.955
 
band    12 # energy   -5.11621215 # occ.  2.00000000
 
ion      s     py     pz     px    dxy    dyz    dz2    dxz  x2-y2    tot
    1  0.000  0.000  0.000  0.000  0.002  0.027  0.000  0.009  0.005  0.043
    2  0.000  0.000  0.000  0.000  0.111  0.063  0.000  0.021  0.334  0.530
    3  0.000  0.000  0.000  0.000  0.057  0.066  0.000  0.022  0.171  0.316
    4  0.000  0.000  0.000  0.000  0.001  0.058  0.000  0.019  0.002  0.081
    5  0.000  0.000  0.000  0.000  0.000  0.000  0.000  0.000  0.000  0.000
tot    0.000  0.001  0.000  0.000  0.171  0.214  0.000  0.072  0.512  0.969
 
band    13 # energy   -5.10616161 # occ.  2.00000000
 
ion      s     py     pz     px    dxy    dyz    dz2    dxz  x2-y2    tot
    1  0.000  0.000  0.000  0.000  0.008  0.004  0.000  0.001  0.025  0.039
    2  0.000  0.000  0.000  0.000  0.095  0.029  0.000  0.010  0.283  0.418
    3  0.000  0.001  0.000  0.000  0.111  0.006  0.000  0.002  0.333  0.453
    4  0.000  0.000  0.000  0.000  0.004  0.030  0.000  0.010  0.012  0.057
    5  0.000  0.000  0.000  0.000  0.000  0.000  0.000  0.000  0.000  0.000
tot    0.000  0.001  0.000  0.000  0.218  0.070  0.000  0.023  0.654  0.966
 
band    14 # energy   -5.06388948 # occ.  2.00000000
 
ion      s     py     pz     px    dxy    dyz    dz2    dxz  x2-y2    tot
    1  0.003  0.000  0.003  0.000  0.022  0.003  0.335  0.010  0.008  0.383
    2  0.000  0.000  0.018  0.000  0.030  0.006  0.065  0.019  0.010  0.148
    3  0.000  0.000  0.008  0.000  0.244  0.011  0.001  0.033  0.081  0.378
    4  0.001  0.000  0.006  0.000  0.003  0.001  0.001  0.002  0.001  0.013
    5  0.002  0.000  0.000  0.000  0.000  0.000  0.000  0.000  0.000  0.002
tot    0.008  0.000  0.034  0.000  0.299  0.021  0.402  0.063  0.099  0.926
 
band    15 # energy   -4.96626950 # occ.  2.00000000
 
ion      s     py     pz     px    dxy    dyz    dz2    dxz  x2-y2    tot
    1  0.002  0.000  0.000  0.001  0.532  0.001  0.042  0.003  0.178  0.759
    2  0.000  0.000  0.008  0.000  0.006  0.003  0.021  0.008  0.002  0.047
    3  0.001  0.000  0.005  0.000  0.012  0.015  0.036  0.046  0.004  0.119
    4  0.000  0.000  0.001  0.000  0.008  0.003  0.000  0.010  0.003  0.026
    5  0.000  0.000  0.000  0.000  0.000  0.000  0.000  0.000  0.000  0.000
tot    0.003  0.000  0.014  0.001  0.558  0.022  0.099  0.067  0.187  0.951
 
band    16 # energy   -4.86148126 # occ.  2.00000000
 
ion      s     py     pz     px    dxy    dyz    dz2    dxz  x2-y2    tot
    1  0.000  0.001  0.000  0.000  0.174  0.010  0.000  0.003  0.520  0.708
    2  0.000  0.000  0.000  0.000  0.000  0.085  0.000  0.028  0.001  0.115
    3  0.000  0.000  0.000  0.000  0.016  0.008  0.000  0.003  0.049  0.077
    4  0.000  0.000  0.000  0.000  0.001  0.051  0.000  0.017  0.002  0.070
    5  0.000  0.000  0.000  0.000  0.000  0.000  0.000  0.000  0.000  0.000
tot    0.000  0.001  0.000  0.000  0.192  0.154  0.000  0.052  0.572  0.970
 
band    17 # energy   -4.72166505 # occ.  2.00000000
 
ion      s     py     pz     px    dxy    dyz    dz2    dxz  x2-y2    tot
    1  0.000  0.000  0.000  0.000  0.016  0.005  0.000  0.002  0.049  0.071
    2  0.000  0.000  0.000  0.000  0.006  0.007  0.000  0.002  0.018  0.033
    3  0.000  0.000  0.000  0.000  0.036  0.051  0.000  0.017  0.108  0.212
    4  0.000  0.000  0.000  0.000  0.000  0.498  0.000  0.166  0.000  0.665
    5  0.000  0.001  0.000  0.000  0.000  0.000  0.000  0.000  0.000  0.001
tot    0.000  0.001  0.000  0.000  0.058  0.561  0.000  0.187  0.175  0.982
 
band    18 # energy   -4.63652375 # occ.  2.00000000
 
ion      s     py     pz     px    dxy    dyz    dz2    dxz  x2-y2    tot
    1  0.001  0.000  0.000  0.000  0.029  0.010  0.008  0.029  0.010  0.087
    2  0.000  0.000  0.000  0.000  0.030  0.015  0.004  0.044  0.010  0.103
    3  0.003  0.000  0.001  0.000  0.041  0.076  0.023  0.227  0.014  0.384
    4  0.000  0.000  0.006  0.000  0.005  0.090  0.008  0.270  0.002  0.382
    5  0.004  0.000  0.000  0.000  0.000  0.000  0.000  0.000  0.000  0.004
tot    0.007  0.000  0.008  0.001  0.105  0.190  0.043  0.570  0.035  0.960
 
band    19 # energy   -4.46125157 # occ.  2.00000000
 
ion      s     py     pz     px    dxy    dyz    dz2    dxz  x2-y2    tot
    1  0.000  0.000  0.000  0.000  0.037  0.053  0.000  0.018  0.111  0.219
    2  0.000  0.000  0.000  0.000  0.018  0.263  0.000  0.087  0.053  0.421
    3  0.000  0.000  0.000  0.000  0.017  0.149  0.000  0.050  0.050  0.266
    4  0.000  0.000  0.000  0.000  0.002  0.053  0.000  0.018  0.005  0.078
    5  0.000  0.000  0.000  0.000  0.000  0.000  0.000  0.000  0.000  0.000
tot    0.000  0.000  0.000  0.000  0.073  0.519  0.000  0.173  0.219  0.983
 
band    20 # energy   -4.42597097 # occ.  2.00000000
 
ion      s     py     pz     px    dxy    dyz    dz2    dxz  x2-y2    tot
    1  0.000  0.000  0.004  0.000  0.032  0.096  0.001  0.287  0.011  0.430
    2  0.000  0.000  0.004  0.000  0.046  0.050  0.000  0.151  0.015  0.267
    3  0.003  0.000  0.002  0.000  0.011  0.020  0.024  0.061  0.004  0.125
    4  0.000  0.000  0.003  0.000  0.002  0.032  0.001  0.096  0.001  0.134
    5  0.002  0.000  0.000  0.000  0.000  0.000  0.000  0.000  0.000  0.002
tot    0.005  0.000  0.013  0.000  0.091  0.198  0.026  0.595  0.030  0.958
 
band    21 # energy   -4.25864449 # occ.  2.00000000
 
ion      s     py     pz     px    dxy    dyz    dz2    dxz  x2-y2    tot
    1  0.011  0.000  0.014  0.000  0.014  0.082  0.080  0.245  0.005  0.451
    2  0.001  0.000  0.001  0.000  0.010  0.080  0.003  0.240  0.003  0.339
    3  0.001  0.000  0.004  0.000  0.005  0.001  0.009  0.005  0.002  0.027
    4  0.000  0.000  0.006  0.000  0.000  0.018  0.000  0.056  0.000  0.080
    5  0.003  0.000  0.000  0.000  0.000  0.000  0.000  0.000  0.000  0.003
tot    0.016  0.000  0.025  0.001  0.030  0.182  0.091  0.546  0.010  0.900
 
band    22 # energy   -4.22305243 # occ.  2.00000000
 
ion      s     py     pz     px    dxy    dyz    dz2    dxz  x2-y2    tot
    1  0.000  0.000  0.000  0.000  0.003  0.258  0.000  0.086  0.009  0.356
    2  0.000  0.000  0.000  0.000  0.005  0.060  0.000  0.020  0.016  0.101
    3  0.000  0.000  0.000  0.000  0.001  0.349  0.000  0.116  0.003  0.470
    4  0.000  0.000  0.000  0.000  0.002  0.039  0.000  0.013  0.006  0.060
    5  0.000  0.000  0.000  0.000  0.000  0.000  0.000  0.000  0.000  0.000
tot    0.000  0.000  0.000  0.000  0.011  0.706  0.000  0.235  0.034  0.987
 
band    23 # energy   -3.94462740 # occ.  2.00000000
 
ion      s     py     pz     px    dxy    dyz    dz2    dxz  x2-y2    tot
    1  0.000  0.000  0.000  0.000  0.003  0.381  0.000  0.127  0.008  0.518
    2  0.000  0.000  0.000  0.000  0.006  0.229  0.000  0.076  0.018  0.329
    3  0.000  0.000  0.000  0.000  0.002  0.094  0.000  0.031  0.007  0.134