<?xml version="1.0" encoding="ISO-8859-1"?>
<modeling>
 <generator>
  <i name="program" type="string">vasp </i>
  <i name="version" type="string">5.4.4.18Apr17-6-g9f103f2a35  </i>
  <i name="subversion" type="string">(build Jun 30 2017 11:15:00) complex            parallel </i>
  <i name="platform" type="string">STALLO_VASP_5.4.4 </i>
  <i name="date" type="string">2019 10 11 </i>
  <i name="time" type="string">11:50:03 </i>
 </generator>
 <incar>
  <i type="string" name="PREC">normal    ! low/normal/accurate</i>
  <i type="string" name="ALGO"> Fast      ! Algorithm for electronic re</i>
  <i type="int" name="ISPIN">     1</i>
  <i type="int" name="NELMIN">     4</i>
  <i name="EDIFF">      0.00000100</i>
  <i type="int" name="NSW">     0</i>
  <i name="ENCUT">    250.00000000</i>
  <i type="int" name="NEDOS">  2401</i>
  <i type="string" name="LREAL"> Auto      ! Projection in reciprocal sp</i>
  <i name="EMIN">    -17.00000000</i>
  <i name="EMAX">      7.00000000</i>
  <i type="int" name="ISMEAR">     0</i>
  <i name="SIGMA">      0.10000000</i>
  <i type="logical" name="LWAVE"> F  </i>
  <i type="int" name="LORBIT">    11</i>
  <i type="logical" name="LELF"> T  </i>
  <v type="int" name="KPOINT_BSE">    -1     0     0     0</v>
 </incar>
 <structure name="primitive_cell" >
  <crystal>
   <varray name="basis" >
    <v>       2.57386868       0.00000000       0.00000000 </v>
    <v>       1.28693434       2.22903567       0.00000000 </v>
    <v>       0.00000000       0.00000000      30.30466494 </v>
   </varray>
   <i name="volume">    173.86529028 </i>
   <varray name="rec_basis" >
    <v>       0.38852021      -0.22431225       0.00000000 </v>
    <v>       0.00000000       0.44862450       0.00000000 </v>
    <v>       0.00000000       0.00000000       0.03299822 </v>
   </varray>
  </crystal>
  <varray name="positions" >
   <v>       0.00000000       0.00000000       0.39642709 </v>
   <v>       0.33333207       0.33333249       0.46516172 </v>
   <v>      -0.33333197      -0.33333503      -0.46611058 </v>
   <v>       0.00000000       0.00000000      -0.39328780 </v>
   <v>      -0.33333197      -0.33333503      -0.36187085 </v>
  </varray>
 </structure>
 <varray name="primitive_index" >
  <v type="int" >        1 </v>
  <v type="int" >        2 </v>
  <v type="int" >        3 </v>
  <v type="int" >        4 </v>
  <v type="int" >        5 </v>
 </varray>
 <kpoints>
  <generation param="Gamma">
   <v type="int" name="divisions">      10       10        1 </v>
   <v name="usershift">      0.00000000       0.00000000       0.00000000 </v>
   <v name="genvec1">      0.10000000       0.00000000       0.00000000 </v>
   <v name="genvec2">      0.00000000       0.10000000       0.00000000 </v>
   <v name="genvec3">      0.00000000       0.00000000       1.00000000 </v>
   <v name="shift">      0.00000000       0.00000000       0.00000000 </v>
  </generation>
  <varray name="kpointlist" >
   <v>       0.00000000       0.00000000       0.00000000 </v>
   <v>       0.10000000       0.00000000       0.00000000 </v>
   <v>       0.20000000      -0.00000000       0.00000000 </v>
   <v>       0.30000000      -0.00000000       0.00000000 </v>
   <v>       0.40000000      -0.00000000       0.00000000 </v>
   <v>       0.50000000      -0.00000000       0.00000000 </v>
   <v>       0.20000000       0.10000000       0.00000000 </v>
   <v>       0.30000000       0.10000000       0.00000000 </v>
   <v>       0.40000000       0.10000000       0.00000000 </v>
   <v>       0.50000000       0.10000000       0.00000000 </v>
   <v>       0.40000000       0.20000000       0.00000000 </v>
   <v>       0.50000000       0.20000000       0.00000000 </v>
   <v>      -0.40000000       0.20000000       0.00000000 </v>
   <v>      -0.40000000       0.30000000       0.00000000 </v>
  </varray>
  <varray name="weights" >
   <v>       0.01000000 </v>
   <v>       0.06000000 </v>
   <v>       0.06000000 </v>
   <v>       0.06000000 </v>
   <v>       0.06000000 </v>
   <v>       0.03000000 </v>
   <v>       0.06000000 </v>
   <v>       0.12000000 </v>
   <v>       0.12000000 </v>
   <v>       0.12000000 </v>
   <v>       0.06000000 </v>
   <v>       0.12000000 </v>
   <v>       0.06000000 </v>
   <v>       0.06000000 </v>
  </varray>
 </kpoints>
 <parameters>
  <separator name="general" >
   <i type="string" name="SYSTEM">unknown system</i>
   <i type="logical" name="LCOMPAT"> F  </i>
  </separator>
  <separator name="electronic" >
   <i type="string" name="PREC">normal</i>
   <i name="ENMAX">    250.00000000</i>
   <i name="ENAUG">    516.45600000</i>
   <i name="EDIFF">      0.00000100</i>
   <i type="int" name="IALGO">    68</i>
   <i type="int" name="IWAVPR">    10</i>
   <i type="int" name="NBANDS">    28</i>
   <i name="NELECT">     45.00000000</i>
   <i type="int" name="TURBO">     0</i>
   <i type="int" name="IRESTART">     0</i>
   <i type="int" name="NREBOOT">     0</i>
   <i type="int" name="NMIN">     0</i>
   <i name="EREF">      0.00000000</i>
   <separator name="electronic smearing" >
    <i type="int" name="ISMEAR">     0</i>
    <i name="SIGMA">      0.10000000</i>
    <i name="KSPACING">      0.50000000</i>
    <i type="logical" name="KGAMMA"> T  </i>
   </separator>
   <separator name="electronic projectors" >
    <i type="logical" name="LREAL"> T  </i>
    <v name="ROPT">     -0.00050000     -0.00050000</v>
    <i type="int" name="LMAXPAW">  -100</i>
    <i type="int" name="LMAXMIX">     2</i>
    <i type="logical" name="NLSPLINE"> F  </i>
   </separator>
   <separator name="electronic startup" >
    <i type="int" name="ISTART">     0</i>
    <i type="int" name="ICHARG">     2</i>
    <i type="int" name="INIWAV">     1</i>
   </separator>
   <separator name="electronic spin" >
    <i type="int" name="ISPIN">     1</i>
    <i type="logical" name="LNONCOLLINEAR"> F  </i>
    <v name="MAGMOM">      1.00000000      1.00000000      1.00000000      1.00000000      1.00000000</v>
    <i name="NUPDOWN">     -1.00000000</i>
    <i type="logical" name="LSORBIT"> F  </i>
    <v name="SAXIS">      0.00000000      0.00000000      1.00000000</v>
    <i type="logical" name="LSPIRAL"> F  </i>
    <v name="QSPIRAL">      0.00000000      0.00000000      0.00000000</v>
    <i type="logical" name="LZEROZ"> F  </i>
   </separator>
   <separator name="electronic exchange-correlation" >
    <i type="logical" name="LASPH"> F  </i>
    <i type="logical" name="LMETAGGA"> F  </i>
   </separator>
   <separator name="electronic convergence" >
    <i type="int" name="NELM">    60</i>
    <i type="int" name="NELMDL">     0</i>
    <i type="int" name="NELMIN">     4</i>
    <i name="ENINI">    250.00000000</i>
    <separator name="electronic convergence detail" >
     <i type="logical" name="LDIAG"> T  </i>
     <i type="logical" name="LSUBROT"> F  </i>
     <i name="WEIMIN">      0.00000000</i>
     <i name="EBREAK">      0.00000001</i>
     <i name="DEPER">      0.30000000</i>
     <i type="int" name="NRMM">     4</i>
     <i name="TIME">      0.40000000</i>
    </separator>
   </separator>
   <separator name="electronic mixer" >
    <i name="AMIX">      0.40000000</i>
    <i name="BMIX">      1.00000000</i>
    <i name="AMIN">      0.10000000</i>
    <i name="AMIX_MAG">      1.60000000</i>
    <i name="BMIX_MAG">      1.00000000</i>
    <separator name="electronic mixer details" >
     <i type="int" name="IMIX">     4</i>
     <i type="logical" name="MIXFIRST"> F  </i>
     <i type="int" name="MAXMIX">   -45</i>
     <i name="WC">    100.00000000</i>
     <i type="int" name="INIMIX">     1</i>
     <i type="int" name="MIXPRE">     1</i>
     <i type="int" name="MREMOVE">     5</i>
    </separator>
   </separator>
   <separator name="electronic dipolcorrection" >
    <i type="logical" name="LDIPOL"> F  </i>
    <i type="logical" name="LMONO"> F  </i>
    <i type="int" name="IDIPOL">     0</i>
    <i name="EPSILON">      1.00000000</i>
    <v name="DIPOL">   -100.00000000   -100.00000000   -100.00000000</v>
    <i name="EFIELD">      0.00000000</i>
   </separator>
  </separator>
  <separator name="grids" >
   <i type="int" name="NGX">    10</i>
   <i type="int" name="NGY">    10</i>
   <i type="int" name="NGZ">   120</i>
   <i type="int" name="NGXF">    20</i>
   <i type="int" name="NGYF">    20</i>
   <i type="int" name="NGZF">   240</i>
   <i type="logical" name="ADDGRID"> F  </i>
  </separator>
  <separator name="ionic" >
   <i type="int" name="NSW">     0</i>
   <i type="int" name="IBRION">    -1</i>
   <i type="int" name="MDALGO">     0</i>
   <i type="int" name="ISIF">     2</i>
   <i name="PSTRESS">      0.00000000</i>
   <i name="EDIFFG">      0.00001000</i>
   <i type="int" name="NFREE">     0</i>
   <i name="POTIM">      0.50000000</i>
   <i name="SMASS">     -3.00000000</i>
   <i name="SCALEE">      1.00000000</i>
  </separator>
  <separator name="ionic md" >
   <i name="TEBEG">      0.00010000</i>
   <i name="TEEND">      0.00010000</i>
   <i type="int" name="NBLOCK">     1</i>
   <i type="int" name="KBLOCK">     1</i>
   <i type="int" name="NPACO">   256</i>
   <i name="APACO">     16.00000000</i>
  </separator>
  <separator name="symmetry" >
   <i type="int" name="ISYM">     2</i>
   <i name="SYMPREC">      0.00001000</i>
  </separator>
  <separator name="dos" >
   <i type="int" name="LORBIT">    11</i>
   <v name="RWIGS">     -1.00000000     -1.00000000</v>
   <i type="int" name="NEDOS">  2401</i>
   <i name="EMIN">    -17.00000000</i>
   <i name="EMAX">      7.00000000</i>
   <i name="EFERMI">      0.00000000</i>
  </separator>
  <separator name="writing" >
   <i type="int" name="NWRITE">     2</i>
   <i type="logical" name="LWAVE"> F  </i>
   <i type="logical" name="LDOWNSAMPLE"> F  </i>
   <i type="logical" name="LCHARG"> T  </i>
   <i type="logical" name="LPARD"> F  </i>
   <i type="logical" name="LVTOT"> F  </i>
   <i type="logical" name="LVHAR"> F  </i>
   <i type="logical" name="LELF"> T  </i>
   <i type="logical" name="LOPTICS"> F  </i>
   <v name="STM">      0.00000000      0.00000000      0.00000000      0.00000000      0.00000000      0.00000000      0.00000000</v>
  </separator>
  <separator name="performance" >
   <i type="int" name="NPAR">     2</i>
   <i type="int" name="NSIM">     4</i>
   <i type="int" name="NBLK">    -1</i>
   <i type="logical" name="LPLANE"> T  </i>
   <i type="logical" name="LSCALAPACK"> T  </i>
   <i type="logical" name="LSCAAWARE"> F  </i>
   <i type="logical" name="LSCALU"> F  </i>
   <i type="logical" name="LASYNC"> F  </i>
   <i type="logical" name="LORBITALREAL"> F  </i>
  </separator>
  <separator name="miscellaneous" >
   <i type="int" name="IDIOT">     3</i>
   <i type="int" name="ISPECIAL">     0</i>
   <i type="logical" name="LMUSIC"> F  </i>
   <v name="POMASS">     63.54600000      1.00000000</v>
   <v name="DARWINR">      0.00000000      0.00000000</v>
   <v name="DARWINV">      1.00000000      1.00000000</v>
   <i type="logical" name="LCORR"> T  </i>
  </separator>
  <i type="logical" name="GGA_COMPAT"> T  </i>
  <i type="logical" name="LBERRY"> F  </i>
  <i type="int" name="ICORELEVEL">     0</i>
  <i type="logical" name="LDAU"> F  </i>
  <i type="int" name="I_CONSTRAINED_M">     0</i>
  <separator name="electronic exchange-correlation" >
   <i type="string" name="GGA">--</i>
   <i type="int" name="VOSKOWN">     0</i>
   <i type="logical" name="LHFCALC"> F  </i>
   <i type="string" name="PRECFOCK"></i>
   <i type="logical" name="LSYMGRAD"> F  </i>
   <i type="logical" name="LHFONE"> F  </i>
   <i type="logical" name="LRHFCALC"> F  </i>
   <i type="logical" name="LTHOMAS"> F  </i>
   <i type="logical" name="LMODELHF"> F  </i>
   <i name="ENCUT4O">     -1.00000000</i>
   <i type="int" name="EXXOEP">     0</i>
   <i type="int" name="FOURORBIT">     0</i>
   <i name="AEXX">      0.00000000</i>
   <i name="HFALPHA">      0.00000000</i>
   <i name="MCALPHA">      0.00000000</i>
   <i name="ALDAX">      1.00000000</i>
   <i name="AGGAX">      1.00000000</i>
   <i name="ALDAC">      1.00000000</i>
   <i name="AGGAC">      1.00000000</i>
   <i type="int" name="NKREDX">     1</i>
   <i type="int" name="NKREDY">     1</i>
   <i type="int" name="NKREDZ">     1</i>
   <i type="logical" name="SHIFTRED"> F  </i>
   <i type="logical" name="ODDONLY"> F  </i>
   <i type="logical" name="EVENONLY"> F  </i>
   <i type="int" name="LMAXFOCK">     0</i>
   <i type="int" name="NMAXFOCKAE">     0</i>
   <i type="logical" name="LFOCKAEDFT"> F  </i>
   <i name="HFSCREEN">      0.00000000</i>
   <i name="HFSCREENC">      0.00000000</i>
   <i type="int" name="NBANDSGWLOW">     0</i>
  </separator>
  <separator name="vdW DFT" >
   <i type="logical" name="LUSE_VDW"> F  </i>
   <i name="Zab_VDW">     -0.84910000</i>
   <i name="PARAM1">      0.12340000</i>
   <i name="PARAM2">      1.00000000</i>
   <i name="PARAM3">      0.00000000</i>
  </separator>
  <separator name="model GW" >
   <i type="int" name="MODEL_GW">     0</i>
   <i name="MODEL_EPS0">     20.86383483</i>
   <i name="MODEL_ALPHA">      1.00000000</i>
  </separator>
  <separator name="linear response parameters" >
   <i type="logical" name="LEPSILON"> F  </i>
   <i type="logical" name="LRPA"> F  </i>
   <i type="logical" name="LNABLA"> F  </i>
   <i type="logical" name="LVEL"> F  </i>
   <i type="int" name="KINTER">     0</i>
   <i name="CSHIFT">      0.10000000</i>
   <i name="OMEGAMAX">     -1.00000000</i>
   <i name="DEG_THRESHOLD">      0.00200000</i>
   <i name="RTIME">     -0.10000000</i>
   <i name="WPLASMAI">      0.00000000</i>
   <v name="DFIELD">      0.00000000      0.00000000      0.00000000</v>
   <v name="WPLASMA">      0.00000000      0.00000000      0.00000000      0.00000000      0.00000000      0.00000000      0.00000000      0.00000000      0.00000000</v>
  </separator>
  <separator name="orbital magnetization" >
   <i type="logical" name="NUCIND"> F  </i>
   <v name="MAGPOS">      0.00000000      0.00000000      0.00000000</v>
   <i type="logical" name="LNICSALL"> T  </i>
   <i type="logical" name="ORBITALMAG"> F  </i>
   <i type="logical" name="LMAGBLOCH"> F  </i>
   <i type="logical" name="LCHIMAG"> F  </i>
   <i type="logical" name="LGAUGE"> T  </i>
   <i type="int" name="MAGATOM">     0</i>
   <v name="MAGDIPOL">      0.00000000      0.00000000      0.00000000</v>
   <v name="AVECCONST">      0.00000000      0.00000000      0.00000000</v>
  </separator>
  <separator name="response functions" >
   <i type="logical" name="LADDER"> F  </i>
   <i type="logical" name="LRPAFORCE"> F  </i>
   <i type="logical" name="LFXC"> F  </i>
   <i type="logical" name="LHARTREE"> T  </i>
   <i type="int" name="IBSE">     0</i>
   <v type="int" name="KPOINT">    -1     0     0     0</v>
   <i type="logical" name="LTCTE"> F  </i>
   <i type="logical" name="LTETE"> F  </i>
   <i type="logical" name="LTRIPLET"> F  </i>
   <i type="logical" name="LFXCEPS"> F  </i>
   <i type="logical" name="LFXHEG"> F  </i>
   <i type="int" name="NATURALO">     2</i>
   <i type="logical" name="L2ORDER"> F  </i>
   <i type="logical" name="LMP2LT"> F  </i>
   <i type="logical" name="LUSEW"> F  </i>
   <i name="ENCUTGW">     -2.00000000</i>
   <i name="ENCUTGWSOFT">     -2.00000000</i>
   <i name="ENCUTLF">     -1.00000000</i>
   <i type="int" name="LMAXMP2">    -1</i>
   <i name="SCISSOR">      0.00000000</i>
   <i type="int" name="NOMEGA">     0</i>
   <i type="int" name="NOMEGAR">     0</i>
   <i type="int" name="NBANDSGW">    -1</i>
   <i type="int" name="NBANDSO">    -1</i>
   <i type="int" name="NBANDSV">    -1</i>
   <i type="int" name="NELM">     1</i>
   <i type="int" name="NELMHF">     1</i>
   <i type="int" name="DIM">     3</i>
   <i type="int" name="ANTIRES">     0</i>
   <i name="OMEGAMAX">    -30.00000000</i>
   <i name="OMEGAMIN">    -30.00000000</i>
   <i name="OMEGATL">   -200.00000000</i>
   <i type="int" name="OMEGAGRID">   140</i>
   <i name="CSHIFT">     -0.10000000</i>
   <i type="logical" name="SELFENERGY"> F  </i>
   <i type="logical" name="LSPECTRAL"> F  </i>
   <i type="logical" name="LSPECTRALGW"> F  </i>
   <i type="logical" name="LSINGLES"> F  </i>
   <i type="logical" name="LFERMIGW"> F  </i>
   <i type="logical" name="ODDONLYGW"> F  </i>
   <i type="logical" name="EVENONLYGW"> F  </i>
   <i type="int" name="NKREDLFX">     1</i>
   <i type="int" name="NKREDLFY">     1</i>
   <i type="int" name="NKREDLFZ">     1</i>
   <i type="int" name="MAXMEM">  2800</i>
   <i type="int" name="TELESCOPE">     0</i>
   <i type="int" name="TAUPAR">     1</i>
   <i type="int" name="OMEGAPAR">    -1</i>
   <i name="LAMBDA">      1.00000000</i>
  </separator>
  <separator name="External order field" >
   <i name="OFIELD_KAPPA">      0.00000000</i>
   <v name="OFIELD_K">      0.00000000      0.00000000      0.00000000</v>
   <i name="OFIELD_Q6_NEAR">      0.00000000</i>
   <i name="OFIELD_Q6_FAR">      0.00000000</i>
   <i name="OFIELD_A">      0.00000000</i>
  </separator>
 </parameters>
 <atominfo>
  <atoms>       5 </atoms>
  <types>       2 </types>
  <array name="atoms" >
   <dimension dim="1">ion</dimension>
   <field type="string">element</field>
   <field type="int">atomtype</field>
   <set>
    <rc><c>Cu</c><c>   1</c></rc>
    <rc><c>Cu</c><c>   1</c></rc>
    <rc><c>Cu</c><c>   1</c></rc>
    <rc><c>Cu</c><c>   1</c></rc>
    <rc><c>H </c><c>   2</c></rc>
   </set>
  </array>
  <array name="atomtypes" >
   <dimension dim="1">type</dimension>
   <field type="int">atomspertype</field>
   <field type="string">element</field>
   <field>mass</field>
   <field>valence</field>
   <field type="string">pseudopotential</field>
   <set>
    <rc><c>   4</c><c>Cu</c><c>     63.54600000</c><c>     11.00000000</c><c> PAW_PBE Cu 05Jan2001                   </c></rc>
    <rc><c>   1</c><c>H </c><c>      1.00000000</c><c>      1.00000000</c><c> PAW_PBE H 15Jun2001                    </c></rc>
   </set>
  </array>
 </atominfo>
 <structure name="initialpos" >
  <crystal>
   <varray name="basis" >
    <v>       2.57386868       0.00000000       0.00000000 </v>
    <v>       1.28693434       2.22903567       0.00000000 </v>
    <v>       0.00000000       0.00000000      30.30466494 </v>
   </varray>
   <i name="volume">    173.86529028 </i>
   <varray name="rec_basis" >
    <v>       0.38852021      -0.22431225       0.00000000 </v>
    <v>       0.00000000       0.44862450       0.00000000 </v>
    <v>       0.00000000       0.00000000       0.03299822 </v>
   </varray>
  </crystal>
  <varray name="positions" >
   <v>       0.00000000       0.00000000       0.39642709 </v>
   <v>       0.33333207       0.33333249       0.46516172 </v>
   <v>       0.66666803       0.66666497       0.53388942 </v>
   <v>       0.00000000       0.00000000       0.60671220 </v>
   <v>       0.66666803       0.66666497       0.63812915 </v>
  </varray>
 </structure>
 <calculation>
  <scstep>
   <time name="dav">    0.29    0.30</time>
   <time name="total">    0.32    0.33</time>
   <energy>
    <i name="alphaZ">    120.87645803 </i>
    <i name="ewald">  37744.48676542 </i>
    <i name="hartreedc"> -42866.74249803 </i>
    <i name="XCdc">    177.35254402 </i>
    <i name="pawpsdc">   4328.99049516 </i>
    <i name="pawaedc">  -4905.09836044 </i>
    <i name="eentropy">     -0.01042130 </i>
    <i name="bandstr">     22.77805343 </i>
    <i name="atom">   5575.94961827 </i>
    <i name="e_fr_energy">    198.58265455 </i>
    <i name="e_wo_entrp">    198.59307586 </i>
    <i name="e_0_energy">    198.58786521 </i>
   </energy>
  </scstep>
  <scstep>
   <time name="dav">    0.29    0.29</time>
   <time name="total">    0.29    0.29</time>
   <energy>
    <i name="e_fr_energy">    -10.70643268 </i>
    <i name="e_wo_entrp">    -10.69829525 </i>
    <i name="e_0_energy">    -10.70236397 </i>
   </energy>
  </scstep>
  <scstep>
   <time name="dav">    0.30    0.30</time>
   <time name="total">    0.30    0.30</time>
   <energy>
    <i name="e_fr_energy">    -20.98837254 </i>
    <i name="e_wo_entrp">    -20.97416131 </i>
    <i name="e_0_energy">    -20.98126693 </i>
   </energy>
  </scstep>
  <scstep>
   <time name="dav">    0.29    0.29</time>
   <time name="total">    0.29    0.30</time>
   <energy>
    <i name="e_fr_energy">    -21.11463439 </i>
    <i name="e_wo_entrp">    -21.10087108 </i>
    <i name="e_0_energy">    -21.10775274 </i>
   </energy>
  </scstep>
  <scstep>
   <time name="dav">    0.30    0.30</time>
   <time name="total">    0.32    0.32</time>
   <energy>
    <i name="e_fr_energy">    -21.11606913 </i>
    <i name="e_wo_entrp">    -21.10230524 </i>
    <i name="e_0_energy">    -21.10918718 </i>
   </energy>
  </scstep>
  <scstep>
   <time name="diag">    0.06    0.06</time>
   <time name="diis">    0.17    0.17</time>
   <time name="orth">    0.01    0.01</time>
   <time name="total">    0.27    0.27</time>
   <energy>
    <i name="e_fr_energy">    -19.10190615 </i>
    <i name="e_wo_entrp">    -19.08843297 </i>
    <i name="e_0_energy">    -19.09516956 </i>
   </energy>
  </scstep>
  <scstep>
   <time name="diag">    0.06    0.06</time>
   <time name="diis">    0.17    0.17</time>
   <time name="orth">    0.01    0.01</time>
   <time name="total">    0.27    0.27</time>
   <energy>
    <i name="e_fr_energy">    -17.44099867 </i>
    <i name="e_wo_entrp">    -17.42870332 </i>
    <i name="e_0_energy">    -17.43485099 </i>
   </energy>
  </scstep>
  <scstep>
   <time name="diag">    0.06    0.06</time>
   <time name="diis">    0.17    0.17</time>
   <time name="orth">    0.01    0.01</time>
   <time name="total">    0.27    0.27</time>
   <energy>
    <i name="e_fr_energy">    -17.31192658 </i>
    <i name="e_wo_entrp">    -17.29463110 </i>
    <i name="e_0_energy">    -17.30327884 </i>
   </energy>
  </scstep>
  <scstep>
   <time name="diag">    0.06    0.06</time>
   <time name="diis">    0.17    0.17</time>
   <time name="orth">    0.01    0.01</time>
   <time name="total">    0.27    0.27</time>
   <energy>
    <i name="e_fr_energy">    -17.24051609 </i>
    <i name="e_wo_entrp">    -17.22391422 </i>
    <i name="e_0_energy">    -17.23221515 </i>
   </energy>
  </scstep>
  <scstep>
   <time name="diag">    0.06    0.06</time>
   <time name="diis">    0.17    0.17</time>
   <time name="orth">    0.01    0.01</time>
   <time name="total">    0.27    0.27</time>
   <energy>
    <i name="e_fr_energy">    -17.22989208 </i>
    <i name="e_wo_entrp">    -17.21187322 </i>
    <i name="e_0_energy">    -17.22088265 </i>
   </energy>
  </scstep>
  <scstep>
   <time name="diag">    0.06    0.06</time>
   <time name="diis">    0.17    0.17</time>
   <time name="orth">    0.01    0.01</time>
   <time name="total">    0.27    0.28</time>
   <energy>
    <i name="e_fr_energy">    -17.22541687 </i>
    <i name="e_wo_entrp">    -17.20702952 </i>
    <i name="e_0_energy">    -17.21622319 </i>
   </energy>
  </scstep>
  <scstep>
   <time name="diag">    0.06    0.06</time>
   <time name="diis">    0.17    0.17</time>
   <time name="orth">    0.01    0.01</time>
   <time name="total">    0.27    0.27</time>
   <energy>
    <i name="e_fr_energy">    -17.22438217 </i>
    <i name="e_wo_entrp">    -17.20687720 </i>
    <i name="e_0_energy">    -17.21562969 </i>
   </energy>
  </scstep>
  <scstep>
   <time name="diag">    0.06    0.06</time>
   <time name="diis">    0.17    0.17</time>
   <time name="orth">    0.01    0.01</time>
   <time name="total">    0.27    0.27</time>
   <energy>
    <i name="e_fr_energy">    -17.22376941 </i>
    <i name="e_wo_entrp">    -17.20585158 </i>
    <i name="e_0_energy">    -17.21481050 </i>
   </energy>
  </scstep>
  <scstep>
   <time name="diag">    0.06    0.06</time>
   <time name="diis">    0.17    0.17</time>
   <time name="orth">    0.01    0.01</time>
   <time name="total">    0.27    0.27</time>
   <energy>
    <i name="e_fr_energy">    -17.22388344 </i>
    <i name="e_wo_entrp">    -17.20555321 </i>
    <i name="e_0_energy">    -17.21471833 </i>
   </energy>
  </scstep>
  <scstep>
   <time name="diag">    0.06    0.06</time>
   <time name="diis">    0.17    0.17</time>
   <time name="orth">    0.01    0.01</time>
   <time name="total">    0.27    0.27</time>
   <energy>
    <i name="e_fr_energy">    -17.22391741 </i>
    <i name="e_wo_entrp">    -17.20569300 </i>
    <i name="e_0_energy">    -17.21480520 </i>
   </energy>
  </scstep>
  <scstep>
   <time name="diag">    0.06    0.06</time>
   <time name="diis">    0.16    0.16</time>
   <time name="orth">    0.01    0.01</time>
   <time name="total">    0.26    0.26</time>
   <energy>
    <i name="e_fr_energy">    -17.22404752 </i>
    <i name="e_wo_entrp">    -17.20584499 </i>
    <i name="e_0_energy">    -17.21494625 </i>
   </energy>
  </scstep>
  <scstep>
   <time name="diag">    0.06    0.06</time>
   <time name="diis">    0.15    0.15</time>
   <time name="orth">    0.01    0.01</time>
   <time name="total">    0.25    0.26</time>
   <energy>
    <i name="e_fr_energy">    -17.22435940 </i>
    <i name="e_wo_entrp">    -17.20604266 </i>
    <i name="e_0_energy">    -17.21520103 </i>
   </energy>
  </scstep>
  <scstep>
   <time name="diag">    0.06    0.06</time>
   <time name="diis">    0.15    0.15</time>
   <time name="orth">    0.01    0.01</time>
   <time name="total">    0.25    0.25</time>
   <energy>
    <i name="e_fr_energy">    -17.22442625 </i>
    <i name="e_wo_entrp">    -17.20611661 </i>
    <i name="e_0_energy">    -17.21527143 </i>
   </energy>
  </scstep>
  <scstep>
   <time name="diag">    0.06    0.06</time>
   <time name="diis">    0.12    0.12</time>
   <time name="orth">    0.01    0.01</time>
   <time name="total">    0.22    0.22</time>
   <energy>
    <i name="e_fr_energy">    -17.22447055 </i>
    <i name="e_wo_entrp">    -17.20617042 </i>
    <i name="e_0_energy">    -17.21532049 </i>
   </energy>
  </scstep>
  <scstep>
   <time name="diag">    0.06    0.06</time>
   <time name="diis">    0.11    0.11</time>
   <time name="orth">    0.01    0.01</time>
   <time name="total">    0.21    0.22</time>
   <energy>
    <i name="e_fr_energy">    -17.22448845 </i>
    <i name="e_wo_entrp">    -17.20616918 </i>
    <i name="e_0_energy">    -17.21532882 </i>
   </energy>
  </scstep>
  <scstep>
   <time name="diag">    0.06    0.06</time>
   <time name="diis">    0.11    0.11</time>
   <time name="orth">    0.01    0.01</time>
   <time name="total">    0.21    0.21</time>
   <energy>
    <i name="e_fr_energy">    -17.22450332 </i>
    <i name="e_wo_entrp">    -17.20618507 </i>
    <i name="e_0_energy">    -17.21534420 </i>
   </energy>
  </scstep>
  <scstep>
   <time name="diag">    0.06    0.06</time>
   <time name="diis">    0.11    0.11</time>
   <time name="orth">    0.01    0.01</time>
   <time name="total">    0.21    0.21</time>
   <energy>
    <i name="e_fr_energy">    -17.22450821 </i>
    <i name="e_wo_entrp">    -17.20618929 </i>
    <i name="e_0_energy">    -17.21534875 </i>
   </energy>
  </scstep>
  <scstep>
   <time name="diag">    0.06    0.06</time>
   <time name="diis">    0.10    0.10</time>
   <time name="orth">    0.01    0.01</time>
   <time name="total">    0.20    0.20</time>
   <energy>
    <i name="e_fr_energy">    -17.22450989 </i>
    <i name="e_wo_entrp">    -17.20619255 </i>
    <i name="e_0_energy">    -17.21535122 </i>
   </energy>
  </scstep>
  <scstep>
   <time name="diag">    0.06    0.06</time>
   <time name="diis">    0.08    0.08</time>
   <time name="orth">    0.01    0.01</time>
   <time name="total">    0.16    0.17</time>
   <energy>
    <i name="alphaZ">    120.87645803 </i>
    <i name="ewald">  37744.48676542 </i>
    <i name="hartreedc"> -42816.69681623 </i>
    <i name="XCdc">    173.34147653 </i>
    <i name="pawpsdc">   4388.74648761 </i>
    <i name="pawaedc">  -4964.44396288 </i>
    <i name="eentropy">     -0.01831811 </i>
    <i name="bandstr">   -239.46621861 </i>
    <i name="atom">   5575.94961827 </i>
    <i name="e_fr_energy">    -17.22450998 </i>
    <i name="e_wo_entrp">    -17.20619187 </i>
    <i name="e_0_energy">    -17.21535093 </i>
   </energy>
  </scstep>
  <structure>
   <crystal>
    <varray name="basis" >
     <v>       2.57386868       0.00000000       0.00000000 </v>
     <v>       1.28693434       2.22903567       0.00000000 </v>
     <v>       0.00000000       0.00000000      30.30466494 </v>
    </varray>
    <i name="volume">    173.86529028 </i>
    <varray name="rec_basis" >
     <v>       0.38852021      -0.22431225       0.00000000 </v>
     <v>       0.00000000       0.44862450       0.00000000 </v>
     <v>       0.00000000       0.00000000       0.03299822 </v>
    </varray>
   </crystal>
   <varray name="positions" >
    <v>       0.00000000       0.00000000       0.39642709 </v>
    <v>       0.33333207       0.33333249       0.46516172 </v>
    <v>       0.66666803       0.66666497       0.53388942 </v>
    <v>       0.00000000       0.00000000       0.60671220 </v>
    <v>       0.66666803       0.66666497       0.63812915 </v>
   </varray>
  </structure>
  <varray name="forces" >
   <v>      -0.00000000      -0.00000000       0.07079439 </v>
   <v>       0.00000000      -0.00000000      -0.01269898 </v>
   <v>       0.00000000      -0.00000000       0.06783363 </v>
   <v>       0.00000000       0.00000000       0.35507774 </v>
   <v>      -0.00000000      -0.00000000      -0.48100678 </v>
  </varray>
  <varray name="stress" >
   <v>     -48.65986281       0.00000000       0.00000000 </v>
   <v>       0.00000000     -48.65986281      -0.00000000 </v>
   <v>       0.00000000       0.00000000     -53.74196037 </v>
  </varray>
  <energy>
   <i name="e_fr_energy">    -17.22450998 </i>
   <i name="e_wo_entrp">    -17.21535093 </i>
   <i name="e_0_energy">     -0.01831811 </i>
  </energy>
  <time name="totalsc">    6.71    6.76</time>
  <eigenvalues>
   <array>
    <dimension dim="1">band</dimension>
    <dimension dim="2">kpoint</dimension>
    <dimension dim="3">spin</dimension>
    <field>eigene</field>
    <field>occ</field>
    <set>
     <set comment="spin 1">
      <set comment="kpoint 1">
       <r>  -11.5648    1.0000 </r>
       <r>  -10.6362    1.0000 </r>
       <r>   -8.9612    1.0000 </r>
       <r>   -7.4878    1.0000 </r>
       <r>   -5.9334    1.0000 </r>
       <r>   -5.5551    1.0000 </r>
       <r>   -5.4998    1.0000 </r>
       <r>   -5.4995    1.0000 </r>
       <r>   -5.2709    1.0000 </r>
       <r>   -5.2155    1.0000 </r>
       <r>   -5.2151    1.0000 </r>
       <r>   -5.1865    1.0000 </r>
       <r>   -5.1863    1.0000 </r>
       <r>   -4.9480    1.0000 </r>
       <r>   -4.9477    1.0000 </r>
       <r>   -4.8563    1.0000 </r>
       <r>   -4.7030    1.0000 </r>
       <r>   -4.7030    1.0000 </r>
       <r>   -4.4466    1.0000 </r>
       <r>   -4.4465    1.0000 </r>
       <r>   -4.2270    1.0000 </r>
       <r>   -4.2270    1.0000 </r>
       <r>   -3.9498    1.0000 </r>
       <r>   -3.9498    1.0000 </r>
       <r>   -2.8855    1.0000 </r>
       <r>    1.5660    0.0000 </r>
       <r>    1.8987    0.0000 </r>
       <r>    2.3057    0.0000 </r>
      </set>
      <set comment="kpoint 2">
       <r>  -11.2647    1.0000 </r>
       <r>  -10.3374    1.0000 </r>
       <r>   -8.6935    1.0000 </r>
       <r>   -7.2672    1.0000 </r>
       <r>   -5.9603    1.0000 </r>
       <r>   -5.6689    1.0000 </r>
       <r>   -5.5740    1.0000 </r>
       <r>   -5.3920    1.0000 </r>
       <r>   -5.3237    1.0000 </r>
       <r>   -5.2883    1.0000 </r>
       <r>   -5.2683    1.0000 </r>
       <r>   -5.1162    1.0000 </r>
       <r>   -5.1062    1.0000 </r>
       <r>   -5.0639    1.0000 </r>
       <r>   -4.9663    1.0000 </r>
       <r>   -4.8615    1.0000 </r>
       <r>   -4.7217    1.0000 </r>
       <r>   -4.6365    1.0000 </r>
       <r>   -4.4613    1.0000 </r>
       <r>   -4.4260    1.0000 </r>
       <r>   -4.2586    1.0000 </r>
       <r>   -4.2231    1.0000 </r>
       <r>   -3.9446    1.0000 </r>
       <r>   -3.7445    1.0000 </r>
       <r>   -2.2042    0.1030 </r>
       <r>    1.8093    0.0000 </r>
       <r>    2.2015    0.0000 </r>
       <r>    2.6084    0.0000 </r>
      </set>
      <set comment="kpoint 3">
       <r>  -10.4105    1.0000 </r>
       <r>   -9.4892    1.0000 </r>
       <r>   -7.9914    1.0000 </r>
       <r>   -6.7477    1.0000 </r>
       <r>   -6.1322    1.0000 </r>
       <r>   -5.8709    1.0000 </r>
       <r>   -5.6790    1.0000 </r>
       <r>   -5.6110    1.0000 </r>
       <r>   -5.4555    1.0000 </r>
       <r>   -5.2325    1.0000 </r>
       <r>   -5.1657    1.0000 </r>
       <r>   -5.1096    1.0000 </r>
       <r>   -5.0094    1.0000 </r>
       <r>   -4.9707    1.0000 </r>
       <r>   -4.8390    1.0000 </r>
       <r>   -4.8001    1.0000 </r>
       <r>   -4.7502    1.0000 </r>
       <r>   -4.5719    1.0000 </r>
       <r>   -4.5212    1.0000 </r>
       <r>   -4.4106    1.0000 </r>
       <r>   -4.2243    1.0000 </r>
       <r>   -4.0495    1.0000 </r>
       <r>   -3.9376    1.0000 </r>
       <r>   -2.8864    1.0000 </r>
       <r>   -0.8920    0.0000 </r>
       <r>    2.5351    0.0000 </r>
       <r>    3.1088    0.0000 </r>
       <r>    3.5247    0.0000 </r>
      </set>
      <set comment="kpoint 4">
       <r>   -9.2082    1.0000 </r>
       <r>   -8.3015    1.0000 </r>
       <r>   -7.2745    1.0000 </r>
       <r>   -6.4983    1.0000 </r>
       <r>   -6.2605    1.0000 </r>
       <r>   -6.1020    1.0000 </r>
       <r>   -5.8104    1.0000 </r>
       <r>   -5.5880    1.0000 </r>
       <r>   -5.4898    1.0000 </r>
       <r>   -5.2427    1.0000 </r>
       <r>   -5.0753    1.0000 </r>
       <r>   -5.0195    1.0000 </r>
       <r>   -4.8641    1.0000 </r>
       <r>   -4.7992    1.0000 </r>
       <r>   -4.6996    1.0000 </r>
       <r>   -4.5877    1.0000 </r>
       <r>   -4.4893    1.0000 </r>
       <r>   -4.3291    1.0000 </r>
       <r>   -4.2867    1.0000 </r>
       <r>   -4.2136    1.0000 </r>
       <r>   -4.0992    1.0000 </r>
       <r>   -3.9225    1.0000 </r>
       <r>   -3.5905    1.0000 </r>
       <r>   -1.7189    0.0000 </r>
       <r>    0.7540    0.0000 </r>
       <r>    3.7059    0.0000 </r>
       <r>    4.5901    0.0000 </r>
       <r>    4.9772    0.0000 </r>
      </set>
      <set comment="kpoint 5">
       <r>   -8.2875    1.0000 </r>
       <r>   -7.3126    1.0000 </r>
       <r>   -6.9509    1.0000 </r>
       <r>   -6.5176    1.0000 </r>
       <r>   -6.4279    1.0000 </r>
       <r>   -6.2473    1.0000 </r>
       <r>   -5.9284    1.0000 </r>
       <r>   -5.4014    1.0000 </r>
       <r>   -5.2525    1.0000 </r>
       <r>   -5.1637    1.0000 </r>
       <r>   -5.1302    1.0000 </r>
       <r>   -4.9046    1.0000 </r>
       <r>   -4.8239    1.0000 </r>
       <r>   -4.4513    1.0000 </r>
       <r>   -4.3332    1.0000 </r>
       <r>   -4.2847    1.0000 </r>
       <r>   -4.0768    1.0000 </r>
       <r>   -4.0629    1.0000 </r>
       <r>   -3.9977    1.0000 </r>
       <r>   -3.9222    1.0000 </r>
       <r>   -3.7830    1.0000 </r>
       <r>   -3.5046    1.0000 </r>
       <r>   -2.5252    0.9995 </r>
       <r>   -0.3241    0.0000 </r>
       <r>    2.0582    0.0000 </r>
       <r>    2.4791    0.0000 </r>
       <r>    3.2968    0.0000 </r>
       <r>    4.6213    0.0000 </r>
      </set>
      <set comment="kpoint 6">
       <r>   -8.0570    1.0000 </r>
       <r>   -7.0240    1.0000 </r>
       <r>   -6.8772    1.0000 </r>
       <r>   -6.5099    1.0000 </r>
       <r>   -6.5017    1.0000 </r>
       <r>   -6.2996    1.0000 </r>
       <r>   -5.9491    1.0000 </r>
       <r>   -5.3653    1.0000 </r>
       <r>   -5.1984    1.0000 </r>
       <r>   -5.1939    1.0000 </r>
       <r>   -4.9246    1.0000 </r>
       <r>   -4.9110    1.0000 </r>
       <r>   -4.5760    1.0000 </r>
       <r>   -4.4261    1.0000 </r>
       <r>   -4.2274    1.0000 </r>
       <r>   -4.0988    1.0000 </r>
       <r>   -4.0048    1.0000 </r>
       <r>   -3.9019    1.0000 </r>
       <r>   -3.8427    1.0000 </r>
       <r>   -3.6677    1.0000 </r>
       <r>   -3.6478    1.0000 </r>
       <r>   -2.1790    0.0524 </r>
       <r>   -1.3181    0.0000 </r>
       <r>   -0.7803    0.0000 </r>
       <r>    1.0044    0.0000 </r>
       <r>    1.7174    0.0000 </r>
       <r>    2.8155    0.0000 </r>
       <r>    4.0399    0.0000 </r>
      </set>
      <set comment="kpoint 7">
       <r>  -10.6857    1.0000 </r>
       <r>   -9.7617    1.0000 </r>
       <r>   -8.2028    1.0000 </r>
       <r>   -6.8844    1.0000 </r>
       <r>   -6.0683    1.0000 </r>
       <r>   -5.7693    1.0000 </r>
       <r>   -5.7155    1.0000 </r>
       <r>   -5.5301    1.0000 </r>
       <r>   -5.4312    1.0000 </r>
       <r>   -5.2915    1.0000 </r>
       <r>   -5.1825    1.0000 </r>
       <r>   -5.1167    1.0000 </r>
       <r>   -5.0619    1.0000 </r>
       <r>   -5.0210    1.0000 </r>
       <r>   -4.8991    1.0000 </r>
       <r>   -4.8055    1.0000 </r>
       <r>   -4.6672    1.0000 </r>
       <r>   -4.5797    1.0000 </r>
       <r>   -4.5580    1.0000 </r>
       <r>   -4.4139    1.0000 </r>
       <r>   -4.3090    1.0000 </r>
       <r>   -4.0457    1.0000 </r>
       <r>   -3.9861    1.0000 </r>
       <r>   -3.1328    1.0000 </r>
       <r>   -1.2762    0.0000 </r>
       <r>    2.2951    0.0000 </r>
       <r>    2.8068    0.0000 </r>
       <r>    3.2134    0.0000 </r>
      </set>
      <set comment="kpoint 8">
       <r>   -9.6387    1.0000 </r>
       <r>   -8.7221    1.0000 </r>
       <r>   -7.4587    1.0000 </r>
       <r>   -6.4711    1.0000 </r>
       <r>   -6.1525    1.0000 </r>
       <r>   -5.9681    1.0000 </r>
       <r>   -5.7920    1.0000 </r>
       <r>   -5.7207    1.0000 </r>
       <r>   -5.5751    1.0000 </r>
       <r>   -5.2684    1.0000 </r>
       <r>   -5.2325    1.0000 </r>
       <r>   -5.0934    1.0000 </r>
       <r>   -4.9996    1.0000 </r>
       <r>   -4.8795    1.0000 </r>
       <r>   -4.7985    1.0000 </r>
       <r>   -4.7188    1.0000 </r>
       <r>   -4.5598    1.0000 </r>
       <r>   -4.4407    1.0000 </r>
       <r>   -4.3241    1.0000 </r>
       <r>   -4.2535    1.0000 </r>
       <r>   -4.1089    1.0000 </r>
       <r>   -4.0011    1.0000 </r>
       <r>   -3.7006    1.0000 </r>
       <r>   -2.1404    0.0151 </r>
       <r>    0.1550    0.0000 </r>
       <r>    3.2716    0.0000 </r>
       <r>    4.0123    0.0000 </r>
       <r>    4.4547    0.0000 </r>
      </set>
      <set comment="kpoint 9">
       <r>   -8.5221    1.0000 </r>
       <r>   -7.5726    1.0000 </r>
       <r>   -6.9549    1.0000 </r>
       <r>   -6.4548    1.0000 </r>
       <r>   -6.2742    1.0000 </r>
       <r>   -6.1138    1.0000 </r>
       <r>   -5.8777    1.0000 </r>
       <r>   -5.5894    1.0000 </r>
       <r>   -5.4872    1.0000 </r>
       <r>   -5.2443    1.0000 </r>
       <r>   -5.2018    1.0000 </r>
       <r>   -5.0373    1.0000 </r>
       <r>   -4.8914    1.0000 </r>
       <r>   -4.7058    1.0000 </r>
       <r>   -4.5920    1.0000 </r>
       <r>   -4.4628    1.0000 </r>
       <r>   -4.3339    1.0000 </r>
       <r>   -4.2016    1.0000 </r>
       <r>   -4.1244    1.0000 </r>
       <r>   -3.9421    1.0000 </r>
       <r>   -3.8981    1.0000 </r>
       <r>   -3.5897    1.0000 </r>
       <r>   -2.8301    1.0000 </r>
       <r>   -0.7393    0.0000 </r>
       <r>    1.8814    0.0000 </r>
       <r>    3.9215    0.0000 </r>
       <r>    4.3984    0.0000 </r>
       <r>    5.2450    0.0000 </r>
      </set>
      <set comment="kpoint 10">
       <r>   -8.0129    1.0000 </r>
       <r>   -6.9480    1.0000 </r>
       <r>   -6.7851    1.0000 </r>
       <r>   -6.4250    1.0000 </r>
       <r>   -6.4024    1.0000 </r>
       <r>   -6.1970    1.0000 </r>
       <r>   -5.9469    1.0000 </r>
       <r>   -5.4501    1.0000 </r>
       <r>   -5.3340    1.0000 </r>
       <r>   -5.1809    1.0000 </r>
       <r>   -5.1247    1.0000 </r>
       <r>   -5.0053    1.0000 </r>
       <r>   -4.7704    1.0000 </r>
       <r>   -4.4917    1.0000 </r>
       <r>   -4.3730    1.0000 </r>
       <r>   -4.2127    1.0000 </r>
       <r>   -4.0885    1.0000 </r>
       <r>   -4.0277    1.0000 </r>
       <r>   -3.9762    1.0000 </r>
       <r>   -3.8286    1.0000 </r>
       <r>   -3.3592    1.0000 </r>
       <r>   -2.3028    0.5515 </r>
       <r>   -1.3277    0.0000 </r>
       <r>    0.1118    0.0000 </r>
       <r>    1.5603    0.0000 </r>
       <r>    1.9906    0.0000 </r>
       <r>    3.0954    0.0000 </r>
       <r>    4.4516    0.0000 </r>
      </set>
      <set comment="kpoint 11">
       <r>   -8.6195    1.0000 </r>
       <r>   -7.6628    1.0000 </r>
       <r>   -6.9091    1.0000 </r>
       <r>   -6.4067    1.0000 </r>
       <r>   -6.0447    1.0000 </r>
       <r>   -5.9740    1.0000 </r>
       <r>   -5.8824    1.0000 </r>
       <r>   -5.7929    1.0000 </r>
       <r>   -5.5432    1.0000 </r>
       <r>   -5.3996    1.0000 </r>
       <r>   -5.2892    1.0000 </r>
       <r>   -5.2395    1.0000 </r>
       <r>   -4.9462    1.0000 </r>
       <r>   -4.8826    1.0000 </r>
       <r>   -4.7474    1.0000 </r>
       <r>   -4.5668    1.0000 </r>
       <r>   -4.3835    1.0000 </r>
       <r>   -4.2304    1.0000 </r>
       <r>   -4.1520    1.0000 </r>
       <r>   -3.9381    1.0000 </r>
       <r>   -3.8851    1.0000 </r>
       <r>   -3.5394    1.0000 </r>
       <r>   -2.8318    1.0000 </r>
       <r>   -0.8682    0.0000 </r>
       <r>    1.6919    0.0000 </r>
       <r>    4.4972    0.0000 </r>
       <r>    5.3193    0.0000 </r>
       <r>    5.6252    0.0000 </r>
      </set>
      <set comment="kpoint 12">
       <r>   -7.9327    1.0000 </r>
       <r>   -6.7846    1.0000 </r>
       <r>   -6.5780    1.0000 </r>
       <r>   -6.3367    1.0000 </r>
       <r>   -6.1680    1.0000 </r>
       <r>   -6.0141    1.0000 </r>
       <r>   -5.8862    1.0000 </r>
       <r>   -5.7133    1.0000 </r>
       <r>   -5.5433    1.0000 </r>
       <r>   -5.4374    1.0000 </r>
       <r>   -5.2998    1.0000 </r>
       <r>   -5.0255    1.0000 </r>
       <r>   -4.9461    1.0000 </r>
       <r>   -4.7969    1.0000 </r>
       <r>   -4.6107    1.0000 </r>
       <r>   -4.4987    1.0000 </r>
       <r>   -4.3389    1.0000 </r>
       <r>   -4.1565    1.0000 </r>
       <r>   -3.9874    1.0000 </r>
       <r>   -3.8469    1.0000 </r>
       <r>   -3.1397    1.0000 </r>
       <r>   -2.3307    0.7000 </r>
       <r>   -1.2204    0.0000 </r>
       <r>    0.8136    0.0000 </r>
       <r>    2.9955    0.0000 </r>
       <r>    3.1245    0.0000 </r>
       <r>    3.9796    0.0000 </r>
       <r>    5.1795    0.0000 </r>
      </set>
      <set comment="kpoint 13">
       <r>   -7.7669    1.0000 </r>
       <r>   -6.5649    1.0000 </r>
       <r>   -6.5162    1.0000 </r>
       <r>   -6.2467    1.0000 </r>
       <r>   -6.1574    1.0000 </r>
       <r>   -6.0415    1.0000 </r>
       <r>   -5.9017    1.0000 </r>
       <r>   -5.7531    1.0000 </r>
       <r>   -5.5043    1.0000 </r>
       <r>   -5.3819    1.0000 </r>
       <r>   -5.2207    1.0000 </r>
       <r>   -5.0674    1.0000 </r>
       <r>   -4.8908    1.0000 </r>
       <r>   -4.6674    1.0000 </r>
       <r>   -4.5290    1.0000 </r>
       <r>   -4.4407    1.0000 </r>
       <r>   -4.2359    1.0000 </r>
       <r>   -4.0678    1.0000 </r>
       <r>   -4.0209    1.0000 </r>
       <r>   -3.9143    1.0000 </r>
       <r>   -2.3251    0.6717 </r>
       <r>   -0.6852    0.0000 </r>
       <r>   -0.1474    0.0000 </r>
       <r>    0.6080    0.0000 </r>
       <r>    1.9594    0.0000 </r>
       <r>    2.1733    0.0000 </r>
       <r>    3.4882    0.0000 </r>
       <r>    4.6416    0.0000 </r>
      </set>
      <set comment="kpoint 14">
       <r>   -7.6538    1.0000 </r>
       <r>   -6.3187    1.0000 </r>
       <r>   -6.2721    1.0000 </r>
       <r>   -6.2052    1.0000 </r>
       <r>   -6.0438    1.0000 </r>
       <r>   -5.9594    1.0000 </r>
       <r>   -5.9105    1.0000 </r>
       <r>   -5.8181    1.0000 </r>
       <r>   -5.6677    1.0000 </r>
       <r>   -5.4966    1.0000 </r>
       <r>   -5.3841    1.0000 </r>
       <r>   -5.0124    1.0000 </r>
       <r>   -4.9637    1.0000 </r>
       <r>   -4.8192    1.0000 </r>
       <r>   -4.6266    1.0000 </r>
       <r>   -4.4701    1.0000 </r>
       <r>   -4.4060    1.0000 </r>
       <r>   -4.1116    1.0000 </r>
       <r>   -4.0325    1.0000 </r>
       <r>   -3.9385    1.0000 </r>
       <r>   -1.9007    0.0000 </r>
       <r>   -0.3622    0.0000 </r>
       <r>    0.7604    0.0000 </r>
       <r>    2.0362    0.0000 </r>
       <r>    2.4324    0.0000 </r>
       <r>    2.9512    0.0000 </r>
       <r>    3.2010    0.0000 </r>
       <r>    3.9713    0.0000 </r>
      </set>
     </set>
    </set>
   </array>
  </eigenvalues>
  <separator name="orbital magnetization" >
   <v name="MAGDIPOLOUT">      0.00000000      0.00000000      0.00000000</v>
  </separator>
  <dos>
   <i name="efermi">     -2.29367503 </i>
   <total>
    <array>
     <dimension dim="1">gridpoints</dimension>
     <dimension dim="2">spin</dimension>
     <field>energy</field>
     <field>total</field>
     <field>integrated</field>
     <set>
      <set comment="spin 1">
       <r>   -17.0000     0.0000     0.0000 </r>
       <r>   -16.9900     0.0000     0.0000 </r>
       <r>   -16.9800     0.0000     0.0000 </r>
       <r>   -16.9700     0.0000     0.0000 </r>
       <r>   -16.9600     0.0000     0.0000 </r>
       <r>   -16.9500     0.0000     0.0000 </r>
       <r>   -16.9400     0.0000     0.0000 </r>
       <r>   -16.9300     0.0000     0.0000 </r>
       <r>   -16.9200     0.0000     0.0000 </r>
       <r>   -16.9100     0.0000     0.0000 </r>
       <r>   -16.9000     0.0000     0.0000 </r>
       <r>   -16.8900     0.0000     0.0000 </r>
       <r>   -16.8800     0.0000     0.0000 </r>
       <r>   -16.8700     0.0000     0.0000 </r>
       <r>   -16.8600     0.0000     0.0000 </r>
       <r>   -16.8500     0.0000     0.0000 </r>
       <r>   -16.8400     0.0000     0.0000 </r>
       <r>   -16.8300     0.0000     0.0000 </r>
       <r>   -16.8200     0.0000     0.0000 </r>
       <r>   -16.8100     0.0000     0.0000 </r>
       <r>   -16.8000     0.0000     0.0000 </r>
       <r>   -16.7900     0.0000     0.0000 </r>
       <r>   -16.7800     0.0000     0.0000 </r>
       <r>   -16.7700     0.0000     0.0000 </r>
       <r>   -16.7600     0.0000     0.0000 </r>
       <r>   -16.7500     0.0000     0.0000 </r>
       <r>   -16.7400     0.0000     0.0000 </r>
       <r>   -16.7300     0.0000     0.0000 </r>
       <r>   -16.7200     0.0000     0.0000 </r>
       <r>   -16.7100     0.0000     0.0000 </r>
       <r>   -16.7000     0.0000     0.0000 </r>
       <r>   -16.6900     0.0000     0.0000 </r>
       <r>   -16.6800     0.0000     0.0000 </r>
       <r>   -16.6700     0.0000     0.0000 </r>
       <r>   -16.6600     0.0000     0.0000 </r>
       <r>   -16.6500     0.0000     0.0000 </r>
       <r>   -16.6400     0.0000     0.0000 </r>
       <r>   -16.6300     0.0000     0.0000 </r>
       <r>   -16.6200     0.0000     0.0000 </r>
       <r>   -16.6100     0.0000     0.0000 </r>
       <r>   -16.6000     0.0000     0.0000 </r>
       <r>   -16.5900     0.0000     0.0000 </r>
       <r>   -16.5800     0.0000     0.0000 </r>
       <r>   -16.5700     0.0000     0.0000 </r>
       <r>   -16.5600     0.0000     0.0000 </r>
       <r>   -16.5500     0.0000     0.0000 </r>
       <r>   -16.5400     0.0000     0.0000 </r>
       <r>   -16.5300     0.0000     0.0000 </r>
       <r>   -16.5200     0.0000     0.0000 </r>
       <r>   -16.5100     0.0000     0.0000 </r>
       <r>   -16.5000     0.0000     0.0000 </r>
       <r>   -16.4900     0.0000     0.0000 </r>
       <r>   -16.4800     0.0000     0.0000 </r>
       <r>   -16.4700     0.0000     0.0000 </r>
       <r>   -16.4600     0.0000     0.0000 </r>
       <r>   -16.4500     0.0000     0.0000 </r>
       <r>   -16.4400     0.0000     0.0000 </r>
       <r>   -16.4300     0.0000     0.0000 </r>
       <r>   -16.4200     0.0000     0.0000 </r>
       <r>   -16.4100     0.0000     0.0000 </r>
       <r>   -16.4000     0.0000     0.0000 </r>
       <r>   -16.3900     0.0000     0.0000 </r>
       <r>   -16.3800     0.0000     0.0000 </r>
       <r>   -16.3700     0.0000     0.0000 </r>
       <r>   -16.3600     0.0000     0.0000 </r>
       <r>   -16.3500     0.0000     0.0000 </r>
       <r>   -16.3400     0.0000     0.0000 </r>
       <r>   -16.3300     0.0000     0.0000 </r>
       <r>   -16.3200     0.0000     0.0000 </r>
       <r>   -16.3100     0.0000     0.0000 </r>
       <r>   -16.3000     0.0000     0.0000 </r>
       <r>   -16.2900     0.0000     0.0000 </r>
       <r>   -16.2800     0.0000     0.0000 </r>
       <r>   -16.2700     0.0000     0.0000 </r>
       <r>   -16.2600     0.0000     0.0000 </r>
       <r>   -16.2500     0.0000     0.0000 </r>
       <r>   -16.2400     0.0000     0.0000 </r>
       <r>   -16.2300     0.0000     0.0000 </r>
       <r>   -16.2200     0.0000     0.0000 </r>
       <r>   -16.2100     0.0000     0.0000 </r>
       <r>   -16.2000     0.0000     0.0000 </r>
       <r>   -16.1900     0.0000     0.0000 </r>
       <r>   -16.1800     0.0000     0.0000 </r>
       <r>   -16.1700     0.0000     0.0000 </r>
       <r>   -16.1600     0.0000     0.0000 </r>
       <r>   -16.1500     0.0000     0.0000 </r>
       <r>   -16.1400     0.0000     0.0000 </r>
       <r>   -16.1300     0.0000     0.0000 </r>
       <r>   -16.1200     0.0000     0.0000 </r>
       <r>   -16.1100     0.0000     0.0000 </r>
       <r>   -16.1000     0.0000     0.0000 </r>
       <r>   -16.0900     0.0000     0.0000 </r>
       <r>   -16.0800     0.0000     0.0000 </r>
       <r>   -16.0700     0.0000     0.0000 </r>
       <r>   -16.0600     0.0000     0.0000 </r>
       <r>   -16.0500     0.0000     0.0000 </r>
       <r>   -16.0400     0.0000     0.0000 </r>
       <r>   -16.0300     0.0000     0.0000 </r>
       <r>   -16.0200     0.0000     0.0000 </r>
       <r>   -16.0100     0.0000     0.0000 </r>
       <r>   -16.0000     0.0000     0.0000 </r>
       <r>   -15.9900     0.0000     0.0000 </r>
       <r>   -15.9800     0.0000     0.0000 </r>
       <r>   -15.9700     0.0000     0.0000 </r>
       <r>   -15.9600     0.0000     0.0000 </r>
       <r>   -15.9500     0.0000     0.0000 </r>
       <r>   -15.9400     0.0000     0.0000 </r>
       <r>   -15.9300     0.0000     0.0000 </r>
       <r>   -15.9200     0.0000     0.0000 </r>
       <r>   -15.9100     0.0000     0.0000 </r>
       <r>   -15.9000     0.0000     0.0000 </r>
       <r>   -15.8900     0.0000     0.0000 </r>
       <r>   -15.8800     0.0000     0.0000 </r>
       <r>   -15.8700     0.0000     0.0000 </r>
       <r>   -15.8600     0.0000     0.0000 </r>
       <r>   -15.8500     0.0000     0.0000 </r>
       <r>   -15.8400     0.0000     0.0000 </r>
       <r>   -15.8300     0.0000     0.0000 </r>
       <r>   -15.8200     0.0000     0.0000 </r>
       <r>   -15.8100     0.0000     0.0000 </r>
       <r>   -15.8000     0.0000     0.0000 </r>
       <r>   -15.7900     0.0000     0.0000 </r>
       <r>   -15.7800     0.0000     0.0000 </r>
       <r>   -15.7700     0.0000     0.0000 </r>
       <r>   -15.7600     0.0000     0.0000 </r>
       <r>   -15.7500     0.0000     0.0000 </r>
       <r>   -15.7400     0.0000     0.0000 </r>
       <r>   -15.7300     0.0000     0.0000 </r>
       <r>   -15.7200     0.0000     0.0000 </r>
       <r>   -15.7100     0.0000     0.0000 </r>
       <r>   -15.7000     0.0000     0.0000 </r>
       <r>   -15.6900     0.0000     0.0000 </r>
       <r>   -15.6800     0.0000     0.0000 </r>
       <r>   -15.6700     0.0000     0.0000 </r>
       <r>   -15.6600     0.0000     0.0000 </r>
       <r>   -15.6500     0.0000     0.0000 </r>
       <r>   -15.6400     0.0000     0.0000 </r>
       <r>   -15.6300     0.0000     0.0000 </r>
       <r>   -15.6200     0.0000     0.0000 </r>
       <r>   -15.6100     0.0000     0.0000 </r>
       <r>   -15.6000     0.0000     0.0000 </r>
       <r>   -15.5900     0.0000     0.0000 </r>
       <r>   -15.5800     0.0000     0.0000 </r>
       <r>   -15.5700     0.0000     0.0000 </r>
       <r>   -15.5600     0.0000     0.0000 </r>
       <r>   -15.5500     0.0000     0.0000 </r>
       <r>   -15.5400     0.0000     0.0000 </r>
       <r>   -15.5300     0.0000     0.0000 </r>
       <r>   -15.5200     0.0000     0.0000 </r>
       <r>   -15.5100     0.0000     0.0000 </r>
       <r>   -15.5000     0.0000     0.0000 </r>
       <r>   -15.4900     0.0000     0.0000 </r>
       <r>   -15.4800     0.0000     0.0000 </r>
       <r>   -15.4700     0.0000     0.0000 </r>
       <r>   -15.4600     0.0000     0.0000 </r>
       <r>   -15.4500     0.0000     0.0000 </r>
       <r>   -15.4400     0.0000     0.0000 </r>
       <r>   -15.4300     0.0000     0.0000 </r>
       <r>   -15.4200     0.0000     0.0000 </r>
       <r>   -15.4100     0.0000     0.0000 </r>
       <r>   -15.4000     0.0000     0.0000 </r>
       <r>   -15.3900     0.0000     0.0000 </r>
       <r>   -15.3800     0.0000     0.0000 </r>
       <r>   -15.3700     0.0000     0.0000 </r>
       <r>   -15.3600     0.0000     0.0000 </r>
       <r>   -15.3500     0.0000     0.0000 </r>
       <r>   -15.3400     0.0000     0.0000 </r>
       <r>   -15.3300     0.0000     0.0000 </r>
       <r>   -15.3200     0.0000     0.0000 </r>
       <r>   -15.3100     0.0000     0.0000 </r>
       <r>   -15.3000     0.0000     0.0000 </r>
       <r>   -15.2900     0.0000     0.0000 </r>
       <r>   -15.2800     0.0000     0.0000 </r>
       <r>   -15.2700     0.0000     0.0000 </r>
       <r>   -15.2600     0.0000     0.0000 </r>
       <r>   -15.2500     0.0000     0.0000 </r>
       <r>   -15.2400     0.0000     0.0000 </r>
       <r>   -15.2300     0.0000     0.0000 </r>
       <r>   -15.2200     0.0000     0.0000 </r>
       <r>   -15.2100     0.0000     0.0000 </r>
       <r>   -15.2000     0.0000     0.0000 </r>
       <r>   -15.1900     0.0000     0.0000 </r>
       <r>   -15.1800     0.0000     0.0000 </r>
       <r>   -15.1700     0.0000     0.0000 </r>
       <r>   -15.1600     0.0000     0.0000 </r>
       <r>   -15.1500     0.0000     0.0000 </r>
       <r>   -15.1400     0.0000     0.0000 </r>
       <r>   -15.1300     0.0000     0.0000 </r>
       <r>   -15.1200     0.0000     0.0000 </r>
       <r>   -15.1100     0.0000     0.0000 </r>
       <r>   -15.1000     0.0000     0.0000 </r>
       <r>   -15.0900     0.0000     0.0000 </r>
       <r>   -15.0800     0.0000     0.0000 </r>
       <r>   -15.0700     0.0000     0.0000 </r>
       <r>   -15.0600     0.0000     0.0000 </r>
       <r>   -15.0500     0.0000     0.0000 </r>
       <r>   -15.0400     0.0000     0.0000 </r>
       <r>   -15.0300     0.0000     0.0000 </r>
       <r>   -15.0200     0.0000     0.0000 </r>
       <r>   -15.0100     0.0000     0.0000 </r>
       <r>   -15.0000     0.0000     0.0000 </r>
       <r>   -14.9900     0.0000     0.0000 </r>
       <r>   -14.9800     0.0000     0.0000 </r>
       <r>   -14.9700     0.0000     0.0000 </r>
       <r>   -14.9600     0.0000     0.0000 </r>
       <r>   -14.9500     0.0000     0.0000 </r>
       <r>   -14.9400     0.0000     0.0000 </r>
       <r>   -14.9300     0.0000     0.0000 </r>
       <r>   -14.9200     0.0000     0.0000 </r>
       <r>   -14.9100     0.0000     0.0000 </r>
       <r>   -14.9000     0.0000     0.0000 </r>
       <r>   -14.8900     0.0000     0.0000 </r>
       <r>   -14.8800     0.0000     0.0000 </r>
       <r>   -14.8700     0.0000     0.0000 </r>
       <r>   -14.8600     0.0000     0.0000 </r>
       <r>   -14.8500     0.0000     0.0000 </r>
       <r>   -14.8400     0.0000     0.0000 </r>
       <r>   -14.8300     0.0000     0.0000 </r>
       <r>   -14.8200     0.0000     0.0000 </r>
       <r>   -14.8100     0.0000     0.0000 </r>
       <r>   -14.8000     0.0000     0.0000 </r>
       <r>   -14.7900     0.0000     0.0000 </r>
       <r>   -14.7800     0.0000     0.0000 </r>
       <r>   -14.7700     0.0000     0.0000 </r>
       <r>   -14.7600     0.0000     0.0000 </r>
       <r>   -14.7500     0.0000     0.0000 </r>
       <r>   -14.7400     0.0000     0.0000 </r>
       <r>   -14.7300     0.0000     0.0000 </r>
       <r>   -14.7200     0.0000     0.0000 </r>
       <r>   -14.7100     0.0000     0.0000 </r>
       <r>   -14.7000     0.0000     0.0000 </r>
       <r>   -14.6900     0.0000     0.0000 </r>
       <r>   -14.6800     0.0000     0.0000 </r>
       <r>   -14.6700     0.0000     0.0000 </r>
       <r>   -14.6600     0.0000     0.0000 </r>
       <r>   -14.6500     0.0000     0.0000 </r>
       <r>   -14.6400     0.0000     0.0000 </r>
       <r>   -14.6300     0.0000     0.0000 </r>
       <r>   -14.6200     0.0000     0.0000 </r>
       <r>   -14.6100     0.0000     0.0000 </r>
       <r>   -14.6000     0.0000     0.0000 </r>
       <r>   -14.5900     0.0000     0.0000 </r>
       <r>   -14.5800     0.0000     0.0000 </r>
       <r>   -14.5700     0.0000     0.0000 </r>
       <r>   -14.5600     0.0000     0.0000 </r>
       <r>   -14.5500     0.0000     0.0000 </r>
       <r>   -14.5400     0.0000     0.0000 </r>
       <r>   -14.5300     0.0000     0.0000 </r>
       <r>   -14.5200     0.0000     0.0000 </r>
       <r>   -14.5100     0.0000     0.0000 </r>
       <r>   -14.5000     0.0000     0.0000 </r>
       <r>   -14.4900     0.0000     0.0000 </r>
       <r>   -14.4800     0.0000     0.0000 </r>
       <r>   -14.4700     0.0000     0.0000 </r>
       <r>   -14.4600     0.0000     0.0000 </r>
       <r>   -14.4500     0.0000     0.0000 </r>
       <r>   -14.4400     0.0000     0.0000 </r>
       <r>   -14.4300     0.0000     0.0000 </r>
       <r>   -14.4200     0.0000     0.0000 </r>
       <r>   -14.4100     0.0000     0.0000 </r>
       <r>   -14.4000     0.0000     0.0000 </r>
       <r>   -14.3900     0.0000     0.0000 </r>
       <r>   -14.3800     0.0000     0.0000 </r>
       <r>   -14.3700     0.0000     0.0000 </r>
       <r>   -14.3600     0.0000     0.0000 </r>
       <r>   -14.3500     0.0000     0.0000 </r>
       <r>   -14.3400     0.0000     0.0000 </r>
       <r>   -14.3300     0.0000     0.0000 </r>
       <r>   -14.3200     0.0000     0.0000 </r>
       <r>   -14.3100     0.0000     0.0000 </r>
       <r>   -14.3000     0.0000     0.0000 </r>
       <r>   -14.2900     0.0000     0.0000 </r>
       <r>   -14.2800     0.0000     0.0000 </r>
       <r>   -14.2700     0.0000     0.0000 </r>
       <r>   -14.2600     0.0000     0.0000 </r>
       <r>   -14.2500     0.0000     0.0000 </r>
       <r>   -14.2400     0.0000     0.0000 </r>
       <r>   -14.2300     0.0000     0.0000 </r>
       <r>   -14.2200     0.0000     0.0000 </r>
       <r>   -14.2100     0.0000     0.0000 </r>
       <r>   -14.2000     0.0000     0.0000 </r>
       <r>   -14.1900     0.0000     0.0000 </r>
       <r>   -14.1800     0.0000     0.0000 </r>
       <r>   -14.1700     0.0000     0.0000 </r>
       <r>   -14.1600     0.0000     0.0000 </r>
       <r>   -14.1500     0.0000     0.0000 </r>
       <r>   -14.1400     0.0000     0.0000 </r>
       <r>   -14.1300     0.0000     0.0000 </r>
       <r>   -14.1200     0.0000     0.0000 </r>
       <r>   -14.1100     0.0000     0.0000 </r>
       <r>   -14.1000     0.0000     0.0000 </r>
       <r>   -14.0900     0.0000     0.0000 </r>
       <r>   -14.0800     0.0000     0.0000 </r>
       <r>   -14.0700     0.0000     0.0000 </r>
       <r>   -14.0600     0.0000     0.0000 </r>
       <r>   -14.0500     0.0000     0.0000 </r>
       <r>   -14.0400     0.0000     0.0000 </r>
       <r>   -14.0300     0.0000     0.0000 </r>
       <r>   -14.0200     0.0000     0.0000 </r>
       <r>   -14.0100     0.0000     0.0000 </r>
       <r>   -14.0000     0.0000     0.0000 </r>
       <r>   -13.9900     0.0000     0.0000 </r>
       <r>   -13.9800     0.0000     0.0000 </r>
       <r>   -13.9700     0.0000     0.0000 </r>
       <r>   -13.9600     0.0000     0.0000 </r>
       <r>   -13.9500     0.0000     0.0000 </r>
       <r>   -13.9400     0.0000     0.0000 </r>
       <r>   -13.9300     0.0000     0.0000 </r>
       <r>   -13.9200     0.0000     0.0000 </r>
       <r>   -13.9100     0.0000     0.0000 </r>
       <r>   -13.9000     0.0000     0.0000 </r>
       <r>   -13.8900     0.0000     0.0000 </r>
       <r>   -13.8800     0.0000     0.0000 </r>
       <r>   -13.8700     0.0000     0.0000 </r>
       <r>   -13.8600     0.0000     0.0000 </r>
       <r>   -13.8500     0.0000     0.0000 </r>
       <r>   -13.8400     0.0000     0.0000 </r>
       <r>   -13.8300     0.0000     0.0000 </r>
       <r>   -13.8200     0.0000     0.0000 </r>
       <r>   -13.8100     0.0000     0.0000 </r>
       <r>   -13.8000     0.0000     0.0000 </r>
       <r>   -13.7900     0.0000     0.0000 </r>
       <r>   -13.7800     0.0000     0.0000 </r>
       <r>   -13.7700     0.0000     0.0000 </r>
       <r>   -13.7600     0.0000     0.0000 </r>
       <r>   -13.7500     0.0000     0.0000 </r>
       <r>   -13.7400     0.0000     0.0000 </r>
       <r>   -13.7300     0.0000     0.0000 </r>
       <r>   -13.7200     0.0000     0.0000 </r>
       <r>   -13.7100     0.0000     0.0000 </r>
       <r>   -13.7000     0.0000     0.0000 </r>
       <r>   -13.6900     0.0000     0.0000 </r>
       <r>   -13.6800     0.0000     0.0000 </r>
       <r>   -13.6700     0.0000     0.0000 </r>
       <r>   -13.6600     0.0000     0.0000 </r>
       <r>   -13.6500     0.0000     0.0000 </r>
       <r>   -13.6400     0.0000     0.0000 </r>
       <r>   -13.6300     0.0000     0.0000 </r>
       <r>   -13.6200     0.0000     0.0000 </r>
       <r>   -13.6100     0.0000     0.0000 </r>
       <r>   -13.6000     0.0000     0.0000 </r>
       <r>   -13.5900     0.0000     0.0000 </r>
       <r>   -13.5800     0.0000     0.0000 </r>
       <r>   -13.5700     0.0000     0.0000 </r>
       <r>   -13.5600     0.0000     0.0000 </r>
       <r>   -13.5500     0.0000     0.0000 </r>
       <r>   -13.5400     0.0000     0.0000 </r>
       <r>   -13.5300     0.0000     0.0000 </r>
       <r>   -13.5200     0.0000     0.0000 </r>
       <r>   -13.5100     0.0000     0.0000 </r>
       <r>   -13.5000     0.0000     0.0000 </r>
       <r>   -13.4900     0.0000     0.0000 </r>
       <r>   -13.4800     0.0000     0.0000 </r>
       <r>   -13.4700     0.0000     0.0000 </r>
       <r>   -13.4600     0.0000     0.0000 </r>
       <r>   -13.4500     0.0000     0.0000 </r>
       <r>   -13.4400     0.0000     0.0000 </r>
       <r>   -13.4300     0.0000     0.0000 </r>
       <r>   -13.4200     0.0000     0.0000 </r>
       <r>   -13.4100     0.0000     0.0000 </r>
       <r>   -13.4000     0.0000     0.0000 </r>
       <r>   -13.3900     0.0000     0.0000 </r>
       <r>   -13.3800     0.0000     0.0000 </r>
       <r>   -13.3700     0.0000     0.0000 </r>
       <r>   -13.3600     0.0000     0.0000 </r>
       <r>   -13.3500     0.0000     0.0000 </r>
       <r>   -13.3400     0.0000     0.0000 </r>
       <r>   -13.3300     0.0000     0.0000 </r>
       <r>   -13.3200     0.0000     0.0000 </r>
       <r>   -13.3100     0.0000     0.0000 </r>
       <r>   -13.3000     0.0000     0.0000 </r>
       <r>   -13.2900     0.0000     0.0000 </r>
       <r>   -13.2800     0.0000     0.0000 </r>
       <r>   -13.2700     0.0000     0.0000 </r>
       <r>   -13.2600     0.0000     0.0000 </r>
       <r>   -13.2500     0.0000     0.0000 </r>
       <r>   -13.2400     0.0000     0.0000 </r>
       <r>   -13.2300     0.0000     0.0000 </r>
       <r>   -13.2200     0.0000     0.0000 </r>
       <r>   -13.2100     0.0000     0.0000 </r>
       <r>   -13.2000     0.0000     0.0000 </r>
       <r>   -13.1900     0.0000     0.0000 </r>
       <r>   -13.1800     0.0000     0.0000 </r>
       <r>   -13.1700     0.0000     0.0000 </r>
       <r>   -13.1600     0.0000     0.0000 </r>
       <r>   -13.1500     0.0000     0.0000 </r>
       <r>   -13.1400     0.0000     0.0000 </r>
       <r>   -13.1300     0.0000     0.0000 </r>
       <r>   -13.1200     0.0000     0.0000 </r>
       <r>   -13.1100     0.0000     0.0000 </r>
       <r>   -13.1000     0.0000     0.0000 </r>
       <r>   -13.0900     0.0000     0.0000 </r>
       <r>   -13.0800     0.0000     0.0000 </r>
       <r>   -13.0700     0.0000     0.0000 </r>
       <r>   -13.0600     0.0000     0.0000 </r>
       <r>   -13.0500     0.0000     0.0000 </r>
       <r>   -13.0400     0.0000     0.0000 </r>
       <r>   -13.0300     0.0000     0.0000 </r>
       <r>   -13.0200     0.0000     0.0000 </r>
       <r>   -13.0100     0.0000     0.0000 </r>
       <r>   -13.0000     0.0000     0.0000 </r>
       <r>   -12.9900     0.0000     0.0000 </r>
       <r>   -12.9800     0.0000     0.0000 </r>
       <r>   -12.9700     0.0000     0.0000 </r>
       <r>   -12.9600     0.0000     0.0000 </r>
       <r>   -12.9500     0.0000     0.0000 </r>
       <r>   -12.9400     0.0000     0.0000 </r>
       <r>   -12.9300     0.0000     0.0000 </r>
       <r>   -12.9200     0.0000     0.0000 </r>
       <r>   -12.9100     0.0000     0.0000 </r>
       <r>   -12.9000     0.0000     0.0000 </r>
       <r>   -12.8900     0.0000     0.0000 </r>
       <r>   -12.8800     0.0000     0.0000 </r>
       <r>   -12.8700     0.0000     0.0000 </r>
       <r>   -12.8600     0.0000     0.0000 </r>
       <r>   -12.8500     0.0000     0.0000 </r>
       <r>   -12.8400     0.0000     0.0000 </r>
       <r>   -12.8300     0.0000     0.0000 </r>
       <r>   -12.8200     0.0000     0.0000 </r>
       <r>   -12.8100     0.0000     0.0000 </r>
       <r>   -12.8000     0.0000     0.0000 </r>
       <r>   -12.7900     0.0000     0.0000 </r>
       <r>   -12.7800     0.0000     0.0000 </r>
       <r>   -12.7700     0.0000     0.0000 </r>
       <r>   -12.7600     0.0000     0.0000 </r>
       <r>   -12.7500     0.0000     0.0000 </r>
       <r>   -12.7400     0.0000     0.0000 </r>
       <r>   -12.7300     0.0000     0.0000 </r>
       <r>   -12.7200     0.0000     0.0000 </r>
       <r>   -12.7100     0.0000     0.0000 </r>
       <r>   -12.7000     0.0000     0.0000 </r>
       <r>   -12.6900     0.0000     0.0000 </r>
       <r>   -12.6800     0.0000     0.0000 </r>
       <r>   -12.6700     0.0000     0.0000 </r>
       <r>   -12.6600     0.0000     0.0000 </r>
       <r>   -12.6500     0.0000     0.0000 </r>
       <r>   -12.6400     0.0000     0.0000 </r>
       <r>   -12.6300     0.0000     0.0000 </r>
       <r>   -12.6200     0.0000     0.0000 </r>
       <r>   -12.6100     0.0000     0.0000 </r>
       <r>   -12.6000     0.0000     0.0000 </r>
       <r>   -12.5900     0.0000     0.0000 </r>
       <r>   -12.5800     0.0000     0.0000 </r>
       <r>   -12.5700     0.0000     0.0000 </r>
       <r>   -12.5600     0.0000     0.0000 </r>
       <r>   -12.5500     0.0000     0.0000 </r>
       <r>   -12.5400     0.0000     0.0000 </r>
       <r>   -12.5300     0.0000     0.0000 </r>
       <r>   -12.5200     0.0000     0.0000 </r>
       <r>   -12.5100     0.0000     0.0000 </r>
       <r>   -12.5000     0.0000     0.0000 </r>
       <r>   -12.4900     0.0000     0.0000 </r>
       <r>   -12.4800     0.0000     0.0000 </r>
       <r>   -12.4700     0.0000     0.0000 </r>
       <r>   -12.4600     0.0000     0.0000 </r>
       <r>   -12.4500     0.0000     0.0000 </r>
       <r>   -12.4400     0.0000     0.0000 </r>
       <r>   -12.4300     0.0000     0.0000 </r>
       <r>   -12.4200     0.0000     0.0000 </r>
       <r>   -12.4100     0.0000     0.0000 </r>
       <r>   -12.4000     0.0000     0.0000 </r>
       <r>   -12.3900     0.0000     0.0000 </r>
       <r>   -12.3800     0.0000     0.0000 </r>
       <r>   -12.3700     0.0000     0.0000 </r>
       <r>   -12.3600     0.0000     0.0000 </r>
       <r>   -12.3500     0.0000     0.0000 </r>
       <r>   -12.3400     0.0000     0.0000 </r>
       <r>   -12.3300     0.0000     0.0000 </r>
       <r>   -12.3200     0.0000     0.0000 </r>
       <r>   -12.3100     0.0000     0.0000 </r>
       <r>   -12.3000     0.0000     0.0000 </r>
       <r>   -12.2900     0.0000     0.0000 </r>
       <r>   -12.2800     0.0000     0.0000 </r>
       <r>   -12.2700     0.0000     0.0000 </r>
       <r>   -12.2600     0.0000     0.0000 </r>
       <r>   -12.2500     0.0000     0.0000 </r>
       <r>   -12.2400     0.0000     0.0000 </r>
       <r>   -12.2300     0.0000     0.0000 </r>
       <r>   -12.2200     0.0000     0.0000 </r>
       <r>   -12.2100     0.0000     0.0000 </r>
       <r>   -12.2000     0.0000     0.0000 </r>
       <r>   -12.1900     0.0000     0.0000 </r>
       <r>   -12.1800     0.0000     0.0000 </r>
       <r>   -12.1700     0.0000     0.0000 </r>
       <r>   -12.1600     0.0000     0.0000 </r>
       <r>   -12.1500     0.0000     0.0000 </r>
       <r>   -12.1400     0.0000     0.0000 </r>
       <r>   -12.1300     0.0000     0.0000 </r>
       <r>   -12.1200     0.0000     0.0000 </r>
       <r>   -12.1100     0.0000     0.0000 </r>
       <r>   -12.1000     0.0000     0.0000 </r>
       <r>   -12.0900     0.0000     0.0000 </r>
       <r>   -12.0800     0.0000     0.0000 </r>
       <r>   -12.0700     0.0000     0.0000 </r>
       <r>   -12.0600     0.0000     0.0000 </r>
       <r>   -12.0500     0.0000     0.0000 </r>
       <r>   -12.0400     0.0000     0.0000 </r>
       <r>   -12.0300     0.0000     0.0000 </r>
       <r>   -12.0200     0.0000     0.0000 </r>
       <r>   -12.0100     0.0000     0.0000 </r>
       <r>   -12.0000     0.0000     0.0000 </r>
       <r>   -11.9900     0.0000     0.0000 </r>
       <r>   -11.9800     0.0000     0.0000 </r>
       <r>   -11.9700     0.0000     0.0000 </r>
       <r>   -11.9600     0.0000     0.0000 </r>
       <r>   -11.9500     0.0000     0.0000 </r>
       <r>   -11.9400     0.0000     0.0000 </r>
       <r>   -11.9300     0.0000     0.0000 </r>
       <r>   -11.9200     0.0000     0.0000 </r>
       <r>   -11.9100     0.0000     0.0000 </r>
       <r>   -11.9000     0.0000     0.0000 </r>
       <r>   -11.8900     0.0000     0.0000 </r>
       <r>   -11.8800     0.0000     0.0000 </r>
       <r>   -11.8700     0.0000     0.0000 </r>
       <r>   -11.8600     0.0000     0.0000 </r>
       <r>   -11.8500     0.0000     0.0000 </r>
       <r>   -11.8400     0.0000     0.0000 </r>
       <r>   -11.8300     0.0001     0.0000 </r>
       <r>   -11.8200     0.0001     0.0000 </r>
       <r>   -11.8100     0.0002     0.0000 </r>
       <r>   -11.8000     0.0004     0.0000 </r>
       <r>   -11.7900     0.0006     0.0000 </r>
       <r>   -11.7800     0.0009     0.0000 </r>
       <r>   -11.7700     0.0014     0.0000 </r>
       <r>   -11.7600     0.0021     0.0001 </r>
       <r>   -11.7500     0.0030     0.0001 </r>
       <r>   -11.7400     0.0044     0.0001 </r>
       <r>   -11.7300     0.0062     0.0002 </r>
       <r>   -11.7200     0.0087     0.0003 </r>
       <r>   -11.7100     0.0119     0.0004 </r>
       <r>   -11.7000     0.0158     0.0006 </r>
       <r>   -11.6900     0.0207     0.0008 </r>
       <r>   -11.6800     0.0266     0.0010 </r>
       <r>   -11.6700     0.0335     0.0014 </r>
       <r>   -11.6600     0.0414     0.0018 </r>
       <r>   -11.6500     0.0500     0.0023 </r>
       <r>   -11.6400     0.0593     0.0029 </r>
       <r>   -11.6300     0.0689     0.0036 </r>
       <r>   -11.6200     0.0785     0.0043 </r>
       <r>   -11.6100     0.0877     0.0052 </r>
       <r>   -11.6000     0.0959     0.0062 </r>
       <r>   -11.5900     0.1029     0.0072 </r>
       <r>   -11.5800     0.1083     0.0083 </r>
       <r>   -11.5700     0.1116     0.0094 </r>
       <r>   -11.5600     0.1128     0.0105 </r>
       <r>   -11.5500     0.1118     0.0117 </r>
       <r>   -11.5400     0.1087     0.0127 </r>
       <r>   -11.5300     0.1036     0.0138 </r>
       <r>   -11.5200     0.0970     0.0148 </r>
       <r>   -11.5100     0.0893     0.0156 </r>
       <r>   -11.5000     0.0810     0.0165 </r>
       <r>   -11.4900     0.0727     0.0172 </r>
       <r>   -11.4800     0.0650     0.0178 </r>
       <r>   -11.4700     0.0586     0.0184 </r>
       <r>   -11.4600     0.0540     0.0190 </r>
       <r>   -11.4500     0.0520     0.0195 </r>
       <r>   -11.4400     0.0532     0.0200 </r>
       <r>   -11.4300     0.0583     0.0206 </r>
       <r>   -11.4200     0.0680     0.0213 </r>
       <r>   -11.4100     0.0829     0.0221 </r>
       <r>   -11.4000     0.1035     0.0231 </r>
       <r>   -11.3900     0.1304     0.0244 </r>
       <r>   -11.3800     0.1638     0.0261 </r>
       <r>   -11.3700     0.2037     0.0281 </r>
       <r>   -11.3600     0.2497     0.0306 </r>
       <r>   -11.3500     0.3009     0.0336 </r>
       <r>   -11.3400     0.3561     0.0372 </r>
       <r>   -11.3300     0.4134     0.0413 </r>
       <r>   -11.3200     0.4707     0.0460 </r>
       <r>   -11.3100     0.5255     0.0513 </r>
       <r>   -11.3000     0.5752     0.0570 </r>
       <r>   -11.2900     0.6172     0.0632 </r>
       <r>   -11.2800     0.6491     0.0697 </r>
       <r>   -11.2700     0.6693     0.0764 </r>
       <r>   -11.2600     0.6765     0.0832 </r>
       <r>   -11.2500     0.6702     0.0899 </r>
       <r>   -11.2400     0.6509     0.0964 </r>
       <r>   -11.2300     0.6196     0.1026 </r>
       <r>   -11.2200     0.5781     0.1083 </r>
       <r>   -11.2100     0.5288     0.1136 </r>
       <r>   -11.2000     0.4741     0.1184 </r>
       <r>   -11.1900     0.4167     0.1225 </r>
       <r>   -11.1800     0.3590     0.1261 </r>
       <r>   -11.1700     0.3032     0.1292 </r>
       <r>   -11.1600     0.2510     0.1317 </r>
       <r>   -11.1500     0.2036     0.1337 </r>
       <r>   -11.1400     0.1620     0.1353 </r>
       <r>   -11.1300     0.1263     0.1366 </r>
       <r>   -11.1200     0.0965     0.1376 </r>
       <r>   -11.1100     0.0723     0.1383 </r>
       <r>   -11.1000     0.0531     0.1388 </r>
       <r>   -11.0900     0.0382     0.1392 </r>
       <r>   -11.0800     0.0270     0.1395 </r>
       <r>   -11.0700     0.0186     0.1396 </r>
       <r>   -11.0600     0.0126     0.1398 </r>
       <r>   -11.0500     0.0084     0.1399 </r>
       <r>   -11.0400     0.0055     0.1399 </r>
       <r>   -11.0300     0.0035     0.1399 </r>
       <r>   -11.0200     0.0022     0.1400 </r>
       <r>   -11.0100     0.0014     0.1400 </r>
       <r>   -11.0000     0.0008     0.1400 </r>
       <r>   -10.9900     0.0005     0.1400 </r>
       <r>   -10.9800     0.0004     0.1400 </r>
       <r>   -10.9700     0.0003     0.1400 </r>
       <r>   -10.9600     0.0004     0.1400 </r>
       <r>   -10.9500     0.0005     0.1400 </r>
       <r>   -10.9400     0.0009     0.1400 </r>
       <r>   -10.9300     0.0014     0.1400 </r>
       <r>   -10.9200     0.0023     0.1401 </r>
       <r>   -10.9100     0.0036     0.1401 </r>
       <r>   -10.9000     0.0056     0.1401 </r>
       <r>   -10.8900     0.0087     0.1402 </r>
       <r>   -10.8800     0.0131     0.1404 </r>
       <r>   -10.8700     0.0193     0.1406 </r>
       <r>   -10.8600     0.0279     0.1408 </r>
       <r>   -10.8500     0.0396     0.1412 </r>
       <r>   -10.8400     0.0551     0.1418 </r>
       <r>   -10.8300     0.0752     0.1425 </r>
       <r>   -10.8200     0.1007     0.1435 </r>
       <r>   -10.8100     0.1321     0.1449 </r>
       <r>   -10.8000     0.1699     0.1466 </r>
       <r>   -10.7900     0.2143     0.1487 </r>
       <r>   -10.7800     0.2651     0.1514 </r>
       <r>   -10.7700     0.3216     0.1546 </r>
       <r>   -10.7600     0.3825     0.1584 </r>
       <r>   -10.7500     0.4463     0.1629 </r>
       <r>   -10.7400     0.5107     0.1680 </r>
       <r>   -10.7300     0.5732     0.1737 </r>
       <r>   -10.7200     0.6311     0.1800 </r>
       <r>   -10.7100     0.6816     0.1868 </r>
       <r>   -10.7000     0.7222     0.1941 </r>
       <r>   -10.6900     0.7507     0.2016 </r>
       <r>   -10.6800     0.7657     0.2092 </r>
       <r>   -10.6700     0.7665     0.2169 </r>
       <r>   -10.6600     0.7530     0.2244 </r>
       <r>   -10.6500     0.7264     0.2317 </r>
       <r>   -10.6400     0.6881     0.2386 </r>
       <r>   -10.6300     0.6407     0.2450 </r>
       <r>   -10.6200     0.5867     0.2508 </r>
       <r>   -10.6100     0.5293     0.2561 </r>
       <r>   -10.6000     0.4715     0.2608 </r>
       <r>   -10.5900     0.4163     0.2650 </r>
       <r>   -10.5800     0.3665     0.2687 </r>
       <r>   -10.5700     0.3244     0.2719 </r>
       <r>   -10.5600     0.2922     0.2748 </r>
       <r>   -10.5500     0.2714     0.2775 </r>
       <r>   -10.5400     0.2632     0.2802 </r>
       <r>   -10.5300     0.2683     0.2829 </r>
       <r>   -10.5200     0.2870     0.2857 </r>
       <r>   -10.5100     0.3193     0.2889 </r>
       <r>   -10.5000     0.3645     0.2926 </r>
       <r>   -10.4900     0.4216     0.2968 </r>
       <r>   -10.4800     0.4891     0.3017 </r>
       <r>   -10.4700     0.5651     0.3073 </r>
       <r>   -10.4600     0.6472     0.3138 </r>
       <r>   -10.4500     0.7327     0.3211 </r>
       <r>   -10.4400     0.8185     0.3293 </r>
       <r>   -10.4300     0.9016     0.3383 </r>
       <r>   -10.4200     0.9788     0.3481 </r>
       <r>   -10.4100     1.0471     0.3586 </r>
       <r>   -10.4000     1.1037     0.3696 </r>
       <r>   -10.3900     1.1465     0.3811 </r>
       <r>   -10.3800     1.1736     0.3928 </r>
       <r>   -10.3700     1.1840     0.4047 </r>
       <r>   -10.3600     1.1771     0.4164 </r>
       <r>   -10.3500     1.1532     0.4280 </r>
       <r>   -10.3400     1.1134     0.4391 </r>
       <r>   -10.3300     1.0590     0.4497 </r>
       <r>   -10.3200     0.9923     0.4596 </r>
       <r>   -10.3100     0.9156     0.4688 </r>
       <r>   -10.3000     0.8319     0.4771 </r>
       <r>   -10.2900     0.7440     0.4845 </r>
       <r>   -10.2800     0.6548     0.4911 </r>
       <r>   -10.2700     0.5669     0.4967 </r>
       <r>   -10.2600     0.4827     0.5016 </r>
       <r>   -10.2500     0.4041     0.5056 </r>
       <r>   -10.2400     0.3325     0.5089 </r>
       <r>   -10.2300     0.2688     0.5116 </r>
       <r>   -10.2200     0.2135     0.5138 </r>
       <r>   -10.2100     0.1666     0.5154 </r>
       <r>   -10.2000     0.1276     0.5167 </r>
       <r>   -10.1900     0.0960     0.5177 </r>
       <r>   -10.1800     0.0708     0.5184 </r>
       <r>   -10.1700     0.0513     0.5189 </r>
       <r>   -10.1600     0.0365     0.5192 </r>
       <r>   -10.1500     0.0254     0.5195 </r>
       <r>   -10.1400     0.0174     0.5197 </r>
       <r>   -10.1300     0.0117     0.5198 </r>
       <r>   -10.1200     0.0077     0.5199 </r>
       <r>   -10.1100     0.0050     0.5199 </r>
       <r>   -10.1000     0.0031     0.5200 </r>
       <r>   -10.0900     0.0020     0.5200 </r>
       <r>   -10.0800     0.0012     0.5200 </r>
       <r>   -10.0700     0.0007     0.5200 </r>
       <r>   -10.0600     0.0005     0.5200 </r>
       <r>   -10.0500     0.0004     0.5200 </r>
       <r>   -10.0400     0.0004     0.5200 </r>
       <r>   -10.0300     0.0005     0.5200 </r>
       <r>   -10.0200     0.0007     0.5200 </r>
       <r>   -10.0100     0.0011     0.5200 </r>
       <r>   -10.0000     0.0019     0.5200 </r>
       <r>    -9.9900     0.0030     0.5201 </r>
       <r>    -9.9800     0.0047     0.5201 </r>
       <r>    -9.9700     0.0072     0.5202 </r>
       <r>    -9.9600     0.0110     0.5203 </r>
       <r>    -9.9500     0.0163     0.5205 </r>
       <r>    -9.9400     0.0238     0.5207 </r>
       <r>    -9.9300     0.0340     0.5210 </r>
[...]
        <r>  0.0001  0.0003  0.0006  0.0002  0.0201  0.0105  0.4020  0.0046  0.0198 </r>
        <r>  0.0000  0.0001  0.0003  0.0003  0.0275  0.0090  0.0166  0.0165  0.0547 </r>
        <r>  0.0002  0.0000  0.0000  0.0000  0.0000  0.0000  0.0000  0.0000  0.0000 </r>
       </set>
       <set comment="band 19">
        <r>  0.0011  0.0004  0.0013  0.0007  0.0315  0.0067  0.4731  0.0185  0.0659 </r>
        <r>  0.0000  0.0000  0.0000  0.0001  0.0233  0.0484  0.0637  0.0901  0.0694 </r>
        <r>  0.0000  0.0000  0.0000  0.0000  0.0082  0.0132  0.0110  0.0216  0.0241 </r>
        <r>  0.0001  0.0000  0.0001  0.0000  0.0009  0.0001  0.0039  0.0004  0.0028 </r>
        <r>  0.0001  0.0000  0.0000  0.0000  0.0000  0.0000  0.0000  0.0000  0.0000 </r>
       </set>
       <set comment="band 20">
        <r>  0.0003  0.0002  0.0005  0.0004  0.0486  0.0303  0.1107  0.0302  0.0869 </r>
        <r>  0.0001  0.0002  0.0001  0.0001  0.0463  0.0037  0.3869  0.0093  0.0158 </r>
        <r>  0.0000  0.0000  0.0002  0.0000  0.0346  0.0278  0.0577  0.0268  0.0533 </r>
        <r>  0.0000  0.0000  0.0000  0.0000  0.0038  0.0057  0.0019  0.0022  0.0044 </r>
        <r>  0.0000  0.0000  0.0000  0.0000  0.0000  0.0000  0.0000  0.0000  0.0000 </r>
       </set>
       <set comment="band 21">
        <r>  0.0001  0.0000  0.0000  0.0001  0.0001  0.0001  0.0003  0.0002  0.0002 </r>
        <r>  0.0003  0.0002  0.0002  0.0006  0.0007  0.0003  0.0014  0.0009  0.0020 </r>
        <r>  0.0064  0.0011  0.0051  0.0030  0.0118  0.0036  0.0311  0.0049  0.0108 </r>
        <r>  0.0037  0.0322  0.0019  0.0901  0.1351  0.0397  0.0022  0.0650  0.2297 </r>
        <r>  0.1257  0.0004  0.0000  0.0002  0.0000  0.0000  0.0000  0.0000  0.0000 </r>
       </set>
       <set comment="band 22">
        <r>  0.0180  0.0063  0.0073  0.0169  0.0144  0.0031  0.0192  0.0044  0.0168 </r>
        <r>  0.0055  0.0345  0.0058  0.1023  0.0273  0.0011  0.0044  0.0011  0.0728 </r>
        <r>  0.0194  0.0299  0.0032  0.0869  0.0318  0.0008  0.0165  0.0014  0.0658 </r>
        <r>  0.0298  0.0026  0.0045  0.0014  0.0188  0.0013  0.0160  0.0034  0.0064 </r>
        <r>  0.0022  0.0001  0.0000  0.0003  0.0000  0.0000  0.0000  0.0000  0.0000 </r>
       </set>
       <set comment="band 23">
        <r>  0.0019  0.0241  0.0006  0.0718  0.0150  0.0024  0.0014  0.0066  0.0426 </r>
        <r>  0.0823  0.0185  0.0006  0.0395  0.0481  0.0017  0.0419  0.0035  0.0344 </r>
        <r>  0.0191  0.0220  0.0093  0.0624  0.0205  0.0029  0.0101  0.0016  0.0370 </r>
        <r>  0.0302  0.0046  0.0014  0.0033  0.0204  0.0017  0.0087  0.0050  0.0072 </r>
        <r>  0.0038  0.0002  0.0000  0.0005  0.0000  0.0000  0.0000  0.0000  0.0000 </r>
       </set>
       <set comment="band 24">
        <r>  0.0484  0.0441  0.0087  0.1190  0.0422  0.0036  0.0150  0.0019  0.0604 </r>
        <r>  0.0271  0.0160  0.0416  0.0422  0.0166  0.0090  0.0075  0.0031  0.0206 </r>
        <r>  0.0183  0.0081  0.0034  0.0174  0.0120  0.0033  0.0048  0.0062  0.0104 </r>
        <r>  0.0233  0.0053  0.0000  0.0058  0.0141  0.0013  0.0030  0.0035  0.0057 </r>
        <r>  0.0039  0.0003  0.0000  0.0008  0.0000  0.0000  0.0000  0.0000  0.0000 </r>
       </set>
       <set comment="band 25">
        <r>  0.0023  0.0042  0.0000  0.0109  0.0024  0.0003  0.0001  0.0006  0.0036 </r>
        <r>  0.0222  0.0040  0.0187  0.0039  0.0085  0.0027  0.0018  0.0009  0.0036 </r>
        <r>  0.0007  0.0119  0.0130  0.0356  0.0034  0.0090  0.0000  0.0184  0.0099 </r>
        <r>  0.1249  0.0409  0.0385  0.0713  0.0538  0.0094  0.0031  0.0035  0.0296 </r>
        <r>  0.0152  0.0036  0.0004  0.0107  0.0000  0.0000  0.0000  0.0000  0.0000 </r>
       </set>
       <set comment="band 26">
        <r>  0.0635  0.0099  0.0016  0.0155  0.0191  0.0005  0.0064  0.0010  0.0097 </r>
        <r>  0.0381  0.0044  0.0022  0.0052  0.0114  0.0106  0.0027  0.0319  0.0048 </r>
        <r>  0.1734  0.0237  0.0044  0.0112  0.0605  0.0055  0.0119  0.0136  0.0210 </r>
        <r>  0.0340  0.0012  0.0245  0.0037  0.0008  0.0189  0.0062  0.0364  0.0006 </r>
        <r>  0.0286  0.0000  0.0005  0.0000  0.0000  0.0000  0.0000  0.0000  0.0000 </r>
       </set>
       <set comment="band 27">
        <r>  0.1774  0.0252  0.0129  0.0246  0.0455  0.0027  0.0042  0.0056  0.0183 </r>
        <r>  0.0064  0.0133  0.0024  0.0340  0.0057  0.0061  0.0000  0.0181  0.0079 </r>
        <r>  0.0066  0.0045  0.0466  0.0047  0.0045  0.0053  0.0000  0.0053  0.0021 </r>
        <r>  0.0504  0.0014  0.0037  0.0037  0.0020  0.0123  0.0027  0.0284  0.0010 </r>
        <r>  0.0204  0.0003  0.0006  0.0005  0.0000  0.0000  0.0000  0.0000  0.0000 </r>
       </set>
       <set comment="band 28">
        <r>  0.0310  0.0183  0.0655  0.0157  0.0166  0.0038  0.0001  0.0082  0.0071 </r>
        <r>  0.0635  0.0481  0.0002  0.0207  0.0476  0.0014  0.0013  0.0041  0.0166 </r>
        <r>  0.0018  0.0118  0.0201  0.0259  0.0024  0.0051  0.0006  0.0141  0.0043 </r>
        <r>  0.0360  0.0018  0.0189  0.0022  0.0000  0.0073  0.0012  0.0217  0.0001 </r>
        <r>  0.0101  0.0016  0.0003  0.0028  0.0000  0.0000  0.0000  0.0000  0.0000 </r>
       </set>
      </set>
      <set comment="kpoint 14">
       <set comment="band 1">
        <r>  0.0000  0.0000  0.0000  0.0000  0.0000  0.0000  0.0000  0.0000  0.0000 </r>
        <r>  0.0000  0.0000  0.0000  0.0000  0.0001  0.0001  0.0000  0.0001  0.0001 </r>
        <r>  0.0006  0.0001  0.0002  0.0000  0.0002  0.0004  0.0032  0.0000  0.0000 </r>
        <r>  0.0056  0.0342  0.0004  0.0529  0.1925  0.0620  0.0002  0.1393  0.1235 </r>
        <r>  0.1892  0.0000  0.0023  0.0000  0.0000  0.0000  0.0000  0.0000  0.0000 </r>
       </set>
       <set comment="band 2">
        <r>  0.0003  0.0018  0.0002  0.0005  0.0099  0.0129  0.0025  0.0023  0.0023 </r>
        <r>  0.0108  0.0012  0.0006  0.0106  0.0154  0.0018  0.0333  0.2000  0.0406 </r>
        <r>  0.0336  0.0001  0.0002  0.0136  0.0022  0.0079  0.1390  0.0378  0.0500 </r>
        <r>  0.0005  0.0023  0.0001  0.0051  0.0248  0.0217  0.0000  0.1604  0.0260 </r>
        <r>  0.0005  0.0001  0.0000  0.0000  0.0000  0.0000  0.0000  0.0000  0.0000 </r>
       </set>
       <set comment="band 3">
        <r>  0.0012  0.0014  0.0003  0.0043  0.0131  0.0040  0.0017  0.0357  0.0129 </r>
        <r>  0.0186  0.0042  0.0002  0.0032  0.0354  0.0360  0.0915  0.0000  0.0116 </r>
        <r>  0.0021  0.0000  0.0009  0.0005  0.0004  0.0116  0.0210  0.3548  0.0021 </r>
        <r>  0.0047  0.0002  0.0011  0.0076  0.0014  0.0208  0.0102  0.1284  0.0390 </r>
        <r>  0.0000  0.0002  0.0000  0.0000  0.0000  0.0000  0.0000  0.0000  0.0000 </r>
       </set>
       <set comment="band 4">
        <r>  0.0056  0.0001  0.0015  0.0136  0.0002  0.0037  0.0054  0.1176  0.0453 </r>
        <r>  0.0131  0.0071  0.0004  0.0024  0.0546  0.0015  0.0764  0.2397  0.0113 </r>
        <r>  0.0003  0.0160  0.0003  0.0011  0.1364  0.0389  0.0008  0.0191  0.0056 </r>
        <r>  0.0004  0.0002  0.0000  0.0025  0.0037  0.0055  0.0001  0.0217  0.0160 </r>
        <r>  0.0001  0.0000  0.0000  0.0000  0.0000  0.0000  0.0000  0.0000  0.0000 </r>
       </set>
       <set comment="band 5">
        <r>  0.0000  0.0062  0.0000  0.0004  0.0567  0.0306  0.0012  0.0074  0.0012 </r>
        <r>  0.0013  0.0131  0.0000  0.0036  0.1415  0.0010  0.0388  0.0166  0.0165 </r>
        <r>  0.0008  0.0050  0.0000  0.0148  0.0537  0.0275  0.0504  0.0039  0.0617 </r>
        <r>  0.0006  0.0077  0.0000  0.0054  0.1196  0.1464  0.0002  0.0017  0.0367 </r>
        <r>  0.0016  0.0001  0.0000  0.0000  0.0000  0.0000  0.0000  0.0000  0.0000 </r>
       </set>
       <set comment="band 6">
        <r>  0.0077  0.0027  0.0032  0.0012  0.0232  0.0185  0.0527  0.0183  0.0037 </r>
        <r>  0.0003  0.0095  0.0005  0.0281  0.1308  0.0265  0.0186  0.0483  0.1364 </r>
        <r>  0.0004  0.0123  0.0008  0.0105  0.1631  0.0191  0.0013  0.0054  0.0492 </r>
        <r>  0.0037  0.0000  0.0011  0.0005  0.0001  0.0033  0.0408  0.0222  0.0036 </r>
        <r>  0.0000  0.0001  0.0000  0.0000  0.0000  0.0000  0.0000  0.0000  0.0000 </r>
       </set>
       <set comment="band 7">
        <r>  0.0045  0.0062  0.0019  0.0007  0.0572  0.0385  0.0392  0.0266  0.0009 </r>
        <r>  0.0010  0.0055  0.0000  0.0009  0.0802  0.2612  0.0136  0.0157  0.0007 </r>
        <r>  0.0010  0.0002  0.0004  0.0000  0.0056  0.1677  0.0044  0.0199  0.0012 </r>
        <r>  0.0020  0.0023  0.0010  0.0009  0.0382  0.0621  0.0404  0.0001  0.0059 </r>
        <r>  0.0005  0.0000  0.0000  0.0000  0.0000  0.0000  0.0000  0.0000  0.0000 </r>
       </set>
       <set comment="band 8">
        <r>  0.0020  0.0004  0.0010  0.0011  0.0037  0.0024  0.0288  0.0146  0.0055 </r>
        <r>  0.0011  0.0079  0.0001  0.0001  0.1004  0.0036  0.0128  0.0460  0.0000 </r>
        <r>  0.0009  0.0075  0.0025  0.0100  0.0917  0.0687  0.0008  0.0378  0.0602 </r>
        <r>  0.0097  0.0051  0.0018  0.0000  0.1076  0.0002  0.1454  0.1191  0.0002 </r>
        <r>  0.0001  0.0001  0.0001  0.0004  0.0000  0.0000  0.0000  0.0000  0.0000 </r>
       </set>
       <set comment="band 9">
        <r>  0.0028  0.0017  0.0012  0.0006  0.0308  0.0003  0.0377  0.0231  0.0018 </r>
        <r>  0.0000  0.0000  0.0008  0.0149  0.0002  0.1059  0.0257  0.0006  0.1107 </r>
        <r>  0.0014  0.0008  0.0032  0.0017  0.0147  0.0016  0.0334  0.0104  0.0064 </r>
        <r>  0.0001  0.0081  0.0006  0.0072  0.2020  0.0404  0.0406  0.1046  0.0732 </r>
        <r>  0.0002  0.0004  0.0000  0.0004  0.0000  0.0000  0.0000  0.0000  0.0000 </r>
       </set>
       <set comment="band 10">
        <r>  0.0019  0.0004  0.0005  0.0006  0.0022  0.0127  0.0118  0.0002  0.0073 </r>
        <r>  0.0015  0.0011  0.0007  0.0112  0.0297  0.0984  0.0005  0.0179  0.1044 </r>
        <r>  0.0000  0.0001  0.0106  0.0006  0.0001  0.0128  0.0026  0.0026  0.0070 </r>
        <r>  0.0032  0.0002  0.0001  0.0155  0.0050  0.3295  0.0000  0.0058  0.2165 </r>
        <r>  0.0000  0.0002  0.0000  0.0006  0.0000  0.0000  0.0000  0.0000  0.0000 </r>
       </set>
       <set comment="band 11">
        <r>  0.0007  0.0150  0.0001  0.0040  0.2882  0.0109  0.0000  0.0935  0.0306 </r>
        <r>  0.0000  0.0000  0.0171  0.0000  0.0000  0.0000  0.0003  0.0011  0.0000 </r>
        <r>  0.0008  0.0037  0.0001  0.0144  0.0885  0.0784  0.0090  0.0288  0.1432 </r>
        <r>  0.0002  0.0004  0.0001  0.0017  0.0099  0.0117  0.0347  0.0002  0.0225 </r>
        <r>  0.0000  0.0000  0.0000  0.0000  0.0000  0.0000  0.0000  0.0000  0.0000 </r>
       </set>
       <set comment="band 12">
        <r>  0.0002  0.0091  0.0000  0.0031  0.3102  0.4033  0.0039  0.0333  0.0466 </r>
        <r>  0.0003  0.0006  0.0028  0.0020  0.0134  0.0067  0.0187  0.0045  0.0194 </r>
        <r>  0.0003  0.0004  0.0001  0.0012  0.0176  0.0017  0.0006  0.0041  0.0197 </r>
        <r>  0.0000  0.0000  0.0000  0.0001  0.0001  0.0002  0.0046  0.0015  0.0033 </r>
        <r>  0.0000  0.0000  0.0000  0.0000  0.0000  0.0000  0.0000  0.0000  0.0000 </r>
       </set>
       <set comment="band 13">
        <r>  0.0033  0.0000  0.0001  0.0323  0.0009  0.0090  0.0166  0.3473  0.4703 </r>
        <r>  0.0001  0.0000  0.0000  0.0000  0.0023  0.0004  0.0021  0.0060  0.0002 </r>
        <r>  0.0000  0.0002  0.0001  0.0000  0.0099  0.0007  0.0020  0.0032  0.0003 </r>
        <r>  0.0000  0.0000  0.0000  0.0000  0.0000  0.0001  0.0015  0.0020  0.0022 </r>
        <r>  0.0000  0.0000  0.0000  0.0000  0.0000  0.0000  0.0000  0.0000  0.0000 </r>
       </set>
       <set comment="band 14">
        <r>  0.0001  0.0000  0.0000  0.0018  0.0000  0.0018  0.0011  0.0021  0.0314 </r>
        <r>  0.0001  0.0003  0.0014  0.0007  0.0185  0.0100  0.0055  0.0160  0.0123 </r>
        <r>  0.0001  0.0021  0.0000  0.0003  0.1925  0.1474  0.0002  0.1496  0.0129 </r>
        <r>  0.0000  0.0000  0.0001  0.0001  0.0343  0.1383  0.0469  0.0847  0.0527 </r>
        <r>  0.0000  0.0004  0.0000  0.0004  0.0000  0.0000  0.0000  0.0000  0.0000 </r>
       </set>
       <set comment="band 15">
        <r>  0.0002  0.0000  0.0000  0.0005  0.0005  0.0072  0.0098  0.0002  0.0085 </r>
        <r>  0.0002  0.0007  0.0001  0.0002  0.0845  0.0469  0.0009  0.0326  0.0166 </r>
        <r>  0.0005  0.0004  0.0000  0.0049  0.0524  0.0738  0.0527  0.0040  0.2988 </r>
        <r>  0.0011  0.0000  0.0003  0.0000  0.0163  0.0260  0.2153  0.0068  0.0062 </r>
        <r>  0.0001  0.0002  0.0000  0.0000  0.0000  0.0000  0.0000  0.0000  0.0000 </r>
       </set>
       <set comment="band 16">
        <r>  0.0005  0.0000  0.0000  0.0004  0.0049  0.0720  0.0594  0.0279  0.0182 </r>
        <r>  0.0000  0.0000  0.0001  0.0000  0.1023  0.0002  0.0010  0.0708  0.0099 </r>
        <r>  0.0002  0.0000  0.0002  0.0001  0.0002  0.1580  0.0023  0.1122  0.0080 </r>
        <r>  0.0001  0.0000  0.0019  0.0003  0.0004  0.0014  0.3125  0.0012  0.0082 </r>
        <r>  0.0002  0.0000  0.0000  0.0001  0.0000  0.0000  0.0000  0.0000  0.0000 </r>
       </set>
       <set comment="band 17">
        <r>  0.0006  0.0002  0.0001  0.0003  0.0340  0.2320  0.0016  0.0622  0.0274 </r>
        <r>  0.0007  0.0000  0.0000  0.0005  0.0215  0.1516  0.0290  0.0052  0.2156 </r>
        <r>  0.0008  0.0000  0.0002  0.0000  0.0061  0.0630  0.0616  0.0184  0.0013 </r>
        <r>  0.0000  0.0000  0.0003  0.0000  0.0039  0.0017  0.0244  0.0049  0.0054 </r>
        <r>  0.0001  0.0000  0.0000  0.0000  0.0000  0.0000  0.0000  0.0000  0.0000 </r>
       </set>
       <set comment="band 18">
        <r>  0.0001  0.0001  0.0004  0.0000  0.0017  0.0034  0.1418  0.0619  0.0187 </r>
        <r>  0.0001  0.0000  0.0000  0.0000  0.0001  0.1566  0.1308  0.0072  0.0212 </r>
        <r>  0.0000  0.0001  0.0003  0.0003  0.0051  0.0000  0.2976  0.0442  0.0000 </r>
        <r>  0.0000  0.0000  0.0004  0.0001  0.0068  0.0037  0.0238  0.0185  0.0398 </r>
        <r>  0.0001  0.0000  0.0000  0.0000  0.0000  0.0000  0.0000  0.0000  0.0000 </r>
       </set>
       <set comment="band 19">
        <r>  0.0005  0.0000  0.0009  0.0001  0.0088  0.0398  0.3740  0.0001  0.0070 </r>
        <r>  0.0000  0.0000  0.0000  0.0000  0.0256  0.0018  0.0438  0.1601  0.0002 </r>
        <r>  0.0000  0.0001  0.0004  0.0000  0.0000  0.0055  0.2129  0.0184  0.0444 </r>
        <r>  0.0000  0.0000  0.0000  0.0001  0.0084  0.0066  0.0003  0.0068  0.0171 </r>
        <r>  0.0002  0.0000  0.0000  0.0000  0.0000  0.0000  0.0000  0.0000  0.0000 </r>
       </set>
       <set comment="band 20">
        <r>  0.0005  0.0000  0.0005  0.0005  0.0161  0.0315  0.1512  0.0339  0.0863 </r>
        <r>  0.0002  0.0000  0.0001  0.0002  0.0012  0.0160  0.3909  0.0066  0.0947 </r>
        <r>  0.0000  0.0000  0.0001  0.0001  0.0164  0.0409  0.0273  0.0191  0.0450 </r>
        <r>  0.0000  0.0001  0.0000  0.0000  0.0022  0.0052  0.0009  0.0000  0.0011 </r>
        <r>  0.0000  0.0000  0.0000  0.0000  0.0000  0.0000  0.0000  0.0000  0.0000 </r>
       </set>
       <set comment="band 21">
        <r>  0.0000  0.0000  0.0000  0.0000  0.0000  0.0000  0.0000  0.0000  0.0000 </r>
        <r>  0.0003  0.0000  0.0002  0.0000  0.0003  0.0002  0.0008  0.0000  0.0001 </r>
        <r>  0.0100  0.0001  0.0045  0.0029  0.0005  0.0006  0.0224  0.0031  0.0150 </r>
        <r>  0.0183  0.0121  0.0007  0.0911  0.0982  0.0379  0.0032  0.0645  0.2781 </r>
        <r>  0.1448  0.0000  0.0000  0.0007  0.0000  0.0000  0.0000  0.0000  0.0000 </r>
       </set>
       <set comment="band 22">
        <r>  0.0306  0.0002  0.0055  0.0340  0.0003  0.0005  0.0141  0.0096  0.0489 </r>
        <r>  0.0651  0.0001  0.0003  0.1063  0.0001  0.0000  0.0190  0.0005  0.1320 </r>
        <r>  0.0365  0.0004  0.0061  0.0702  0.0007  0.0000  0.0100  0.0046  0.0853 </r>
        <r>  0.0069  0.0049  0.0047  0.0000  0.0106  0.0006  0.0054  0.0115  0.0000 </r>
        <r>  0.0090  0.0000  0.0000  0.0001  0.0000  0.0000  0.0000  0.0000  0.0000 </r>
       </set>
       <set comment="band 23">
        <r>  0.0359  0.0001  0.0003  0.1043  0.0003  0.0001  0.0022  0.0040  0.0843 </r>
        <r>  0.0027  0.0040  0.0314  0.0154  0.0041  0.0005  0.0000  0.0220  0.0109 </r>
        <r>  0.0068  0.0010  0.0026  0.1057  0.0012  0.0010  0.0009  0.0053  0.0712 </r>
        <r>  0.0285  0.0222  0.0073  0.0079  0.0285  0.0022  0.0069  0.0210  0.0047 </r>
        <r>  0.0199  0.0002  0.0001  0.0009  0.0000  0.0000  0.0000  0.0000  0.0000 </r>
       </set>
       <set comment="band 24">
        <r>  0.0002  0.0139  0.0091  0.0835  0.0123  0.0038  0.0038  0.0000  0.0374 </r>
        <r>  0.0326  0.0045  0.0041  0.0800  0.0036  0.0011  0.0211  0.0067  0.0259 </r>
        <r>  0.0143  0.0494  0.0049  0.0004  0.0403  0.0001  0.0035  0.0094  0.0000 </r>
        <r>  0.0017  0.0553  0.0020  0.0360  0.0448  0.0006  0.0006  0.0023  0.0114 </r>
        <r>  0.0078  0.0011  0.0000  0.0025  0.0000  0.0000  0.0000  0.0000  0.0000 </r>
       </set>
       <set comment="band 25">
        <r>  0.0479  0.0250  0.0024  0.0030  0.0199  0.0045  0.0064  0.0027  0.0041 </r>
        <r>  0.0022  0.1195  0.0189  0.0074  0.0921  0.0022  0.0000  0.0040  0.0037 </r>
        <r>  0.0697  0.0670  0.0157  0.0051  0.0524  0.0001  0.0152  0.0026  0.0001 </r>
        <r>  0.0736  0.0000  0.0021  0.0030  0.0000  0.0001  0.0111  0.0016  0.0000 </r>
        <r>  0.0001  0.0008  0.0000  0.0007  0.0000  0.0000  0.0000  0.0000  0.0000 </r>
       </set>
       <set comment="band 26">
        <r>  0.0003  0.0480  0.0025  0.0106  0.0342  0.0048  0.0009  0.0004  0.0035 </r>
        <r>  0.1112  0.0353  0.0050  0.0052  0.0248  0.0020  0.0174  0.0004  0.0000 </r>
        <r>  0.0071  0.0369  0.0001  0.0207  0.0269  0.0004  0.0037  0.0346  0.0056 </r>
        <r>  0.1335  0.0201  0.0008  0.0084  0.0164  0.0135  0.0082  0.0002  0.0058 </r>
        <r>  0.0143  0.0002  0.0001  0.0062  0.0000  0.0000  0.0000  0.0000  0.0000 </r>
       </set>
       <set comment="band 27">
        <r>  0.0421  0.0063  0.0169  0.0371  0.0045  0.0004  0.0130  0.0001  0.0081 </r>
        <r>  0.0048  0.0305  0.0011  0.0532  0.0211  0.0054  0.0054  0.0120  0.0162 </r>
        <r>  0.0455  0.0167  0.0060  0.0195  0.0119  0.0223  0.0016  0.0024  0.0109 </r>
        <r>  0.0180  0.0785  0.0196  0.0326  0.0467  0.0003  0.0062  0.0115  0.0063 </r>
        <r>  0.0002  0.0026  0.0001  0.0026  0.0000  0.0000  0.0000  0.0000  0.0000 </r>
       </set>
       <set comment="band 28">
        <r>  0.0470  0.0007  0.0006  0.0008  0.0004  0.0000  0.0029  0.0055  0.0014 </r>
        <r>  0.0494  0.0133  0.0029  0.0022  0.0084  0.0009  0.0022  0.0013  0.0023 </r>
        <r>  0.0710  0.0024  0.0503  0.0019  0.0015  0.0082  0.0063  0.0045  0.0000 </r>
        <r>  0.1072  0.0047  0.0408  0.0580  0.0019  0.0172  0.0107  0.0369  0.0075 </r>
        <r>  0.0162  0.0057  0.0016  0.0047  0.0000  0.0000  0.0000  0.0000  0.0000 </r>
       </set>
      </set>
     </set>
    </set>
   </array>
  </projected>
 </calculation>
 <structure name="finalpos" >
  <crystal>
   <varray name="basis" >
    <v>       2.57386868       0.00000000       0.00000000 </v>
    <v>       1.28693434       2.22903567       0.00000000 </v>
    <v>       0.00000000       0.00000000      30.30466494 </v>
   </varray>
   <i name="volume">    173.86529028 </i>
   <varray name="rec_basis" >
    <v>       0.38852021      -0.22431225       0.00000000 </v>
    <v>       0.00000000       0.44862450       0.00000000 </v>
    <v>       0.00000000       0.00000000       0.03299822 </v>
   </varray>
  </crystal>
  <varray name="positions" >
   <v>       0.00000000       0.00000000       0.39642709 </v>
   <v>       0.33333207       0.33333249       0.46516172 </v>
   <v>       0.66666803       0.66666497       0.53388942 </v>
   <v>       0.00000000       0.00000000       0.60671220 </v>
   <v>       0.66666803       0.66666497       0.63812915 </v>
  </varray>
 </structure>
</modeling>
