unknown system                          
           1
     2.573869    0.000000    0.000000
     1.286934    2.229036    0.000000
     0.000000    0.000000   30.304665
   Cu   H 
   4   1
Direct configuration=     1
   0.00000000  0.00000000  0.39642709
   0.33333207  0.33333249  0.46516172
   0.66666803  0.66666497  0.53388942
   0.00000000  0.00000000  0.60671220
   0.66666803  0.66666497  0.63812915
