  20  20   0   0
  0.2336395E+02  0.5522883E-09  0.3905268E-09  0.2166505E-08  0.5000000E-15
  1.000000000000000E-004
  CAR 
 unknown system                          
      6.32845238    -38.68906611  301     -0.79519278      1.00000000
    -38.689  0.0000E+00  0.0000E+00
    -38.539  0.0000E+00  0.0000E+00
    -38.389  0.0000E+00  0.0000E+00
    -38.239  0.0000E+00  0.0000E+00
    -38.089  0.0000E+00  0.0000E+00
    -37.939  0.0000E+00  0.0000E+00
    -37.789  0.0000E+00  0.0000E+00
    -37.639  0.0000E+00  0.0000E+00
    -37.489  0.0000E+00  0.0000E+00
    -37.339  0.0000E+00  0.0000E+00
    -37.188  0.0000E+00  0.0000E+00
    -37.038  0.0000E+00  0.0000E+00
    -36.888  0.0000E+00  0.0000E+00
    -36.738  0.0000E+00  0.0000E+00
    -36.588  0.0000E+00  0.2000E+01
    -36.438  0.0000E+00  0.2000E+01
    -36.288  0.0000E+00  0.2000E+01
    -36.138  0.0000E+00  0.2000E+01
    -35.988  0.0000E+00  0.2000E+01
    -35.838  0.0000E+00  0.2000E+01
    -35.688  0.0000E+00  0.2000E+01
    -35.538  0.0000E+00  0.2000E+01
    -35.388  0.0000E+00  0.2000E+01
    -35.238  0.0000E+00  0.4000E+01
    -35.088  0.0000E+00  0.4000E+01
    -34.938  0.0000E+00  0.4000E+01
    -34.788  0.0000E+00  0.4000E+01
    -34.637  0.0000E+00  0.4000E+01
    -34.487  0.0000E+00  0.4000E+01
    -34.337  0.0000E+00  0.4000E+01
    -34.187  0.0000E+00  0.6000E+01
    -34.037  0.0000E+00  0.6000E+01
    -33.887  0.0000E+00  0.6000E+01
    -33.737  0.0000E+00  0.6000E+01
    -33.587  0.0000E+00  0.6000E+01
    -33.437  0.0000E+00  0.6000E+01
    -33.287  0.0000E+00  0.8000E+01
    -33.137  0.0000E+00  0.8000E+01
    -32.987  0.0000E+00  0.8000E+01
    -32.837  0.0000E+00  0.8000E+01
    -32.687  0.0000E+00  0.8000E+01
    -32.537  0.0000E+00  0.8000E+01
    -32.387  0.0000E+00  0.8000E+01
    -32.237  0.0000E+00  0.8000E+01
    -32.086  0.0000E+00  0.8000E+01
    -31.936  0.0000E+00  0.8000E+01
    -31.786  0.0000E+00  0.8000E+01
    -31.636  0.0000E+00  0.8000E+01
    -31.486  0.0000E+00  0.8000E+01
    -31.336  0.0000E+00  0.8000E+01
    -31.186  0.0000E+00  0.8000E+01
    -31.036  0.0000E+00  0.8000E+01
    -30.886  0.0000E+00  0.8000E+01
    -30.736  0.0000E+00  0.8000E+01
    -30.586  0.0000E+00  0.8000E+01
    -30.436  0.0000E+00  0.8000E+01
    -30.286  0.0000E+00  0.8000E+01
    -30.136  0.0000E+00  0.8000E+01
    -29.986  0.0000E+00  0.8000E+01
    -29.836  0.0000E+00  0.8000E+01
    -29.686  0.0000E+00  0.8000E+01
    -29.536  0.0000E+00  0.8000E+01
    -29.385  0.0000E+00  0.8000E+01
    -29.235  0.0000E+00  0.8000E+01
    -29.085  0.0000E+00  0.8000E+01
    -28.935  0.0000E+00  0.8000E+01
    -28.785  0.0000E+00  0.8000E+01
    -28.635  0.0000E+00  0.8000E+01
    -28.485  0.0000E+00  0.8000E+01
    -28.335  0.0000E+00  0.8000E+01
    -28.185  0.0000E+00  0.8000E+01
    -28.035  0.0000E+00  0.8000E+01
    -27.885  0.0000E+00  0.8000E+01
    -27.735  0.0000E+00  0.8000E+01
    -27.585  0.0000E+00  0.8000E+01
    -27.435  0.0000E+00  0.8000E+01
    -27.285  0.0000E+00  0.8000E+01
    -27.135  0.0000E+00  0.8000E+01
    -26.985  0.0000E+00  0.8000E+01
    -26.834  0.0000E+00  0.8000E+01
    -26.684  0.0000E+00  0.8000E+01
    -26.534  0.0000E+00  0.8000E+01
    -26.384  0.0000E+00  0.8000E+01
    -26.234  0.0000E+00  0.8000E+01
    -26.084  0.0000E+00  0.8000E+01
    -25.934  0.0000E+00  0.8000E+01
    -25.784  0.0000E+00  0.8000E+01
    -25.634  0.0000E+00  0.8000E+01
    -25.484  0.0000E+00  0.8000E+01
    -25.334  0.0000E+00  0.8000E+01
    -25.184  0.0000E+00  0.8000E+01
    -25.034  0.0000E+00  0.8000E+01
    -24.884  0.0000E+00  0.8000E+01
    -24.734  0.0000E+00  0.8000E+01
    -24.584  0.0000E+00  0.8000E+01
    -24.434  0.0000E+00  0.8000E+01
    -24.283  0.0000E+00  0.8000E+01
    -24.133  0.0000E+00  0.8000E+01
    -23.983  0.0000E+00  0.8000E+01
    -23.833  0.0000E+00  0.8000E+01
    -23.683  0.0000E+00  0.8000E+01
    -23.533  0.0000E+00  0.8000E+01
    -23.383  0.0000E+00  0.8000E+01
    -23.233  0.0000E+00  0.8000E+01
    -23.083  0.0000E+00  0.8000E+01
    -22.933  0.0000E+00  0.8000E+01
    -22.783  0.0000E+00  0.8000E+01
    -22.633  0.0000E+00  0.8000E+01
    -22.483  0.0000E+00  0.8000E+01
    -22.333  0.0000E+00  0.8000E+01
    -22.183  0.0000E+00  0.8000E+01
    -22.033  0.0000E+00  0.8000E+01
    -21.883  0.0000E+00  0.8000E+01
    -21.732  0.0000E+00  0.8000E+01
    -21.582  0.0000E+00  0.8000E+01
    -21.432  0.0000E+00  0.8000E+01
    -21.282  0.0000E+00  0.8000E+01
    -21.132  0.0000E+00  0.8000E+01
    -20.982  0.0000E+00  0.8000E+01
    -20.832  0.0000E+00  0.8000E+01
    -20.682  0.2799E+00  0.8001E+01
    -20.532  0.5426E+01  0.8390E+01
    -20.382  0.6560E+01  0.9402E+01
    -20.232  0.6586E+01  0.1018E+02
    -20.082  0.5128E+01  0.1105E+02
    -19.932  0.2602E+01  0.1166E+02
    -19.782  0.7346E+01  0.1221E+02
    -19.632  0.3913E+01  0.1393E+02
    -19.482  0.0000E+00  0.1400E+02
    -19.332  0.1555E+02  0.1432E+02
    -19.181  0.4196E+01  0.1618E+02
    -19.031  0.2813E+01  0.1783E+02
    -18.881  0.0000E+00  0.1800E+02
    -18.731  0.1489E+02  0.1882E+02
    -18.581  0.2277E+02  0.2159E+02
    -18.431  0.2012E+02  0.2462E+02
    -18.281  0.8594E+01  0.2711E+02
    -18.131  0.1884E+02  0.2943E+02
    -17.981  0.0000E+00  0.3000E+02
    -17.831  0.6326E+01  0.3018E+02
    -17.681  0.3790E+01  0.3181E+02
    -17.531  0.0000E+00  0.3200E+02
    -17.381  0.2560E+01  0.3210E+02
    -17.231  0.6197E+02  0.3538E+02
    -17.081  0.4692E+02  0.3882E+02
    -16.931  0.0000E+00  0.4000E+02
    -16.781  0.0000E+00  0.4000E+02
    -16.630  0.8410E+01  0.4005E+02
    -16.480  0.7187E+01  0.4178E+02
    -16.330  0.2297E+02  0.4304E+02
    -16.180  0.2468E+02  0.4623E+02
    -16.030  0.2136E+02  0.4873E+02
    -15.880  0.0000E+00  0.5000E+02
    -15.730  0.0000E+00  0.5000E+02
    -15.580  0.0000E+00  0.5000E+02
    -15.430  0.1931E+02  0.5093E+02
    -15.280  0.6215E+01  0.5266E+02
    -15.130  0.2307E+02  0.5484E+02
    -14.980  0.0000E+00  0.5600E+02
    -14.830  0.0000E+00  0.5600E+02
    -14.680  0.0000E+00  0.5600E+02
    -14.530  0.0000E+00  0.5600E+02
    -14.380  0.0000E+00  0.5600E+02
    -14.230  0.0000E+00  0.5600E+02
    -14.079  0.0000E+00  0.5600E+02
    -13.929  0.0000E+00  0.5600E+02
    -13.779  0.0000E+00  0.5600E+02
    -13.629  0.0000E+00  0.5600E+02
    -13.479  0.0000E+00  0.5600E+02
    -13.329  0.0000E+00  0.5600E+02
    -13.179  0.0000E+00  0.5600E+02
    -13.029  0.0000E+00  0.5600E+02
    -12.879  0.0000E+00  0.5600E+02
    -12.729  0.0000E+00  0.5600E+02
    -12.579  0.0000E+00  0.5600E+02
    -12.429  0.0000E+00  0.5600E+02
    -12.279  0.0000E+00  0.5600E+02
    -12.129  0.0000E+00  0.5600E+02
    -11.979  0.0000E+00  0.5600E+02
    -11.829  0.0000E+00  0.5600E+02
    -11.679  0.0000E+00  0.5600E+02
    -11.528  0.0000E+00  0.5600E+02
    -11.378  0.0000E+00  0.5600E+02
    -11.228  0.0000E+00  0.5600E+02
    -11.078  0.0000E+00  0.5600E+02
    -10.928  0.0000E+00  0.5600E+02
    -10.778  0.0000E+00  0.5600E+02
    -10.628  0.0000E+00  0.5600E+02
    -10.478  0.0000E+00  0.5600E+02
    -10.328  0.0000E+00  0.5600E+02
    -10.178  0.0000E+00  0.5600E+02
    -10.028  0.0000E+00  0.5600E+02
     -9.878  0.0000E+00  0.5600E+02
     -9.728  0.0000E+00  0.5600E+02
     -9.578  0.0000E+00  0.5600E+02
     -9.428  0.0000E+00  0.5600E+02
     -9.278  0.0000E+00  0.5600E+02
     -9.128  0.0000E+00  0.5600E+02
     -8.978  0.0000E+00  0.5600E+02
     -8.827  0.0000E+00  0.5600E+02
     -8.677  0.0000E+00  0.5600E+02
     -8.527  0.0000E+00  0.5600E+02
     -8.377  0.0000E+00  0.5600E+02
     -8.227  0.0000E+00  0.5600E+02
     -8.077  0.0000E+00  0.5600E+02
     -7.927  0.0000E+00  0.5600E+02
     -7.777  0.0000E+00  0.5600E+02
     -7.627  0.0000E+00  0.5600E+02
     -7.477  0.1429E+01  0.5643E+02
     -7.327  0.1419E+01  0.5665E+02
     -7.177  0.1410E+01  0.5686E+02
     -7.027  0.5320E+01  0.5737E+02
     -6.877  0.1241E+02  0.5885E+02
     -6.727  0.1635E+02  0.6093E+02
     -6.577  0.7619E+01  0.6313E+02
     -6.427  0.5023E+01  0.6446E+02
     -6.276  0.6840E+01  0.6542E+02
     -6.126  0.7752E+01  0.6647E+02
     -5.976  0.1331E+02  0.6791E+02
     -5.826  0.2196E+02  0.6947E+02
     -5.676  0.1613E+02  0.7196E+02
     -5.526  0.1055E+02  0.7422E+02
     -5.376  0.9738E+01  0.7607E+02
     -5.226  0.1368E+02  0.7769E+02
     -5.076  0.1357E+02  0.8005E+02
     -4.926  0.1405E+02  0.8213E+02
     -4.776  0.1622E+02  0.8422E+02
     -4.626  0.2042E+02  0.8698E+02
     -4.476  0.8920E+01  0.8855E+02
     -4.326  0.1522E+02  0.9011E+02
     -4.176  0.1466E+02  0.9240E+02
     -4.026  0.1564E+02  0.9493E+02
     -3.876  0.1053E+02  0.9650E+02
     -3.725  0.1007E+02  0.9836E+02
     -3.575  0.1176E+02  0.9999E+02
     -3.425  0.1373E+02  0.1019E+03
     -3.275  0.8898E+01  0.1038E+03
     -3.125  0.7401E+01  0.1050E+03
     -2.975  0.1103E+02  0.1063E+03
     -2.825  0.1347E+02  0.1090E+03
     -2.675  0.1266E+02  0.1107E+03
     -2.525  0.2987E+01  0.1119E+03
     -2.375  0.0000E+00  0.1120E+03
     -2.225  0.5995E+01  0.1140E+03
     -2.075  0.1071E+02  0.1155E+03
     -1.925  0.1931E+02  0.1176E+03
     -1.775  0.8539E+00  0.1180E+03
     -1.625  0.6471E+01  0.1189E+03
     -1.475  0.4036E+01  0.1198E+03
     -1.325  0.9705E+01  0.1207E+03
     -1.174  0.4271E+01  0.1223E+03
     -1.024  0.1230E+02  0.1238E+03
     -0.874  0.1639E+02  0.1264E+03
     -0.724  0.1630E+02  0.1297E+03
     -0.574  0.8104E+01  0.1311E+03
     -0.424  0.9812E+01  0.1326E+03
     -0.274  0.4813E+01  0.1337E+03
     -0.124  0.3826E+01  0.1344E+03
      0.026  0.3871E+01  0.1350E+03
      0.176  0.4689E+01  0.1357E+03
      0.326  0.5004E+01  0.1362E+03
      0.476  0.6965E+01  0.1372E+03
      0.626  0.1065E+02  0.1385E+03
      0.776  0.8622E+01  0.1400E+03
      0.926  0.6366E+01  0.1411E+03
      1.076  0.4531E+01  0.1419E+03
      1.226  0.2708E+01  0.1424E+03
      1.377  0.4562E+01  0.1434E+03
      1.527  0.4655E+01  0.1441E+03
      1.677  0.5109E+01  0.1448E+03
      1.827  0.6895E+01  0.1456E+03
      1.977  0.4107E+01  0.1465E+03
      2.127  0.3677E+01  0.1470E+03
      2.277  0.6113E+00  0.1478E+03
      2.427  0.5119E+00  0.1479E+03
      2.577  0.6137E+00  0.1480E+03
      2.727  0.2466E+01  0.1482E+03
      2.877  0.4025E+01  0.1487E+03
      3.027  0.5085E+01  0.1494E+03
      3.177  0.7489E+01  0.1504E+03
      3.327  0.2441E+01  0.1510E+03
      3.477  0.7548E+00  0.1516E+03
      3.627  0.6468E+00  0.1517E+03
      3.777  0.5389E+00  0.1518E+03
      3.928  0.4309E+00  0.1519E+03
      4.078  0.3655E+00  0.1520E+03
      4.228  0.1230E+00  0.1520E+03
      4.378  0.0000E+00  0.1520E+03
      4.528  0.0000E+00  0.1520E+03
      4.678  0.0000E+00  0.1520E+03
      4.828  0.0000E+00  0.1520E+03
      4.978  0.0000E+00  0.1520E+03
      5.128  0.0000E+00  0.1520E+03
      5.278  0.0000E+00  0.1520E+03
      5.428  0.0000E+00  0.1520E+03
      5.578  0.0000E+00  0.1520E+03
      5.728  0.0000E+00  0.1520E+03
      5.878  0.0000E+00  0.1520E+03
      6.028  0.0000E+00  0.1520E+03
      6.178  0.0000E+00  0.1520E+03
      6.328  0.0000E+00  0.1520E+03
