   20   20    1    1
  0.2336395E+02  0.5522883E-09  0.3905268E-09  0.2166505E-08  0.5000000E-15
  1.000000000000000E-004
  CAR 
 unknown system                          
    128      9     76
 
  0.0000000E+00  0.0000000E+00  0.0000000E+00  0.5000000E-01
    1      -36.642815   1.000000
    2      -35.283971   1.000000
    3      -34.327978   1.000000
    4      -33.430435   1.000000
    5      -20.517817   1.000000
    6      -20.044445   1.000000
    7      -19.877354   1.000000
    8      -19.374315   1.000000
    9      -19.065087   1.000000
   10      -18.700026   1.000000
   11      -18.646942   1.000000
   12      -18.569463   1.000000
   13      -18.557820   1.000000
   14      -18.372967   1.000000
   15      -18.113354   1.000000
   16      -17.845084   1.000000
   17      -17.331087   1.000000
   18      -17.327762   1.000000
   19      -17.150394   1.000000
   20      -17.070751   1.000000
   21      -16.513050   1.000000
   22      -16.365953   1.000000
   23      -16.290929   1.000000
   24      -16.174243   1.000000
   25      -16.114290   1.000000
   26      -15.446690   1.000000
   27      -15.178433   1.000000
   28      -15.125918   1.000000
   29       -7.134260   1.000000
   30       -6.822243   1.000000
   31       -6.657919   1.000000
   32       -6.021834   1.000000
   33       -5.908995   1.000000
   34       -5.555797   1.000000
   35       -5.465545   1.000000
   36       -5.316201   1.000000
   37       -5.139537   1.000000
   38       -5.062115   1.000000
   39       -5.012546   1.000000
   40       -4.874785   1.000000
   41       -4.766169   1.000000
   42       -4.599227   1.000000
   43       -4.265665   1.000000
   44       -4.141760   1.000000
   45       -4.097086   1.000000
   46       -4.019120   1.000000
   47       -3.819365   1.000000
   48       -3.784965   1.000000
   49       -3.558817   1.000000
   50       -3.268375   1.000000
   51       -3.031512   1.000000
   52       -2.941773   1.000000
   53       -2.908103   1.000000
   54       -2.725254   1.000000
   55       -2.682649   1.000000
   56       -2.418079   1.000000
   57       -2.316240   1.000000
   58       -1.972330   1.000000
   59       -1.941288   1.000000
   60       -1.382623   1.000000
   61       -1.347695   1.000000
   62       -1.099221   1.000000
   63       -1.098193   1.000000
   64       -1.059040   1.000000
   65       -0.882226   1.131175
   66       -0.789226   0.000000
   67       -0.783997   0.000000
   68       -0.480495   0.000000
   69        0.043312   0.000000
   70        0.272908   0.000000
   71        0.371039   0.000000
   72        0.626652   0.000000
   73        1.306945   0.000000
   74        2.638197   0.000000
   75        3.979528   0.000000
   76        4.126244   0.000000
 
  0.2500000E+00  0.0000000E+00  0.0000000E+00  0.1000000E+00
    1      -36.642384   1.000000
    2      -35.283490   1.000000
    3      -34.327506   1.000000
    4      -33.430050   1.000000
    5      -20.602854   1.000000
    6      -20.253108   1.000000
    7      -19.714884   1.000000
    8      -19.355074   1.000000
    9      -19.174618   1.000000
   10      -18.750256   1.000000
   11      -18.647433   1.000000
   12      -18.480418   1.000000
   13      -18.400278   1.000000
   14      -18.372619   1.000000
   15      -18.209343   1.000000
   16      -17.802463   1.000000
   17      -17.328672   1.000000
   18      -17.310976   1.000000
   19      -17.095703   1.000000
   20      -17.074534   1.000000
   21      -16.469493   1.000000
   22      -16.366938   1.000000
   23      -16.298954   1.000000
   24      -16.136041   1.000000
   25      -16.027060   1.000000
   26      -15.448014   1.000000
   27      -15.185558   1.000000
   28      -15.101055   1.000000
   29       -6.903316   1.000000
   30       -6.734301   1.000000
   31       -6.689331   1.000000
   32       -5.979194   1.000000
   33       -5.742931   1.000000
   34       -5.627107   1.000000
   35       -5.594710   1.000000
   36       -5.402258   1.000000
   37       -5.190940   1.000000
   38       -5.114890   1.000000
   39       -4.909541   1.000000
   40       -4.822387   1.000000
   41       -4.667027   1.000000
   42       -4.644477   1.000000
   43       -4.509049   1.000000
   44       -4.428570   1.000000
   45       -4.101558   1.000000
   46       -4.027653   1.000000
   47       -4.024541   1.000000
   48       -3.724980   1.000000
   49       -3.536851   1.000000
   50       -3.400328   1.000000
   51       -3.363938   1.000000
   52       -3.058084   1.000000
   53       -3.004576   1.000000
   54       -2.825177   1.000000
   55       -2.603118   1.000000
   56       -2.564133   1.000000
   57       -2.336925   1.000000
   58       -2.327954   1.000000
   59       -1.880322   1.000000
   60       -1.459365   1.000000
   61       -1.413231   1.000000
   62       -1.098033   1.000000
   63       -1.087040   1.000000
   64       -0.959966   1.000000
   65       -0.876910   1.091046
   66       -0.792734   0.043040
   67       -0.745552   0.000000
   68       -0.592729   0.000000
   69        0.064248   0.000000
   70        0.314381   0.000000
   71        0.352255   0.000000
   72        0.847438   0.000000
   73        1.294649   0.000000
   74        2.610968   0.000000
   75        2.674389   0.000000
   76        4.282202   0.000000
 
  0.5000000E+00  0.0000000E+00  0.0000000E+00  0.5000000E-01
    1      -36.641952   1.000000
    2      -35.283007   1.000000
    3      -34.327033   1.000000
    4      -33.429664   1.000000
    5      -20.692194   1.000000
    6      -20.342715   1.000000
    7      -19.684219   1.000000
    8      -19.313471   1.000000
    9      -19.268223   1.000000
   10      -18.757307   1.000000
   11      -18.647921   1.000000
   12      -18.403480   1.000000
   13      -18.384815   1.000000
   14      -18.301044   1.000000
   15      -18.260338   1.000000
   16      -17.784673   1.000000
   17      -17.329577   1.000000
   18      -17.299386   1.000000
   19      -17.079173   1.000000
   20      -17.033384   1.000000
   21      -16.396309   1.000000
   22      -16.367917   1.000000
   23      -16.325035   1.000000
   24      -16.067623   1.000000
   25      -15.992481   1.000000
   26      -15.449332   1.000000
   27      -15.184923   1.000000
   28      -15.069236   1.000000
   29       -6.846108   1.000000
   30       -6.737101   1.000000
   31       -6.033120   1.000000
   32       -6.015173   1.000000
   33       -5.915216   1.000000
   34       -5.715885   1.000000
   35       -5.655205   1.000000
   36       -5.556564   1.000000
   37       -5.394356   1.000000
   38       -5.160505   1.000000
   39       -4.752831   1.000000
   40       -4.719844   1.000000
   41       -4.714625   1.000000
   42       -4.664528   1.000000
   43       -4.509512   1.000000
   44       -4.422609   1.000000
   45       -4.377092   1.000000
   46       -4.131217   1.000000
   47       -4.054932   1.000000
   48       -3.828650   1.000000
   49       -3.790978   1.000000
   50       -3.352849   1.000000
   51       -3.323320   1.000000
   52       -3.280529   1.000000
   53       -3.108920   1.000000
   54       -3.082620   1.000000
   55       -2.869335   1.000000
   56       -2.506670   1.000000
   57       -2.361441   1.000000
   58       -2.348054   1.000000
   59       -1.672421   1.000000
   60       -1.577634   1.000000
   61       -1.473762   1.000000
   62       -1.277321   1.000000
   63       -1.079036   1.000000
   64       -1.048715   1.000000
   65       -0.847533   1.032484
   66       -0.799796   0.138549
   67       -0.763674   0.000000
   68       -0.395269   0.000000
   69        0.016936   0.000000
   70        0.296515   0.000000
   71        0.384779   0.000000
   72        0.963856   0.000000
   73        1.290170   0.000000
   74        1.469778   0.000000
   75        2.564454   0.000000
   76        2.681122   0.000000
 
  0.0000000E+00  0.2000000E+00  0.0000000E+00  0.1000000E+00
    1      -36.636512   1.000000
    2      -35.276784   1.000000
    3      -34.320813   1.000000
    4      -33.423390   1.000000
    5      -20.436718   1.000000
    6      -19.957912   1.000000
    7      -19.788137   1.000000
    8      -19.296667   1.000000
    9      -19.098870   1.000000
   10      -18.649766   1.000000
   11      -18.629244   1.000000
   12      -18.602909   1.000000
   13      -18.514146   1.000000
   14      -18.298880   1.000000
   15      -18.134564   1.000000
   16      -17.767587   1.000000
   17      -17.287319   1.000000
   18      -17.243273   1.000000
   19      -17.225911   1.000000
   20      -17.098582   1.000000
   21      -16.592676   1.000000
   22      -16.299459   1.000000
   23      -16.292614   1.000000
   24      -16.193119   1.000000
   25      -16.143663   1.000000
   26      -15.372137   1.000000
   27      -15.248880   1.000000
   28      -15.222818   1.000000
   29       -7.041408   1.000000
   30       -6.686464   1.000000
   31       -6.646913   1.000000
   32       -6.553187   1.000000
   33       -6.042138   1.000000
   34       -5.938227   1.000000
   35       -5.814243   1.000000
   36       -5.565042   1.000000
   37       -5.507410   1.000000
   38       -5.228221   1.000000
   39       -5.168510   1.000000
   40       -5.105379   1.000000
   41       -4.924287   1.000000
   42       -4.694024   1.000000
   43       -4.678650   1.000000
   44       -4.463655   1.000000
   45       -4.319885   1.000000
   46       -4.173645   1.000000
   47       -4.069302   1.000000
   48       -3.809233   1.000000
   49       -3.767699   1.000000
   50       -3.449887   1.000000
   51       -3.377390   1.000000
   52       -3.266575   1.000000
   53       -2.963995   1.000000
   54       -2.837244   1.000000
   55       -2.753524   1.000000
   56       -2.619535   1.000000
   57       -2.306665   1.000000
   58       -2.083041   1.000000
   59       -2.043337   1.000000
   60       -1.531749   1.000000
   61       -1.310499   1.000000
   62       -1.075622   1.000000
   63       -0.917629   1.050767
   64       -0.900941   1.042349
   65       -0.773629   0.234738
   66       -0.517944   0.000000
   67       -0.491610   0.000000
   68       -0.235992   0.000000
   69        0.174999   0.000000
   70        0.647100   0.000000
   71        0.681336   0.000000
   72        0.712811   0.000000
   73        1.574393   0.000000
   74        1.607467   0.000000
   75        2.868917   0.000000
   76        2.920876   0.000000
 
  0.2500000E+00  0.2000000E+00  0.0000000E+00  0.2000000E+00
    1      -36.636166   1.000000
    2      -35.276407   1.000000
    3      -34.320444   1.000000
    4      -33.423100   1.000000
    5      -20.463317   1.000000
    6      -20.169715   1.000000
    7      -19.686590   1.000000
    8      -19.307401   1.000000
    9      -19.132448   1.000000
   10      -18.736326   1.000000
   11      -18.630200   1.000000
   12      -18.501472   1.000000
   13      -18.387834   1.000000
   14      -18.317170   1.000000
   15      -18.190369   1.000000
   16      -17.779747   1.000000
   17      -17.286365   1.000000
   18      -17.230414   1.000000
   19      -17.148029   1.000000
   20      -17.116971   1.000000
   21      -16.550636   1.000000
   22      -16.310400   1.000000
   23      -16.257647   1.000000
   24      -16.191339   1.000000
   25      -16.038397   1.000000
   26      -15.365043   1.000000
   27      -15.243321   1.000000
   28      -15.159916   1.000000
   29       -6.891036   1.000000
   30       -6.730535   1.000000
   31       -6.664558   1.000000
   32       -6.505869   1.000000
   33       -6.192850   1.000000
   34       -5.886080   1.000000
   35       -5.800251   1.000000
   36       -5.630185   1.000000
   37       -5.551564   1.000000
   38       -5.246432   1.000000
   39       -5.167815   1.000000
   40       -5.047221   1.000000
   41       -4.900368   1.000000
   42       -4.786788   1.000000
   43       -4.725162   1.000000
   44       -4.661741   1.000000
   45       -4.404003   1.000000
   46       -4.229667   1.000000
   47       -3.957716   1.000000
   48       -3.935608   1.000000
   49       -3.743415   1.000000
   50       -3.618083   1.000000
   51       -3.389529   1.000000
   52       -3.281028   1.000000
   53       -3.222860   1.000000
   54       -2.988324   1.000000
   55       -2.887594   1.000000
   56       -2.603998   1.000000
   57       -2.321549   1.000000
   58       -2.187133   1.000000
   59       -2.027374   1.000000
   60       -1.703145   1.000000
   61       -1.292817   1.000000
   62       -1.064313   1.000000
   63       -0.925565   1.026128
   64       -0.912575   1.053931
   65       -0.775226   0.316938
   66       -0.624154  -0.024305
   67       -0.408862   0.000000
   68       -0.177313   0.000000
   69        0.242611   0.000000
   70        0.679335   0.000000
   71        0.702893   0.000000
   72        0.884657   0.000000
   73        1.564172   0.000000
   74        1.589851   0.000000
   75        2.856967   0.000000
   76        2.893934   0.000000
 
  0.5000000E+00  0.2000000E+00  0.0000000E+00  0.1000000E+00
    1      -36.635820   1.000000
    2      -35.276029   1.000000
    3      -34.320075   1.000000
    4      -33.422810   1.000000
    5      -20.517694   1.000000
    6      -20.249423   1.000000
    7      -19.692408   1.000000
    8      -19.323870   1.000000
    9      -19.157607   1.000000
   10      -18.773096   1.000000
   11      -18.610834   1.000000
   12      -18.388629   1.000000
   13      -18.373349   1.000000
   14      -18.322722   1.000000
   15      -18.214624   1.000000
   16      -17.805308   1.000000
   17      -17.291513   1.000000
   18      -17.211393   1.000000
   19      -17.135978   1.000000
   20      -17.064480   1.000000
   21      -16.486713   1.000000
   22      -16.345261   1.000000
   23      -16.231695   1.000000
   24      -16.123806   1.000000
   25      -16.009137   1.000000
   26      -15.353392   1.000000
   27      -15.196687   1.000000
   28      -15.121323   1.000000
   29       -6.898000   1.000000
   30       -6.776380   1.000000
   31       -6.595705   1.000000
   32       -6.472922   1.000000
   33       -6.048184   1.000000
   34       -5.862679   1.000000
   35       -5.806100   1.000000
   36       -5.656069   1.000000
   37       -5.631915   1.000000
   38       -5.517354   1.000000
   39       -5.192012   1.000000
   40       -5.144475   1.000000
   41       -4.920908   1.000000
   42       -4.842149   1.000000
   43       -4.726797   1.000000
   44       -4.597541   1.000000
   45       -4.276363   1.000000
   46       -4.271458   1.000000
   47       -4.146361   1.000000
   48       -3.966502   1.000000
   49       -3.896841   1.000000
   50       -3.564180   1.000000
   51       -3.510027   1.000000
   52       -3.427039   1.000000
   53       -3.284413   1.000000
   54       -3.036704   1.000000
   55       -2.993836   1.000000
   56       -2.917285   1.000000
   57       -2.311274   1.000000
   58       -2.124876   1.000000
   59       -1.942952   1.000000
   60       -1.634543   1.000000
   61       -1.341840   1.000000
   62       -1.284561   1.000000
   63       -1.048785   1.000000
   64       -0.919568   1.060112
   65       -0.838285   0.826252
   66       -0.493431  -0.050070
   67       -0.294594   0.000000
   68       -0.125284   0.000000
   69        0.512609   0.000000
   70        0.727017   0.000000
   71        0.988287   0.000000
   72        1.541887   0.000000
   73        1.561047   0.000000
   74        1.855514   0.000000
   75        2.818974   0.000000
   76        2.889486   0.000000
 
  0.0000000E+00  0.4000000E+00  0.0000000E+00  0.1000000E+00
    1      -36.626282   1.000000
    2      -35.265111   1.000000
    3      -34.309175   1.000000
    4      -33.411949   1.000000
    5      -20.419303   1.000000
    6      -19.737428   1.000000
    7      -19.609274   1.000000
    8      -19.213716   1.000000
    9      -19.108317   1.000000
   10      -18.753581   1.000000
   11      -18.593681   1.000000
   12      -18.442119   1.000000
   13      -18.440817   1.000000
   14      -18.208715   1.000000
   15      -18.089745   1.000000
   16      -17.611177   1.000000
   17      -17.431124   1.000000
   18      -17.214989   1.000000
   19      -17.184882   1.000000
   20      -17.030607   1.000000
   21      -16.636497   1.000000
   22      -16.485164   1.000000
   23      -16.207494   1.000000
   24      -16.137108   1.000000
   25      -16.014910   1.000000
   26      -15.508972   1.000000
   27      -15.456085   1.000000
   28      -15.146532   1.000000
   29       -7.480349   1.000000
   30       -6.994161   1.000000
   31       -6.693427   1.000000
   32       -6.620493   1.000000
   33       -6.527299   1.000000
   34       -6.509877   1.000000
   35       -6.408948   1.000000
   36       -5.961499   1.000000
   37       -5.754419   1.000000
   38       -5.635878   1.000000
   39       -5.579685   1.000000
   40       -5.483457   1.000000
   41       -5.139414   1.000000
   42       -4.987964   1.000000
   43       -4.901682   1.000000
   44       -4.702904   1.000000
   45       -4.623461   1.000000
   46       -4.592420   1.000000
   47       -4.408358   1.000000
   48       -4.188740   1.000000
   49       -4.072968   1.000000
   50       -3.745068   1.000000
   51       -3.551035   1.000000
   52       -3.489461   1.000000
   53       -3.017873   1.000000
   54       -2.870898   1.000000
   55       -2.762808   1.000000
   56       -2.734306   1.000000
   57       -2.306631   1.000000
   58       -2.162334   1.000000
   59       -1.918741   1.000000
   60       -1.442538   1.000000
   61       -1.290899   1.000000
   62       -0.907493   1.000000
   63       -0.770772   0.281823
   64       -0.741847   0.143026
   65       -0.516580   0.000000
   66       -0.480599   0.000000
   67       -0.224223   0.000000
   68        0.574509   0.000000
   69        0.651340   0.000000
   70        0.742473   0.000000
   71        1.318446   0.000000
   72        1.360711   0.000000
   73        1.785795   0.000000
   74        2.197810   0.000000
   75        3.222354   0.000000
   76        3.442508   0.000000
 
  0.2500000E+00  0.4000000E+00  0.0000000E+00  0.2000000E+00
    1      -36.626077   1.000000
    2      -35.264906   1.000000
    3      -34.308978   1.000000
    4      -33.411817   1.000000
    5      -20.331164   1.000000
    6      -19.949895   1.000000
    7      -19.688101   1.000000
    8      -19.209699   1.000000
    9      -19.102705   1.000000
   10      -18.595800   1.000000
   11      -18.570459   1.000000
   12      -18.520203   1.000000
   13      -18.449073   1.000000
   14      -18.202745   1.000000
   15      -18.150648   1.000000
   16      -17.725200   1.000000
   17      -17.267565   1.000000
   18      -17.233474   1.000000
   19      -17.147844   1.000000
   20      -17.082723   1.000000
   21      -16.606652   1.000000
   22      -16.311660   1.000000
   23      -16.256882   1.000000
   24      -16.130480   1.000000
   25      -16.013413   1.000000
   26      -15.459722   1.000000
   27      -15.346137   1.000000
   28      -15.090988   1.000000
   29       -7.498522   1.000000
   30       -6.965006   1.000000
   31       -6.834198   1.000000
   32       -6.765429   1.000000
   33       -6.656680   1.000000
   34       -6.537403   1.000000
   35       -6.264420   1.000000
   36       -5.996551   1.000000
   37       -5.825832   1.000000
   38       -5.755457   1.000000
   39       -5.548858   1.000000
   40       -5.433544   1.000000
   41       -5.184406   1.000000
   42       -5.148726   1.000000
   43       -4.985769   1.000000
   44       -4.841188   1.000000
   45       -4.648824   1.000000
   46       -4.376452   1.000000
   47       -4.273375   1.000000
   48       -4.218986   1.000000
   49       -4.117496   1.000000
   50       -3.820917   1.000000
   51       -3.695482   1.000000
   52       -3.513940   1.000000
   53       -3.335457   1.000000
   54       -2.875529   1.000000
   55       -2.839762   1.000000
   56       -2.646901   1.000000
   57       -2.260986   1.000000
   58       -2.054710   1.000000
   59       -1.951766   1.000000
   60       -1.682541   1.000000
   61       -1.215263   1.000000
   62       -0.895946   1.000000
   63       -0.806094   0.899318
   64       -0.765838   0.229987
   65       -0.733450  -0.010120
   66       -0.406228   0.000000
   67       -0.045773   0.000000
   68        0.610117   0.000000
   69        0.669285   0.000000
   70        0.932960   0.000000
   71        1.348775   0.000000
   72        1.796340   0.000000
   73        2.133191   0.000000
   74        2.167187   0.000000
   75        3.170967   0.000000
   76        3.404928   0.000000
 
  0.5000000E+00  0.4000000E+00  0.0000000E+00  0.1000000E+00
    1      -36.625869   1.000000
    2      -35.264698   1.000000
    3      -34.308778   1.000000
    4      -33.411682   1.000000
    5      -20.148542   1.000000
    6      -20.146929   1.000000
    7      -19.835597   1.000000
    8      -19.274225   1.000000
    9      -18.946478   1.000000
   10      -18.793159   1.000000
   11      -18.549880   1.000000
   12      -18.437608   1.000000
   13      -18.367676   1.000000
   14      -18.271328   1.000000
   15      -18.054826   1.000000
   16      -17.896294   1.000000
   17      -17.244345   1.000000
   18      -17.241695   1.000000
   19      -17.075879   1.000000
   20      -17.043439   1.000000
   21      -16.557701   1.000000
   22      -16.307409   1.000000
   23      -16.171490   1.000000
   24      -16.147510   1.000000
   25      -15.990198   1.000000
   26      -15.463007   1.000000
   27      -15.184863   1.000000
   28      -15.047441   1.000000
   29       -7.523012   1.000000
   30       -7.142768   1.000000
   31       -6.962398   1.000000
   32       -6.817013   1.000000
   33       -6.690880   1.000000
   34       -6.531653   1.000000
   35       -6.085448   1.000000
   36       -5.982035   1.000000
   37       -5.843073   1.000000
   38       -5.787300   1.000000
   39       -5.697266   1.000000
   40       -5.390150   1.000000
   41       -5.357869   1.000000
   42       -5.299475   1.000000
   43       -5.161683   1.000000
   44       -4.682662   1.000000
   45       -4.667172   1.000000
   46       -4.312532   1.000000
   47       -4.209768   1.000000
   48       -4.127292   1.000000
   49       -4.049039   1.000000
   50       -3.949350   1.000000
   51       -3.775061   1.000000
   52       -3.716150   1.000000
   53       -3.560175   1.000000
   54       -2.925693   1.000000
   55       -2.859426   1.000000
   56       -2.769536   1.000000
   57       -2.036008   1.000000
   58       -2.011689   1.000000
   59       -1.920893   1.000000
   60       -1.660290   1.000000
   61       -1.283116   1.000000
   62       -1.196106   1.000000
   63       -0.923212   1.000000
   64       -0.753596   0.194262
   65       -0.683102  -0.052204
   66       -0.281756   0.000000
   67        0.035523   0.000000
   68        0.654244   0.000000
   69        1.085430   0.000000
   70        1.174104   0.000000
   71        1.349570   0.000000
   72        1.904450   0.000000
   73        2.141774   0.000000
   74        2.152118   0.000000
   75        3.156923   0.000000
   76        3.373043   0.000000
