Automatically generated mesh
       9
Reciprocal lattice
    0.00000000000000    0.00000000000000    0.00000000000000             1
    0.25000000000000    0.00000000000000    0.00000000000000             2
    0.50000000000000    0.00000000000000    0.00000000000000             1
    0.00000000000000    0.20000000000000    0.00000000000000             2
    0.25000000000000    0.20000000000000    0.00000000000000             4
    0.50000000000000    0.20000000000000    0.00000000000000             2
    0.00000000000000    0.40000000000000    0.00000000000000             2
    0.25000000000000    0.40000000000000    0.00000000000000             4
    0.50000000000000    0.40000000000000    0.00000000000000             2
Tetrahedra
        54    0.00833333333333
         2         1         1         2         5
         2         1         1         4         5
         2         1         4         4         5
         2         1         2         2         5
         2         1         2         5         5
         2         1         4         5         5
         2         2         2         3         6
         2         2         2         5         6
         2         2         5         5         6
         2         2         3         3         6
         2         2         3         6         6
         2         2         5         6         6
         2         2         3         3         5
         2         3         3         5         6
         2         3         5         6         6
         2         2         2         3         5
         2         2         3         5         5
         2         3         5         5         6
         2         1         2         2         4
         2         2         2         4         5
         2         2         4         5         5
         2         1         1         2         4
         2         1         2         4         4
         2         2         4         4         5
         2         4         4         5         8
         2         4         4         7         8
         2         4         7         7         8
         2         4         5         5         8
         2         4         5         8         8
         2         4         7         8         8
         2         5         5         6         9
         2         5         5         8         9
         2         5         8         8         9
         2         5         6         6         9
         2         5         6         9         9
         2         5         8         9         9
         2         5         6         6         8
         2         6         6         8         9
         2         6         8         9         9
         2         5         5         6         8
         2         5         6         8         8
         2         6         8         8         9
         2         4         5         5         7
         2         5         5         7         8
         2         5         7         8         8
         2         4         4         5         7
         2         4         5         7         7
         2         5         7         7         8
         4         7         7         8         8
         4         7         7         7         8
         4         7         8         8         8
         4         8         8         9         9
         4         8         8         8         9
         4         8         9         9         9
