 vasp.5.4.4.18Apr17-6-g9f103f2a35 (build Jun 30 2017 11:15:00) complex          
  
 executed on    STALLO_VASP_5.4.4 date 2019.11.06  18:33:05
 running on    4 total cores
 distrk:  each k-point on    4 cores,    1 groups
 distr:  one band on NCORES_PER_BAND=   2 cores,    2 groups


--------------------------------------------------------------------------------------------------------


 INCAR:
 POTCAR:   PAW_PBE O 08Apr2002                    
 POTCAR:   PAW_PBE Sr_sv 07Sep2000                
 POTCAR:   PAW_PBE Ti 08Apr2002                   
 POTCAR:   PAW_PBE O 08Apr2002                    
   VRHFIN =O: s2p4                                                              
   LEXCH  = PE                                                                  
   EATOM  =   432.3788 eV,   31.7789 Ry                                         
                                                                                
   TITEL  = PAW_PBE O 08Apr2002                                                 
   LULTRA =        F    use ultrasoft PP ?                                      
   IUNSCR =        0    unscreen: 0-lin 1-nonlin 2-no                           
   RPACOR =     .000    partial core radius                                     
   POMASS =   16.000; ZVAL   =    6.000    mass and valenz                      
   RCORE  =    1.520    outmost cutoff radius                                   
   RWIGS  =    1.550; RWIGS  =     .820    wigner-seitz radius (au A)           
   ENMAX  =  400.000; ENMIN  =  300.000 eV                                      
   ICORE  =        2    local potential                                         
   LCOR   =        T    correct aug charges                                     
   LPAW   =        T    paw PP                                                  
   EAUG   =  605.392                                                            
   DEXC   =     .000                                                            
   RMAX   =    2.264    core radius for proj-oper                               
   RAUG   =    1.300    factor for augmentation sphere                          
   RDEP   =    1.550    radius for radial grids                                 
   QCUT   =   -5.520; QGAM   =   11.041    optimization parameters              
                                                                                
   Description                                                                  
     l     E      TYP  RCUT    TYP  RCUT                                        
     0   .000     23  1.200                                                     
     0  -.700     23  1.200                                                     
     1   .000     23  1.520                                                     
     1   .600     23  1.520                                                     
     2   .000      7  1.500                                                     
  local pseudopotential read in
  atomic valenz-charges read in
  non local Contribution for L=           0  read in
    real space projection operators read in
  non local Contribution for L=           0  read in
    real space projection operators read in
  non local Contribution for L=           1  read in
    real space projection operators read in
  non local Contribution for L=           1  read in
    real space projection operators read in
    PAW grid and wavefunctions read in
 
   number of l-projection  operators is LMAX  =           4
   number of lm-projection operators is LMMAX =           8
 
 POTCAR:   PAW_PBE Sr_sv 07Sep2000                
   VRHFIN =Sr: 4s4p5s                                                           
   LEXCH  = PE                                                                  
   EATOM  =   842.4562 eV,   61.9188 Ry                                         
                                                                                
   TITEL  = PAW_PBE Sr_sv 07Sep2000                                             
   LULTRA =        F    use ultrasoft PP ?                                      
   IUNSCR =        1    unscreen: 0-lin 1-nonlin 2-no                           
   RPACOR =    2.200    partial core radius                                     
   POMASS =   87.620; ZVAL   =   10.000    mass and valenz                      
   RCORE  =    2.500    outmost cutoff radius                                   
   RWIGS  =    4.040; RWIGS  =    2.138    wigner-seitz radius (au A)           
   ENMAX  =  229.282; ENMIN  =  171.961 eV                                      
   RCLOC  =    2.201    cutoff for local pot                                    
   LCOR   =        T    correct aug charges                                     
   LPAW   =        T    paw PP                                                  
   EAUG   =  366.804                                                            
   DEXC   =     .000                                                            
   RMAX   =    3.045    core radius for proj-oper                               
   RAUG   =    1.300    factor for augmentation sphere                          
   RDEP   =    2.562    radius for radial grids                                 
   QCUT   =   -4.105; QGAM   =    8.210    optimization parameters              
                                                                                
   Description                                                                  
     l     E      TYP  RCUT    TYP  RCUT                                        
     0   .000     23  2.480                                                     
     0   .000     23  2.480                                                     
     1   .000     23  2.500                                                     
     1   .000     23  2.500                                                     
     2   .000     23  2.500                                                     
     2   .000     23  2.500                                                     
  local pseudopotential read in
  partial core-charges read in
  atomic valenz-charges read in
  non local Contribution for L=           0  read in
    real space projection operators read in
  non local Contribution for L=           0  read in
    real space projection operators read in
  non local Contribution for L=           1  read in
    real space projection operators read in
  non local Contribution for L=           1  read in
    real space projection operators read in
  non local Contribution for L=           2  read in
    real space projection operators read in
  non local Contribution for L=           2  read in
    real space projection operators read in
    PAW grid and wavefunctions read in
 
   number of l-projection  operators is LMAX  =           6
   number of lm-projection operators is LMMAX =          18
 
 POTCAR:   PAW_PBE Ti 08Apr2002                   
   VRHFIN =Ti: d3 s1                                                            
   LEXCH  = PE                                                                  
   EATOM  =    94.7929 eV,    6.9671 Ry                                         
                                                                                
   TITEL  = PAW_PBE Ti 08Apr2002                                                
   LULTRA =        F    use ultrasoft PP ?                                      
   IUNSCR =        1    unscreen: 0-lin 1-nonlin 2-no                           
   RPACOR =    2.200    partial core radius                                     
   POMASS =   47.880; ZVAL   =    4.000    mass and valenz                      
   RCORE  =    2.800    outmost cutoff radius                                   
   RWIGS  =    2.500; RWIGS  =    1.323    wigner-seitz radius (au A)           
   ENMAX  =  178.330; ENMIN  =  133.747 eV                                      
   RCLOC  =    2.215    cutoff for local pot                                    
   LCOR   =        T    correct aug charges                                     
   LPAW   =        T    paw PP                                                  
   EAUG   =  328.883                                                            
   DEXC   =    -.043                                                            
   RMAX   =    3.453    core radius for proj-oper                               
   RAUG   =    1.300    factor for augmentation sphere                          
   RDEP   =    2.885    radius for radial grids                                 
   QCUT   =   -3.620; QGAM   =    7.241    optimization parameters              
                                                                                
   Description                                                                  
     l     E      TYP  RCUT    TYP  RCUT                                        
     2   .000     23  2.800                                                     
     2   .000     23  2.800                                                     
     0   .000     23  2.800                                                     
     0  1.500     23  2.800                                                     
     1  -.400     23  2.800                                                     
     3   .000      7   .000                                                     
  local pseudopotential read in
  partial core-charges read in
  atomic valenz-charges read in
  non local Contribution for L=           2  read in
    real space projection operators read in
  non local Contribution for L=           2  read in
    real space projection operators read in
  non local Contribution for L=           0  read in
    real space projection operators read in
  non local Contribution for L=           0  read in
    real space projection operators read in
  non local Contribution for L=           1  read in
    real space projection operators read in
    PAW grid and wavefunctions read in
 
   number of l-projection  operators is LMAX  =           5
   number of lm-projection operators is LMMAX =          15
 

 ----------------------------------------------------------------------------- 
|                                                                             |
|  ADVICE TO THIS USER RUNNING 'VASP/VAMP'   (HEAR YOUR MASTER'S VOICE ...):  |
|                                                                             |
|      You have a (more or less) 'large supercell' and for larger cells       |
|      it might be more efficient to use real space projection operators      |
|      So try LREAL= Auto  in the INCAR   file.                               |
|      Mind: If you want to do a very accurate calculations keep the          |
|      reciprocal projection scheme          (i.e. LREAL=.FALSE.)             |
|                                                                             |
 ----------------------------------------------------------------------------- 

 PAW_PBE O 08Apr2002                    :
 energy of atom  1       EATOM= -432.3788
 kinetic energy error for atom=    0.0224 (will be added to EATOM!!)
 PAW_PBE Sr_sv 07Sep2000                :
 energy of atom  2       EATOM= -842.4562
 kinetic energy error for atom=    0.0012 (will be added to EATOM!!)
 PAW_PBE Ti 08Apr2002                   :
 energy of atom  3       EATOM=  -94.7929
 kinetic energy error for atom=    0.0002 (will be added to EATOM!!)
 
 
 POSCAR:  O Sr Ti                                
  positions in direct lattice
  No initial velocities read in
 exchange correlation table for  LEXCH =        8
   RHO(1)=    0.500       N(1)  =     2000
   RHO(2)=  100.500       N(2)  =     4000
 


--------------------------------------------------------------------------------------------------------


 ion  position               nearest neighbor table
   1  0.500  0.000  0.277-  17 1.95  17 1.95  14 2.76  13 2.76  13 2.76
   2  0.250  0.500  0.341-  17 1.95  18 1.95  13 2.76  14 2.76  13 2.76  14 2.76
   3  0.750  0.500  0.341-  17 1.95  18 1.95  13 2.76  14 2.76  13 2.76  14 2.76
   4  0.000  0.000  0.404-  18 1.95  18 1.95  13 2.76  14 2.76  14 2.76  15 2.76
   5  0.750  0.500  0.468-  18 1.95  19 1.95  14 2.76  14 2.76  15 2.76  15 2.76
   6  0.250  0.500  0.468-  18 1.95  19 1.95  14 2.76  14 2.76  15 2.76  15 2.76
   7  0.500  0.000  0.532-  19 1.95  19 1.95  16 2.76  15 2.76  15 2.76  14 2.76
   8  0.250  0.500  0.596-  19 1.95  20 1.95  15 2.76  16 2.76  15 2.76  16 2.76
   9  0.750  0.500  0.596-  19 1.95  20 1.95  15 2.76  16 2.76  15 2.76  16 2.76
  10  0.000  0.000  0.659-  20 1.95  20 1.95  15 2.76  16 2.76  16 2.76
  11  0.750  0.500  0.723-  20 1.95  16 2.76  16 2.76
  12  0.250  0.500  0.723-  20 1.95  16 2.76  16 2.76
  13  0.000  0.000  0.277-   4 2.76   3 2.76   2 2.76   2 2.76   3 2.76   1 2.76   1 2.76  18 3.38
                            18 3.38  17 3.38  17 3.38  17 3.38  17 3.38  14 3.91  14 3.91
  14  0.500  0.000  0.404-   1 2.76   2 2.76   3 2.76   5 2.76   6 2.76   2 2.76   3 2.76   5 2.76
                             6 2.76   4 2.76   4 2.76   7 2.76  17 3.38  17 3.38  18 3.38  18 3.38
  15  0.000  0.000  0.532-  10 2.76   9 2.76   8 2.76   8 2.76   9 2.76   7 2.76   7 2.76   6 2.76
                             5 2.76   6 2.76   5 2.76   4 2.76  20 3.38  20 3.38  19 3.38  19 3.38
  16  0.500  0.000  0.659-   7 2.76   8 2.76   9 2.76  11 2.76  12 2.76   8 2.76   9 2.76  11 2.76
                            12 2.76  10 2.76  10 2.76  19 3.38  19 3.38  20 3.38  20 3.38  20 3.38
  17  0.500  0.500  0.277-   2 1.95   3 1.95   1 1.95   1 1.95  14 3.38  14 3.38  13 3.38  13 3.38
                            13 3.38  13 3.38
  18  0.000  0.500  0.404-   2 1.95   3 1.95   5 1.95   6 1.95   4 1.95   4 1.95  13 3.38  13 3.38
                            14 3.38  14 3.38  14 3.38  14 3.38  15 3.38  15 3.38
  19  0.500  0.500  0.532-   8 1.95   9 1.95   7 1.95   7 1.95   5 1.95   6 1.95  16 3.38  16 3.38
                            15 3.38  15 3.38  15 3.38  15 3.38  14 3.38  14 3.38
  20  0.000  0.500  0.659-   8 1.95   9 1.95  11 1.95  12 1.95  10 1.95  10 1.95  15 3.38  15 3.38
                            16 3.38  16 3.38  16 3.38  16 3.38
 
  LATTYP: Found a simple orthorhombic cell.
 ALAT       =     3.9052680000
 B/A-ratio  =     1.4142135624
 C/A-ratio  =     5.5476462046
  
  Lattice vectors:
  
 A1 = (   0.0000000000,  -3.9052680000,   0.0000000000)
 A2 = (  -5.5228829703,   0.0000000000,   0.0000000000)
 A3 = (   0.0000000000,   0.0000000000, -21.6650451980)


Analysis of symmetry for initial positions (statically):
=====================================================================
 Subroutine PRICEL returns:
 Original cell was already a primitive cell.
 

 Routine SETGRP: Setting up the symmetry group for a 
 simple orthorhombic supercell.


 Subroutine GETGRP returns: Found  4 space group operations
 (whereof  4 operations were pure point group operations)
 out of a pool of  8 trial point group operations.


The static configuration has the point symmetry C_2v.


Analysis of symmetry for dynamics (positions and initial velocities):
=====================================================================
 Subroutine PRICEL returns:
 Original cell was already a primitive cell.
 

 Routine SETGRP: Setting up the symmetry group for a 
 simple orthorhombic supercell.


 Subroutine GETGRP returns: Found  4 space group operations
 (whereof  4 operations were pure point group operations)
 out of a pool of  8 trial point group operations.


The dynamic configuration has the point symmetry C_2v.


 Subroutine INISYM returns: Found  4 space group operations
 (whereof  4 operations are pure point group operations),
 and found     1 'primitive' translations

 
 
 KPOINTS: k-density: 3.0                          

Automatic generation of k-mesh.
Space group operators:
 irot       det(A)        alpha          n_x          n_y          n_z        tau_x        tau_y        tau_z
    1     1.000000     0.000000     1.000000     0.000000     0.000000     0.000000     0.000000     0.000000
    2     1.000000   179.999999     0.000000     0.000000     1.000000     0.000000     0.000000     0.000000
    3    -1.000000   180.000000     1.000000     0.000000     0.000000     0.000000     0.000000     0.000000
    4    -1.000000   180.000000     0.000000     1.000000     0.000000     0.000000     0.000000     0.000000
 
 Subroutine IBZKPT returns following result:
 ===========================================
 
 Found      9 irreducible k-points:
 
 Following reciprocal coordinates:
            Coordinates               Weight
  0.000000  0.000000  0.000000      1.000000
  0.250000  0.000000  0.000000      2.000000
  0.500000  0.000000  0.000000      1.000000
  0.000000  0.200000  0.000000      2.000000
  0.250000  0.200000  0.000000      4.000000
  0.500000  0.200000  0.000000      2.000000
  0.000000  0.400000  0.000000      2.000000
  0.250000  0.400000  0.000000      4.000000
  0.500000  0.400000  0.000000      2.000000
 
 Following cartesian coordinates:
            Coordinates               Weight
  0.000000  0.000000  0.000000      1.000000
  0.045266  0.000000  0.000000      2.000000
  0.090532  0.000000  0.000000      1.000000
  0.000000  0.051213  0.000000      2.000000
  0.045266  0.051213  0.000000      4.000000
  0.090532  0.051213  0.000000      2.000000
  0.000000  0.102426  0.000000      2.000000
  0.045266  0.102426  0.000000      4.000000
  0.090532  0.102426  0.000000      2.000000
 
 TETIRR: Found     54 inequivalent tetrahedra from      120


--------------------------------------------------------------------------------------------------------




 Dimension of arrays:
   k-points           NKPTS =      9   k-points in BZ     NKDIM =      9   number of bands    NBANDS=     76
   number of dos      NEDOS =    301   number of ions     NIONS =     20
   non local maximal  LDIM  =      6   non local SUM 2l+1 LMDIM =     18
   total plane-waves  NPLWV =  86400
   max r-space proj   IRMAX =      1   max aug-charges    IRDMAX=  12968
   dimension x,y,z NGX =    30 NGY =   24 NGZ =  120
   dimension x,y,z NGXF=    60 NGYF=   48 NGZF=  240
   support grid    NGXF=    60 NGYF=   48 NGZF=  240
   ions per type =              12   4   4
   NGX,Y,Z   is equivalent  to a cutoff of   9.03, 10.22,  9.21 a.u.
   NGXF,Y,Z  is equivalent  to a cutoff of  18.06, 20.43, 18.42 a.u.

 SYSTEM =  unknown system                          
 POSCAR =   O Sr Ti                                

 Startparameter for this run:
   NWRITE =      2    write-flag & timer
   PREC   = normal    normal or accurate (medium, high low for compatibility)
   ISTART =      0    job   : 0-new  1-cont  2-samecut
   ICHARG =      2    charge: 1-file 2-atom 10-const
   ISPIN  =      1    spin polarized calculation?
   LNONCOLLINEAR =      F non collinear calculations
   LSORBIT =      F    spin-orbit coupling
   INIWAV =      1    electr: 0-lowe 1-rand  2-diag
   LASPH  =      F    aspherical Exc in radial PAW
   METAGGA=      F    non-selfconsistent MetaGGA calc.

 Electronic Relaxation 1
   ENCUT  =  500.0 eV  36.75 Ry    6.06 a.u.  10.07  7.12 39.50*2*pi/ulx,y,z
   ENINI  =  500.0     initial cutoff
   ENAUG  =  605.4 eV  augmentation charge cutoff
   NELM   =     60;   NELMIN=  4; NELMDL= -5     # of ELM steps 
   EDIFF  = 0.1E-04   stopping-criterion for ELM
   LREAL  =      F    real-space projection
   NLSPLINE    = F    spline interpolate recip. space projectors
   LCOMPAT=      F    compatible to vasp.4.4
   GGA_COMPAT  = T    GGA compatible to vasp.4.4-vasp.4.6
   LMAXPAW     = -100 max onsite density
   LMAXMIX     =    2 max onsite mixed and CHGCAR
   VOSKOWN=      0    Vosko Wilk Nusair interpolation
   ROPT   =    0.00000   0.00000   0.00000
 Ionic relaxation
   EDIFFG = 0.1E-03   stopping-criterion for IOM
   NSW    =      0    number of steps for IOM
   NBLOCK =      1;   KBLOCK =      1    inner block; outer block 
   IBRION =     -1    ionic relax: 0-MD 1-quasi-New 2-CG
   NFREE  =      0    steps in history (QN), initial steepest desc. (CG)
   ISIF   =      2    stress and relaxation
   IWAVPR =     10    prediction:  0-non 1-charg 2-wave 3-comb
   ISYM   =      2    0-nonsym 1-usesym 2-fastsym
   LCORR  =      T    Harris-Foulkes like correction to forces

   POTIM  = 0.5000    time-step for ionic-motion
   TEIN   =    0.0    initial temperature
   TEBEG  =    0.0;   TEEND  =   0.0 temperature during run
   SMASS  =  -3.00    Nose mass-parameter (am)
   estimated Nose-frequenzy (Omega)   =  0.10E-29 period in steps =****** mass=  -0.697E-27a.u.
   SCALEE = 1.0000    scale energy and forces
   NPACO  =    256;   APACO  = 16.0  distance and # of slots for P.C.
   PSTRESS=    0.0 pullay stress

  Mass of Ions in am
   POMASS =  16.00 87.62 47.88
  Ionic Valenz
   ZVAL   =   6.00 10.00  4.00
  Atomic Wigner-Seitz radii
   RWIGS  =  -1.00 -1.00 -1.00
  virtual crystal weights 
   VCA    =   1.00  1.00  1.00
   NELECT =     128.0000    total number of electrons
   NUPDOWN=      -1.0000    fix difference up-down

 DOS related values:
   EMIN   =  10.00;   EMAX   =-10.00  energy-range for DOS
   EFERMI =   0.00
   ISMEAR =    -5;   SIGMA  =   0.20  broadening in eV -4-tet -1-fermi 0-gaus

 Electronic relaxation 2 (details)
   IALGO  =     68    algorithm
   LDIAG  =      T    sub-space diagonalisation (order eigenvalues)
   LSUBROT=      F    optimize rotation matrix (better conditioning)
   TURBO    =      0    0=normal 1=particle mesh
   IRESTART =      0    0=no restart 2=restart with 2 vectors
   NREBOOT  =      0    no. of reboots
   NMIN     =      0    reboot dimension
   EREF     =   0.00    reference energy to select bands
   IMIX   =      4    mixing-type and parameters
     AMIX     =   0.40;   BMIX     =  1.00
     AMIX_MAG =   1.60;   BMIX_MAG =  1.00
     AMIN     =   0.10
     WC   =   100.;   INIMIX=   1;  MIXPRE=   1;  MAXMIX= -45

 Intra band minimization:
   WEIMIN = 0.0000     energy-eigenvalue tresh-hold
   EBREAK =  0.33E-07  absolut break condition
   DEPER  =   0.30     relativ break condition  

   TIME   =   0.40     timestep for ELM

  volume/ion in A,a.u.               =      23.36       157.67
  Fermi-wavevector in a.u.,A,eV,Ry     =   1.063211  2.009177 15.380261  1.130417
  Thomas-Fermi vector in A             =   2.198688
 
 Write flags
   LWAVE        =      F    write WAVECAR
   LDOWNSAMPLE  =      F    k-point downsampling of WAVECAR
   LCHARG       =      T    write CHGCAR
   LVTOT        =      F    write LOCPOT, total local potential
   LVHAR        =      F    write LOCPOT, Hartree potential only
   LELF         =      F    write electronic localiz. function (ELF)
   LORBIT       =      0    0 simple, 1 ext, 2 COOP (PROOUT), +10 PAW based schemes


 Dipole corrections
   LMONO  =      F    monopole corrections only (constant potential shift)
   LDIPOL =      F    correct potential (dipole corrections)
   IDIPOL =      0    1-x, 2-y, 3-z, 4-all directions 
   EPSILON=  1.0000000 bulk dielectric constant

 Exchange correlation treatment:
   GGA     =    --    GGA type
   LEXCH   =     8    internal setting for exchange type
   VOSKOWN=      0    Vosko Wilk Nusair interpolation
   LHFCALC =     F    Hartree Fock is set to
   LHFONE  =     F    Hartree Fock one center treatment
   AEXX    =    0.0000 exact exchange contribution

 Linear response parameters
   LEPSILON=     F    determine dielectric tensor
   LRPA    =     F    only Hartree local field effects (RPA)
   LNABLA  =     F    use nabla operator in PAW spheres
   LVEL    =     F    velocity operator in full k-point grid
   LINTERFAST=   F  fast interpolation
   KINTER  =     0    interpolate to denser k-point grid
   CSHIFT  =0.1000    complex shift for real part using Kramers Kronig
   OMEGAMAX=  -1.0    maximum frequency
   DEG_THRESHOLD= 0.2000000E-02 threshold for treating states as degnerate
   RTIME   =   -0.100 relaxation time in fs
  (WPLASMAI=    0.000 imaginary part of plasma frequency in eV, 0.658/RTIME)
   DFIELD  = 0.0000000 0.0000000 0.0000000 field for delta impulse in time
 
 Orbital magnetization related:
   ORBITALMAG=     F  switch on orbital magnetization
   LCHIMAG   =     F  perturbation theory with respect to B field
   DQ        =  0.001000  dq finite difference perturbation B field
   LLRAUG    =     F  two centre corrections for induced B field



--------------------------------------------------------------------------------------------------------


 Static calculation
 charge density and potential will be updated during run
 non-spin polarized calculation
 RMM-DIIS sequential band-by-band and
  variant of blocked Davidson during initial phase
 perform sub-space diagonalisation
    before iterative eigenvector-optimisation
 modified Broyden-mixing scheme, WC =      100.0
 initial mixing is a Kerker type mixing with AMIX =  0.4000 and BMIX =      1.0000
 Hartree-type preconditioning will be used
 using additional bands           12
 reciprocal scheme for non local part
 use partial core corrections
 calculate Harris-corrections to forces 
   (improved forces if not selfconsistent)
 use gradient corrections 
 use of overlap-Matrix (Vanderbilt PP)
 Fermi weights with tetrahedron method with Bloechl corrections


--------------------------------------------------------------------------------------------------------


  energy-cutoff  :      500.00
  volume of cell :      467.28
      direct lattice vectors                 reciprocal lattice vectors
     5.522882970  0.000000000  0.000000000     0.181064854  0.000000000  0.000000000
     0.000000000  3.905268000  0.000000000     0.000000000  0.256064373  0.000000000
     0.000000000  0.000000000 21.665045198     0.000000000  0.000000000  0.046157300

  length of vectors
     5.522882970  3.905268000 21.665045198     0.181064854  0.256064373  0.046157300


 
 k-points in units of 2pi/SCALE and weight: k-density: 3.0                          
   0.00000000  0.00000000  0.00000000       0.050
   0.04526621  0.00000000  0.00000000       0.100
   0.09053243  0.00000000  0.00000000       0.050
   0.00000000  0.05121287  0.00000000       0.100
   0.04526621  0.05121287  0.00000000       0.200
   0.09053243  0.05121287  0.00000000       0.100
   0.00000000  0.10242575  0.00000000       0.100
   0.04526621  0.10242575  0.00000000       0.200
   0.09053243  0.10242575  0.00000000       0.100
 
 k-points in reciprocal lattice and weights: k-density: 3.0                          
   0.00000000  0.00000000  0.00000000       0.050
   0.25000000  0.00000000  0.00000000       0.100
   0.50000000  0.00000000  0.00000000       0.050
   0.00000000  0.20000000  0.00000000       0.100
   0.25000000  0.20000000  0.00000000       0.200
   0.50000000  0.20000000  0.00000000       0.100
   0.00000000  0.40000000  0.00000000       0.100
   0.25000000  0.40000000  0.00000000       0.200
   0.50000000  0.40000000  0.00000000       0.100
 
 position of ions in fractional coordinates (direct lattice) 
   0.50000000  0.00000000  0.27694380
   0.25000000  0.50000000  0.34067414
   0.75000000  0.50000000  0.34067414
   0.00000000  0.00000000  0.40440449
   0.75000000  0.50000000  0.46813483
   0.25000000  0.50000000  0.46813483
   0.50000000  0.00000000  0.53186517
   0.25000000  0.50000000  0.59559551
   0.75000000  0.50000000  0.59559551
   0.00000000  0.00000000  0.65932586
   0.75000000  0.50000000  0.72305620
   0.25000000  0.50000000  0.72305620
   0.00000000  0.00000000  0.27694380
   0.50000000  0.00000000  0.40440449
   0.00000000  0.00000000  0.53186517
   0.50000000  0.00000000  0.65932586
   0.50000000  0.50000000  0.27694380
   0.00000000  0.50000000  0.40440449
   0.50000000  0.50000000  0.53186517
   0.00000000  0.50000000  0.65932586
 
 position of ions in cartesian coordinates  (Angst):
   2.76144149  0.00000000  6.00000000
   1.38072074  1.95263400  7.38072074
   4.14216223  1.95263400  7.38072074
   0.00000000  0.00000000  8.76144149
   4.14216223  1.95263400 10.14216223
   1.38072074  1.95263400 10.14216223
   2.76144149  0.00000000 11.52288297
   1.38072074  1.95263400 12.90360371
   4.14216223  1.95263400 12.90360371
   0.00000000  0.00000000 14.28432446
   4.14216223  1.95263400 15.66504520
   1.38072074  1.95263400 15.66504520
   0.00000000  0.00000000  6.00000000
   2.76144149  0.00000000  8.76144149
   0.00000000  0.00000000 11.52288297
   2.76144149  0.00000000 14.28432446
   2.76144149  1.95263400  6.00000000
   0.00000000  1.95263400  8.76144149
   2.76144149  1.95263400 11.52288297
   0.00000000  1.95263400 14.28432446
 


--------------------------------------------------------------------------------------------------------


 k-point  1 :   0.0000 0.0000 0.0000  plane waves:   11857
 k-point  2 :   0.2500 0.0000 0.0000  plane waves:   11840
 k-point  3 :   0.5000 0.0000 0.0000  plane waves:   11860
 k-point  4 :   0.0000 0.2000 0.0000  plane waves:   11820
 k-point  5 :   0.2500 0.2000 0.0000  plane waves:   11865
 k-point  6 :   0.5000 0.2000 0.0000  plane waves:   11882
 k-point  7 :   0.0000 0.4000 0.0000  plane waves:   11864
 k-point  8 :   0.2500 0.4000 0.0000  plane waves:   11888
 k-point  9 :   0.5000 0.4000 0.0000  plane waves:   11910

 maximum and minimum number of plane-waves per node :      5965     5904

 maximum number of plane-waves:     11910
 maximum index in each direction: 
   IXMAX=   10   IYMAX=    7   IZMAX=   39
   IXMIN=  -10   IYMIN=   -7   IZMIN=  -39


 parallel 3D FFT for wavefunctions:
    minimum data exchange during FFTs selected (reduces bandwidth)
 parallel 3D FFT for charge:
    minimum data exchange during FFTs selected (reduces bandwidth)


 total amount of memory used by VASP MPI-rank0   108444. kBytes
=======================================================================

   base      :      30000. kBytes
   nonl-proj :      25054. kBytes
   fftplans  :       7169. kBytes
   grid      :      12862. kBytes
   one-center:        155. kBytes
   wavefun   :      33204. kBytes
 
     INWAV:  cpu time    0.0000: real time    0.0004
 Broyden mixing: mesh for mixing (old mesh)
   NGX = 21   NGY = 15   NGZ = 79
  (NGX  = 60   NGY  = 48   NGZ  =240)
  gives a total of  24885 points

 initial charge density was supplied:
 charge density of overlapping atoms calculated
 number of electron     128.0000000 magnetization 
 keeping initial charge density in first step


--------------------------------------------------------------------------------------------------------


 Maximum index for augmentation-charges         3132 (set IRDMAX)


--------------------------------------------------------------------------------------------------------


 First call to EWALD:  gamma=   0.228
 Maximum number of real-space cells 4x 5x 1
 Maximum number of reciprocal cells 2x 2x 7

    FEWALD:  cpu time    0.0020: real time    0.0019


--------------------------------------- Iteration      1(   1)  ---------------------------------------


    POTLOK:  cpu time    0.1280: real time    0.1595
    SETDIJ:  cpu time    0.0120: real time    0.0120
     EDDAV:  cpu time    5.8971: real time    5.8951
 BZINTS: Fermi energy: 13.589854;128.000000 electrons
         Band energy:  -6.399121;  BLOECHL correction: -0.081168
       DOS:  cpu time    0.0060: real time    0.0064
    --------------------------------------------
      LOOP:  cpu time    6.0431: real time    6.0730

 eigenvalue-minimisations  :  1384
 total energy-change (2. order) : 0.1594032E+04  (-0.5533737E+04)
 number of electron     128.0000000 magnetization 
 augmentation part      128.0000000 magnetization 

 Free energy of the ion-electron system (eV)
  ---------------------------------------------------
  alpha Z        PSCENC =       378.09908315
  Ewald energy   TEWEN  =     22731.27163923
  -Hartree energ DENC   =    -30966.93774878
  -exchange      EXHF   =         0.00000000
  -V(xc)+E(xc)   XCENC  =       325.41603597
  PAW double counting   =      5334.45189010    -5139.13784255
  entropy T*S    EENTRO =         0.00000000
  eigenvalues    EBANDS =        -6.39912079
  atomic energy  EATOM  =      8937.26825017
  Solvation  Ediel_sol  =         0.00000000
  ---------------------------------------------------
  free energy    TOTEN  =      1594.03218650 eV

  energy without entropy =     1594.03218650  energy(sigma->0) =     1594.03218650


--------------------------------------------------------------------------------------------------------




--------------------------------------- Iteration      1(   2)  ---------------------------------------


     EDDAV:  cpu time    6.7610: real time    6.7644
 BZINTS: Fermi energy:  3.476519;128.000000 electrons
         Band energy:***********;  BLOECHL correction: -0.085797
       DOS:  cpu time    0.0050: real time    0.0058
    --------------------------------------------
      LOOP:  cpu time    6.7660: real time    6.7702

 eigenvalue-minimisations  :  1652
 total energy-change (2. order) :-0.1408184E+04  (-0.1351929E+04)
 number of electron     128.0000000 magnetization 
 augmentation part      128.0000000 magnetization 

 Free energy of the ion-electron system (eV)
  ---------------------------------------------------
  alpha Z        PSCENC =       378.09908315
  Ewald energy   TEWEN  =     22731.27163923
  -Hartree energ DENC   =    -30966.93774878
  -exchange      EXHF   =         0.00000000
  -V(xc)+E(xc)   XCENC  =       325.41603597
  PAW double counting   =      5334.45189010    -5139.13784255
  entropy T*S    EENTRO =         0.00000000
  eigenvalues    EBANDS =     -1414.58286874
  atomic energy  EATOM  =      8937.26825017
  Solvation  Ediel_sol  =         0.00000000
  ---------------------------------------------------
  free energy    TOTEN  =       185.84843855 eV

  energy without entropy =      185.84843855  energy(sigma->0) =      185.84843855


--------------------------------------------------------------------------------------------------------




--------------------------------------- Iteration      1(   3)  ---------------------------------------


     EDDAV:  cpu time    7.5619: real time    7.5637
 BZINTS: Fermi energy: -3.024764;128.000000 electrons
         Band energy:***********;  BLOECHL correction:  0.000000
       DOS:  cpu time    0.0010: real time    0.0012
    --------------------------------------------
      LOOP:  cpu time    7.5629: real time    7.5650

 eigenvalue-minimisations  :  1900
 total energy-change (2. order) :-0.3577629E+03  (-0.3465417E+03)
 number of electron     128.0000000 magnetization 
 augmentation part      128.0000000 magnetization 

 Free energy of the ion-electron system (eV)
  ---------------------------------------------------
  alpha Z        PSCENC =       378.09908315
  Ewald energy   TEWEN  =     22731.27163923
  -Hartree energ DENC   =    -30966.93774878
  -exchange      EXHF   =         0.00000000
  -V(xc)+E(xc)   XCENC  =       325.41603597
  PAW double counting   =      5334.45189010    -5139.13784255
  entropy T*S    EENTRO =         0.00000000
  eigenvalues    EBANDS =     -1772.34573200
  atomic energy  EATOM  =      8937.26825017
  Solvation  Ediel_sol  =         0.00000000
  ---------------------------------------------------
  free energy    TOTEN  =      -171.91442471 eV

  energy without entropy =     -171.91442471  energy(sigma->0) =     -171.91442471


--------------------------------------------------------------------------------------------------------




--------------------------------------- Iteration      1(   4)  ---------------------------------------


     EDDAV:  cpu time    7.2349: real time    7.2363
 BZINTS: Fermi energy: -4.402092;128.000000 electrons
         Band energy:***********;  BLOECHL correction:  0.000000
       DOS:  cpu time    0.0010: real time    0.0012
    --------------------------------------------
      LOOP:  cpu time    7.2359: real time    7.2375

 eigenvalue-minimisations  :  1808
 total energy-change (2. order) :-0.2548800E+02  (-0.2537312E+02)
 number of electron     128.0000000 magnetization 
 augmentation part      128.0000000 magnetization 

 Free energy of the ion-electron system (eV)
  ---------------------------------------------------
  alpha Z        PSCENC =       378.09908315
  Ewald energy   TEWEN  =     22731.27163923
  -Hartree energ DENC   =    -30966.93774878
  -exchange      EXHF   =         0.00000000
  -V(xc)+E(xc)   XCENC  =       325.41603597
  PAW double counting   =      5334.45189010    -5139.13784255
  entropy T*S    EENTRO =         0.00000000
  eigenvalues    EBANDS =     -1797.83373196
  atomic energy  EATOM  =      8937.26825017
  Solvation  Ediel_sol  =         0.00000000
  ---------------------------------------------------
  free energy    TOTEN  =      -197.40242466 eV

  energy without entropy =     -197.40242466  energy(sigma->0) =     -197.40242466


--------------------------------------------------------------------------------------------------------




--------------------------------------- Iteration      1(   5)  ---------------------------------------


     EDDAV:  cpu time    9.0376: real time    9.0391
 BZINTS: Fermi energy: -4.390919;128.000000 electrons
         Band energy:***********;  BLOECHL correction:  0.000000
       DOS:  cpu time    0.0020: real time    0.0012
    CHARGE:  cpu time    0.1930: real time    0.1932
    MIXING:  cpu time    0.0030: real time    0.0033
    --------------------------------------------
      LOOP:  cpu time    9.2356: real time    9.2368

 eigenvalue-minimisations  :  2376
 total energy-change (2. order) :-0.1333272E+01  (-0.1332718E+01)
 number of electron     127.9999567 magnetization 
 augmentation part       13.6697373 magnetization 

 Broyden mixing:
  rms(total) = 0.37503E+01    rms(broyden)= 0.37498E+01
  rms(prec ) = 0.42590E+01
  weight for this iteration     100.00

 Free energy of the ion-electron system (eV)
  ---------------------------------------------------
  alpha Z        PSCENC =       378.09908315
  Ewald energy   TEWEN  =     22731.27163923
  -Hartree energ DENC   =    -30966.93774878
  -exchange      EXHF   =         0.00000000
  -V(xc)+E(xc)   XCENC  =       325.41603597
  PAW double counting   =      5334.45189010    -5139.13784255
  entropy T*S    EENTRO =         0.00000000
  eigenvalues    EBANDS =     -1799.16700416
  atomic energy  EATOM  =      8937.26825017
  Solvation  Ediel_sol  =         0.00000000
  ---------------------------------------------------
  free energy    TOTEN  =      -198.73569686 eV

  energy without entropy =     -198.73569686  energy(sigma->0) =     -198.73569686


--------------------------------------------------------------------------------------------------------




--------------------------------------- Iteration      1(   6)  ---------------------------------------


    POTLOK:  cpu time    0.1120: real time    0.1131
    SETDIJ:  cpu time    0.0120: real time    0.0113
    EDDIAG:  cpu time    0.6249: real time    0.6629
  RMM-DIIS:  cpu time    5.3482: real time    5.3467
    ORTHCH:  cpu time    0.1310: real time    0.1307
 BZINTS: Fermi energy: -0.970621;128.000000 electrons
         Band energy:***********;  BLOECHL correction: -0.105106
       DOS:  cpu time    0.0060: real time    0.0060
    CHARGE:  cpu time    0.2020: real time    0.2022
    MIXING:  cpu time    0.0040: real time    0.0039
    --------------------------------------------
      LOOP:  cpu time    6.4400: real time    6.4766

 eigenvalue-minimisations  :  1791
 total energy-change (2. order) :-0.6462408E+01  (-0.3928103E+02)
 number of electron     127.9999753 magnetization 
 augmentation part       17.2933214 magnetization 

 Broyden mixing:
  rms(total) = 0.52144E+01    rms(broyden)= 0.52135E+01
  rms(prec ) = 0.81139E+01
  weight for this iteration     100.00

 eigenvalues of (default mixing * dielectric matrix)
  average eigenvalue GAMMA=   0.4096
  0.4096

 Free energy of the ion-electron system (eV)
  ---------------------------------------------------
  alpha Z        PSCENC =       378.09908315
  Ewald energy   TEWEN  =     22731.27163923
  -Hartree energ DENC   =    -31255.50149734
  -exchange      EXHF   =         0.00000000
  -V(xc)+E(xc)   XCENC  =       345.64401199
  PAW double counting   =      5951.63548609    -5769.31748468
  entropy T*S    EENTRO =         0.00000000
  eigenvalues    EBANDS =     -1524.29759351
  atomic energy  EATOM  =      8937.26825017
  Solvation  Ediel_sol  =         0.00000000
  ---------------------------------------------------
  free energy    TOTEN  =      -205.19810490 eV

  energy without entropy =     -205.19810490  energy(sigma->0) =     -205.19810490


--------------------------------------------------------------------------------------------------------




--------------------------------------- Iteration      1(   7)  ---------------------------------------


    POTLOK:  cpu time    0.1170: real time    0.1198
    SETDIJ:  cpu time    0.0110: real time    0.0116
    EDDIAG:  cpu time    0.6509: real time    0.6496
  RMM-DIIS:  cpu time    4.7823: real time    4.7815
    ORTHCH:  cpu time    0.1300: real time    0.1299
 BZINTS: Fermi energy: -1.099328;128.000000 electrons
         Band energy:***********;  BLOECHL correction: -0.298105
       DOS:  cpu time    0.0050: real time    0.0064
    CHARGE:  cpu time    0.2060: real time    0.2043
    MIXING:  cpu time    0.0030: real time    0.0036
    --------------------------------------------
      LOOP:  cpu time    5.9051: real time    5.9067

 eigenvalue-minimisations  :  1599
 total energy-change (2. order) : 0.3271750E+02  (-0.9691008E+01)
 number of electron     127.9999682 magnetization 
 augmentation part       14.4660356 magnetization 

 Broyden mixing:
  rms(total) = 0.22409E+01    rms(broyden)= 0.22397E+01
  rms(prec ) = 0.35066E+01
  weight for this iteration     100.00

 eigenvalues of (default mixing * dielectric matrix)
  average eigenvalue GAMMA=   0.4278
  0.6246  0.2310

 Free energy of the ion-electron system (eV)
  ---------------------------------------------------
  alpha Z        PSCENC =       378.09908315
  Ewald energy   TEWEN  =     22731.27163923
  -Hartree energ DENC   =    -31269.35022827
  -exchange      EXHF   =         0.00000000
  -V(xc)+E(xc)   XCENC  =       340.67498927
  PAW double counting   =      5911.38082560    -5732.00063930
  entropy T*S    EENTRO =         0.00000000
  eigenvalues    EBANDS =     -1469.82452875
  atomic energy  EATOM  =      8937.26825017
  Solvation  Ediel_sol  =         0.00000000
  ---------------------------------------------------
  free energy    TOTEN  =      -172.48060889 eV

  energy without entropy =     -172.48060889  energy(sigma->0) =     -172.48060889


--------------------------------------------------------------------------------------------------------




--------------------------------------- Iteration      1(   8)  ---------------------------------------


    POTLOK:  cpu time    0.1180: real time    0.1217
    SETDIJ:  cpu time    0.0120: real time    0.0115
    EDDIAG:  cpu time    0.6289: real time    0.6288
  RMM-DIIS:  cpu time    4.7163: real time    4.7156
    ORTHCH:  cpu time    0.1250: real time    0.1242
 BZINTS: Fermi energy: -1.935215;128.000000 electrons
         Band energy:***********;  BLOECHL correction:  0.000000
       DOS:  cpu time    0.0000: real time    0.0010
    CHARGE:  cpu time    0.1900: real time    0.1899
    MIXING:  cpu time    0.0040: real time    0.0036
    --------------------------------------------
      LOOP:  cpu time    5.7941: real time    5.7964

 eigenvalue-minimisations  :  1574
 total energy-change (2. order) : 0.1176990E+02  (-0.2460351E+01)
 number of electron     127.9999650 magnetization 
 augmentation part       12.9775008 magnetization 

 Broyden mixing:
  rms(total) = 0.15548E+01    rms(broyden)= 0.15545E+01
  rms(prec ) = 0.20399E+01
  weight for this iteration     100.00

 eigenvalues of (default mixing * dielectric matrix)
  average eigenvalue GAMMA=   0.4404
  0.7495  0.2858  0.2858

 Free energy of the ion-electron system (eV)
  ---------------------------------------------------
  alpha Z        PSCENC =       378.09908315
  Ewald energy   TEWEN  =     22731.27163923
  -Hartree energ DENC   =    -31259.16436406
  -exchange      EXHF   =         0.00000000
  -V(xc)+E(xc)   XCENC  =       338.26662694
  PAW double counting   =      5933.22557841    -5757.09240475
  entropy T*S    EENTRO =         0.00000000
  eigenvalues    EBANDS =     -1462.58511456
  atomic energy  EATOM  =      8937.26825017
  Solvation  Ediel_sol  =         0.00000000
  ---------------------------------------------------
  free energy    TOTEN  =      -160.71070546 eV

  energy without entropy =     -160.71070546  energy(sigma->0) =     -160.71070546


--------------------------------------------------------------------------------------------------------




--------------------------------------- Iteration      1(   9)  ---------------------------------------


    POTLOK:  cpu time    0.1030: real time    0.1068
    SETDIJ:  cpu time    0.0110: real time    0.0117
    EDDIAG:  cpu time    0.6159: real time    0.6149
  RMM-DIIS:  cpu time    5.2692: real time    5.2687
    ORTHCH:  cpu time    0.1320: real time    0.1310
 BZINTS: Fermi energy: -1.760608;128.000000 electrons
         Band energy:***********;  BLOECHL correction:  0.000000
       DOS:  cpu time    0.0000: real time    0.0011
    CHARGE:  cpu time    0.2010: real time    0.2013
    MIXING:  cpu time    0.0050: real time    0.0045
    --------------------------------------------
      LOOP:  cpu time    6.3370: real time    6.3400

 eigenvalue-minimisations  :  1751
 total energy-change (2. order) : 0.4605241E+01  (-0.2128688E+00)
 number of electron     127.9999652 magnetization 
 augmentation part       13.0823980 magnetization 

 Broyden mixing:
  rms(total) = 0.12831E+01    rms(broyden)= 0.12830E+01
  rms(prec ) = 0.17832E+01
  weight for this iteration     100.00

 eigenvalues of (default mixing * dielectric matrix)
  average eigenvalue GAMMA=   0.9064
  1.8736  1.0104  0.2561  0.4855

 Free energy of the ion-electron system (eV)
  ---------------------------------------------------
  alpha Z        PSCENC =       378.09908315
  Ewald energy   TEWEN  =     22731.27163923
  -Hartree energ DENC   =    -31284.59926979
  -exchange      EXHF   =         0.00000000
  -V(xc)+E(xc)   XCENC  =       339.28482312
  PAW double counting   =      5991.87166110    -5817.20904044
  entropy T*S    EENTRO =         0.00000000
  eigenvalues    EBANDS =     -1432.09261055
  atomic energy  EATOM  =      8937.26825017
  Solvation  Ediel_sol  =         0.00000000
  ---------------------------------------------------
  free energy    TOTEN  =      -156.10546400 eV

  energy without entropy =     -156.10546400  energy(sigma->0) =     -156.10546400


--------------------------------------------------------------------------------------------------------




--------------------------------------- Iteration      1(  10)  ---------------------------------------


    POTLOK:  cpu time    0.1190: real time    0.1192
    SETDIJ:  cpu time    0.0120: real time    0.0115
    EDDIAG:  cpu time    0.6529: real time    0.6533
  RMM-DIIS:  cpu time    4.8553: real time    4.8544
    ORTHCH:  cpu time    0.1300: real time    0.1299
 BZINTS: Fermi energy: -0.670313;128.000000 electrons
         Band energy:***********;  BLOECHL correction: -0.119353
       DOS:  cpu time    0.0060: real time    0.0064
    CHARGE:  cpu time    0.2070: real time    0.2068
    MIXING:  cpu time    0.0050: real time    0.0042
    --------------------------------------------
      LOOP:  cpu time    5.9871: real time    5.9856

 eigenvalue-minimisations  :  1620
 total energy-change (2. order) :-0.1685413E+01  (-0.4207063E+01)
 number of electron     127.9999724 magnetization 
 augmentation part       15.3416423 magnetization 

 Broyden mixing:
  rms(total) = 0.31561E+01    rms(broyden)= 0.31554E+01
  rms(prec ) = 0.44411E+01
  weight for this iteration     100.00

 eigenvalues of (default mixing * dielectric matrix)
  average eigenvalue GAMMA=   0.7256
  1.8754  1.0098  0.4851  0.2561  0.0018

 Free energy of the ion-electron system (eV)
  ---------------------------------------------------
  alpha Z        PSCENC =       378.09908315
  Ewald energy   TEWEN  =     22731.27163923
  -Hartree energ DENC   =    -31352.89069185
  -exchange      EXHF   =         0.00000000
  -V(xc)+E(xc)   XCENC  =       342.57861585
  PAW double counting   =      6163.58665442    -5992.76515117
  entropy T*S    EENTRO =         0.00000000
  eigenvalues    EBANDS =     -1364.93927635
  atomic energy  EATOM  =      8937.26825017
  Solvation  Ediel_sol  =         0.00000000
  ---------------------------------------------------
  free energy    TOTEN  =      -157.79087656 eV

  energy without entropy =     -157.79087656  energy(sigma->0) =     -157.79087656


--------------------------------------------------------------------------------------------------------




--------------------------------------- Iteration      1(  11)  ---------------------------------------


    POTLOK:  cpu time    0.1190: real time    0.1205
    SETDIJ:  cpu time    0.0110: real time    0.0115
    EDDIAG:  cpu time    0.6499: real time    0.6496
  RMM-DIIS:  cpu time    6.1181: real time    6.1165
    ORTHCH:  cpu time    0.1260: real time    0.1257
 BZINTS: Fermi energy: -0.597768;128.000000 electrons
         Band energy:***********;  BLOECHL correction: -0.077850
       DOS:  cpu time    0.0050: real time    0.0063
    CHARGE:  cpu time    0.2040: real time    0.2032
    MIXING:  cpu time    0.0040: real time    0.0044
    --------------------------------------------
      LOOP:  cpu time    7.2369: real time    7.2376

 eigenvalue-minimisations  :  2075
 total energy-change (2. order) : 0.1947165E+01  (-0.3186914E+00)
 number of electron     127.9999723 magnetization 
 augmentation part       15.2104035 magnetization 

 Broyden mixing:
  rms(total) = 0.28936E+01    rms(broyden)= 0.28935E+01
  rms(prec ) = 0.39584E+01
  weight for this iteration     100.00

 eigenvalues of (default mixing * dielectric matrix)
  average eigenvalue GAMMA=   0.6522
  1.9524  0.9863  0.4886  0.2571  0.1402  0.0889

 Free energy of the ion-electron system (eV)
  ---------------------------------------------------
  alpha Z        PSCENC =       378.09908315
  Ewald energy   TEWEN  =     22731.27163923
  -Hartree energ DENC   =    -31349.71905690
  -exchange      EXHF   =         0.00000000
  -V(xc)+E(xc)   XCENC  =       342.48292611
  PAW double counting   =      6162.33816885    -5991.56918384
  entropy T*S    EENTRO =         0.00000000
  eigenvalues    EBANDS =     -1366.01553882
  atomic energy  EATOM  =      8937.26825017
  Solvation  Ediel_sol  =         0.00000000
  ---------------------------------------------------
  free energy    TOTEN  =      -155.84371205 eV

  energy without entropy =     -155.84371205  energy(sigma->0) =     -155.84371205


--------------------------------------------------------------------------------------------------------




--------------------------------------- Iteration      1(  12)  ---------------------------------------


    POTLOK:  cpu time    0.1190: real time    0.1200
    SETDIJ:  cpu time    0.0130: real time    0.0118
    EDDIAG:  cpu time    0.6499: real time    0.6503
  RMM-DIIS:  cpu time    6.5560: real time    6.5546
    ORTHCH:  cpu time    0.1300: real time    0.1299
 BZINTS: Fermi energy: -0.598218;128.000000 electrons
         Band energy:***********;  BLOECHL correction: -0.086157
       DOS:  cpu time    0.0060: real time    0.0060
    CHARGE:  cpu time    0.2060: real time    0.2062
    MIXING:  cpu time    0.0050: real time    0.0046
    --------------------------------------------
      LOOP:  cpu time    7.6848: real time    7.6835

 eigenvalue-minimisations  :  2173
 total energy-change (2. order) :-0.1050457E+01  (-0.8771456E-01)
 number of electron     127.9999726 magnetization 
 augmentation part       15.3562370 magnetization 

 Broyden mixing:
  rms(total) = 0.30434E+01    rms(broyden)= 0.30434E+01
  rms(prec ) = 0.40844E+01
  weight for this iteration     100.00

 eigenvalues of (default mixing * dielectric matrix)
  average eigenvalue GAMMA=   0.6100
  1.9415  1.0024  0.4949  0.2579  0.2188  0.2188  0.1353

 Free energy of the ion-electron system (eV)
  ---------------------------------------------------
  alpha Z        PSCENC =       378.09908315
  Ewald energy   TEWEN  =     22731.27163923
  -Hartree energ DENC   =    -31355.81874130
  -exchange      EXHF   =         0.00000000
  -V(xc)+E(xc)   XCENC  =       342.74727740
  PAW double counting   =      6168.82017180    -5998.14830284
  entropy T*S    EENTRO =         0.00000000
  eigenvalues    EBANDS =     -1361.13354640
  atomic energy  EATOM  =      8937.26825017
  Solvation  Ediel_sol  =         0.00000000
  ---------------------------------------------------
  free energy    TOTEN  =      -156.89416879 eV

  energy without entropy =     -156.89416879  energy(sigma->0) =     -156.89416879


--------------------------------------------------------------------------------------------------------




--------------------------------------- Iteration      1(  13)  ---------------------------------------


    POTLOK:  cpu time    0.1180: real time    0.1226
    SETDIJ:  cpu time    0.0120: real time    0.0117
    EDDIAG:  cpu time    0.6039: real time    0.6039
  RMM-DIIS:  cpu time    5.9031: real time    5.9016
    ORTHCH:  cpu time    0.1300: real time    0.1305
 BZINTS: Fermi energy: -0.594868;128.000000 electrons
         Band energy:***********;  BLOECHL correction: -0.102142
       DOS:  cpu time    0.0060: real time    0.0063
    CHARGE:  cpu time    0.2050: real time    0.2055
    MIXING:  cpu time    0.0060: real time    0.0048
    --------------------------------------------
      LOOP:  cpu time    6.9839: real time    6.9868

 eigenvalue-minimisations  :  1984
 total energy-change (2. order) : 0.1005667E+01  (-0.1931078E-01)
 number of electron     127.9999725 magnetization 
 augmentation part       15.2383633 magnetization 

 Broyden mixing:
  rms(total) = 0.28863E+01    rms(broyden)= 0.28863E+01
  rms(prec ) = 0.38078E+01
  weight for this iteration     100.00

 eigenvalues of (default mixing * dielectric matrix)
  average eigenvalue GAMMA=   0.6357
  2.0697  0.9496  0.4728  0.4728  0.4990  0.2572  0.1823  0.1823

 Free energy of the ion-electron system (eV)
  ---------------------------------------------------
  alpha Z        PSCENC =       378.09908315
  Ewald energy   TEWEN  =     22731.27163923
  -Hartree energ DENC   =    -31344.70295205
  -exchange      EXHF   =         0.00000000
  -V(xc)+E(xc)   XCENC  =       342.50734233
  PAW double counting   =      6161.45410530    -5990.60765153
  entropy T*S    EENTRO =         0.00000000
  eigenvalues    EBANDS =     -1371.17831790
  atomic energy  EATOM  =      8937.26825017
  Solvation  Ediel_sol  =         0.00000000
  ---------------------------------------------------
  free energy    TOTEN  =      -155.88850130 eV

  energy without entropy =     -155.88850130  energy(sigma->0) =     -155.88850130


--------------------------------------------------------------------------------------------------------




--------------------------------------- Iteration      1(  14)  ---------------------------------------


    POTLOK:  cpu time    0.1190: real time    0.1219
    SETDIJ:  cpu time    0.0120: real time    0.0116
    EDDIAG:  cpu time    0.6489: real time    0.6481
  RMM-DIIS:  cpu time    5.2132: real time    5.2117
    ORTHCH:  cpu time    0.1260: real time    0.1259
 BZINTS: Fermi energy: -0.756600;128.000000 electrons
         Band energy:***********;  BLOECHL correction: -0.104181
       DOS:  cpu time    0.0060: real time    0.0062
    CHARGE:  cpu time    0.1990: real time    0.1998
    MIXING:  cpu time    0.0060: real time    0.0054
    --------------------------------------------
      LOOP:  cpu time    6.3300: real time    6.3306

 eigenvalue-minimisations  :  1738
 total energy-change (2. order) :-0.1131006E+01  (-0.6893763E-01)
 number of electron     127.9999725 magnetization 
 augmentation part       15.7283705 magnetization 

 Broyden mixing:
  rms(total) = 0.32776E+01    rms(broyden)= 0.32775E+01
  rms(prec ) = 0.45216E+01
  weight for this iteration     100.00

 eigenvalues of (default mixing * dielectric matrix)
  average eigenvalue GAMMA=   0.6682
  1.9819  0.8262  0.8262  0.9483  0.5069  0.2552  0.2572  0.2572  0.1551

 Free energy of the ion-electron system (eV)
  ---------------------------------------------------
  alpha Z        PSCENC =       378.09908315
  Ewald energy   TEWEN  =     22731.27163923
  -Hartree energ DENC   =    -31338.15310702
  -exchange      EXHF   =         0.00000000
  -V(xc)+E(xc)   XCENC  =       342.44548435
  PAW double counting   =      6169.35014040    -5998.59133576
  entropy T*S    EENTRO =         0.00000000
  eigenvalues    EBANDS =     -1378.70966133
  atomic energy  EATOM  =      8937.26825017
  Solvation  Ediel_sol  =         0.00000000
  ---------------------------------------------------
  free energy    TOTEN  =      -157.01950681 eV

  energy without entropy =     -157.01950681  energy(sigma->0) =     -157.01950681


--------------------------------------------------------------------------------------------------------




--------------------------------------- Iteration      1(  15)  ---------------------------------------


    POTLOK:  cpu time    0.1150: real time    0.1158
    SETDIJ:  cpu time    0.0110: real time    0.0118
    EDDIAG:  cpu time    0.6539: real time    0.6580
  RMM-DIIS:  cpu time    4.7003: real time    4.6994
    ORTHCH:  cpu time    0.1300: real time    0.1297
 BZINTS: Fermi energy: -0.800662;128.000000 electrons
         Band energy:***********;  BLOECHL correction: -0.046496
       DOS:  cpu time    0.0060: real time    0.0063
    CHARGE:  cpu time    0.2080: real time    0.2079
    MIXING:  cpu time    0.0050: real time    0.0052
    --------------------------------------------
      LOOP:  cpu time    5.8291: real time    5.8342

 eigenvalue-minimisations  :  1569
 total energy-change (2. order) : 0.6579883E+01  (-0.5295106E+00)
 number of electron     127.9999702 magnetization 
 augmentation part       14.2958184 magnetization 

 Broyden mixing:
  rms(total) = 0.13638E+01    rms(broyden)= 0.13632E+01
  rms(prec ) = 0.16948E+01
  weight for this iteration     100.00

 eigenvalues of (default mixing * dielectric matrix)
  average eigenvalue GAMMA=   0.6354
  1.9924  0.8826  0.8826  0.9568  0.4948  0.2572  0.2924  0.2924  0.1664  0.1359

 Free energy of the ion-electron system (eV)
  ---------------------------------------------------
  alpha Z        PSCENC =       378.09908315
  Ewald energy   TEWEN  =     22731.27163923
  -Hartree energ DENC   =    -31277.97555844
  -exchange      EXHF   =         0.00000000
  -V(xc)+E(xc)   XCENC  =       340.86873581
  PAW double counting   =      6140.45704185    -5969.14050532
  entropy T*S    EENTRO =         0.00000000
  eigenvalues    EBANDS =     -1431.28831050
  atomic energy  EATOM  =      8937.26825017
  Solvation  Ediel_sol  =         0.00000000
  ---------------------------------------------------
  free energy    TOTEN  =      -150.43962404 eV

  energy without entropy =     -150.43962404  energy(sigma->0) =     -150.43962404


--------------------------------------------------------------------------------------------------------




--------------------------------------- Iteration      1(  16)  ---------------------------------------


    POTLOK:  cpu time    0.1200: real time    0.1220
    SETDIJ:  cpu time    0.0120: real time    0.0115
    EDDIAG:  cpu time    0.6479: real time    0.6477
  RMM-DIIS:  cpu time    5.1432: real time    5.1431
    ORTHCH:  cpu time    0.1310: real time    0.1302
 BZINTS: Fermi energy: -0.847510;128.000000 electrons
         Band energy:***********;  BLOECHL correction: -0.038789
       DOS:  cpu time    0.0060: real time    0.0064
    CHARGE:  cpu time    0.2040: real time    0.2044
    MIXING:  cpu time    0.0060: real time    0.0058
    --------------------------------------------
      LOOP:  cpu time    6.2700: real time    6.2710

 eigenvalue-minimisations  :  1717
 total energy-change (2. order) : 0.9304257E+00  (-0.2851012E+00)
 number of electron     127.9999692 magnetization 
 augmentation part       13.9155210 magnetization 

 Broyden mixing:
  rms(total) = 0.81655E+00    rms(broyden)= 0.81630E+00
  rms(prec ) = 0.98515E+00
  weight for this iteration     100.00

 eigenvalues of (default mixing * dielectric matrix)
  average eigenvalue GAMMA=   0.6322
  1.9944  0.8824  0.8824  0.9635  0.5100  0.3979  0.3979  0.2515  0.2605  0.2605
  0.1533

 Free energy of the ion-electron system (eV)
  ---------------------------------------------------
  alpha Z        PSCENC =       378.09908315
  Ewald energy   TEWEN  =     22731.27163923
  -Hartree energ DENC   =    -31264.78055051
  -exchange      EXHF   =         0.00000000
  -V(xc)+E(xc)   XCENC  =       340.29903175
  PAW double counting   =      6134.70343492    -5963.30661737
  entropy T*S    EENTRO =         0.00000000
  eigenvalues    EBANDS =     -1443.06346970
  atomic energy  EATOM  =      8937.26825017
  Solvation  Ediel_sol  =         0.00000000
  ---------------------------------------------------
  free energy    TOTEN  =      -149.50919836 eV

  energy without entropy =     -149.50919836  energy(sigma->0) =     -149.50919836


--------------------------------------------------------------------------------------------------------




--------------------------------------- Iteration      1(  17)  ---------------------------------------


    POTLOK:  cpu time    0.1200: real time    0.1224
    SETDIJ:  cpu time    0.0120: real time    0.0116
    EDDIAG:  cpu time    0.6139: real time    0.6138
  RMM-DIIS:  cpu time    5.4882: real time    5.4869
    ORTHCH:  cpu time    0.1300: real time    0.1300
 BZINTS: Fermi energy: -0.822329;128.000000 electrons
         Band energy:***********;  BLOECHL correction: -0.047512
       DOS:  cpu time    0.0060: real time    0.0064
    CHARGE:  cpu time    0.2060: real time    0.2056
    MIXING:  cpu time    0.0060: real time    0.0060
    --------------------------------------------
      LOOP:  cpu time    6.5820: real time    6.5826

 eigenvalue-minimisations  :  1842
 total energy-change (2. order) : 0.3223896E-01  (-0.2906487E-01)
 number of electron     127.9999693 magnetization 
 augmentation part       13.9684652 magnetization 

 Broyden mixing:
  rms(total) = 0.86031E+00    rms(broyden)= 0.86029E+00
  rms(prec ) = 0.11231E+01
  weight for this iteration     100.00

 eigenvalues of (default mixing * dielectric matrix)
  average eigenvalue GAMMA=   0.7079
  2.0847  1.1158  1.1158  0.8838  0.6996  0.6996  0.4234  0.3966  0.3966  0.2888
  0.2372  0.1527

 Free energy of the ion-electron system (eV)
  ---------------------------------------------------
  alpha Z        PSCENC =       378.09908315
  Ewald energy   TEWEN  =     22731.27163923
  -Hartree energ DENC   =    -31271.71971359
  -exchange      EXHF   =         0.00000000
  -V(xc)+E(xc)   XCENC  =       340.41665475
  PAW double counting   =      6139.88604872    -5968.64250334
  entropy T*S    EENTRO =         0.00000000
  eigenvalues    EBANDS =     -1436.05641851
  atomic energy  EATOM  =      8937.26825017
  Solvation  Ediel_sol  =         0.00000000
  ---------------------------------------------------
  free energy    TOTEN  =      -149.47695941 eV

  energy without entropy =     -149.47695941  energy(sigma->0) =     -149.47695941


--------------------------------------------------------------------------------------------------------




--------------------------------------- Iteration      1(  18)  ---------------------------------------


    POTLOK:  cpu time    0.1220: real time    0.1241
    SETDIJ:  cpu time    0.0110: real time    0.0115
    EDDIAG:  cpu time    0.6499: real time    0.6501
  RMM-DIIS:  cpu time    4.8553: real time    4.8548
    ORTHCH:  cpu time    0.1300: real time    0.1294
 BZINTS: Fermi energy: -0.818928;128.000000 electrons
         Band energy:***********;  BLOECHL correction: -0.031327
       DOS:  cpu time    0.0060: real time    0.0062
    CHARGE:  cpu time    0.2020: real time    0.2025
    MIXING:  cpu time    0.0070: real time    0.0060
    --------------------------------------------
      LOOP:  cpu time    5.9831: real time    5.9847

 eigenvalue-minimisations  :  1619
 total energy-change (2. order) : 0.6129167E+00  (-0.1038514E+00)
 number of electron     127.9999684 magnetization 
 augmentation part       13.5784756 magnetization 

 Broyden mixing:
  rms(total) = 0.39219E+00    rms(broyden)= 0.39184E+00
  rms(prec ) = 0.43718E+00
  weight for this iteration     100.00

 eigenvalues of (default mixing * dielectric matrix)
  average eigenvalue GAMMA=   0.7058
  2.1215  1.2969  1.2969  0.8985  0.7119  0.7119  0.4831  0.3649  0.3649  0.2463
  0.2626  0.2626  0.1528

 Free energy of the ion-electron system (eV)
  ---------------------------------------------------
  alpha Z        PSCENC =       378.09908315
  Ewald energy   TEWEN  =     22731.27163923
  -Hartree energ DENC   =    -31273.50889053
  -exchange      EXHF   =         0.00000000
  -V(xc)+E(xc)   XCENC  =       340.23177381
  PAW double counting   =      6151.13189005    -5980.19254331
  entropy T*S    EENTRO =         0.00000000
  eigenvalues    EBANDS =     -1433.16524528
  atomic energy  EATOM  =      8937.26825017
  Solvation  Ediel_sol  =         0.00000000
  ---------------------------------------------------
  free energy    TOTEN  =      -148.86404271 eV

  energy without entropy =     -148.86404271  energy(sigma->0) =     -148.86404271


--------------------------------------------------------------------------------------------------------




--------------------------------------- Iteration      1(  19)  ---------------------------------------


    POTLOK:  cpu time    0.1210: real time    0.1235
    SETDIJ:  cpu time    0.0120: real time    0.0116
    EDDIAG:  cpu time    0.6429: real time    0.6433
  RMM-DIIS:  cpu time    4.7123: real time    4.7107
    ORTHCH:  cpu time    0.1250: real time    0.1256
 BZINTS: Fermi energy: -0.758221;128.000000 electrons
         Band energy:***********;  BLOECHL correction: -0.037741
       DOS:  cpu time    0.0060: real time    0.0059
    CHARGE:  cpu time    0.1990: real time    0.1992
    MIXING:  cpu time    0.0070: real time    0.0070
    --------------------------------------------
      LOOP:  cpu time    5.8251: real time    5.8268

 eigenvalue-minimisations  :  1582
 total energy-change (2. order) :-0.1155647E+00  (-0.2894733E-01)
 number of electron     127.9999692 magnetization 
 augmentation part       13.7463577 magnetization 

 Broyden mixing:
  rms(total) = 0.57351E+00    rms(broyden)= 0.57327E+00
  rms(prec ) = 0.75892E+00
  weight for this iteration     100.00

 eigenvalues of (default mixing * dielectric matrix)
  average eigenvalue GAMMA=   0.6941
  2.1355  1.3514  1.3514  0.9425  0.7365  0.7365  0.4785  0.3723  0.3723  0.2910
  0.2910  0.2715  0.2350  0.1528

 Free energy of the ion-electron system (eV)
  ---------------------------------------------------
  alpha Z        PSCENC =       378.09908315
  Ewald energy   TEWEN  =     22731.27163923
  -Hartree energ DENC   =    -31291.52860479
  -exchange      EXHF   =         0.00000000
  -V(xc)+E(xc)   XCENC  =       340.69984202
  PAW double counting   =      6163.83609941    -5993.18224336
  entropy T*S    EENTRO =         0.00000000
  eigenvalues    EBANDS =     -1415.44367320
  atomic energy  EATOM  =      8937.26825017
  Solvation  Ediel_sol  =         0.00000000
  ---------------------------------------------------
  free energy    TOTEN  =      -148.97960737 eV

  energy without entropy =     -148.97960737  energy(sigma->0) =     -148.97960737


--------------------------------------------------------------------------------------------------------




--------------------------------------- Iteration      1(  20)  ---------------------------------------


    POTLOK:  cpu time    0.1210: real time    0.1211
    SETDIJ:  cpu time    0.0120: real time    0.0117
    EDDIAG:  cpu time    0.6459: real time    0.6463
  RMM-DIIS:  cpu time    5.4482: real time    5.4466
    ORTHCH:  cpu time    0.1300: real time    0.1303
 BZINTS: Fermi energy: -0.759775;128.000000 electrons
         Band energy:***********;  BLOECHL correction: -0.036234
       DOS:  cpu time    0.0060: real time    0.0063
    CHARGE:  cpu time    0.2040: real time    0.2036
    MIXING:  cpu time    0.0070: real time    0.0066
    --------------------------------------------
      LOOP:  cpu time    6.5740: real time    6.5726

 eigenvalue-minimisations  :  1824
 total energy-change (2. order) : 0.7414922E-01  (-0.4158393E-02)
 number of electron     127.9999691 magnetization 
 augmentation part       13.7140696 magnetization 

 Broyden mixing:
  rms(total) = 0.49083E+00    rms(broyden)= 0.49083E+00
  rms(prec ) = 0.62410E+00
  weight for this iteration     100.00

 eigenvalues of (default mixing * dielectric matrix)
  average eigenvalue GAMMA=   0.7756
  2.2290  1.4689  1.4689  0.9507  0.9507  0.8813  0.8813  0.5620  0.4734  0.4734
  0.3036  0.3036  0.2948  0.2397  0.1528

 Free energy of the ion-electron system (eV)
  ---------------------------------------------------
  alpha Z        PSCENC =       378.09908315
  Ewald energy   TEWEN  =     22731.27163923
  -Hartree energ DENC   =    -31291.21050234
  -exchange      EXHF   =         0.00000000
  -V(xc)+E(xc)   XCENC  =       340.67374682
  PAW double counting   =      6163.84473119    -5993.17854844
  entropy T*S    EENTRO =         0.00000000
  eigenvalues    EBANDS =     -1415.67385793
  atomic energy  EATOM  =      8937.26825017
  Solvation  Ediel_sol  =         0.00000000
  ---------------------------------------------------
  free energy    TOTEN  =      -148.90545815 eV

  energy without entropy =     -148.90545815  energy(sigma->0) =     -148.90545815


--------------------------------------------------------------------------------------------------------




--------------------------------------- Iteration      1(  21)  ---------------------------------------


    POTLOK:  cpu time    0.1230: real time    0.1280
    SETDIJ:  cpu time    0.0120: real time    0.0116
    EDDIAG:  cpu time    0.6419: real time    0.6418
  RMM-DIIS:  cpu time    4.9023: real time    4.9012
    ORTHCH:  cpu time    0.1280: real time    0.1283
 BZINTS: Fermi energy: -0.834219;128.000000 electrons
         Band energy:***********;  BLOECHL correction: -0.066790
       DOS:  cpu time    0.0060: real time    0.0065
    CHARGE:  cpu time    0.2090: real time    0.2086
    MIXING:  cpu time    0.0070: real time    0.0068
    --------------------------------------------
      LOOP:  cpu time    6.0291: real time    6.0329

 eigenvalue-minimisations  :  1637
 total energy-change (2. order) : 0.8741845E-01  (-0.2388290E-01)
 number of electron     127.9999684 magnetization 
 augmentation part       13.8500199 magnetization 

 Broyden mixing:
  rms(total) = 0.30960E+00    rms(broyden)= 0.30946E+00
  rms(prec ) = 0.36442E+00
  weight for this iteration     100.00

 eigenvalues of (default mixing * dielectric matrix)
  average eigenvalue GAMMA=   0.7550
  2.2390  1.2590  1.2590  1.2660  0.9552  0.9552  0.6931  0.6931  0.5308  0.4682
  0.4682  0.3038  0.3038  0.2935  0.2396  0.1528

 Free energy of the ion-electron system (eV)
  ---------------------------------------------------
  alpha Z        PSCENC =       378.09908315
  Ewald energy   TEWEN  =     22731.27163923
  -Hartree energ DENC   =    -31279.96346275
  -exchange      EXHF   =         0.00000000
  -V(xc)+E(xc)   XCENC  =       340.36245320
  PAW double counting   =      6159.60599272    -5988.83627077
  entropy T*S    EENTRO =         0.00000000
  eigenvalues    EBANDS =     -1426.62572466
  atomic energy  EATOM  =      8937.26825017
  Solvation  Ediel_sol  =         0.00000000
  ---------------------------------------------------
  free energy    TOTEN  =      -148.81803970 eV

  energy without entropy =     -148.81803970  energy(sigma->0) =     -148.81803970


--------------------------------------------------------------------------------------------------------




--------------------------------------- Iteration      1(  22)  ---------------------------------------


    POTLOK:  cpu time    0.1250: real time    0.1249
    SETDIJ:  cpu time    0.0110: real time    0.0114
    EDDIAG:  cpu time    0.6459: real time    0.6545
  RMM-DIIS:  cpu time    4.7303: real time    4.7292
    ORTHCH:  cpu time    0.1310: real time    0.1304
 BZINTS: Fermi energy: -0.836669;128.000000 electrons
         Band energy:***********;  BLOECHL correction: -0.038209
       DOS:  cpu time    0.0050: real time    0.0064
    CHARGE:  cpu time    0.2050: real time    0.2049
    MIXING:  cpu time    0.0100: real time    0.0088
    --------------------------------------------
      LOOP:  cpu time    5.8631: real time    5.8705

 eigenvalue-minimisations  :  1576
 total energy-change (2. order) : 0.9660778E-01  (-0.3171120E-01)
 number of electron     127.9999678 magnetization 
 augmentation part       13.6120171 magnetization 

 Broyden mixing:
  rms(total) = 0.19989E+00    rms(broyden)= 0.19975E+00
  rms(prec ) = 0.21749E+00
  weight for this iteration     100.00

 eigenvalues of (default mixing * dielectric matrix)
  average eigenvalue GAMMA=   0.7210
  2.1221  1.2739  1.2739  1.2437  0.8729  0.8729  0.7069  0.7069  0.5716  0.4727
  0.4727  0.1528  0.2397  0.3413  0.3413  0.2957  0.2957

 Free energy of the ion-electron system (eV)
  ---------------------------------------------------
  alpha Z        PSCENC =       378.09908315
  Ewald energy   TEWEN  =     22731.27163923
  -Hartree energ DENC   =    -31281.58119512
  -exchange      EXHF   =         0.00000000
  -V(xc)+E(xc)   XCENC  =       340.16695791
  PAW double counting   =      6162.00807098    -5991.38630742
  entropy T*S    EENTRO =         0.00000000
  eigenvalues    EBANDS =     -1424.56793082
  atomic energy  EATOM  =      8937.26825017
  Solvation  Ediel_sol  =         0.00000000
  ---------------------------------------------------
  free energy    TOTEN  =      -148.72143192 eV

  energy without entropy =     -148.72143192  energy(sigma->0) =     -148.72143192


--------------------------------------------------------------------------------------------------------




--------------------------------------- Iteration      1(  23)  ---------------------------------------


    POTLOK:  cpu time    0.1220: real time    0.1249
    SETDIJ:  cpu time    0.0120: real time    0.0115
    EDDIAG:  cpu time    0.6479: real time    0.6472
  RMM-DIIS:  cpu time    5.3972: real time    5.3968
    ORTHCH:  cpu time    0.1290: real time    0.1289
 BZINTS: Fermi energy: -0.835151;128.000000 electrons
         Band energy:***********;  BLOECHL correction: -0.036701
       DOS:  cpu time    0.0070: real time    0.0062
    CHARGE:  cpu time    0.2030: real time    0.2030
    MIXING:  cpu time    0.0070: real time    0.0076
    --------------------------------------------
      LOOP:  cpu time    6.5250: real time    6.5262

 eigenvalue-minimisations  :  1826
 total energy-change (2. order) : 0.1660589E-01  (-0.6805729E-02)
 number of electron     127.9999679 magnetization 
 augmentation part       13.6070862 magnetization 

 Broyden mixing:
  rms(total) = 0.11611E+00    rms(broyden)= 0.11606E+00
  rms(prec ) = 0.12487E+00
  weight for this iteration     100.00

 eigenvalues of (default mixing * dielectric matrix)
  average eigenvalue GAMMA=   0.7109
  2.1312  1.3121  1.3121  1.1160  0.9158  0.9158  0.7662  0.7662  0.5522  0.4765
  0.4765  0.3802  0.3802  0.1528  0.3033  0.3033  0.2953  0.2396

 Free energy of the ion-electron system (eV)
  ---------------------------------------------------
  alpha Z        PSCENC =       378.09908315
  Ewald energy   TEWEN  =     22731.27163923
  -Hartree energ DENC   =    -31279.16599221
  -exchange      EXHF   =         0.00000000
  -V(xc)+E(xc)   XCENC  =       340.12299038
  PAW double counting   =      6160.14297141    -5989.48094152
  entropy T*S    EENTRO =         0.00000000
  eigenvalues    EBANDS =     -1426.96282665
  atomic energy  EATOM  =      8937.26825017
  Solvation  Ediel_sol  =         0.00000000
  ---------------------------------------------------
  free energy    TOTEN  =      -148.70482603 eV

  energy without entropy =     -148.70482603  energy(sigma->0) =     -148.70482603


--------------------------------------------------------------------------------------------------------




--------------------------------------- Iteration      1(  24)  ---------------------------------------


    POTLOK:  cpu time    0.1230: real time    0.1241
    SETDIJ:  cpu time    0.0130: real time    0.0116
    EDDIAG:  cpu time    0.6469: real time    0.6473
  RMM-DIIS:  cpu time    5.1152: real time    5.1134
    ORTHCH:  cpu time    0.1300: real time    0.1298
 BZINTS: Fermi energy: -0.820015;128.000000 electrons
         Band energy:***********;  BLOECHL correction: -0.038958
       DOS:  cpu time    0.0060: real time    0.0065
    CHARGE:  cpu time    0.2060: real time    0.2058
    MIXING:  cpu time    0.0080: real time    0.0079
    --------------------------------------------
      LOOP:  cpu time    6.2480: real time    6.2463

 eigenvalue-minimisations  :  1710
 total energy-change (2. order) :-0.5045999E-02  (-0.1102825E-02)
 number of electron     127.9999682 magnetization 
 augmentation part       13.6574581 magnetization 

 Broyden mixing:
  rms(total) = 0.12690E+00    rms(broyden)= 0.12677E+00
  rms(prec ) = 0.20015E+00
  weight for this iteration     100.00

 eigenvalues of (default mixing * dielectric matrix)
  average eigenvalue GAMMA=   0.7423
  2.2333  1.3823  1.3823  1.1513  1.1513  0.9980  0.6716  0.6716  0.6099  0.6099
  0.4627  0.4627  0.5430  0.4620  0.1528  0.2396  0.2987  0.2987  0.3219

 Free energy of the ion-electron system (eV)
  ---------------------------------------------------
  alpha Z        PSCENC =       378.09908315
  Ewald energy   TEWEN  =     22731.27163923
  -Hartree energ DENC   =    -31279.32974745
  -exchange      EXHF   =         0.00000000
  -V(xc)+E(xc)   XCENC  =       340.11362584
  PAW double counting   =      6160.52395993    -5989.89699839
  entropy T*S    EENTRO =         0.00000000
  eigenvalues    EBANDS =     -1426.75968452
  atomic energy  EATOM  =      8937.26825017
  Solvation  Ediel_sol  =         0.00000000
  ---------------------------------------------------
  free energy    TOTEN  =      -148.70987203 eV

  energy without entropy =     -148.70987203  energy(sigma->0) =     -148.70987203


--------------------------------------------------------------------------------------------------------




--------------------------------------- Iteration      1(  25)  ---------------------------------------


    POTLOK:  cpu time    0.1240: real time    0.1282
    SETDIJ:  cpu time    0.0110: real time    0.0114
    EDDIAG:  cpu time    0.6249: real time    0.6244
  RMM-DIIS:  cpu time    4.9363: real time    4.9353
    ORTHCH:  cpu time    0.1300: real time    0.1301
 BZINTS: Fermi energy: -0.849813;128.000000 electrons
         Band energy:***********;  BLOECHL correction: -0.033039
       DOS:  cpu time    0.0060: real time    0.0063
    CHARGE:  cpu time    0.2030: real time    0.2028
    MIXING:  cpu time    0.0090: real time    0.0082
    --------------------------------------------
[...]
     43      -4.7268      2.00000
     44      -4.5975      2.00000
     45      -4.2764      2.00000
     46      -4.2715      2.00000
     47      -4.1464      2.00000
     48      -3.9665      2.00000
     49      -3.8968      2.00000
     50      -3.5642      2.00000
     51      -3.5100      2.00000
     52      -3.4270      2.00000
     53      -3.2844      2.00000
     54      -3.0367      2.00000
     55      -2.9938      2.00000
     56      -2.9173      2.00000
     57      -2.3113      2.00000
     58      -2.1249      2.00000
     59      -1.9430      2.00000
     60      -1.6345      2.00000
     61      -1.3418      2.00000
     62      -1.2846      2.00000
     63      -1.0488      2.00000
     64      -0.9196      2.12022
     65      -0.8383      1.65250
     66      -0.4934     -0.10014
     67      -0.2946      0.00000
     68      -0.1253      0.00000
     69       0.5126      0.00000
     70       0.7270      0.00000
     71       0.9883      0.00000
     72       1.5419      0.00000
     73       1.5610      0.00000
     74       1.8555      0.00000
     75       2.8190      0.00000
     76       2.8895      0.00000

 k-point     7 :       0.0000    0.4000    0.0000
  band No.  band energies     occupation 
      1     -36.6263      2.00000
      2     -35.2651      2.00000
      3     -34.3092      2.00000
      4     -33.4119      2.00000
      5     -20.4193      2.00000
      6     -19.7374      2.00000
      7     -19.6093      2.00000
      8     -19.2137      2.00000
      9     -19.1083      2.00000
     10     -18.7536      2.00000
     11     -18.5937      2.00000
     12     -18.4421      2.00000
     13     -18.4408      2.00000
     14     -18.2087      2.00000
     15     -18.0897      2.00000
     16     -17.6112      2.00000
     17     -17.4311      2.00000
     18     -17.2150      2.00000
     19     -17.1849      2.00000
     20     -17.0306      2.00000
     21     -16.6365      2.00000
     22     -16.4852      2.00000
     23     -16.2075      2.00000
     24     -16.1371      2.00000
     25     -16.0149      2.00000
     26     -15.5090      2.00000
     27     -15.4561      2.00000
     28     -15.1465      2.00000
     29      -7.4803      2.00000
     30      -6.9942      2.00000
     31      -6.6934      2.00000
     32      -6.6205      2.00000
     33      -6.5273      2.00000
     34      -6.5099      2.00000
     35      -6.4089      2.00000
     36      -5.9615      2.00000
     37      -5.7544      2.00000
     38      -5.6359      2.00000
     39      -5.5797      2.00000
     40      -5.4835      2.00000
     41      -5.1394      2.00000
     42      -4.9880      2.00000
     43      -4.9017      2.00000
     44      -4.7029      2.00000
     45      -4.6235      2.00000
     46      -4.5924      2.00000
     47      -4.4084      2.00000
     48      -4.1887      2.00000
     49      -4.0730      2.00000
     50      -3.7451      2.00000
     51      -3.5510      2.00000
     52      -3.4895      2.00000
     53      -3.0179      2.00000
     54      -2.8709      2.00000
     55      -2.7628      2.00000
     56      -2.7343      2.00000
     57      -2.3066      2.00000
     58      -2.1623      2.00000
     59      -1.9187      2.00000
     60      -1.4425      2.00000
     61      -1.2909      2.00000
     62      -0.9075      2.00000
     63      -0.7708      0.56365
     64      -0.7418      0.28605
     65      -0.5166      0.00000
     66      -0.4806      0.00000
     67      -0.2242      0.00000
     68       0.5745      0.00000
     69       0.6513      0.00000
     70       0.7425      0.00000
     71       1.3184      0.00000
     72       1.3607      0.00000
     73       1.7858      0.00000
     74       2.1978      0.00000
     75       3.2224      0.00000
     76       3.4425      0.00000

 k-point     8 :       0.2500    0.4000    0.0000
  band No.  band energies     occupation 
      1     -36.6261      2.00000
      2     -35.2649      2.00000
      3     -34.3090      2.00000
      4     -33.4118      2.00000
      5     -20.3312      2.00000
      6     -19.9499      2.00000
      7     -19.6881      2.00000
      8     -19.2097      2.00000
      9     -19.1027      2.00000
     10     -18.5958      2.00000
     11     -18.5705      2.00000
     12     -18.5202      2.00000
     13     -18.4491      2.00000
     14     -18.2027      2.00000
     15     -18.1506      2.00000
     16     -17.7252      2.00000
     17     -17.2676      2.00000
     18     -17.2335      2.00000
     19     -17.1478      2.00000
     20     -17.0827      2.00000
     21     -16.6067      2.00000
     22     -16.3117      2.00000
     23     -16.2569      2.00000
     24     -16.1305      2.00000
     25     -16.0134      2.00000
     26     -15.4597      2.00000
     27     -15.3461      2.00000
     28     -15.0910      2.00000
     29      -7.4985      2.00000
     30      -6.9650      2.00000
     31      -6.8342      2.00000
     32      -6.7654      2.00000
     33      -6.6567      2.00000
     34      -6.5374      2.00000
     35      -6.2644      2.00000
     36      -5.9966      2.00000
     37      -5.8258      2.00000
     38      -5.7555      2.00000
     39      -5.5489      2.00000
     40      -5.4335      2.00000
     41      -5.1844      2.00000
     42      -5.1487      2.00000
     43      -4.9858      2.00000
     44      -4.8412      2.00000
     45      -4.6488      2.00000
     46      -4.3765      2.00000
     47      -4.2734      2.00000
     48      -4.2190      2.00000
     49      -4.1175      2.00000
     50      -3.8209      2.00000
     51      -3.6955      2.00000
     52      -3.5139      2.00000
     53      -3.3355      2.00000
     54      -2.8755      2.00000
     55      -2.8398      2.00000
     56      -2.6469      2.00000
     57      -2.2610      2.00000
     58      -2.0547      2.00000
     59      -1.9518      2.00000
     60      -1.6825      2.00000
     61      -1.2153      2.00000
     62      -0.8959      2.00000
     63      -0.8061      1.79864
     64      -0.7658      0.45997
     65      -0.7335     -0.02024
     66      -0.4062      0.00000
     67      -0.0458      0.00000
     68       0.6101      0.00000
     69       0.6693      0.00000
     70       0.9330      0.00000
     71       1.3488      0.00000
     72       1.7963      0.00000
     73       2.1332      0.00000
     74       2.1672      0.00000
     75       3.1710      0.00000
     76       3.4049      0.00000

 k-point     9 :       0.5000    0.4000    0.0000
  band No.  band energies     occupation 
      1     -36.6259      2.00000
      2     -35.2647      2.00000
      3     -34.3088      2.00000
      4     -33.4117      2.00000
      5     -20.1485      2.00000
      6     -20.1469      2.00000
      7     -19.8356      2.00000
      8     -19.2742      2.00000
      9     -18.9465      2.00000
     10     -18.7932      2.00000
     11     -18.5499      2.00000
     12     -18.4376      2.00000
     13     -18.3677      2.00000
     14     -18.2713      2.00000
     15     -18.0548      2.00000
     16     -17.8963      2.00000
     17     -17.2443      2.00000
     18     -17.2417      2.00000
     19     -17.0759      2.00000
     20     -17.0434      2.00000
     21     -16.5577      2.00000
     22     -16.3074      2.00000
     23     -16.1715      2.00000
     24     -16.1475      2.00000
     25     -15.9902      2.00000
     26     -15.4630      2.00000
     27     -15.1849      2.00000
     28     -15.0474      2.00000
     29      -7.5230      2.00000
     30      -7.1428      2.00000
     31      -6.9624      2.00000
     32      -6.8170      2.00000
     33      -6.6909      2.00000
     34      -6.5317      2.00000
     35      -6.0854      2.00000
     36      -5.9820      2.00000
     37      -5.8431      2.00000
     38      -5.7873      2.00000
     39      -5.6973      2.00000
     40      -5.3901      2.00000
     41      -5.3579      2.00000
     42      -5.2995      2.00000
     43      -5.1617      2.00000
     44      -4.6827      2.00000
     45      -4.6672      2.00000
     46      -4.3125      2.00000
     47      -4.2098      2.00000
     48      -4.1273      2.00000
     49      -4.0490      2.00000
     50      -3.9494      2.00000
     51      -3.7751      2.00000
     52      -3.7161      2.00000
     53      -3.5602      2.00000
     54      -2.9257      2.00000
     55      -2.8594      2.00000
     56      -2.7695      2.00000
     57      -2.0360      2.00000
     58      -2.0117      2.00000
     59      -1.9209      2.00000
     60      -1.6603      2.00000
     61      -1.2831      2.00000
     62      -1.1961      2.00000
     63      -0.9232      2.00000
     64      -0.7536      0.38852
     65      -0.6831     -0.10441
     66      -0.2818      0.00000
     67       0.0355      0.00000
     68       0.6542      0.00000
     69       1.0854      0.00000
     70       1.1741      0.00000
     71       1.3496      0.00000
     72       1.9045      0.00000
     73       2.1418      0.00000
     74       2.1521      0.00000
     75       3.1569      0.00000
     76       3.3730      0.00000


--------------------------------------------------------------------------------------------------------


 soft charge-density along one line, spin component           1
         0         1         2         3         4         5         6         7         8         9
 total charge-density along one line
 
 pseudopotential strength for first ion, spin component:           1
 13.305  -0.447   0.000   0.001   0.000  -0.000   0.000  -0.000
 -0.447   0.104  -0.000  -0.000  -0.000   0.000   0.000   0.000
  0.000  -0.000  -9.831   0.000   0.000   0.120  -0.000  -0.000
  0.001  -0.000   0.000  -9.787  -0.000  -0.000   0.114   0.000
  0.000  -0.000   0.000  -0.000  -9.795  -0.000   0.000   0.116
 -0.000   0.000   0.120  -0.000  -0.000   0.181   0.000   0.000
  0.000   0.000  -0.000   0.114   0.000   0.000   0.182  -0.000
 -0.000   0.000  -0.000   0.000   0.116   0.000  -0.000   0.182
 total augmentation occupancy for first ion, spin component:           1
  1.869   0.136   0.000   0.017   0.000   0.000   0.002   0.000
  0.136   0.015   0.000  -0.005   0.000   0.000   0.001   0.000
  0.000   0.000   1.579   0.000   0.000   0.155   0.000   0.000
  0.017  -0.005   0.000   1.526   0.000   0.000   0.119   0.000
  0.000   0.000   0.000   0.000   1.513   0.000   0.000   0.127
  0.000   0.000   0.155   0.000   0.000   0.017   0.000   0.000
  0.002   0.001   0.000   0.119   0.000   0.000   0.011   0.000
  0.000   0.000   0.000   0.000   0.127   0.000   0.000   0.012


------------------------ aborting loop because EDIFF is reached ----------------------------------------


    CHARGE:  cpu time    0.1820: real time    0.1827
    FORLOC:  cpu time    0.0220: real time    0.0212
    FORNL :  cpu time    2.0427: real time    2.0413
    STRESS:  cpu time    4.2514: real time    4.2502
    FORCOR:  cpu time    0.1080: real time    0.1075
    FORHAR:  cpu time    0.0360: real time    0.0365
    MIXING:  cpu time    0.0160: real time    0.0164
    OFIELD:  cpu time    0.0000: real time    0.0000

  FORCE on cell =-STRESS in cart. coord.  units (eV):
  Direction    XX          YY          ZZ          XY          YZ          ZX
  --------------------------------------------------------------------------------------
  Alpha Z   378.09908   378.09908   378.09908
  Ewald   27809.53423 27749.52952-32827.80614    -0.00000    -0.00000    -0.00000
  Hartree 30091.26995 30018.77671-28823.19525    -0.00000    -0.00000    -0.00000
  E(xc)    -577.30190  -577.46834  -577.11477    -0.00000    -0.00000     0.00000
  Local  -59555.50787-59433.75585 59984.96581     0.00000    -0.00000    -0.00000
  n-local  -476.62059  -478.38152  -479.03620     0.89637    -0.00003     0.00000
  augment   114.08198   115.51275   114.46297    -0.00000    -0.00000    -0.00000
  Kinetic  2220.62110  2236.59719  2231.99937    -1.95221     0.00002     0.00001
  Fock        0.00000     0.00000     0.00000     0.00000     0.00000     0.00000
  -------------------------------------------------------------------------------------
  Total       4.17599     8.90955     2.37486     0.00000     0.00000     0.00000
  in kB      14.31836    30.54852     8.14278     0.00000     0.00000     0.00000
  external pressure =       17.67 kB  Pullay stress =        0.00 kB


 VOLUME and BASIS-vectors are now :
 -----------------------------------------------------------------------------
  energy-cutoff  :      500.00
  volume of cell :      467.28
      direct lattice vectors                 reciprocal lattice vectors
     5.522882970  0.000000000  0.000000000     0.181064854  0.000000000  0.000000000
     0.000000000  3.905268000  0.000000000     0.000000000  0.256064373  0.000000000
     0.000000000  0.000000000 21.665045198     0.000000000  0.000000000  0.046157300

  length of vectors
     5.522882970  3.905268000 21.665045198     0.181064854  0.256064373  0.046157300


 FORCES acting on ions
    electron-ion (+dipol)            ewald-force                    non-local-force                 convergence-correction
 -----------------------------------------------------------------------------------------------
   0.141E-12 0.218E-12 0.128E+04   -.677E-14 0.936E-15 -.128E+04   0.000E+00 0.000E+00 -.168E+01   -.482E-13 0.644E-13 0.337E-03
   0.220E+00 0.495E-12 0.948E+03   -.132E+00 -.110E-13 -.946E+03   0.622E+00 0.347E-17 -.448E+01   0.104E-02 0.189E-13 -.350E-02
   -.220E+00 0.590E-12 0.948E+03   0.132E+00 -.115E-13 -.946E+03   -.622E+00 -.347E-17 -.448E+01   -.104E-02 0.566E-14 -.350E-02
   0.140E-13 -.175E-12 0.544E+03   -.628E-14 -.372E-14 -.542E+03   0.000E+00 0.000E+00 -.265E+01   -.147E-13 0.295E-13 -.462E-02
   0.176E+00 0.146E-11 0.150E+03   0.246E-13 -.106E-13 -.148E+03   0.378E+00 0.434E-18 -.268E+01   0.180E-03 -.538E-14 -.547E-02
   -.176E+00 0.873E-13 0.150E+03   -.125E-12 -.112E-13 -.148E+03   -.378E+00 -.434E-18 -.268E+01   -.180E-03 -.151E-14 -.547E-02
   0.154E-12 0.273E-13 -.245E+03   -.187E-14 -.940E-15 0.247E+03   0.000E+00 0.000E+00 -.198E+01   -.301E-13 0.699E-14 -.575E-02
   -.312E+00 0.140E-12 -.640E+03   0.132E+00 -.870E-15 0.641E+03   0.988E+00 0.000E+00 -.266E+01   -.271E-04 -.243E-13 -.581E-02
   0.312E+00 0.228E-12 -.640E+03   -.132E+00 0.195E-17 0.641E+03   -.988E+00 0.000E+00 -.266E+01   0.271E-04 -.275E-13 -.581E-02
   0.830E-14 0.437E-13 -.104E+04   -.158E-13 -.726E-14 0.105E+04   0.000E+00 0.000E+00 -.580E+01   0.148E-13 0.137E-13 -.554E-02
   0.206E+02 -.309E-12 -.134E+04   -.268E+02 0.747E-16 0.136E+04   0.644E+01 0.000E+00 -.167E+02   0.775E-03 -.644E-13 -.174E-02
   -.206E+02 0.207E-12 -.134E+04   0.268E+02 -.841E-15 0.136E+04   -.644E+01 0.000E+00 -.167E+02   -.775E-03 -.602E-13 -.174E-02
   0.872E-14 -.257E-13 0.213E+04   0.588E-13 0.130E-13 -.212E+04   0.000E+00 0.000E+00 -.227E+01   -.263E-13 0.723E-13 0.933E-03
   0.645E-13 0.104E-14 0.906E+03   0.105E-12 0.220E-13 -.904E+03   0.000E+00 0.000E+00 -.158E+01   -.541E-13 0.386E-13 -.818E-02
   0.657E-14 0.120E-12 -.409E+03   0.102E-12 0.196E-13 0.411E+03   0.000E+00 0.000E+00 -.135E+01   -.990E-14 0.248E-13 -.103E-01
   0.724E-13 -.124E-12 -.173E+04   -.674E-14 -.509E-14 0.174E+04   0.000E+00 0.000E+00 -.116E+01   -.180E-13 0.162E-13 -.862E-02
   -.107E-14 0.121E-12 0.900E+03   -.162E-13 0.219E-14 -.895E+03   0.000E+00 0.000E+00 -.252E+01   0.322E-14 -.206E-13 0.194E-03
   0.366E-14 0.116E-13 0.364E+03   -.108E-13 0.545E-15 -.362E+03   0.000E+00 0.000E+00 0.507E+00   0.621E-14 -.126E-13 -.310E-02
   -.482E-14 0.997E-13 -.163E+03   -.935E-14 0.336E-14 0.164E+03   0.000E+00 0.000E+00 0.725E+00   -.756E-14 -.406E-14 -.377E-02
   0.356E-14 0.992E-13 -.682E+03   -.243E-13 0.323E-14 0.685E+03   0.000E+00 0.000E+00 0.121E+01   -.949E-14 -.881E-14 -.375E-02
 -----------------------------------------------------------------------------------------------
   0.197E-11 0.332E-11 0.716E+02   -.390E-13 0.210E-14 -.182E-11   0.000E+00 0.000E+00 -.715E+02   -.262E-13 0.618E-13 -.852E-01
 
 
 POSITION                                       TOTAL-FORCE (eV/Angst)
 -----------------------------------------------------------------------------------
      2.76144      0.00000      6.00000         0.000000     -0.000000     -1.452190
      1.38072      1.95263      7.38072         0.711001     -0.000000     -2.097254
      4.14216      1.95263      7.38072        -0.711001     -0.000000     -2.097254
      0.00000      0.00000      8.76144         0.000000     -0.000000     -0.755918
      4.14216      1.95263     10.14216         0.553773     -0.000000     -1.271279
      1.38072      1.95263     10.14216        -0.553773      0.000000     -1.271279
      2.76144      0.00000     11.52288         0.000000     -0.000000     -0.594455
      1.38072      1.95263     12.90360         0.808590     -0.000000     -1.461859
      4.14216      1.95263     12.90360        -0.808590     -0.000000     -1.461859
      0.00000      0.00000     14.28432         0.000000     -0.000000     -1.081523
      4.14216      1.95263     15.66505         0.201248     -0.000000     -1.063030
      1.38072      1.95263     15.66505        -0.201248      0.000000     -1.063030
      0.00000      0.00000      6.00000         0.000000     -0.000000      0.909287
      2.76144      0.00000      8.76144         0.000000     -0.000000      0.957773
      0.00000      0.00000     11.52288         0.000000     -0.000000      0.737992
      2.76144      0.00000     14.28432         0.000000     -0.000000      1.594281
      2.76144      1.95263      6.00000         0.000000     -0.000000      2.350194
      0.00000      1.95263      8.76144         0.000000     -0.000000      2.619643
      2.76144      1.95263     11.52288         0.000000     -0.000000      2.337619
      0.00000      1.95263     14.28432         0.000000     -0.000000      4.164141
 -----------------------------------------------------------------------------------
    total drift:                                0.000000      0.000000      0.004278


--------------------------------------------------------------------------------------------------------



  FREE ENERGIE OF THE ION-ELECTRON SYSTEM (eV)
  ---------------------------------------------------
  free  energy   TOTEN  =      -148.69441198 eV

  energy  without entropy=     -148.69441198  energy(sigma->0) =     -148.69441198
 


--------------------------------------------------------------------------------------------------------


    POTLOK:  cpu time    0.1120: real time    0.1109


--------------------------------------------------------------------------------------------------------


     LOOP+:  cpu time  275.8691: real time  276.0916
    4ORBIT:  cpu time    0.0000: real time    0.0000
 BZINTS: Fermi energy: -0.795193;128.000000 electrons
         Band energy:***********;  BLOECHL correction: -0.026877

 total amount of memory used by VASP MPI-rank0   108444. kBytes
=======================================================================

   base      :      30000. kBytes
   nonl-proj :      25054. kBytes
   fftplans  :       7169. kBytes
   grid      :      12862. kBytes
   one-center:        155. kBytes
   wavefun   :      33204. kBytes
 
  
  
 General timing and accounting informations for this job:
 ========================================================
  
                  Total CPU time used (sec):      278.408
                            User time (sec):      273.902
                          System time (sec):        4.505
                         Elapsed time (sec):      280.575
  
                   Maximum memory used (kb):      121284.
                   Average memory used (kb):           0.
  
                          Minor page faults:        37192
                          Major page faults:           74
                 Voluntary context switches:         4227
