<?xml version="1.0" encoding="ISO-8859-1"?>
<modeling>
 <generator>
  <i name="program" type="string">vasp </i>
  <i name="version" type="string">5.4.4.18Apr17-6-g9f103f2a35  </i>
  <i name="subversion" type="string">(build Jun 30 2017 11:15:00) complex            parallel </i>
  <i name="platform" type="string">STALLO_VASP_5.4.4 </i>
  <i name="date" type="string">2019 11 06 </i>
  <i name="time" type="string">18:33:05 </i>
 </generator>
 <incar>
  <i type="string" name="PREC">normal    ! low/normal/accurate</i>
  <i type="string" name="ALGO"> Fast      ! Algorithm for electronic re</i>
  <i type="int" name="ISPIN">     1</i>
  <i type="int" name="NELMIN">     4</i>
  <i name="EDIFF">      0.00001000</i>
  <i type="int" name="NSW">     0</i>
  <i name="ENCUT">    500.00000000</i>
  <i type="logical" name="LREAL"> F  </i>
  <i type="int" name="ISMEAR">    -5</i>
  <i name="SIGMA">      0.20000000</i>
  <i type="logical" name="LWAVE"> F  </i>
  <v type="int" name="KPOINT_BSE">    -1     0     0     0</v>
 </incar>
 <structure name="primitive_cell" >
  <crystal>
   <varray name="basis" >
    <v>       5.52288297       0.00000000       0.00000000 </v>
    <v>       0.00000000       3.90526800       0.00000000 </v>
    <v>       0.00000000       0.00000000      21.66504520 </v>
   </varray>
   <i name="volume">    467.27902047 </i>
   <varray name="rec_basis" >
    <v>       0.18106485       0.00000000       0.00000000 </v>
    <v>       0.00000000       0.25606437       0.00000000 </v>
    <v>       0.00000000       0.00000000       0.04615730 </v>
   </varray>
  </crystal>
  <varray name="positions" >
   <v>      -0.50000000       0.00000000       0.27694380 </v>
   <v>      -0.50000000      -0.50000000       0.27694380 </v>
   <v>      -0.50000000       0.00000000       0.40440449 </v>
   <v>       0.25000000      -0.50000000       0.34067414 </v>
   <v>      -0.25000000      -0.50000000       0.34067414 </v>
   <v>       0.00000000       0.00000000       0.27694380 </v>
   <v>       0.00000000       0.00000000       0.40440449 </v>
   <v>       0.00000000      -0.50000000       0.40440449 </v>
   <v>      -0.25000000      -0.50000000       0.46813483 </v>
   <v>       0.25000000      -0.50000000       0.46813483 </v>
   <v>      -0.50000000       0.00000000      -0.46813483 </v>
   <v>      -0.50000000      -0.50000000      -0.46813483 </v>
   <v>       0.00000000       0.00000000      -0.46813483 </v>
   <v>       0.25000000      -0.50000000      -0.40440449 </v>
   <v>      -0.25000000      -0.50000000      -0.40440449 </v>
   <v>      -0.50000000       0.00000000      -0.34067414 </v>
   <v>       0.00000000       0.00000000      -0.34067414 </v>
   <v>       0.00000000      -0.50000000      -0.34067414 </v>
   <v>      -0.25000000      -0.50000000      -0.27694380 </v>
   <v>       0.25000000      -0.50000000      -0.27694380 </v>
  </varray>
 </structure>
 <varray name="primitive_index" >
  <v type="int" >        1 </v>
  <v type="int" >       17 </v>
  <v type="int" >       14 </v>
  <v type="int" >        2 </v>
  <v type="int" >        3 </v>
  <v type="int" >       13 </v>
  <v type="int" >        4 </v>
  <v type="int" >       18 </v>
  <v type="int" >        5 </v>
  <v type="int" >        6 </v>
  <v type="int" >        7 </v>
  <v type="int" >       19 </v>
  <v type="int" >       15 </v>
  <v type="int" >        8 </v>
  <v type="int" >        9 </v>
  <v type="int" >       16 </v>
  <v type="int" >       10 </v>
  <v type="int" >       20 </v>
  <v type="int" >       11 </v>
  <v type="int" >       12 </v>
 </varray>
 <kpoints>
  <generation param="Gamma">
   <v type="int" name="divisions">       4        5        1 </v>
   <v name="usershift">      0.00000000       0.00000000       0.00000000 </v>
   <v name="genvec1">      0.25000000       0.00000000       0.00000000 </v>
   <v name="genvec2">      0.00000000       0.20000000       0.00000000 </v>
   <v name="genvec3">      0.00000000       0.00000000       1.00000000 </v>
   <v name="shift">      0.00000000       0.00000000       0.00000000 </v>
  </generation>
  <varray name="kpointlist" >
   <v>       0.00000000       0.00000000       0.00000000 </v>
   <v>       0.25000000       0.00000000       0.00000000 </v>
   <v>       0.50000000       0.00000000       0.00000000 </v>
   <v>       0.00000000       0.20000000       0.00000000 </v>
   <v>       0.25000000       0.20000000       0.00000000 </v>
   <v>       0.50000000       0.20000000       0.00000000 </v>
   <v>       0.00000000       0.40000000       0.00000000 </v>
   <v>       0.25000000       0.40000000       0.00000000 </v>
   <v>       0.50000000       0.40000000       0.00000000 </v>
  </varray>
  <varray name="weights" >
   <v>       0.05000000 </v>
   <v>       0.10000000 </v>
   <v>       0.05000000 </v>
   <v>       0.10000000 </v>
   <v>       0.20000000 </v>
   <v>       0.10000000 </v>
   <v>       0.10000000 </v>
   <v>       0.20000000 </v>
   <v>       0.10000000 </v>
  </varray>
  <varray name="tetrahedronlist"  type="int" >
   <v type="int" >        2        1        1        2        5 </v>
   <v type="int" >        2        1        1        4        5 </v>
   <v type="int" >        2        1        4        4        5 </v>
   <v type="int" >        2        1        2        2        5 </v>
   <v type="int" >        2        1        2        5        5 </v>
   <v type="int" >        2        1        4        5        5 </v>
   <v type="int" >        2        2        2        3        6 </v>
   <v type="int" >        2        2        2        5        6 </v>
   <v type="int" >        2        2        5        5        6 </v>
   <v type="int" >        2        2        3        3        6 </v>
   <v type="int" >        2        2        3        6        6 </v>
   <v type="int" >        2        2        5        6        6 </v>
   <v type="int" >        2        2        3        3        5 </v>
   <v type="int" >        2        3        3        5        6 </v>
   <v type="int" >        2        3        5        6        6 </v>
   <v type="int" >        2        2        2        3        5 </v>
   <v type="int" >        2        2        3        5        5 </v>
   <v type="int" >        2        3        5        5        6 </v>
   <v type="int" >        2        1        2        2        4 </v>
   <v type="int" >        2        2        2        4        5 </v>
   <v type="int" >        2        2        4        5        5 </v>
   <v type="int" >        2        1        1        2        4 </v>
   <v type="int" >        2        1        2        4        4 </v>
   <v type="int" >        2        2        4        4        5 </v>
   <v type="int" >        2        4        4        5        8 </v>
   <v type="int" >        2        4        4        7        8 </v>
   <v type="int" >        2        4        7        7        8 </v>
   <v type="int" >        2        4        5        5        8 </v>
   <v type="int" >        2        4        5        8        8 </v>
   <v type="int" >        2        4        7        8        8 </v>
   <v type="int" >        2        5        5        6        9 </v>
   <v type="int" >        2        5        5        8        9 </v>
   <v type="int" >        2        5        8        8        9 </v>
   <v type="int" >        2        5        6        6        9 </v>
   <v type="int" >        2        5        6        9        9 </v>
   <v type="int" >        2        5        8        9        9 </v>
   <v type="int" >        2        5        6        6        8 </v>
   <v type="int" >        2        6        6        8        9 </v>
   <v type="int" >        2        6        8        9        9 </v>
   <v type="int" >        2        5        5        6        8 </v>
   <v type="int" >        2        5        6        8        8 </v>
   <v type="int" >        2        6        8        8        9 </v>
   <v type="int" >        2        4        5        5        7 </v>
   <v type="int" >        2        5        5        7        8 </v>
   <v type="int" >        2        5        7        8        8 </v>
   <v type="int" >        2        4        4        5        7 </v>
   <v type="int" >        2        4        5        7        7 </v>
   <v type="int" >        2        5        7        7        8 </v>
   <v type="int" >        4        7        7        8        8 </v>
   <v type="int" >        4        7        7        7        8 </v>
   <v type="int" >        4        7        8        8        8 </v>
   <v type="int" >        4        8        8        9        9 </v>
   <v type="int" >        4        8        8        8        9 </v>
   <v type="int" >        4        8        9        9        9 </v>
  </varray>
  <i name="volumeweight">      0.00833333 </i>
 </kpoints>
 <parameters>
  <separator name="general" >
   <i type="string" name="SYSTEM">unknown system</i>
   <i type="logical" name="LCOMPAT"> F  </i>
  </separator>
  <separator name="electronic" >
   <i type="string" name="PREC">normal</i>
   <i name="ENMAX">    500.00000000</i>
   <i name="ENAUG">    605.39200000</i>
   <i name="EDIFF">      0.00001000</i>
   <i type="int" name="IALGO">    68</i>
   <i type="int" name="IWAVPR">    10</i>
   <i type="int" name="NBANDS">    76</i>
   <i name="NELECT">    128.00000000</i>
   <i type="int" name="TURBO">     0</i>
   <i type="int" name="IRESTART">     0</i>
   <i type="int" name="NREBOOT">     0</i>
   <i type="int" name="NMIN">     0</i>
   <i name="EREF">      0.00000000</i>
   <separator name="electronic smearing" >
    <i type="int" name="ISMEAR">    -5</i>
    <i name="SIGMA">      0.20000000</i>
    <i name="KSPACING">      0.50000000</i>
    <i type="logical" name="KGAMMA"> T  </i>
   </separator>
   <separator name="electronic projectors" >
    <i type="logical" name="LREAL"> F  </i>
    <v name="ROPT">      0.00000000      0.00000000      0.00000000</v>
    <i type="int" name="LMAXPAW">  -100</i>
    <i type="int" name="LMAXMIX">     2</i>
    <i type="logical" name="NLSPLINE"> F  </i>
   </separator>
   <separator name="electronic startup" >
    <i type="int" name="ISTART">     0</i>
    <i type="int" name="ICHARG">     2</i>
    <i type="int" name="INIWAV">     1</i>
   </separator>
   <separator name="electronic spin" >
    <i type="int" name="ISPIN">     1</i>
    <i type="logical" name="LNONCOLLINEAR"> F  </i>
    <v name="MAGMOM">      1.00000000      1.00000000      1.00000000      1.00000000      1.00000000      1.00000000      1.00000000      1.00000000      1.00000000      1.00000000      1.00000000      1.00000000      1.00000000      1.00000000      1.00000000      1.00000000      1.00000000      1.00000000      1.00000000      1.00000000
</v>
    <i name="NUPDOWN">     -1.00000000</i>
    <i type="logical" name="LSORBIT"> F  </i>
    <v name="SAXIS">      0.00000000      0.00000000      1.00000000</v>
    <i type="logical" name="LSPIRAL"> F  </i>
    <v name="QSPIRAL">      0.00000000      0.00000000      0.00000000</v>
    <i type="logical" name="LZEROZ"> F  </i>
   </separator>
   <separator name="electronic exchange-correlation" >
    <i type="logical" name="LASPH"> F  </i>
    <i type="logical" name="LMETAGGA"> F  </i>
   </separator>
   <separator name="electronic convergence" >
    <i type="int" name="NELM">    60</i>
    <i type="int" name="NELMDL">    -5</i>
    <i type="int" name="NELMIN">     4</i>
    <i name="ENINI">    500.00000000</i>
    <separator name="electronic convergence detail" >
     <i type="logical" name="LDIAG"> T  </i>
     <i type="logical" name="LSUBROT"> F  </i>
     <i name="WEIMIN">      0.00000000</i>
     <i name="EBREAK">      0.00000003</i>
     <i name="DEPER">      0.30000000</i>
     <i type="int" name="NRMM">     4</i>
     <i name="TIME">      0.40000000</i>
    </separator>
   </separator>
   <separator name="electronic mixer" >
    <i name="AMIX">      0.40000000</i>
    <i name="BMIX">      1.00000000</i>
    <i name="AMIN">      0.10000000</i>
    <i name="AMIX_MAG">      1.60000000</i>
    <i name="BMIX_MAG">      1.00000000</i>
    <separator name="electronic mixer details" >
     <i type="int" name="IMIX">     4</i>
     <i type="logical" name="MIXFIRST"> F  </i>
     <i type="int" name="MAXMIX">   -45</i>
     <i name="WC">    100.00000000</i>
     <i type="int" name="INIMIX">     1</i>
     <i type="int" name="MIXPRE">     1</i>
     <i type="int" name="MREMOVE">     5</i>
    </separator>
   </separator>
   <separator name="electronic dipolcorrection" >
    <i type="logical" name="LDIPOL"> F  </i>
    <i type="logical" name="LMONO"> F  </i>
    <i type="int" name="IDIPOL">     0</i>
    <i name="EPSILON">      1.00000000</i>
    <v name="DIPOL">   -100.00000000   -100.00000000   -100.00000000</v>
    <i name="EFIELD">      0.00000000</i>
   </separator>
  </separator>
  <separator name="grids" >
   <i type="int" name="NGX">    30</i>
   <i type="int" name="NGY">    24</i>
   <i type="int" name="NGZ">   120</i>
   <i type="int" name="NGXF">    60</i>
   <i type="int" name="NGYF">    48</i>
   <i type="int" name="NGZF">   240</i>
   <i type="logical" name="ADDGRID"> F  </i>
  </separator>
  <separator name="ionic" >
   <i type="int" name="NSW">     0</i>
   <i type="int" name="IBRION">    -1</i>
   <i type="int" name="MDALGO">     0</i>
   <i type="int" name="ISIF">     2</i>
   <i name="PSTRESS">      0.00000000</i>
   <i name="EDIFFG">      0.00010000</i>
   <i type="int" name="NFREE">     0</i>
   <i name="POTIM">      0.50000000</i>
   <i name="SMASS">     -3.00000000</i>
   <i name="SCALEE">      1.00000000</i>
  </separator>
  <separator name="ionic md" >
   <i name="TEBEG">      0.00010000</i>
   <i name="TEEND">      0.00010000</i>
   <i type="int" name="NBLOCK">     1</i>
   <i type="int" name="KBLOCK">     1</i>
   <i type="int" name="NPACO">   256</i>
   <i name="APACO">     16.00000000</i>
  </separator>
  <separator name="symmetry" >
   <i type="int" name="ISYM">     2</i>
   <i name="SYMPREC">      0.00001000</i>
  </separator>
  <separator name="dos" >
   <i type="int" name="LORBIT">     0</i>
   <v name="RWIGS">     -1.00000000     -1.00000000     -1.00000000</v>
   <i type="int" name="NEDOS">   301</i>
   <i name="EMIN">     10.00000000</i>
   <i name="EMAX">    -10.00000000</i>
   <i name="EFERMI">      0.00000000</i>
  </separator>
  <separator name="writing" >
   <i type="int" name="NWRITE">     2</i>
   <i type="logical" name="LWAVE"> F  </i>
   <i type="logical" name="LDOWNSAMPLE"> F  </i>
   <i type="logical" name="LCHARG"> T  </i>
   <i type="logical" name="LPARD"> F  </i>
   <i type="logical" name="LVTOT"> F  </i>
   <i type="logical" name="LVHAR"> F  </i>
   <i type="logical" name="LELF"> F  </i>
   <i type="logical" name="LOPTICS"> F  </i>
   <v name="STM">      0.00000000      0.00000000      0.00000000      0.00000000      0.00000000      0.00000000      0.00000000</v>
  </separator>
  <separator name="performance" >
   <i type="int" name="NPAR">     2</i>
   <i type="int" name="NSIM">     4</i>
   <i type="int" name="NBLK">    -1</i>
   <i type="logical" name="LPLANE"> T  </i>
   <i type="logical" name="LSCALAPACK"> T  </i>
   <i type="logical" name="LSCAAWARE"> F  </i>
   <i type="logical" name="LSCALU"> F  </i>
   <i type="logical" name="LASYNC"> F  </i>
   <i type="logical" name="LORBITALREAL"> F  </i>
  </separator>
  <separator name="miscellaneous" >
   <i type="int" name="IDIOT">     3</i>
   <i type="int" name="ISPECIAL">     0</i>
   <i type="logical" name="LMUSIC"> F  </i>
   <v name="POMASS">     16.00000000     87.62000000     47.88000000</v>
   <v name="DARWINR">      0.00000000      0.00000000      0.00000000</v>
   <v name="DARWINV">      1.00000000      1.00000000      1.00000000</v>
   <i type="logical" name="LCORR"> T  </i>
  </separator>
  <i type="logical" name="GGA_COMPAT"> T  </i>
  <i type="logical" name="LBERRY"> F  </i>
  <i type="int" name="ICORELEVEL">     0</i>
  <i type="logical" name="LDAU"> F  </i>
  <i type="int" name="I_CONSTRAINED_M">     0</i>
  <separator name="electronic exchange-correlation" >
   <i type="string" name="GGA">--</i>
   <i type="int" name="VOSKOWN">     0</i>
   <i type="logical" name="LHFCALC"> F  </i>
   <i type="string" name="PRECFOCK"></i>
   <i type="logical" name="LSYMGRAD"> F  </i>
   <i type="logical" name="LHFONE"> F  </i>
   <i type="logical" name="LRHFCALC"> F  </i>
   <i type="logical" name="LTHOMAS"> F  </i>
   <i type="logical" name="LMODELHF"> F  </i>
   <i name="ENCUT4O">     -1.00000000</i>
   <i type="int" name="EXXOEP">     0</i>
   <i type="int" name="FOURORBIT">     0</i>
   <i name="AEXX">      0.00000000</i>
   <i name="HFALPHA">      0.00000000</i>
   <i name="MCALPHA">      0.00000000</i>
   <i name="ALDAX">      1.00000000</i>
   <i name="AGGAX">      1.00000000</i>
   <i name="ALDAC">      1.00000000</i>
   <i name="AGGAC">      1.00000000</i>
   <i type="int" name="NKREDX">     1</i>
   <i type="int" name="NKREDY">     1</i>
   <i type="int" name="NKREDZ">     1</i>
   <i type="logical" name="SHIFTRED"> F  </i>
   <i type="logical" name="ODDONLY"> F  </i>
   <i type="logical" name="EVENONLY"> F  </i>
   <i type="int" name="LMAXFOCK">     0</i>
   <i type="int" name="NMAXFOCKAE">     0</i>
   <i type="logical" name="LFOCKAEDFT"> F  </i>
   <i name="HFSCREEN">      0.00000000</i>
   <i name="HFSCREENC">      0.00000000</i>
   <i type="int" name="NBANDSGWLOW">     0</i>
  </separator>
  <separator name="vdW DFT" >
   <i type="logical" name="LUSE_VDW"> F  </i>
   <i name="Zab_VDW">     -0.84910000</i>
   <i name="PARAM1">      0.12340000</i>
   <i name="PARAM2">      1.00000000</i>
   <i name="PARAM3">      0.00000000</i>
  </separator>
  <separator name="model GW" >
   <i type="int" name="MODEL_GW">     0</i>
   <i name="MODEL_EPS0">     14.01837061</i>
   <i name="MODEL_ALPHA">      1.00000000</i>
  </separator>
  <separator name="linear response parameters" >
   <i type="logical" name="LEPSILON"> F  </i>
   <i type="logical" name="LRPA"> F  </i>
   <i type="logical" name="LNABLA"> F  </i>
   <i type="logical" name="LVEL"> F  </i>
   <i type="int" name="KINTER">     0</i>
   <i name="CSHIFT">      0.10000000</i>
   <i name="OMEGAMAX">     -1.00000000</i>
   <i name="DEG_THRESHOLD">      0.00200000</i>
   <i name="RTIME">     -0.10000000</i>
   <i name="WPLASMAI">      0.00000000</i>
   <v name="DFIELD">      0.00000000      0.00000000      0.00000000</v>
   <v name="WPLASMA">      0.00000000      0.00000000      0.00000000      0.00000000      0.00000000      0.00000000      0.00000000      0.00000000      0.00000000</v>
  </separator>
  <separator name="orbital magnetization" >
   <i type="logical" name="NUCIND"> F  </i>
   <v name="MAGPOS">      0.00000000      0.00000000      0.00000000</v>
   <i type="logical" name="LNICSALL"> T  </i>
   <i type="logical" name="ORBITALMAG"> F  </i>
   <i type="logical" name="LMAGBLOCH"> F  </i>
   <i type="logical" name="LCHIMAG"> F  </i>
   <i type="logical" name="LGAUGE"> T  </i>
   <i type="int" name="MAGATOM">     0</i>
   <v name="MAGDIPOL">      0.00000000      0.00000000      0.00000000</v>
   <v name="AVECCONST">      0.00000000      0.00000000      0.00000000</v>
  </separator>
  <separator name="response functions" >
   <i type="logical" name="LADDER"> F  </i>
   <i type="logical" name="LRPAFORCE"> F  </i>
   <i type="logical" name="LFXC"> F  </i>
   <i type="logical" name="LHARTREE"> T  </i>
   <i type="int" name="IBSE">     0</i>
   <v type="int" name="KPOINT">    -1     0     0     0</v>
   <i type="logical" name="LTCTE"> F  </i>
   <i type="logical" name="LTETE"> F  </i>
   <i type="logical" name="LTRIPLET"> F  </i>
   <i type="logical" name="LFXCEPS"> F  </i>
   <i type="logical" name="LFXHEG"> F  </i>
   <i type="int" name="NATURALO">     2</i>
   <i type="logical" name="L2ORDER"> F  </i>
   <i type="logical" name="LMP2LT"> F  </i>
   <i type="logical" name="LUSEW"> F  </i>
   <i name="ENCUTGW">     -2.00000000</i>
   <i name="ENCUTGWSOFT">     -2.00000000</i>
   <i name="ENCUTLF">     -1.00000000</i>
   <i type="int" name="LMAXMP2">    -1</i>
   <i name="SCISSOR">      0.00000000</i>
   <i type="int" name="NOMEGA">     0</i>
   <i type="int" name="NOMEGAR">     0</i>
   <i type="int" name="NBANDSGW">    -1</i>
   <i type="int" name="NBANDSO">    -1</i>
   <i type="int" name="NBANDSV">    -1</i>
   <i type="int" name="NELM">     1</i>
   <i type="int" name="NELMHF">     1</i>
   <i type="int" name="DIM">     3</i>
   <i type="int" name="ANTIRES">     0</i>
   <i name="OMEGAMAX">    -30.00000000</i>
   <i name="OMEGAMIN">    -30.00000000</i>
   <i name="OMEGATL">   -200.00000000</i>
   <i type="int" name="OMEGAGRID">   140</i>
   <i name="CSHIFT">     -0.10000000</i>
   <i type="logical" name="SELFENERGY"> F  </i>
   <i type="logical" name="LSPECTRAL"> F  </i>
   <i type="logical" name="LSPECTRALGW"> F  </i>
   <i type="logical" name="LSINGLES"> F  </i>
   <i type="logical" name="LFERMIGW"> F  </i>
   <i type="logical" name="ODDONLYGW"> F  </i>
   <i type="logical" name="EVENONLYGW"> F  </i>
   <i type="int" name="NKREDLFX">     1</i>
   <i type="int" name="NKREDLFY">     1</i>
   <i type="int" name="NKREDLFZ">     1</i>
   <i type="int" name="MAXMEM">  2800</i>
   <i type="int" name="TELESCOPE">     0</i>
   <i type="int" name="TAUPAR">     1</i>
   <i type="int" name="OMEGAPAR">    -1</i>
   <i name="LAMBDA">      1.00000000</i>
  </separator>
  <separator name="External order field" >
   <i name="OFIELD_KAPPA">      0.00000000</i>
   <v name="OFIELD_K">      0.00000000      0.00000000      0.00000000</v>
   <i name="OFIELD_Q6_NEAR">      0.00000000</i>
   <i name="OFIELD_Q6_FAR">      0.00000000</i>
   <i name="OFIELD_A">      0.00000000</i>
  </separator>
 </parameters>
 <atominfo>
  <atoms>      20 </atoms>
  <types>       3 </types>
  <array name="atoms" >
   <dimension dim="1">ion</dimension>
   <field type="string">element</field>
   <field type="int">atomtype</field>
   <set>
    <rc><c>O </c><c>   1</c></rc>
    <rc><c>O </c><c>   1</c></rc>
    <rc><c>O </c><c>   1</c></rc>
    <rc><c>O </c><c>   1</c></rc>
    <rc><c>O </c><c>   1</c></rc>
    <rc><c>O </c><c>   1</c></rc>
    <rc><c>O </c><c>   1</c></rc>
    <rc><c>O </c><c>   1</c></rc>
    <rc><c>O </c><c>   1</c></rc>
    <rc><c>O </c><c>   1</c></rc>
    <rc><c>O </c><c>   1</c></rc>
    <rc><c>O </c><c>   1</c></rc>
    <rc><c>Sr</c><c>   2</c></rc>
    <rc><c>Sr</c><c>   2</c></rc>
    <rc><c>Sr</c><c>   2</c></rc>
    <rc><c>Sr</c><c>   2</c></rc>
    <rc><c>Ti</c><c>   3</c></rc>
    <rc><c>Ti</c><c>   3</c></rc>
    <rc><c>Ti</c><c>   3</c></rc>
    <rc><c>Ti</c><c>   3</c></rc>
   </set>
  </array>
  <array name="atomtypes" >
   <dimension dim="1">type</dimension>
   <field type="int">atomspertype</field>
   <field type="string">element</field>
   <field>mass</field>
   <field>valence</field>
   <field type="string">pseudopotential</field>
   <set>
    <rc><c>  12</c><c>O </c><c>     16.00000000</c><c>      6.00000000</c><c> PAW_PBE O 08Apr2002                    </c></rc>
    <rc><c>   4</c><c>Sr</c><c>     87.62000000</c><c>     10.00000000</c><c> PAW_PBE Sr_sv 07Sep2000                </c></rc>
    <rc><c>   4</c><c>Ti</c><c>     47.88000000</c><c>      4.00000000</c><c> PAW_PBE Ti 08Apr2002                   </c></rc>
   </set>
  </array>
 </atominfo>
 <structure name="initialpos" >
  <crystal>
   <varray name="basis" >
    <v>       5.52288297       0.00000000       0.00000000 </v>
    <v>       0.00000000       3.90526800       0.00000000 </v>
    <v>       0.00000000       0.00000000      21.66504520 </v>
   </varray>
   <i name="volume">    467.27902047 </i>
   <varray name="rec_basis" >
    <v>       0.18106485       0.00000000       0.00000000 </v>
    <v>       0.00000000       0.25606437       0.00000000 </v>
    <v>       0.00000000       0.00000000       0.04615730 </v>
   </varray>
  </crystal>
  <varray name="positions" >
   <v>       0.50000000       0.00000000       0.27694380 </v>
   <v>       0.25000000       0.50000000       0.34067414 </v>
   <v>       0.75000000       0.50000000       0.34067414 </v>
   <v>       0.00000000       0.00000000       0.40440449 </v>
   <v>       0.75000000       0.50000000       0.46813483 </v>
   <v>       0.25000000       0.50000000       0.46813483 </v>
   <v>       0.50000000       0.00000000       0.53186517 </v>
   <v>       0.25000000       0.50000000       0.59559551 </v>
   <v>       0.75000000       0.50000000       0.59559551 </v>
   <v>       0.00000000       0.00000000       0.65932586 </v>
   <v>       0.75000000       0.50000000       0.72305620 </v>
   <v>       0.25000000       0.50000000       0.72305620 </v>
   <v>       0.00000000       0.00000000       0.27694380 </v>
   <v>       0.50000000       0.00000000       0.40440449 </v>
   <v>       0.00000000       0.00000000       0.53186517 </v>
   <v>       0.50000000       0.00000000       0.65932586 </v>
   <v>       0.50000000       0.50000000       0.27694380 </v>
   <v>       0.00000000       0.50000000       0.40440449 </v>
   <v>       0.50000000       0.50000000       0.53186517 </v>
   <v>       0.00000000       0.50000000       0.65932586 </v>
  </varray>
 </structure>
 <calculation>
  <scstep>
   <time name="dav">    5.90    5.90</time>
   <time name="total">    6.04    6.07</time>
   <energy>
    <i name="alphaZ">    378.09908315 </i>
    <i name="ewald">  22731.27163923 </i>
    <i name="hartreedc"> -30966.93774878 </i>
    <i name="XCdc">    325.41603597 </i>
    <i name="pawpsdc">   5334.45189010 </i>
    <i name="pawaedc">  -5139.13784255 </i>
    <i name="eentropy">      0.00000000 </i>
    <i name="bandstr">     -6.39912079 </i>
    <i name="atom">   8937.26825017 </i>
    <i name="e_fr_energy">   1594.03218650 </i>
    <i name="e_wo_entrp">   1594.03218650 </i>
    <i name="e_0_energy">   1594.03218650 </i>
   </energy>
  </scstep>
  <scstep>
   <time name="dav">    6.76    6.76</time>
   <time name="total">    6.77    6.77</time>
   <energy>
    <i name="e_fr_energy">    185.84843855 </i>
    <i name="e_wo_entrp">    185.84843855 </i>
    <i name="e_0_energy">    185.84843855 </i>
   </energy>
  </scstep>
  <scstep>
   <time name="dav">    7.56    7.56</time>
   <time name="total">    7.56    7.56</time>
   <energy>
    <i name="e_fr_energy">   -171.91442471 </i>
    <i name="e_wo_entrp">   -171.91442471 </i>
    <i name="e_0_energy">   -171.91442471 </i>
   </energy>
  </scstep>
  <scstep>
   <time name="dav">    7.23    7.24</time>
   <time name="total">    7.24    7.24</time>
   <energy>
    <i name="e_fr_energy">   -197.40242466 </i>
    <i name="e_wo_entrp">   -197.40242466 </i>
    <i name="e_0_energy">   -197.40242466 </i>
   </energy>
  </scstep>
  <scstep>
   <time name="dav">    9.04    9.04</time>
   <time name="total">    9.24    9.24</time>
   <energy>
    <i name="e_fr_energy">   -198.73569686 </i>
    <i name="e_wo_entrp">   -198.73569686 </i>
    <i name="e_0_energy">   -198.73569686 </i>
   </energy>
  </scstep>
  <scstep>
   <time name="diag">    0.62    0.66</time>
   <time name="diis">    5.35    5.35</time>
   <time name="orth">    0.13    0.13</time>
   <time name="total">    6.44    6.48</time>
   <energy>
    <i name="e_fr_energy">   -205.19810490 </i>
    <i name="e_wo_entrp">   -205.19810490 </i>
    <i name="e_0_energy">   -205.19810490 </i>
   </energy>
  </scstep>
  <scstep>
   <time name="diag">    0.65    0.65</time>
   <time name="diis">    4.78    4.78</time>
   <time name="orth">    0.13    0.13</time>
   <time name="total">    5.91    5.91</time>
   <energy>
    <i name="e_fr_energy">   -172.48060889 </i>
    <i name="e_wo_entrp">   -172.48060889 </i>
    <i name="e_0_energy">   -172.48060889 </i>
   </energy>
  </scstep>
  <scstep>
   <time name="diag">    0.63    0.63</time>
   <time name="diis">    4.72    4.72</time>
   <time name="orth">    0.12    0.12</time>
   <time name="total">    5.79    5.80</time>
   <energy>
    <i name="e_fr_energy">   -160.71070546 </i>
    <i name="e_wo_entrp">   -160.71070546 </i>
    <i name="e_0_energy">   -160.71070546 </i>
   </energy>
  </scstep>
  <scstep>
   <time name="diag">    0.62    0.61</time>
   <time name="diis">    5.27    5.27</time>
   <time name="orth">    0.13    0.13</time>
   <time name="total">    6.34    6.34</time>
   <energy>
    <i name="e_fr_energy">   -156.10546400 </i>
    <i name="e_wo_entrp">   -156.10546400 </i>
    <i name="e_0_energy">   -156.10546400 </i>
   </energy>
  </scstep>
  <scstep>
   <time name="diag">    0.65    0.65</time>
   <time name="diis">    4.86    4.85</time>
   <time name="orth">    0.13    0.13</time>
   <time name="total">    5.99    5.99</time>
   <energy>
    <i name="e_fr_energy">   -157.79087656 </i>
    <i name="e_wo_entrp">   -157.79087656 </i>
    <i name="e_0_energy">   -157.79087656 </i>
   </energy>
  </scstep>
  <scstep>
   <time name="diag">    0.65    0.65</time>
   <time name="diis">    6.12    6.12</time>
   <time name="orth">    0.13    0.13</time>
   <time name="total">    7.24    7.24</time>
   <energy>
    <i name="e_fr_energy">   -155.84371205 </i>
    <i name="e_wo_entrp">   -155.84371205 </i>
    <i name="e_0_energy">   -155.84371205 </i>
   </energy>
  </scstep>
  <scstep>
   <time name="diag">    0.65    0.65</time>
   <time name="diis">    6.56    6.55</time>
   <time name="orth">    0.13    0.13</time>
   <time name="total">    7.68    7.68</time>
   <energy>
    <i name="e_fr_energy">   -156.89416879 </i>
    <i name="e_wo_entrp">   -156.89416879 </i>
    <i name="e_0_energy">   -156.89416879 </i>
   </energy>
  </scstep>
  <scstep>
   <time name="diag">    0.60    0.60</time>
   <time name="diis">    5.90    5.90</time>
   <time name="orth">    0.13    0.13</time>
   <time name="total">    6.98    6.99</time>
   <energy>
    <i name="e_fr_energy">   -155.88850130 </i>
    <i name="e_wo_entrp">   -155.88850130 </i>
    <i name="e_0_energy">   -155.88850130 </i>
   </energy>
  </scstep>
  <scstep>
   <time name="diag">    0.65    0.65</time>
   <time name="diis">    5.21    5.21</time>
   <time name="orth">    0.13    0.13</time>
   <time name="total">    6.33    6.33</time>
   <energy>
    <i name="e_fr_energy">   -157.01950681 </i>
    <i name="e_wo_entrp">   -157.01950681 </i>
    <i name="e_0_energy">   -157.01950681 </i>
   </energy>
  </scstep>
  <scstep>
   <time name="diag">    0.65    0.66</time>
   <time name="diis">    4.70    4.70</time>
   <time name="orth">    0.13    0.13</time>
   <time name="total">    5.83    5.83</time>
   <energy>
    <i name="e_fr_energy">   -150.43962404 </i>
    <i name="e_wo_entrp">   -150.43962404 </i>
    <i name="e_0_energy">   -150.43962404 </i>
   </energy>
  </scstep>
  <scstep>
   <time name="diag">    0.65    0.65</time>
   <time name="diis">    5.14    5.14</time>
   <time name="orth">    0.13    0.13</time>
   <time name="total">    6.27    6.27</time>
   <energy>
    <i name="e_fr_energy">   -149.50919836 </i>
    <i name="e_wo_entrp">   -149.50919836 </i>
    <i name="e_0_energy">   -149.50919836 </i>
   </energy>
  </scstep>
  <scstep>
   <time name="diag">    0.61    0.61</time>
   <time name="diis">    5.49    5.49</time>
   <time name="orth">    0.13    0.13</time>
   <time name="total">    6.58    6.58</time>
   <energy>
    <i name="e_fr_energy">   -149.47695941 </i>
    <i name="e_wo_entrp">   -149.47695941 </i>
    <i name="e_0_energy">   -149.47695941 </i>
   </energy>
  </scstep>
  <scstep>
   <time name="diag">    0.65    0.65</time>
   <time name="diis">    4.86    4.85</time>
   <time name="orth">    0.13    0.13</time>
   <time name="total">    5.98    5.98</time>
   <energy>
    <i name="e_fr_energy">   -148.86404271 </i>
    <i name="e_wo_entrp">   -148.86404271 </i>
    <i name="e_0_energy">   -148.86404271 </i>
   </energy>
  </scstep>
  <scstep>
   <time name="diag">    0.64    0.64</time>
   <time name="diis">    4.71    4.71</time>
   <time name="orth">    0.12    0.13</time>
   <time name="total">    5.83    5.83</time>
   <energy>
    <i name="e_fr_energy">   -148.97960737 </i>
    <i name="e_wo_entrp">   -148.97960737 </i>
    <i name="e_0_energy">   -148.97960737 </i>
   </energy>
  </scstep>
  <scstep>
   <time name="diag">    0.65    0.65</time>
   <time name="diis">    5.45    5.45</time>
   <time name="orth">    0.13    0.13</time>
   <time name="total">    6.57    6.57</time>
   <energy>
    <i name="e_fr_energy">   -148.90545815 </i>
    <i name="e_wo_entrp">   -148.90545815 </i>
    <i name="e_0_energy">   -148.90545815 </i>
   </energy>
  </scstep>
  <scstep>
   <time name="diag">    0.64    0.64</time>
   <time name="diis">    4.90    4.90</time>
   <time name="orth">    0.13    0.13</time>
   <time name="total">    6.03    6.03</time>
   <energy>
    <i name="e_fr_energy">   -148.81803970 </i>
    <i name="e_wo_entrp">   -148.81803970 </i>
    <i name="e_0_energy">   -148.81803970 </i>
   </energy>
  </scstep>
  <scstep>
   <time name="diag">    0.65    0.65</time>
   <time name="diis">    4.73    4.73</time>
   <time name="orth">    0.13    0.13</time>
   <time name="total">    5.86    5.87</time>
   <energy>
    <i name="e_fr_energy">   -148.72143192 </i>
    <i name="e_wo_entrp">   -148.72143192 </i>
    <i name="e_0_energy">   -148.72143192 </i>
   </energy>
  </scstep>
  <scstep>
   <time name="diag">    0.65    0.65</time>
   <time name="diis">    5.40    5.40</time>
   <time name="orth">    0.13    0.13</time>
   <time name="total">    6.53    6.53</time>
   <energy>
    <i name="e_fr_energy">   -148.70482603 </i>
    <i name="e_wo_entrp">   -148.70482603 </i>
    <i name="e_0_energy">   -148.70482603 </i>
   </energy>
  </scstep>
  <scstep>
   <time name="diag">    0.65    0.65</time>
   <time name="diis">    5.12    5.11</time>
   <time name="orth">    0.13    0.13</time>
   <time name="total">    6.25    6.25</time>
   <energy>
    <i name="e_fr_energy">   -148.70987203 </i>
    <i name="e_wo_entrp">   -148.70987203 </i>
    <i name="e_0_energy">   -148.70987203 </i>
   </energy>
  </scstep>
  <scstep>
   <time name="diag">    0.62    0.62</time>
   <time name="diis">    4.94    4.94</time>
   <time name="orth">    0.13    0.13</time>
   <time name="total">    6.04    6.05</time>
   <energy>
    <i name="e_fr_energy">   -148.70323123 </i>
    <i name="e_wo_entrp">   -148.70323123 </i>
    <i name="e_0_energy">   -148.70323123 </i>
   </energy>
  </scstep>
  <scstep>
   <time name="diag">    0.65    0.65</time>
   <time name="diis">    4.85    4.85</time>
   <time name="orth">    0.13    0.13</time>
   <time name="total">    5.98    5.98</time>
   <energy>
    <i name="e_fr_energy">   -148.70247282 </i>
    <i name="e_wo_entrp">   -148.70247282 </i>
    <i name="e_0_energy">   -148.70247282 </i>
   </energy>
  </scstep>
  <scstep>
   <time name="diag">    0.63    0.63</time>
   <time name="diis">    5.03    5.03</time>
   <time name="orth">    0.13    0.13</time>
   <time name="total">    6.14    6.14</time>
   <energy>
    <i name="e_fr_energy">   -148.70258396 </i>
    <i name="e_wo_entrp">   -148.70258396 </i>
    <i name="e_0_energy">   -148.70258396 </i>
   </energy>
  </scstep>
  <scstep>
   <time name="diag">    0.64    0.64</time>
   <time name="diis">    4.77    4.77</time>
   <time name="orth">    0.13    0.13</time>
   <time name="total">    5.90    5.90</time>
   <energy>
    <i name="e_fr_energy">   -148.69694221 </i>
    <i name="e_wo_entrp">   -148.69694221 </i>
    <i name="e_0_energy">   -148.69694221 </i>
   </energy>
  </scstep>
  <scstep>
   <time name="diag">    0.60    0.60</time>
   <time name="diis">    5.08    5.08</time>
   <time name="orth">    0.13    0.13</time>
   <time name="total">    6.16    6.16</time>
   <energy>
    <i name="e_fr_energy">   -148.69220552 </i>
    <i name="e_wo_entrp">   -148.69220552 </i>
    <i name="e_0_energy">   -148.69220552 </i>
   </energy>
  </scstep>
  <scstep>
   <time name="diag">    0.65    0.65</time>
   <time name="diis">    4.58    4.58</time>
   <time name="orth">    0.12    0.12</time>
   <time name="total">    5.70    5.70</time>
   <energy>
    <i name="e_fr_energy">   -148.69102294 </i>
    <i name="e_wo_entrp">   -148.69102294 </i>
    <i name="e_0_energy">   -148.69102294 </i>
   </energy>
  </scstep>
  <scstep>
   <time name="diag">    0.64    0.64</time>
   <time name="diis">    4.65    4.65</time>
   <time name="orth">    0.13    0.13</time>
   <time name="total">    5.77    5.77</time>
   <energy>
    <i name="e_fr_energy">   -148.69470423 </i>
    <i name="e_wo_entrp">   -148.69470423 </i>
    <i name="e_0_energy">   -148.69470423 </i>
   </energy>
  </scstep>
  <scstep>
   <time name="diag">    0.65    0.65</time>
   <time name="diis">    4.25    4.25</time>
   <time name="orth">    0.13    0.13</time>
   <time name="total">    5.38    5.38</time>
   <energy>
    <i name="e_fr_energy">   -148.69438023 </i>
    <i name="e_wo_entrp">   -148.69438023 </i>
    <i name="e_0_energy">   -148.69438023 </i>
   </energy>
  </scstep>
  <scstep>
   <time name="diag">    0.65    0.65</time>
   <time name="diis">    4.31    4.31</time>
   <time name="orth">    0.13    0.13</time>
   <time name="total">    5.45    5.45</time>
   <energy>
    <i name="e_fr_energy">   -148.68939709 </i>
    <i name="e_wo_entrp">   -148.68939709 </i>
    <i name="e_0_energy">   -148.68939709 </i>
   </energy>
  </scstep>
  <scstep>
   <time name="diag">    0.61    0.61</time>
   <time name="diis">    3.56    3.56</time>
   <time name="orth">    0.13    0.13</time>
   <time name="total">    4.65    4.65</time>
   <energy>
    <i name="e_fr_energy">   -148.69645697 </i>
    <i name="e_wo_entrp">   -148.69645697 </i>
    <i name="e_0_energy">   -148.69645697 </i>
   </energy>
  </scstep>
  <scstep>
   <time name="diag">    0.64    0.64</time>
   <time name="diis">    4.07    4.07</time>
   <time name="orth">    0.12    0.12</time>
   <time name="total">    5.19    5.19</time>
   <energy>
    <i name="e_fr_energy">   -148.69178056 </i>
    <i name="e_wo_entrp">   -148.69178056 </i>
    <i name="e_0_energy">   -148.69178056 </i>
   </energy>
  </scstep>
  <scstep>
   <time name="diag">    0.64    0.64</time>
   <time name="diis">    4.13    4.13</time>
   <time name="orth">    0.13    0.13</time>
   <time name="total">    5.25    5.24</time>
   <energy>
    <i name="e_fr_energy">   -148.69401183 </i>
    <i name="e_wo_entrp">   -148.69401183 </i>
    <i name="e_0_energy">   -148.69401183 </i>
   </energy>
  </scstep>
  <scstep>
   <time name="diag">    0.60    0.60</time>
   <time name="diis">    3.94    3.94</time>
   <time name="orth">    0.13    0.13</time>
   <time name="total">    5.02    5.02</time>
   <energy>
    <i name="e_fr_energy">   -148.69418121 </i>
    <i name="e_wo_entrp">   -148.69418121 </i>
    <i name="e_0_energy">   -148.69418121 </i>
   </energy>
  </scstep>
  <scstep>
   <time name="diag">    0.65    0.65</time>
   <time name="diis">    3.10    3.10</time>
   <time name="orth">    0.13    0.13</time>
   <time name="total">    4.24    4.24</time>
   <energy>
    <i name="e_fr_energy">   -148.69434276 </i>
    <i name="e_wo_entrp">   -148.69434276 </i>
    <i name="e_0_energy">   -148.69434276 </i>
   </energy>
  </scstep>
  <scstep>
   <time name="diag">    0.61    0.61</time>
   <time name="diis">    3.92    3.92</time>
   <time name="orth">    0.13    0.13</time>
   <time name="total">    5.00    5.01</time>
   <energy>
    <i name="e_fr_energy">   -148.69454001 </i>
    <i name="e_wo_entrp">   -148.69454001 </i>
    <i name="e_0_energy">   -148.69454001 </i>
   </energy>
  </scstep>
  <scstep>
   <time name="diag">    0.57    0.57</time>
   <time name="diis">    2.90    2.90</time>
   <time name="orth">    0.13    0.13</time>
   <time name="total">    3.95    3.96</time>
   <energy>
    <i name="e_fr_energy">   -148.69449479 </i>
    <i name="e_wo_entrp">   -148.69449479 </i>
    <i name="e_0_energy">   -148.69449479 </i>
   </energy>
  </scstep>
  <scstep>
   <time name="diag">    0.61    0.61</time>
   <time name="diis">    2.51    2.51</time>
   <time name="orth">    0.12    0.12</time>
   <time name="total">    3.58    3.58</time>
   <energy>
    <i name="e_fr_energy">   -148.69490920 </i>
    <i name="e_wo_entrp">   -148.69490920 </i>
    <i name="e_0_energy">   -148.69490920 </i>
   </energy>
  </scstep>
  <scstep>
   <time name="diag">    0.54    0.54</time>
   <time name="diis">    2.29    2.29</time>
   <time name="orth">    0.11    0.11</time>
   <time name="total">    3.25    3.25</time>
   <energy>
    <i name="e_fr_energy">   -148.69481909 </i>
    <i name="e_wo_entrp">   -148.69481909 </i>
    <i name="e_0_energy">   -148.69481909 </i>
   </energy>
  </scstep>
  <scstep>
   <time name="diag">    0.52    0.52</time>
   <time name="diis">    2.36    2.36</time>
   <time name="orth">    0.11    0.11</time>
   <time name="total">    3.31    3.32</time>
   <energy>
    <i name="e_fr_energy">   -148.69465171 </i>
    <i name="e_wo_entrp">   -148.69465171 </i>
    <i name="e_0_energy">   -148.69465171 </i>
   </energy>
  </scstep>
  <scstep>
   <time name="diag">    0.52    0.52</time>
   <time name="diis">    2.19    2.19</time>
   <time name="orth">    0.11    0.11</time>
   <time name="total">    3.14    3.14</time>
   <energy>
    <i name="e_fr_energy">   -148.69458222 </i>
    <i name="e_wo_entrp">   -148.69458222 </i>
    <i name="e_0_energy">   -148.69458222 </i>
   </energy>
  </scstep>
  <scstep>
   <time name="diag">    0.52    0.52</time>
   <time name="diis">    2.13    2.13</time>
   <time name="orth">    0.11    0.11</time>
   <time name="total">    3.08    3.08</time>
   <energy>
    <i name="e_fr_energy">   -148.69451912 </i>
    <i name="e_wo_entrp">   -148.69451912 </i>
    <i name="e_0_energy">   -148.69451912 </i>
   </energy>
  </scstep>
  <scstep>
   <time name="diag">    0.52    0.52</time>
   <time name="diis">    2.16    2.16</time>
   <time name="orth">    0.11    0.11</time>
   <time name="total">    3.11    3.11</time>
   <energy>
    <i name="e_fr_energy">   -148.69444545 </i>
    <i name="e_wo_entrp">   -148.69444545 </i>
    <i name="e_0_energy">   -148.69444545 </i>
   </energy>
  </scstep>
  <scstep>
   <time name="diag">    0.52    0.52</time>
   <time name="diis">    2.10    2.10</time>
   <time name="orth">    0.11    0.11</time>
   <time name="total">    3.05    3.05</time>
   <energy>
    <i name="e_fr_energy">   -148.69440509 </i>
    <i name="e_wo_entrp">   -148.69440509 </i>
    <i name="e_0_energy">   -148.69440509 </i>
   </energy>
  </scstep>
  <scstep>
   <time name="diag">    0.52    0.52</time>
   <time name="diis">    2.06    2.06</time>
   <time name="orth">    0.11    0.11</time>
   <time name="total">    2.81    2.82</time>
   <energy>
    <i name="alphaZ">    378.09908315 </i>
    <i name="ewald">  22731.27163923 </i>
    <i name="hartreedc"> -31286.87837154 </i>
    <i name="XCdc">    340.17625943 </i>
    <i name="pawpsdc">   6163.56413583 </i>
    <i name="pawaedc">  -5993.06304448 </i>
    <i name="eentropy">      0.00000000 </i>
    <i name="bandstr">  -1419.13236377 </i>
    <i name="atom">   8937.26825017 </i>
    <i name="e_fr_energy">   -148.69441198 </i>
    <i name="e_wo_entrp">   -148.69441198 </i>
    <i name="e_0_energy">   -148.69441198 </i>
   </energy>
  </scstep>
  <structure>
   <crystal>
    <varray name="basis" >
     <v>       5.52288297       0.00000000       0.00000000 </v>
     <v>       0.00000000       3.90526800       0.00000000 </v>
     <v>       0.00000000       0.00000000      21.66504520 </v>
    </varray>
    <i name="volume">    467.27902047 </i>
    <varray name="rec_basis" >
     <v>       0.18106485       0.00000000       0.00000000 </v>
     <v>       0.00000000       0.25606437       0.00000000 </v>
     <v>       0.00000000       0.00000000       0.04615730 </v>
    </varray>
   </crystal>
   <varray name="positions" >
    <v>       0.50000000       0.00000000       0.27694380 </v>
    <v>       0.25000000       0.50000000       0.34067414 </v>
    <v>       0.75000000       0.50000000       0.34067414 </v>
    <v>       0.00000000       0.00000000       0.40440449 </v>
    <v>       0.75000000       0.50000000       0.46813483 </v>
    <v>       0.25000000       0.50000000       0.46813483 </v>
    <v>       0.50000000       0.00000000       0.53186517 </v>
    <v>       0.25000000       0.50000000       0.59559551 </v>
    <v>       0.75000000       0.50000000       0.59559551 </v>
    <v>       0.00000000       0.00000000       0.65932586 </v>
    <v>       0.75000000       0.50000000       0.72305620 </v>
    <v>       0.25000000       0.50000000       0.72305620 </v>
    <v>       0.00000000       0.00000000       0.27694380 </v>
    <v>       0.50000000       0.00000000       0.40440449 </v>
    <v>       0.00000000       0.00000000       0.53186517 </v>
    <v>       0.50000000       0.00000000       0.65932586 </v>
    <v>       0.50000000       0.50000000       0.27694380 </v>
    <v>       0.00000000       0.50000000       0.40440449 </v>
    <v>       0.50000000       0.50000000       0.53186517 </v>
    <v>       0.00000000       0.50000000       0.65932586 </v>
   </varray>
  </structure>
  <varray name="forces" >
   <v>       0.00000000      -0.00000000      -1.45219047 </v>
   <v>       0.71100133      -0.00000000      -2.09725399 </v>
   <v>      -0.71100133      -0.00000000      -2.09725399 </v>
   <v>       0.00000000      -0.00000000      -0.75591837 </v>
   <v>       0.55377255      -0.00000000      -1.27127917 </v>
   <v>      -0.55377255       0.00000000      -1.27127917 </v>
   <v>       0.00000000      -0.00000000      -0.59445488 </v>
   <v>       0.80859044      -0.00000000      -1.46185870 </v>
   <v>      -0.80859044      -0.00000000      -1.46185870 </v>
   <v>       0.00000000      -0.00000000      -1.08152339 </v>
   <v>       0.20124811      -0.00000000      -1.06302991 </v>
   <v>      -0.20124811       0.00000000      -1.06302991 </v>
   <v>       0.00000000      -0.00000000       0.90928742 </v>
   <v>       0.00000000      -0.00000000       0.95777348 </v>
   <v>       0.00000000      -0.00000000       0.73799224 </v>
   <v>       0.00000000      -0.00000000       1.59428087 </v>
   <v>       0.00000000      -0.00000000       2.35019395 </v>
   <v>       0.00000000      -0.00000000       2.61964298 </v>
   <v>       0.00000000      -0.00000000       2.33761895 </v>
   <v>       0.00000000      -0.00000000       4.16414071 </v>
  </varray>
  <varray name="stress" >
   <v>      14.31836079       0.00000000       0.00000000 </v>
   <v>       0.00000000      30.54851815       0.00000000 </v>
   <v>       0.00000000       0.00000000       8.14278306 </v>
  </varray>
  <energy>
   <i name="e_fr_energy">   -148.69441198 </i>
   <i name="e_wo_entrp">   -148.69441198 </i>
   <i name="e_0_energy">      0.00000000 </i>
  </energy>
  <time name="totalsc">  275.87  276.09</time>
  <eigenvalues>
   <array>
    <dimension dim="1">band</dimension>
    <dimension dim="2">kpoint</dimension>
    <dimension dim="3">spin</dimension>
    <field>eigene</field>
    <field>occ</field>
    <set>
     <set comment="spin 1">
      <set comment="kpoint 1">
       <r>  -36.6428    1.0000 </r>
       <r>  -35.2840    1.0000 </r>
       <r>  -34.3280    1.0000 </r>
       <r>  -33.4304    1.0000 </r>
       <r>  -20.5178    1.0000 </r>
       <r>  -20.0444    1.0000 </r>
       <r>  -19.8774    1.0000 </r>
       <r>  -19.3743    1.0000 </r>
       <r>  -19.0651    1.0000 </r>
       <r>  -18.7000    1.0000 </r>
       <r>  -18.6469    1.0000 </r>
       <r>  -18.5695    1.0000 </r>
       <r>  -18.5578    1.0000 </r>
       <r>  -18.3730    1.0000 </r>
       <r>  -18.1134    1.0000 </r>
       <r>  -17.8451    1.0000 </r>
       <r>  -17.3311    1.0000 </r>
       <r>  -17.3278    1.0000 </r>
       <r>  -17.1504    1.0000 </r>
       <r>  -17.0708    1.0000 </r>
       <r>  -16.5130    1.0000 </r>
       <r>  -16.3660    1.0000 </r>
       <r>  -16.2909    1.0000 </r>
       <r>  -16.1742    1.0000 </r>
       <r>  -16.1143    1.0000 </r>
       <r>  -15.4467    1.0000 </r>
       <r>  -15.1784    1.0000 </r>
       <r>  -15.1259    1.0000 </r>
       <r>   -7.1343    1.0000 </r>
       <r>   -6.8222    1.0000 </r>
       <r>   -6.6579    1.0000 </r>
       <r>   -6.0218    1.0000 </r>
       <r>   -5.9090    1.0000 </r>
       <r>   -5.5558    1.0000 </r>
       <r>   -5.4655    1.0000 </r>
       <r>   -5.3162    1.0000 </r>
       <r>   -5.1395    1.0000 </r>
       <r>   -5.0621    1.0000 </r>
       <r>   -5.0125    1.0000 </r>
       <r>   -4.8748    1.0000 </r>
       <r>   -4.7662    1.0000 </r>
       <r>   -4.5992    1.0000 </r>
       <r>   -4.2657    1.0000 </r>
       <r>   -4.1418    1.0000 </r>
       <r>   -4.0971    1.0000 </r>
       <r>   -4.0191    1.0000 </r>
       <r>   -3.8194    1.0000 </r>
       <r>   -3.7850    1.0000 </r>
       <r>   -3.5588    1.0000 </r>
       <r>   -3.2684    1.0000 </r>
       <r>   -3.0315    1.0000 </r>
       <r>   -2.9418    1.0000 </r>
       <r>   -2.9081    1.0000 </r>
       <r>   -2.7253    1.0000 </r>
       <r>   -2.6826    1.0000 </r>
       <r>   -2.4181    1.0000 </r>
       <r>   -2.3162    1.0000 </r>
       <r>   -1.9723    1.0000 </r>
       <r>   -1.9413    1.0000 </r>
       <r>   -1.3826    1.0000 </r>
       <r>   -1.3477    1.0000 </r>
       <r>   -1.0992    1.0000 </r>
       <r>   -1.0982    1.0000 </r>
       <r>   -1.0590    1.0000 </r>
       <r>   -0.8822    1.1312 </r>
       <r>   -0.7892    0.0000 </r>
       <r>   -0.7840    0.0000 </r>
       <r>   -0.4805    0.0000 </r>
       <r>    0.0433    0.0000 </r>
       <r>    0.2729    0.0000 </r>
       <r>    0.3710    0.0000 </r>
       <r>    0.6267    0.0000 </r>
       <r>    1.3069    0.0000 </r>
       <r>    2.6382    0.0000 </r>
       <r>    3.9795    0.0000 </r>
       <r>    4.1262    0.0000 </r>
      </set>
      <set comment="kpoint 2">
       <r>  -36.6424    1.0000 </r>
       <r>  -35.2835    1.0000 </r>
       <r>  -34.3275    1.0000 </r>
       <r>  -33.4300    1.0000 </r>
       <r>  -20.6029    1.0000 </r>
       <r>  -20.2531    1.0000 </r>
       <r>  -19.7149    1.0000 </r>
       <r>  -19.3551    1.0000 </r>
       <r>  -19.1746    1.0000 </r>
       <r>  -18.7503    1.0000 </r>
       <r>  -18.6474    1.0000 </r>
       <r>  -18.4804    1.0000 </r>
       <r>  -18.4003    1.0000 </r>
       <r>  -18.3726    1.0000 </r>
       <r>  -18.2093    1.0000 </r>
       <r>  -17.8025    1.0000 </r>
       <r>  -17.3287    1.0000 </r>
       <r>  -17.3110    1.0000 </r>
       <r>  -17.0957    1.0000 </r>
       <r>  -17.0745    1.0000 </r>
       <r>  -16.4695    1.0000 </r>
       <r>  -16.3669    1.0000 </r>
       <r>  -16.2990    1.0000 </r>
       <r>  -16.1360    1.0000 </r>
       <r>  -16.0271    1.0000 </r>
       <r>  -15.4480    1.0000 </r>
       <r>  -15.1856    1.0000 </r>
       <r>  -15.1011    1.0000 </r>
       <r>   -6.9033    1.0000 </r>
       <r>   -6.7343    1.0000 </r>
       <r>   -6.6893    1.0000 </r>
       <r>   -5.9792    1.0000 </r>
       <r>   -5.7429    1.0000 </r>
       <r>   -5.6271    1.0000 </r>
       <r>   -5.5947    1.0000 </r>
       <r>   -5.4023    1.0000 </r>
       <r>   -5.1909    1.0000 </r>
       <r>   -5.1149    1.0000 </r>
       <r>   -4.9095    1.0000 </r>
       <r>   -4.8224    1.0000 </r>
       <r>   -4.6670    1.0000 </r>
       <r>   -4.6445    1.0000 </r>
       <r>   -4.5090    1.0000 </r>
       <r>   -4.4286    1.0000 </r>
       <r>   -4.1016    1.0000 </r>
       <r>   -4.0277    1.0000 </r>
       <r>   -4.0245    1.0000 </r>
       <r>   -3.7250    1.0000 </r>
       <r>   -3.5369    1.0000 </r>
       <r>   -3.4003    1.0000 </r>
       <r>   -3.3639    1.0000 </r>
       <r>   -3.0581    1.0000 </r>
       <r>   -3.0046    1.0000 </r>
       <r>   -2.8252    1.0000 </r>
       <r>   -2.6031    1.0000 </r>
       <r>   -2.5641    1.0000 </r>
       <r>   -2.3369    1.0000 </r>
       <r>   -2.3280    1.0000 </r>
       <r>   -1.8803    1.0000 </r>
       <r>   -1.4594    1.0000 </r>
       <r>   -1.4132    1.0000 </r>
       <r>   -1.0980    1.0000 </r>
       <r>   -1.0870    1.0000 </r>
       <r>   -0.9600    1.0000 </r>
       <r>   -0.8769    1.0910 </r>
       <r>   -0.7927    0.0430 </r>
       <r>   -0.7456    0.0000 </r>
       <r>   -0.5927    0.0000 </r>
       <r>    0.0642    0.0000 </r>
       <r>    0.3144    0.0000 </r>
       <r>    0.3523    0.0000 </r>
       <r>    0.8474    0.0000 </r>
       <r>    1.2946    0.0000 </r>
       <r>    2.6110    0.0000 </r>
       <r>    2.6744    0.0000 </r>
       <r>    4.2822    0.0000 </r>
      </set>
      <set comment="kpoint 3">
       <r>  -36.6420    1.0000 </r>
       <r>  -35.2830    1.0000 </r>
       <r>  -34.3270    1.0000 </r>
       <r>  -33.4297    1.0000 </r>
       <r>  -20.6922    1.0000 </r>
       <r>  -20.3427    1.0000 </r>
       <r>  -19.6842    1.0000 </r>
       <r>  -19.3135    1.0000 </r>
       <r>  -19.2682    1.0000 </r>
       <r>  -18.7573    1.0000 </r>
       <r>  -18.6479    1.0000 </r>
       <r>  -18.4035    1.0000 </r>
       <r>  -18.3848    1.0000 </r>
       <r>  -18.3010    1.0000 </r>
       <r>  -18.2603    1.0000 </r>
       <r>  -17.7847    1.0000 </r>
       <r>  -17.3296    1.0000 </r>
       <r>  -17.2994    1.0000 </r>
       <r>  -17.0792    1.0000 </r>
       <r>  -17.0334    1.0000 </r>
       <r>  -16.3963    1.0000 </r>
       <r>  -16.3679    1.0000 </r>
       <r>  -16.3250    1.0000 </r>
       <r>  -16.0676    1.0000 </r>
       <r>  -15.9925    1.0000 </r>
       <r>  -15.4493    1.0000 </r>
       <r>  -15.1849    1.0000 </r>
       <r>  -15.0692    1.0000 </r>
       <r>   -6.8461    1.0000 </r>
       <r>   -6.7371    1.0000 </r>
       <r>   -6.0331    1.0000 </r>
       <r>   -6.0152    1.0000 </r>
       <r>   -5.9152    1.0000 </r>
       <r>   -5.7159    1.0000 </r>
       <r>   -5.6552    1.0000 </r>
       <r>   -5.5566    1.0000 </r>
       <r>   -5.3944    1.0000 </r>
       <r>   -5.1605    1.0000 </r>
       <r>   -4.7528    1.0000 </r>
       <r>   -4.7198    1.0000 </r>
       <r>   -4.7146    1.0000 </r>
       <r>   -4.6645    1.0000 </r>
       <r>   -4.5095    1.0000 </r>
       <r>   -4.4226    1.0000 </r>
       <r>   -4.3771    1.0000 </r>
       <r>   -4.1312    1.0000 </r>
       <r>   -4.0549    1.0000 </r>
       <r>   -3.8286    1.0000 </r>
       <r>   -3.7910    1.0000 </r>
       <r>   -3.3528    1.0000 </r>
       <r>   -3.3233    1.0000 </r>
       <r>   -3.2805    1.0000 </r>
       <r>   -3.1089    1.0000 </r>
       <r>   -3.0826    1.0000 </r>
       <r>   -2.8693    1.0000 </r>
       <r>   -2.5067    1.0000 </r>
       <r>   -2.3614    1.0000 </r>
       <r>   -2.3481    1.0000 </r>
       <r>   -1.6724    1.0000 </r>
       <r>   -1.5776    1.0000 </r>
       <r>   -1.4738    1.0000 </r>
       <r>   -1.2773    1.0000 </r>
       <r>   -1.0790    1.0000 </r>
       <r>   -1.0487    1.0000 </r>
       <r>   -0.8475    1.0325 </r>
       <r>   -0.7998    0.1385 </r>
       <r>   -0.7637    0.0000 </r>
       <r>   -0.3953    0.0000 </r>
       <r>    0.0169    0.0000 </r>
       <r>    0.2965    0.0000 </r>
       <r>    0.3848    0.0000 </r>
       <r>    0.9639    0.0000 </r>
       <r>    1.2902    0.0000 </r>
       <r>    1.4698    0.0000 </r>
       <r>    2.5645    0.0000 </r>
       <r>    2.6811    0.0000 </r>
      </set>
      <set comment="kpoint 4">
       <r>  -36.6365    1.0000 </r>
       <r>  -35.2768    1.0000 </r>
       <r>  -34.3208    1.0000 </r>
       <r>  -33.4234    1.0000 </r>
       <r>  -20.4367    1.0000 </r>
       <r>  -19.9579    1.0000 </r>
       <r>  -19.7881    1.0000 </r>
       <r>  -19.2967    1.0000 </r>
       <r>  -19.0989    1.0000 </r>
       <r>  -18.6498    1.0000 </r>
       <r>  -18.6292    1.0000 </r>
       <r>  -18.6029    1.0000 </r>
       <r>  -18.5141    1.0000 </r>
       <r>  -18.2989    1.0000 </r>
       <r>  -18.1346    1.0000 </r>
       <r>  -17.7676    1.0000 </r>
       <r>  -17.2873    1.0000 </r>
       <r>  -17.2433    1.0000 </r>
       <r>  -17.2259    1.0000 </r>
       <r>  -17.0986    1.0000 </r>
       <r>  -16.5927    1.0000 </r>
       <r>  -16.2995    1.0000 </r>
       <r>  -16.2926    1.0000 </r>
       <r>  -16.1931    1.0000 </r>
       <r>  -16.1437    1.0000 </r>
       <r>  -15.3721    1.0000 </r>
       <r>  -15.2489    1.0000 </r>
       <r>  -15.2228    1.0000 </r>
       <r>   -7.0414    1.0000 </r>
       <r>   -6.6865    1.0000 </r>
       <r>   -6.6469    1.0000 </r>
       <r>   -6.5532    1.0000 </r>
       <r>   -6.0421    1.0000 </r>
       <r>   -5.9382    1.0000 </r>
       <r>   -5.8142    1.0000 </r>
       <r>   -5.5650    1.0000 </r>
       <r>   -5.5074    1.0000 </r>
       <r>   -5.2282    1.0000 </r>
       <r>   -5.1685    1.0000 </r>
       <r>   -5.1054    1.0000 </r>
       <r>   -4.9243    1.0000 </r>
       <r>   -4.6940    1.0000 </r>
       <r>   -4.6786    1.0000 </r>
       <r>   -4.4637    1.0000 </r>
       <r>   -4.3199    1.0000 </r>
       <r>   -4.1736    1.0000 </r>
       <r>   -4.0693    1.0000 </r>
       <r>   -3.8092    1.0000 </r>
       <r>   -3.7677    1.0000 </r>
       <r>   -3.4499    1.0000 </r>
       <r>   -3.3774    1.0000 </r>
       <r>   -3.2666    1.0000 </r>
       <r>   -2.9640    1.0000 </r>
       <r>   -2.8372    1.0000 </r>
       <r>   -2.7535    1.0000 </r>
       <r>   -2.6195    1.0000 </r>
       <r>   -2.3067    1.0000 </r>
       <r>   -2.0830    1.0000 </r>
       <r>   -2.0433    1.0000 </r>
       <r>   -1.5317    1.0000 </r>
       <r>   -1.3105    1.0000 </r>
       <r>   -1.0756    1.0000 </r>
       <r>   -0.9176    1.0508 </r>
       <r>   -0.9009    1.0423 </r>
       <r>   -0.7736    0.2347 </r>
       <r>   -0.5179    0.0000 </r>
       <r>   -0.4916    0.0000 </r>
       <r>   -0.2360    0.0000 </r>
       <r>    0.1750    0.0000 </r>
       <r>    0.6471    0.0000 </r>
       <r>    0.6813    0.0000 </r>
       <r>    0.7128    0.0000 </r>
       <r>    1.5744    0.0000 </r>
       <r>    1.6075    0.0000 </r>
       <r>    2.8689    0.0000 </r>
       <r>    2.9209    0.0000 </r>
      </set>
      <set comment="kpoint 5">
       <r>  -36.6362    1.0000 </r>
       <r>  -35.2764    1.0000 </r>
       <r>  -34.3204    1.0000 </r>
       <r>  -33.4231    1.0000 </r>
       <r>  -20.4633    1.0000 </r>
       <r>  -20.1697    1.0000 </r>
       <r>  -19.6866    1.0000 </r>
       <r>  -19.3074    1.0000 </r>
       <r>  -19.1324    1.0000 </r>
       <r>  -18.7363    1.0000 </r>
       <r>  -18.6302    1.0000 </r>
       <r>  -18.5015    1.0000 </r>
       <r>  -18.3878    1.0000 </r>
       <r>  -18.3172    1.0000 </r>
       <r>  -18.1904    1.0000 </r>
       <r>  -17.7797    1.0000 </r>
       <r>  -17.2864    1.0000 </r>
       <r>  -17.2304    1.0000 </r>
       <r>  -17.1480    1.0000 </r>
       <r>  -17.1170    1.0000 </r>
       <r>  -16.5506    1.0000 </r>
       <r>  -16.3104    1.0000 </r>
       <r>  -16.2576    1.0000 </r>
       <r>  -16.1913    1.0000 </r>
       <r>  -16.0384    1.0000 </r>
       <r>  -15.3650    1.0000 </r>
       <r>  -15.2433    1.0000 </r>
       <r>  -15.1599    1.0000 </r>
       <r>   -6.8910    1.0000 </r>
       <r>   -6.7305    1.0000 </r>
       <r>   -6.6646    1.0000 </r>
       <r>   -6.5059    1.0000 </r>
       <r>   -6.1928    1.0000 </r>
       <r>   -5.8861    1.0000 </r>
       <r>   -5.8003    1.0000 </r>
       <r>   -5.6302    1.0000 </r>
       <r>   -5.5516    1.0000 </r>
       <r>   -5.2464    1.0000 </r>
       <r>   -5.1678    1.0000 </r>
       <r>   -5.0472    1.0000 </r>
       <r>   -4.9004    1.0000 </r>
       <r>   -4.7868    1.0000 </r>
       <r>   -4.7252    1.0000 </r>
       <r>   -4.6617    1.0000 </r>
       <r>   -4.4040    1.0000 </r>
       <r>   -4.2297    1.0000 </r>
       <r>   -3.9577    1.0000 </r>
       <r>   -3.9356    1.0000 </r>
       <r>   -3.7434    1.0000 </r>
       <r>   -3.6181    1.0000 </r>
       <r>   -3.3895    1.0000 </r>
       <r>   -3.2810    1.0000 </r>
       <r>   -3.2229    1.0000 </r>
       <r>   -2.9883    1.0000 </r>
       <r>   -2.8876    1.0000 </r>
       <r>   -2.6040    1.0000 </r>
       <r>   -2.3215    1.0000 </r>
       <r>   -2.1871    1.0000 </r>
       <r>   -2.0274    1.0000 </r>
       <r>   -1.7031    1.0000 </r>
       <r>   -1.2928    1.0000 </r>
       <r>   -1.0643    1.0000 </r>
       <r>   -0.9256    1.0261 </r>
       <r>   -0.9126    1.0539 </r>
       <r>   -0.7752    0.3169 </r>
       <r>   -0.6242   -0.0243 </r>
       <r>   -0.4089    0.0000 </r>
       <r>   -0.1773    0.0000 </r>
       <r>    0.2426    0.0000 </r>
       <r>    0.6793    0.0000 </r>
       <r>    0.7029    0.0000 </r>
       <r>    0.8847    0.0000 </r>
       <r>    1.5642    0.0000 </r>
       <r>    1.5899    0.0000 </r>
       <r>    2.8570    0.0000 </r>
       <r>    2.8939    0.0000 </r>
      </set>
      <set comment="kpoint 6">
       <r>  -36.6358    1.0000 </r>
       <r>  -35.2760    1.0000 </r>
       <r>  -34.3201    1.0000 </r>
       <r>  -33.4228    1.0000 </r>
       <r>  -20.5177    1.0000 </r>
       <r>  -20.2494    1.0000 </r>
       <r>  -19.6924    1.0000 </r>
       <r>  -19.3239    1.0000 </r>
       <r>  -19.1576    1.0000 </r>
       <r>  -18.7731    1.0000 </r>
       <r>  -18.6108    1.0000 </r>
       <r>  -18.3886    1.0000 </r>
       <r>  -18.3733    1.0000 </r>
       <r>  -18.3227    1.0000 </r>
       <r>  -18.2146    1.0000 </r>
       <r>  -17.8053    1.0000 </r>
       <r>  -17.2915    1.0000 </r>
       <r>  -17.2114    1.0000 </r>
       <r>  -17.1360    1.0000 </r>
       <r>  -17.0645    1.0000 </r>
       <r>  -16.4867    1.0000 </r>
       <r>  -16.3453    1.0000 </r>
       <r>  -16.2317    1.0000 </r>
       <r>  -16.1238    1.0000 </r>
       <r>  -16.0091    1.0000 </r>
       <r>  -15.3534    1.0000 </r>
       <r>  -15.1967    1.0000 </r>
       <r>  -15.1213    1.0000 </r>
       <r>   -6.8980    1.0000 </r>
       <r>   -6.7764    1.0000 </r>
       <r>   -6.5957    1.0000 </r>
       <r>   -6.4729    1.0000 </r>
       <r>   -6.0482    1.0000 </r>
       <r>   -5.8627    1.0000 </r>
       <r>   -5.8061    1.0000 </r>
       <r>   -5.6561    1.0000 </r>
       <r>   -5.6319    1.0000 </r>
       <r>   -5.5174    1.0000 </r>
       <r>   -5.1920    1.0000 </r>
       <r>   -5.1445    1.0000 </r>
       <r>   -4.9209    1.0000 </r>
       <r>   -4.8421    1.0000 </r>
       <r>   -4.7268    1.0000 </r>
       <r>   -4.5975    1.0000 </r>
       <r>   -4.2764    1.0000 </r>
       <r>   -4.2715    1.0000 </r>
       <r>   -4.1464    1.0000 </r>
       <r>   -3.9665    1.0000 </r>
       <r>   -3.8968    1.0000 </r>
       <r>   -3.5642    1.0000 </r>
       <r>   -3.5100    1.0000 </r>
       <r>   -3.4270    1.0000 </r>
       <r>   -3.2844    1.0000 </r>
       <r>   -3.0367    1.0000 </r>
       <r>   -2.9938    1.0000 </r>
       <r>   -2.9173    1.0000 </r>
       <r>   -2.3113    1.0000 </r>
       <r>   -2.1249    1.0000 </r>
       <r>   -1.9430    1.0000 </r>
       <r>   -1.6345    1.0000 </r>
       <r>   -1.3418    1.0000 </r>
       <r>   -1.2846    1.0000 </r>
       <r>   -1.0488    1.0000 </r>
       <r>   -0.9196    1.0601 </r>
       <r>   -0.8383    0.8263 </r>
       <r>   -0.4934   -0.0501 </r>
       <r>   -0.2946    0.0000 </r>
       <r>   -0.1253    0.0000 </r>
       <r>    0.5126    0.0000 </r>
       <r>    0.7270    0.0000 </r>
       <r>    0.9883    0.0000 </r>
       <r>    1.5419    0.0000 </r>
       <r>    1.5610    0.0000 </r>
       <r>    1.8555    0.0000 </r>
       <r>    2.8190    0.0000 </r>
       <r>    2.8895    0.0000 </r>
      </set>
      <set comment="kpoint 7">
       <r>  -36.6263    1.0000 </r>
       <r>  -35.2651    1.0000 </r>
       <r>  -34.3092    1.0000 </r>
       <r>  -33.4119    1.0000 </r>
       <r>  -20.4193    1.0000 </r>
       <r>  -19.7374    1.0000 </r>
       <r>  -19.6093    1.0000 </r>
       <r>  -19.2137    1.0000 </r>
       <r>  -19.1083    1.0000 </r>
       <r>  -18.7536    1.0000 </r>
       <r>  -18.5937    1.0000 </r>
       <r>  -18.4421    1.0000 </r>
       <r>  -18.4408    1.0000 </r>
       <r>  -18.2087    1.0000 </r>
       <r>  -18.0897    1.0000 </r>
       <r>  -17.6112    1.0000 </r>
       <r>  -17.4311    1.0000 </r>
       <r>  -17.2150    1.0000 </r>
       <r>  -17.1849    1.0000 </r>
       <r>  -17.0306    1.0000 </r>
       <r>  -16.6365    1.0000 </r>
       <r>  -16.4852    1.0000 </r>
       <r>  -16.2075    1.0000 </r>
       <r>  -16.1371    1.0000 </r>
       <r>  -16.0149    1.0000 </r>
       <r>  -15.5090    1.0000 </r>
       <r>  -15.4561    1.0000 </r>
       <r>  -15.1465    1.0000 </r>
       <r>   -7.4803    1.0000 </r>
       <r>   -6.9942    1.0000 </r>
       <r>   -6.6934    1.0000 </r>
       <r>   -6.6205    1.0000 </r>
       <r>   -6.5273    1.0000 </r>
       <r>   -6.5099    1.0000 </r>
       <r>   -6.4089    1.0000 </r>
       <r>   -5.9615    1.0000 </r>
       <r>   -5.7544    1.0000 </r>
       <r>   -5.6359    1.0000 </r>
       <r>   -5.5797    1.0000 </r>
       <r>   -5.4835    1.0000 </r>
       <r>   -5.1394    1.0000 </r>
       <r>   -4.9880    1.0000 </r>
       <r>   -4.9017    1.0000 </r>
       <r>   -4.7029    1.0000 </r>
       <r>   -4.6235    1.0000 </r>
       <r>   -4.5924    1.0000 </r>
       <r>   -4.4084    1.0000 </r>
       <r>   -4.1887    1.0000 </r>
       <r>   -4.0730    1.0000 </r>
       <r>   -3.7451    1.0000 </r>
       <r>   -3.5510    1.0000 </r>
       <r>   -3.4895    1.0000 </r>
       <r>   -3.0179    1.0000 </r>
       <r>   -2.8709    1.0000 </r>
       <r>   -2.7628    1.0000 </r>
       <r>   -2.7343    1.0000 </r>
       <r>   -2.3066    1.0000 </r>
       <r>   -2.1623    1.0000 </r>
       <r>   -1.9187    1.0000 </r>
       <r>   -1.4425    1.0000 </r>
       <r>   -1.2909    1.0000 </r>
       <r>   -0.9075    1.0000 </r>
       <r>   -0.7708    0.2818 </r>
       <r>   -0.7418    0.1430 </r>
       <r>   -0.5166    0.0000 </r>
       <r>   -0.4806    0.0000 </r>
       <r>   -0.2242    0.0000 </r>
       <r>    0.5745    0.0000 </r>
       <r>    0.6513    0.0000 </r>
       <r>    0.7425    0.0000 </r>
       <r>    1.3184    0.0000 </r>
       <r>    1.3607    0.0000 </r>
       <r>    1.7858    0.0000 </r>
       <r>    2.1978    0.0000 </r>
       <r>    3.2224    0.0000 </r>
       <r>    3.4425    0.0000 </r>
      </set>
      <set comment="kpoint 8">
       <r>  -36.6261    1.0000 </r>
       <r>  -35.2649    1.0000 </r>
       <r>  -34.3090    1.0000 </r>
       <r>  -33.4118    1.0000 </r>
       <r>  -20.3312    1.0000 </r>
       <r>  -19.9499    1.0000 </r>
       <r>  -19.6881    1.0000 </r>
       <r>  -19.2097    1.0000 </r>
       <r>  -19.1027    1.0000 </r>
       <r>  -18.5958    1.0000 </r>
       <r>  -18.5705    1.0000 </r>
       <r>  -18.5202    1.0000 </r>
       <r>  -18.4491    1.0000 </r>
       <r>  -18.2027    1.0000 </r>
       <r>  -18.1506    1.0000 </r>
       <r>  -17.7252    1.0000 </r>
       <r>  -17.2676    1.0000 </r>
       <r>  -17.2335    1.0000 </r>
       <r>  -17.1478    1.0000 </r>
       <r>  -17.0827    1.0000 </r>
       <r>  -16.6067    1.0000 </r>
       <r>  -16.3117    1.0000 </r>
       <r>  -16.2569    1.0000 </r>
       <r>  -16.1305    1.0000 </r>
       <r>  -16.0134    1.0000 </r>
       <r>  -15.4597    1.0000 </r>
       <r>  -15.3461    1.0000 </r>
       <r>  -15.0910    1.0000 </r>
       <r>   -7.4985    1.0000 </r>
       <r>   -6.9650    1.0000 </r>
       <r>   -6.8342    1.0000 </r>
       <r>   -6.7654    1.0000 </r>
       <r>   -6.6567    1.0000 </r>
       <r>   -6.5374    1.0000 </r>
       <r>   -6.2644    1.0000 </r>
       <r>   -5.9966    1.0000 </r>
       <r>   -5.8258    1.0000 </r>
       <r>   -5.7555    1.0000 </r>
       <r>   -5.5489    1.0000 </r>
       <r>   -5.4335    1.0000 </r>
       <r>   -5.1844    1.0000 </r>
       <r>   -5.1487    1.0000 </r>
       <r>   -4.9858    1.0000 </r>
       <r>   -4.8412    1.0000 </r>
       <r>   -4.6488    1.0000 </r>
       <r>   -4.3765    1.0000 </r>
       <r>   -4.2734    1.0000 </r>
       <r>   -4.2190    1.0000 </r>
       <r>   -4.1175    1.0000 </r>
       <r>   -3.8209    1.0000 </r>
       <r>   -3.6955    1.0000 </r>
       <r>   -3.5139    1.0000 </r>
       <r>   -3.3355    1.0000 </r>
       <r>   -2.8755    1.0000 </r>
       <r>   -2.8398    1.0000 </r>
       <r>   -2.6469    1.0000 </r>
       <r>   -2.2610    1.0000 </r>
       <r>   -2.0547    1.0000 </r>
       <r>   -1.9518    1.0000 </r>
       <r>   -1.6825    1.0000 </r>
       <r>   -1.2153    1.0000 </r>
       <r>   -0.8959    1.0000 </r>
       <r>   -0.8061    0.8993 </r>
       <r>   -0.7658    0.2300 </r>
       <r>   -0.7335   -0.0101 </r>
       <r>   -0.4062    0.0000 </r>
       <r>   -0.0458    0.0000 </r>
       <r>    0.6101    0.0000 </r>
       <r>    0.6693    0.0000 </r>
       <r>    0.9330    0.0000 </r>
       <r>    1.3488    0.0000 </r>
       <r>    1.7963    0.0000 </r>
       <r>    2.1332    0.0000 </r>
       <r>    2.1672    0.0000 </r>
       <r>    3.1710    0.0000 </r>
       <r>    3.4049    0.0000 </r>
      </set>
      <set comment="kpoint 9">
       <r>  -36.6259    1.0000 </r>
       <r>  -35.2647    1.0000 </r>
       <r>  -34.3088    1.0000 </r>
       <r>  -33.4117    1.0000 </r>
       <r>  -20.1485    1.0000 </r>
       <r>  -20.1469    1.0000 </r>
       <r>  -19.8356    1.0000 </r>
       <r>  -19.2742    1.0000 </r>
       <r>  -18.9465    1.0000 </r>
       <r>  -18.7932    1.0000 </r>
       <r>  -18.5499    1.0000 </r>
       <r>  -18.4376    1.0000 </r>
       <r>  -18.3677    1.0000 </r>
       <r>  -18.2713    1.0000 </r>
       <r>  -18.0548    1.0000 </r>
       <r>  -17.8963    1.0000 </r>
       <r>  -17.2443    1.0000 </r>
       <r>  -17.2417    1.0000 </r>
       <r>  -17.0759    1.0000 </r>
       <r>  -17.0434    1.0000 </r>
       <r>  -16.5577    1.0000 </r>
       <r>  -16.3074    1.0000 </r>
       <r>  -16.1715    1.0000 </r>
       <r>  -16.1475    1.0000 </r>
       <r>  -15.9902    1.0000 </r>
       <r>  -15.4630    1.0000 </r>
       <r>  -15.1849    1.0000 </r>
       <r>  -15.0474    1.0000 </r>
       <r>   -7.5230    1.0000 </r>
       <r>   -7.1428    1.0000 </r>
       <r>   -6.9624    1.0000 </r>
       <r>   -6.8170    1.0000 </r>
       <r>   -6.6909    1.0000 </r>
       <r>   -6.5317    1.0000 </r>
       <r>   -6.0854    1.0000 </r>
       <r>   -5.9820    1.0000 </r>
       <r>   -5.8431    1.0000 </r>
       <r>   -5.7873    1.0000 </r>
       <r>   -5.6973    1.0000 </r>
       <r>   -5.3901    1.0000 </r>
       <r>   -5.3579    1.0000 </r>
       <r>   -5.2995    1.0000 </r>
       <r>   -5.1617    1.0000 </r>
       <r>   -4.6827    1.0000 </r>
       <r>   -4.6672    1.0000 </r>
       <r>   -4.3125    1.0000 </r>
       <r>   -4.2098    1.0000 </r>
       <r>   -4.1273    1.0000 </r>
       <r>   -4.0490    1.0000 </r>
       <r>   -3.9494    1.0000 </r>
       <r>   -3.7751    1.0000 </r>
       <r>   -3.7161    1.0000 </r>
       <r>   -3.5602    1.0000 </r>
       <r>   -2.9257    1.0000 </r>
       <r>   -2.8594    1.0000 </r>
       <r>   -2.7695    1.0000 </r>
       <r>   -2.0360    1.0000 </r>
       <r>   -2.0117    1.0000 </r>
       <r>   -1.9209    1.0000 </r>
       <r>   -1.6603    1.0000 </r>
       <r>   -1.2831    1.0000 </r>
       <r>   -1.1961    1.0000 </r>
       <r>   -0.9232    1.0000 </r>
       <r>   -0.7536    0.1943 </r>
       <r>   -0.6831   -0.0522 </r>
       <r>   -0.2818    0.0000 </r>
       <r>    0.0355    0.0000 </r>
       <r>    0.6542    0.0000 </r>
       <r>    1.0854    0.0000 </r>
       <r>    1.1741    0.0000 </r>
       <r>    1.3496    0.0000 </r>
       <r>    1.9045    0.0000 </r>
       <r>    2.1418    0.0000 </r>
       <r>    2.1521    0.0000 </r>
       <r>    3.1569    0.0000 </r>
       <r>    3.3730    0.0000 </r>
      </set>
     </set>
    </set>
   </array>
  </eigenvalues>
  <separator name="orbital magnetization" >
   <v name="MAGDIPOLOUT">      0.00000000      0.00000000      0.00000000</v>
  </separator>
  <dos>
   <i name="efermi">     -0.79519278 </i>
   <total>
    <array>
     <dimension dim="1">gridpoints</dimension>
     <dimension dim="2">spin</dimension>
     <field>energy</field>
     <field>total</field>
     <field>integrated</field>
     <set>
      <set comment="spin 1">
       <r>   -38.6891     0.0000     0.0000 </r>
       <r>   -38.5390     0.0000     0.0000 </r>
       <r>   -38.3889     0.0000     0.0000 </r>
       <r>   -38.2389     0.0000     0.0000 </r>
       <r>   -38.0888     0.0000     0.0000 </r>
       <r>   -37.9388     0.0000     0.0000 </r>
       <r>   -37.7887     0.0000     0.0000 </r>
       <r>   -37.6387     0.0000     0.0000 </r>
       <r>   -37.4886     0.0000     0.0000 </r>
       <r>   -37.3385     0.0000     0.0000 </r>
       <r>   -37.1885     0.0000     0.0000 </r>
       <r>   -37.0384     0.0000     0.0000 </r>
       <r>   -36.8884     0.0000     0.0000 </r>
       <r>   -36.7383     0.0000     0.0000 </r>
       <r>   -36.5882     0.0000     2.0000 </r>
       <r>   -36.4382     0.0000     2.0000 </r>
       <r>   -36.2881     0.0000     2.0000 </r>
       <r>   -36.1381     0.0000     2.0000 </r>
       <r>   -35.9880     0.0000     2.0000 </r>
       <r>   -35.8380     0.0000     2.0000 </r>
       <r>   -35.6879     0.0000     2.0000 </r>
       <r>   -35.5378     0.0000     2.0000 </r>
       <r>   -35.3878     0.0000     2.0000 </r>
       <r>   -35.2377     0.0000     4.0000 </r>
       <r>   -35.0877     0.0000     4.0000 </r>
       <r>   -34.9376     0.0000     4.0000 </r>
       <r>   -34.7875     0.0000     4.0000 </r>
       <r>   -34.6375     0.0000     4.0000 </r>
       <r>   -34.4874     0.0000     4.0000 </r>
       <r>   -34.3374     0.0000     4.0000 </r>
       <r>   -34.1873     0.0000     6.0000 </r>
       <r>   -34.0373     0.0000     6.0000 </r>
       <r>   -33.8872     0.0000     6.0000 </r>
       <r>   -33.7371     0.0000     6.0000 </r>
       <r>   -33.5871     0.0000     6.0000 </r>
       <r>   -33.4370     0.0000     6.0000 </r>
       <r>   -33.2870     0.0000     8.0000 </r>
       <r>   -33.1369     0.0000     8.0000 </r>
       <r>   -32.9868     0.0000     8.0000 </r>
       <r>   -32.8368     0.0000     8.0000 </r>
       <r>   -32.6867     0.0000     8.0000 </r>
       <r>   -32.5367     0.0000     8.0000 </r>
       <r>   -32.3866     0.0000     8.0000 </r>
       <r>   -32.2366     0.0000     8.0000 </r>
       <r>   -32.0865     0.0000     8.0000 </r>
       <r>   -31.9364     0.0000     8.0000 </r>
       <r>   -31.7864     0.0000     8.0000 </r>
       <r>   -31.6363     0.0000     8.0000 </r>
       <r>   -31.4863     0.0000     8.0000 </r>
       <r>   -31.3362     0.0000     8.0000 </r>
       <r>   -31.1861     0.0000     8.0000 </r>
       <r>   -31.0361     0.0000     8.0000 </r>
       <r>   -30.8860     0.0000     8.0000 </r>
       <r>   -30.7360     0.0000     8.0000 </r>
       <r>   -30.5859     0.0000     8.0000 </r>
       <r>   -30.4359     0.0000     8.0000 </r>
       <r>   -30.2858     0.0000     8.0000 </r>
       <r>   -30.1357     0.0000     8.0000 </r>
       <r>   -29.9857     0.0000     8.0000 </r>
       <r>   -29.8356     0.0000     8.0000 </r>
       <r>   -29.6856     0.0000     8.0000 </r>
       <r>   -29.5355     0.0000     8.0000 </r>
       <r>   -29.3854     0.0000     8.0000 </r>
       <r>   -29.2354     0.0000     8.0000 </r>
       <r>   -29.0853     0.0000     8.0000 </r>
       <r>   -28.9353     0.0000     8.0000 </r>
       <r>   -28.7852     0.0000     8.0000 </r>
       <r>   -28.6352     0.0000     8.0000 </r>
       <r>   -28.4851     0.0000     8.0000 </r>
       <r>   -28.3350     0.0000     8.0000 </r>
       <r>   -28.1850     0.0000     8.0000 </r>
       <r>   -28.0349     0.0000     8.0000 </r>
       <r>   -27.8849     0.0000     8.0000 </r>
       <r>   -27.7348     0.0000     8.0000 </r>
       <r>   -27.5847     0.0000     8.0000 </r>
       <r>   -27.4347     0.0000     8.0000 </r>
       <r>   -27.2846     0.0000     8.0000 </r>
       <r>   -27.1346     0.0000     8.0000 </r>
       <r>   -26.9845     0.0000     8.0000 </r>
       <r>   -26.8345     0.0000     8.0000 </r>
       <r>   -26.6844     0.0000     8.0000 </r>
       <r>   -26.5343     0.0000     8.0000 </r>
       <r>   -26.3843     0.0000     8.0000 </r>
       <r>   -26.2342     0.0000     8.0000 </r>
       <r>   -26.0842     0.0000     8.0000 </r>
       <r>   -25.9341     0.0000     8.0000 </r>
       <r>   -25.7840     0.0000     8.0000 </r>
       <r>   -25.6340     0.0000     8.0000 </r>
       <r>   -25.4839     0.0000     8.0000 </r>
       <r>   -25.3339     0.0000     8.0000 </r>
       <r>   -25.1838     0.0000     8.0000 </r>
       <r>   -25.0338     0.0000     8.0000 </r>
       <r>   -24.8837     0.0000     8.0000 </r>
       <r>   -24.7336     0.0000     8.0000 </r>
       <r>   -24.5836     0.0000     8.0000 </r>
       <r>   -24.4335     0.0000     8.0000 </r>
       <r>   -24.2835     0.0000     8.0000 </r>
       <r>   -24.1334     0.0000     8.0000 </r>
       <r>   -23.9833     0.0000     8.0000 </r>
       <r>   -23.8333     0.0000     8.0000 </r>
       <r>   -23.6832     0.0000     8.0000 </r>
       <r>   -23.5332     0.0000     8.0000 </r>
       <r>   -23.3831     0.0000     8.0000 </r>
       <r>   -23.2331     0.0000     8.0000 </r>
       <r>   -23.0830     0.0000     8.0000 </r>
       <r>   -22.9329     0.0000     8.0000 </r>
       <r>   -22.7829     0.0000     8.0000 </r>
       <r>   -22.6328     0.0000     8.0000 </r>
       <r>   -22.4828     0.0000     8.0000 </r>
       <r>   -22.3327     0.0000     8.0000 </r>
       <r>   -22.1826     0.0000     8.0000 </r>
       <r>   -22.0326     0.0000     8.0000 </r>
       <r>   -21.8825     0.0000     8.0000 </r>
       <r>   -21.7325     0.0000     8.0000 </r>
       <r>   -21.5824     0.0000     8.0000 </r>
       <r>   -21.4324     0.0000     8.0000 </r>
       <r>   -21.2823     0.0000     8.0000 </r>
       <r>   -21.1322     0.0000     8.0000 </r>
       <r>   -20.9822     0.0000     8.0000 </r>
       <r>   -20.8321     0.0000     8.0000 </r>
       <r>   -20.6821     0.2799     8.0014 </r>
       <r>   -20.5320     5.4259     8.3899 </r>
       <r>   -20.3819     6.5599     9.4018 </r>
       <r>   -20.2319     6.5858    10.1786 </r>
       <r>   -20.0818     5.1276    11.0500 </r>
       <r>   -19.9318     2.6020    11.6557 </r>
       <r>   -19.7817     7.3458    12.2103 </r>
       <r>   -19.6316     3.9125    13.9278 </r>
       <r>   -19.4816     0.0000    14.0000 </r>
       <r>   -19.3315    15.5539    14.3179 </r>
       <r>   -19.1815     4.1959    16.1820 </r>
       <r>   -19.0314     2.8126    17.8262 </r>
       <r>   -18.8814     0.0000    18.0000 </r>
       <r>   -18.7313    14.8879    18.8229 </r>
       <r>   -18.5812    22.7736    21.5886 </r>
       <r>   -18.4312    20.1189    24.6241 </r>
       <r>   -18.2811     8.5937    27.1087 </r>
       <r>   -18.1311    18.8413    29.4285 </r>
       <r>   -17.9810     0.0000    30.0000 </r>
       <r>   -17.8309     6.3257    30.1827 </r>
       <r>   -17.6809     3.7900    31.8068 </r>
       <r>   -17.5308     0.0000    32.0000 </r>
       <r>   -17.3808     2.5600    32.0952 </r>
       <r>   -17.2307    61.9677    35.3833 </r>
       <r>   -17.0807    46.9173    38.8240 </r>
       <r>   -16.9306     0.0000    40.0000 </r>
       <r>   -16.7805     0.0000    40.0000 </r>
       <r>   -16.6305     8.4103    40.0455 </r>
       <r>   -16.4804     7.1870    41.7815 </r>
       <r>   -16.3304    22.9701    43.0419 </r>
       <r>   -16.1803    24.6845    46.2298 </r>
       <r>   -16.0302    21.3639    48.7267 </r>
       <r>   -15.8802     0.0000    50.0000 </r>
       <r>   -15.7301     0.0000    50.0000 </r>
       <r>   -15.5801     0.0000    50.0000 </r>
       <r>   -15.4300    19.3139    50.9331 </r>
       <r>   -15.2800     6.2150    52.6584 </r>
       <r>   -15.1299    23.0717    54.8377 </r>
       <r>   -14.9798     0.0000    56.0000 </r>
       <r>   -14.8298     0.0000    56.0000 </r>
       <r>   -14.6797     0.0000    56.0000 </r>
       <r>   -14.5297     0.0000    56.0000 </r>
       <r>   -14.3796     0.0000    56.0000 </r>
       <r>   -14.2295     0.0000    56.0000 </r>
       <r>   -14.0795     0.0000    56.0000 </r>
       <r>   -13.9294     0.0000    56.0000 </r>
       <r>   -13.7794     0.0000    56.0000 </r>
       <r>   -13.6293     0.0000    56.0000 </r>
       <r>   -13.4793     0.0000    56.0000 </r>
       <r>   -13.3292     0.0000    56.0000 </r>
       <r>   -13.1791     0.0000    56.0000 </r>
       <r>   -13.0291     0.0000    56.0000 </r>
       <r>   -12.8790     0.0000    56.0000 </r>
       <r>   -12.7290     0.0000    56.0000 </r>
       <r>   -12.5789     0.0000    56.0000 </r>
       <r>   -12.4288     0.0000    56.0000 </r>
       <r>   -12.2788     0.0000    56.0000 </r>
       <r>   -12.1287     0.0000    56.0000 </r>
       <r>   -11.9787     0.0000    56.0000 </r>
       <r>   -11.8286     0.0000    56.0000 </r>
       <r>   -11.6786     0.0000    56.0000 </r>
       <r>   -11.5285     0.0000    56.0000 </r>
       <r>   -11.3784     0.0000    56.0000 </r>
       <r>   -11.2284     0.0000    56.0000 </r>
       <r>   -11.0783     0.0000    56.0000 </r>
       <r>   -10.9283     0.0000    56.0000 </r>
       <r>   -10.7782     0.0000    56.0000 </r>
       <r>   -10.6281     0.0000    56.0000 </r>
       <r>   -10.4781     0.0000    56.0000 </r>
       <r>   -10.3280     0.0000    56.0000 </r>
       <r>   -10.1780     0.0000    56.0000 </r>
       <r>   -10.0279     0.0000    56.0000 </r>
       <r>    -9.8779     0.0000    56.0000 </r>
       <r>    -9.7278     0.0000    56.0000 </r>
       <r>    -9.5777     0.0000    56.0000 </r>
       <r>    -9.4277     0.0000    56.0000 </r>
       <r>    -9.2776     0.0000    56.0000 </r>
       <r>    -9.1276     0.0000    56.0000 </r>
       <r>    -8.9775     0.0000    56.0000 </r>
       <r>    -8.8274     0.0000    56.0000 </r>
       <r>    -8.6774     0.0000    56.0000 </r>
       <r>    -8.5273     0.0000    56.0000 </r>
       <r>    -8.3773     0.0000    56.0000 </r>
       <r>    -8.2272     0.0000    56.0000 </r>
       <r>    -8.0772     0.0000    56.0000 </r>
       <r>    -7.9271     0.0000    56.0000 </r>
       <r>    -7.7770     0.0000    56.0000 </r>
       <r>    -7.6270     0.0000    56.0000 </r>
       <r>    -7.4769     1.4285    56.4317 </r>
       <r>    -7.3269     1.4193    56.6454 </r>
       <r>    -7.1768     1.4101    56.8577 </r>
       <r>    -7.0267     5.3203    57.3700 </r>
       <r>    -6.8767    12.4145    58.8474 </r>
       <r>    -6.7266    16.3544    60.9291 </r>
       <r>    -6.5766     7.6185    63.1349 </r>
       <r>    -6.4265     5.0229    64.4557 </r>
       <r>    -6.2765     6.8403    65.4193 </r>
       <r>    -6.1264     7.7522    66.4734 </r>
       <r>    -5.9763    13.3107    67.9069 </r>
       <r>    -5.8263    21.9588    69.4669 </r>
       <r>    -5.6762    16.1297    71.9590 </r>
       <r>    -5.5262    10.5480    74.2205 </r>
       <r>    -5.3761     9.7379    76.0704 </r>
       <r>    -5.2260    13.6804    77.6852 </r>
       <r>    -5.0760    13.5741    80.0534 </r>
       <r>    -4.9259    14.0517    82.1256 </r>
       <r>    -4.7759    16.2220    84.2197 </r>
       <r>    -4.6258    20.4211    86.9846 </r>
       <r>    -4.4758     8.9199    88.5482 </r>
       <r>    -4.3257    15.2156    90.1059 </r>
       <r>    -4.1756    14.6584    92.3997 </r>
       <r>    -4.0256    15.6372    94.9306 </r>
       <r>    -3.8755    10.5300    96.5020 </r>
       <r>    -3.7255    10.0678    98.3625 </r>
       <r>    -3.5754    11.7608    99.9922 </r>
       <r>    -3.4253    13.7346   101.9480 </r>
       <r>    -3.2753     8.8977   103.8382 </r>
       <r>    -3.1252     7.4011   105.0295 </r>
       <r>    -2.9752    11.0350   106.2620 </r>
       <r>    -2.8251    13.4695   108.9632 </r>
       <r>    -2.6751    12.6610   110.7245 </r>
       <r>    -2.5250     2.9873   111.8803 </r>
       <r>    -2.3749     0.0000   112.0000 </r>
       <r>    -2.2249     5.9949   113.9889 </r>
       <r>    -2.0748    10.7122   115.4714 </r>
       <r>    -1.9248    19.3057   117.6173 </r>
       <r>    -1.7747     0.8539   117.9563 </r>
       <r>    -1.6246     6.4705   118.9450 </r>
       <r>    -1.4746     4.0361   119.8381 </r>
       <r>    -1.3245     9.7052   120.6558 </r>
       <r>    -1.1745     4.2708   122.3353 </r>
       <r>    -1.0244    12.3001   123.8123 </r>
       <r>    -0.8744    16.3903   126.3738 </r>
       <r>    -0.7243    16.2970   129.6925 </r>
       <r>    -0.5742     8.1041   131.1439 </r>
       <r>    -0.4242     9.8117   132.5730 </r>
       <r>    -0.2741     4.8132   133.6844 </r>
       <r>    -0.1241     3.8258   134.4081 </r>
       <r>     0.0260     3.8710   134.9840 </r>
       <r>     0.1761     4.6886   135.6529 </r>
       <r>     0.3261     5.0042   136.2105 </r>
       <r>     0.4762     6.9651   137.1872 </r>
       <r>     0.6262    10.6527   138.4746 </r>
       <r>     0.7763     8.6218   139.9783 </r>
       <r>     0.9264     6.3660   141.1467 </r>
       <r>     1.0764     4.5307   141.9143 </r>
       <r>     1.2265     2.7077   142.4320 </r>
       <r>     1.3765     4.5622   143.4275 </r>
       <r>     1.5266     4.6546   144.1025 </r>
       <r>     1.6766     5.1093   144.8136 </r>
       <r>     1.8267     6.8946   145.6481 </r>
       <r>     1.9768     4.1073   146.4621 </r>
       <r>     2.1268     3.6772   147.0461 </r>
       <r>     2.2769     0.6113   147.8274 </r>
       <r>     2.4269     0.5119   147.9117 </r>
       <r>     2.5770     0.6137   147.9823 </r>
       <r>     2.7271     2.4658   148.2075 </r>
       <r>     2.8771     4.0251   148.7101 </r>
       <r>     3.0272     5.0849   149.4480 </r>
       <r>     3.1772     7.4893   150.4102 </r>
       <r>     3.3273     2.4410   150.9840 </r>
       <r>     3.4773     0.7548   151.6296 </r>
       <r>     3.6274     0.6468   151.7348 </r>
       <r>     3.7775     0.5389   151.8237 </r>
       <r>     3.9275     0.4309   151.8965 </r>
       <r>     4.0776     0.3655   151.9551 </r>
       <r>     4.2276     0.1230   151.9966 </r>
       <r>     4.3777     0.0000   152.0000 </r>
       <r>     4.5278     0.0000   152.0000 </r>
       <r>     4.6778     0.0000   152.0000 </r>
       <r>     4.8279     0.0000   152.0000 </r>
       <r>     4.9779     0.0000   152.0000 </r>
       <r>     5.1280     0.0000   152.0000 </r>
       <r>     5.2780     0.0000   152.0000 </r>
       <r>     5.4281     0.0000   152.0000 </r>
       <r>     5.5782     0.0000   152.0000 </r>
       <r>     5.7282     0.0000   152.0000 </r>
       <r>     5.8783     0.0000   152.0000 </r>
       <r>     6.0283     0.0000   152.0000 </r>
       <r>     6.1784     0.0000   152.0000 </r>
       <r>     6.3285     0.0000   152.0000 </r>
      </set>
     </set>
    </array>
   </total>
  </dos>
 </calculation>
 <structure name="finalpos" >
  <crystal>
   <varray name="basis" >
    <v>       5.52288297       0.00000000       0.00000000 </v>
    <v>       0.00000000       3.90526800       0.00000000 </v>
    <v>       0.00000000       0.00000000      21.66504520 </v>
   </varray>
   <i name="volume">    467.27902047 </i>
   <varray name="rec_basis" >
    <v>       0.18106485       0.00000000       0.00000000 </v>
    <v>       0.00000000       0.25606437       0.00000000 </v>
    <v>       0.00000000       0.00000000       0.04615730 </v>
   </varray>
  </crystal>
  <varray name="positions" >
   <v>       0.50000000       0.00000000       0.27694380 </v>
   <v>       0.25000000       0.50000000       0.34067414 </v>
   <v>       0.75000000       0.50000000       0.34067414 </v>
   <v>       0.00000000       0.00000000       0.40440449 </v>
   <v>       0.75000000       0.50000000       0.46813483 </v>
   <v>       0.25000000       0.50000000       0.46813483 </v>
   <v>       0.50000000       0.00000000       0.53186517 </v>
   <v>       0.25000000       0.50000000       0.59559551 </v>
   <v>       0.75000000       0.50000000       0.59559551 </v>
   <v>       0.00000000       0.00000000       0.65932586 </v>
   <v>       0.75000000       0.50000000       0.72305620 </v>
   <v>       0.25000000       0.50000000       0.72305620 </v>
   <v>       0.00000000       0.00000000       0.27694380 </v>
   <v>       0.50000000       0.00000000       0.40440449 </v>
   <v>       0.00000000       0.00000000       0.53186517 </v>
   <v>       0.50000000       0.00000000       0.65932586 </v>
   <v>       0.50000000       0.50000000       0.27694380 </v>
   <v>       0.00000000       0.50000000       0.40440449 </v>
   <v>       0.50000000       0.50000000       0.53186517 </v>
   <v>       0.00000000       0.50000000       0.65932586 </v>
  </varray>
 </structure>
</modeling>
