unknown system                          
   1.00000000000000     
     2.573869    0.000000    0.000000
     1.286934    2.229036    0.000000
     0.000000    0.000000   30.304665
   Cu   H 
     4     1
Direct
  0.000000  0.000000  0.395979
  0.333333  0.333333  0.465326
  0.666667  0.666667  0.534674
  0.000000  0.000000  0.604021
  0.372185  0.333333  0.637020
 
   20   20  240
 -.76755E-02 -.71596E-02 -.55832E-02 -.33561E-02 -.10713E-02 0.62433E-03 0.12196E-02 0.57691E-03 -.90447E-03 -.23875E-02
 -.30106E-02 -.23929E-02 -.87414E-03 0.69643E-03 0.14587E-02 0.97036E-03 -.66930E-03 -.29684E-02 -.52793E-02 -.69931E-02
 -.71047E-02 -.60593E-02 -.41613E-02 -.19311E-02 -.61999E-04 0.75260E-03 0.10931E-03 -.18073E-02 -.41555E-02 -.57723E-02
 -.57988E-02 -.41963E-02 -.17759E-02 0.28404E-03 0.10786E-02 0.35807E-03 -.15046E-02 -.38077E-02 -.58306E-02 -.70262E-02
 -.54816E-02 -.41153E-02 -.22360E-02 -.55728E-03 -.54519E-05 -.13611E-02 -.47341E-02 -.92183E-02 -.13104E-01 -.14683E-01
 -.13206E-01 -.93247E-02 -.47169E-02 -.11481E-02 0.37683E-03 -.10795E-03 -.18340E-02 -.38339E-02 -.53426E-02 -.59334E-02
 -.32316E-02 -.18634E-02 -.53533E-03 -.31894E-03 -.24236E-02 -.74799E-02 -.14799E-01 -.22238E-01 -.27011E-01 -.27120E-01
 -.22490E-01 -.15015E-01 -.74970E-02 -.21928E-02 0.79669E-04 -.11177E-03 -.15321E-02 -.30387E-02 -.39501E-02 -.40109E-02
 -.95694E-03 -.29486E-05 0.13078E-04 -.24208E-02 -.85634E-02 -.18337E-01 -.29660E-01 -.38923E-01 -.42624E-01 -.39245E-01
 -.30116E-01 -.18673E-01 -.86149E-02 -.21943E-02 0.38130E-03 0.34810E-03 -.71740E-03 -.16968E-02 -.20948E-02 -.18087E-02
 0.70147E-03 0.78338E-03 -.13538E-02 -.74685E-02 -.18316E-01 -.32475E-01 -.46207E-01 -.54840E-01 -.55073E-01 -.46786E-01
 -.33112E-01 -.18730E-01 -.75403E-02 -.11518E-02 0.10874E-02 0.95741E-03 0.12119E-03 -.47690E-03 -.52133E-03 -.25326E-04
 0.12517E-02 0.11604E-03 -.47180E-02 -.14744E-01 -.29568E-01 -.46125E-01 -.59415E-01 -.64692E-01 -.59925E-01 -.46908E-01
 -.30289E-01 -.15160E-01 -.47813E-02 0.28145E-03 0.14710E-02 0.83419E-03 -.63488E-04 -.44993E-03 -.13503E-03 0.67588E-03
 0.57835E-03 -.17984E-02 -.91563E-02 -.22093E-01 -.38710E-01 -.54624E-01 -.64556E-01 -.64839E-01 -.55345E-01 -.39560E-01
 -.22763E-01 -.94905E-02 -.18320E-02 0.70011E-03 0.80994E-04 -.15562E-02 -.27266E-02 -.27529E-02 -.16414E-02 -.56452E-04
 -.90768E-03 -.41145E-02 -.12969E-01 -.26758E-01 -.42284E-01 -.54723E-01 -.59655E-01 -.55212E-01 -.43051E-01 -.27507E-01
 -.13477E-01 -.43244E-02 -.90237E-03 -.19066E-02 -.49881E-02 -.78659E-02 -.90114E-02 -.79046E-02 -.50676E-02 -.19958E-02
 -.23758E-02 -.56890E-02 -.14484E-01 -.26795E-01 -.38834E-01 -.46371E-01 -.46574E-01 -.39357E-01 -.27429E-01 -.15012E-01
 -.59891E-02 -.24590E-02 -.42588E-02 -.94136E-02 -.15102E-01 -.18719E-01 -.18732E-01 -.15144E-01 -.94790E-02 -.42987E-02
 -.29847E-02 -.56960E-02 -.12996E-01 -.22175E-01 -.29739E-01 -.32742E-01 -.29994E-01 -.22576E-01 -.13390E-01 -.59643E-02
 -.30960E-02 -.58423E-02 -.13169E-01 -.22309E-01 -.29763E-01 -.32629E-01 -.29787E-01 -.22357E-01 -.13219E-01 -.58462E-02
 -.23741E-02 -.41216E-02 -.91795E-02 -.14807E-01 -.18434E-01 -.18506E-01 -.14987E-01 -.93854E-02 -.42762E-02 -.24444E-02
 -.58401E-02 -.14645E-01 -.26838E-01 -.38640E-01 -.45907E-01 -.45921E-01 -.38679E-01 -.26889E-01 -.14687E-01 -.58425E-02
 -.89126E-03 -.17762E-02 -.46950E-02 -.74559E-02 -.85665E-02 -.74994E-02 -.47576E-02 -.18254E-02 -.90544E-03 -.42630E-02
 -.13169E-01 -.26836E-01 -.42051E-01 -.54083E-01 -.58674E-01 -.54110E-01 -.42099E-01 -.26892E-01 -.13218E-01 -.42860E-02
 0.62557E-03 0.18840E-03 -.12638E-02 -.23194E-02 -.23206E-02 -.12663E-02 0.18833E-03 0.63425E-03 -.19448E-02 -.94288E-02
 -.22310E-01 -.38634E-01 -.54077E-01 -.63534E-01 -.63547E-01 -.54114E-01 -.38684E-01 -.22361E-01 -.94689E-02 -.19683E-02
 0.13377E-02 0.90312E-03 0.15621E-03 -.16371E-03 0.14435E-03 0.88411E-03 0.13186E-02 -.16579E-04 -.50382E-02 -.15118E-01
 -.29758E-01 -.45893E-01 -.58660E-01 -.63540E-01 -.58684E-01 -.45929E-01 -.29790E-01 -.15136E-01 -.50390E-02 -.43799E-05
 0.82132E-03 0.14189E-03 -.37724E-03 -.40368E-03 0.71335E-04 0.72818E-03 0.66971E-03 -.16561E-02 -.79134E-02 -.18731E-01
 -.32619E-01 -.45901E-01 -.54091E-01 -.54100E-01 -.45923E-01 -.32635E-01 -.18723E-01 -.78733E-02 -.15849E-02 0.76128E-03
 -.81879E-03 -.17209E-02 -.21019E-02 -.18199E-02 -.98686E-03 -.98372E-04 -.21774E-03 -.28173E-02 -.90513E-02 -.18736E-01
 -.29771E-01 -.38655E-01 -.42075E-01 -.38668E-01 -.29780E-01 -.18718E-01 -.89849E-02 -.26940E-02 -.46356E-04 0.93012E-04
 -.30967E-02 -.39976E-02 -.40723E-02 -.32970E-02 -.19396E-02 -.67435E-03 -.58686E-03 -.28302E-02 -.79339E-02 -.15140E-01
 -.22335E-01 -.26861E-01 -.26866E-01 -.22340E-01 -.15119E-01 -.78583E-02 -.26826E-02 -.36692E-03 -.40583E-03 -.16721E-02
 -.53733E-02 -.59820E-02 -.55413E-02 -.41709E-02 -.23042E-02 -.68974E-03 -.24664E-03 -.16971E-02 -.50804E-02 -.94661E-02
 -.13196E-01 -.14661E-01 -.13191E-01 -.94387E-02 -.50032E-02 -.15446E-02 -.78052E-05 -.37975E-03 -.19696E-02 -.38826E-02
 -.70441E-02 -.71326E-02 -.60871E-02 -.41881E-02 -.19761E-02 -.15318E-03 0.60185E-03 -.81880E-04 -.19913E-02 -.42844E-02
 -.58332E-02 -.58288E-02 -.42608E-02 -.19210E-02 0.66772E-04 0.84743E-03 0.17888E-03 -.16022E-02 -.38418E-02 -.58420E-02
 0.21168E-03 0.23640E-03 0.26050E-03 0.27252E-03 0.26301E-03 0.23283E-03 0.19345E-03 0.15915E-03 0.13833E-03 0.13072E-03
 0.13062E-03 0.13182E-03 0.13076E-03 0.12766E-03 0.12597E-03 0.12999E-03 0.14134E-03 0.15752E-03 0.17457E-03 0.19164E-03
 0.22340E-03 0.27542E-03 0.33018E-03 0.34428E-03 0.28604E-03 0.15723E-03 -.86354E-05 -.16748E-03 -.28596E-03 -.34816E-03
 -.35034E-03 -.29586E-03 -.19598E-03 -.71568E-04 0.50543E-04 0.14593E-03 0.20049E-03 0.21507E-03 0.20625E-03 0.20113E-03
 0.23893E-03 0.32129E-03 0.37362E-03 0.33204E-03 0.16578E-03 -.10477E-03 -.41847E-03 -.70155E-03 -.89394E-03 -.96206E-03
 -.89975E-03 -.72518E-03 -.47740E-03 -.21023E-03 0.19838E-04 0.17044E-03 0.22883E-03 0.21796E-03 0.18695E-03 0.18645E-03
 0.24818E-03 0.33214E-03 0.32834E-03 0.17115E-03 -.15057E-03 -.58802E-03 -.10507E-02 -.14353E-02 -.16544E-02 -.16606E-02
 -.14590E-02 -.11045E-02 -.68333E-03 -.28771E-03 0.83313E-05 0.16789E-03 0.20203E-03 0.16609E-03 0.13496E-03 0.16264E-03
 0.24278E-03 0.27712E-03 0.16384E-03 -.15025E-03 -.65055E-03 -.12560E-02 -.18415E-02 -.22712E-02 -.24380E-02 -.22999E-02
 -.18972E-02 -.13397E-02 -.76513E-03 -.29243E-03 0.10955E-04 0.13993E-03 0.14402E-03 0.10430E-03 0.97030E-04 0.15432E-03
 0.22217E-03 0.15559E-03 -.10232E-03 -.58601E-03 -.12556E-02 -.19956E-02 -.26405E-02 -.30252E-02 -.30433E-02 -.26909E-02
 -.20702E-02 -.13492E-02 -.69604E-03 -.22330E-03 0.36920E-04 0.12351E-03 0.11605E-03 0.97420E-04 0.11942E-03 0.18012E-03
 0.19314E-03 -.42971E-05 -.41373E-03 -.10482E-02 -.18406E-02 -.26395E-02 -.32454E-02 -.34832E-02 -.32792E-02 -.26973E-02
 -.19107E-02 -.11247E-02 -.49566E-03 -.89689E-04 0.11219E-03 0.17847E-03 0.18721E-03 0.19570E-03 0.22262E-03 0.24254E-03
 0.16452E-03 -.16305E-03 -.69932E-03 -.14335E-02 -.22671E-02 -.30183E-02 -.34771E-02 -.34951E-02 -.30617E-02 -.23154E-02
 -.14755E-02 -.73997E-03 -.21130E-03 0.10950E-03 0.27898E-03 0.36030E-03 0.39674E-03 0.40839E-03 0.39417E-03 0.32939E-03
 0.14241E-03 -.28715E-03 -.89687E-03 -.16520E-02 -.24259E-02 -.30243E-02 -.32616E-02 -.30524E-02 -.24620E-02 -.16763E-02
 -.90767E-03 -.29733E-03 0.12221E-03 0.39400E-03 0.57279E-03 0.68436E-03 0.72779E-03 0.69837E-03 0.59790E-03 0.42188E-03
 0.12934E-03 -.35539E-03 -.96698E-03 -.16527E-02 -.22754E-02 -.26570E-02 -.26671E-02 -.22977E-02 -.16707E-02 -.96989E-03
 -.34633E-03 0.13817E-03 0.49973E-03 0.77751E-03 0.98560E-03 0.11052E-02 0.11108E-02 0.99866E-03 0.78871E-03 0.50091E-03
 0.12554E-03 -.35724E-03 -.89797E-03 -.14388E-02 -.18583E-02 -.20238E-02 -.18721E-02 -.14536E-02 -.90067E-03 -.34623E-03
 0.14058E-03 0.55743E-03 0.92316E-03 0.12331E-02 0.14504E-02 0.15314E-02 0.14558E-02 0.12397E-02 0.92456E-03 0.54906E-03
 0.12993E-03 -.29219E-03 -.70628E-03 -.10654E-02 -.12856E-02 -.12940E-02 -.10826E-02 -.71738E-03 -.29088E-03 0.13688E-03
 0.55545E-03 0.97158E-03 0.13668E-02 0.16869E-02 0.18673E-02 0.18673E-02 0.16885E-02 0.13711E-02 0.97487E-03 0.55264E-03
 0.14040E-03 -.17248E-03 -.43385E-03 -.62135E-03 -.69561E-03 -.63399E-03 -.45229E-03 -.18916E-03 0.12836E-03 0.49812E-03
 0.92037E-03 0.13656E-02 0.17679E-02 0.20485E-02 0.21485E-02 0.20478E-02 0.17688E-02 0.13697E-02 0.92704E-03 0.50683E-03
 0.15450E-03 -.24104E-04 -.14072E-03 -.20392E-03 -.20911E-03 -.15520E-03 -.44846E-04 0.13182E-03 0.40054E-03 0.77651E-03
 0.12308E-02 0.16862E-02 0.20489E-02 0.22469E-02 0.22455E-02 0.20463E-02 0.16861E-02 0.12369E-02 0.79025E-03 0.42056E-03
 0.17030E-03 0.11908E-03 0.10935E-03 0.10688E-03 0.10244E-03 0.10819E-03 0.15789E-03 0.30169E-03 0.57982E-03 0.98517E-03
 0.14488E-02 0.18675E-02 0.21502E-02 0.22468E-02 0.21458E-02 0.18648E-02 0.14535E-02 0.99694E-03 0.59431E-03 0.31539E-03
 0.18617E-03 0.22620E-03 0.26823E-03 0.26961E-03 0.23038E-03 0.19202E-03 0.22185E-03 0.38186E-03 0.69101E-03 0.11046E-02
 0.15297E-02 0.18674E-02 0.20497E-02 0.20481E-02 0.18653E-02 0.15315E-02 0.11109E-02 0.69730E-03 0.38317E-03 0.21779E-03
 0.19958E-03 0.27986E-03 0.32140E-03 0.29495E-03 0.22440E-03 0.17562E-03 0.22410E-03 0.41430E-03 0.73213E-03 0.11087E-02
 0.14526E-02 0.16872E-02 0.17693E-02 0.16865E-02 0.14525E-02 0.11091E-02 0.72981E-03 0.40446E-03 0.20456E-03 0.14958E-03
 0.20745E-03 0.28221E-03 0.29486E-03 0.24226E-03 0.16947E-03 0.14474E-03 0.22337E-03 0.41929E-03 0.69820E-03 0.99371E-03
 0.12348E-02 0.13683E-02 0.13683E-02 0.12348E-02 0.99222E-03 0.69028E-03 0.39826E-03 0.18627E-03 0.96463E-04 0.12153E-03
 0.20894E-03 0.25490E-03 0.24375E-03 0.19200E-03 0.14609E-03 0.15404E-03 0.24035E-03 0.39746E-03 0.59278E-03 0.78170E-03
 0.91973E-03 0.97257E-03 0.92470E-03 0.78433E-03 0.58250E-03 0.36613E-03 0.18647E-03 0.84005E-04 0.72648E-04 0.13081E-03
 0.20807E-03 0.23063E-03 0.22404E-03 0.20201E-03 0.18828E-03 0.20241E-03 0.25078E-03 0.32661E-03 0.41482E-03 0.49585E-03
 0.54813E-03 0.55308E-03 0.50308E-03 0.40746E-03 0.29088E-03 0.18424E-03 0.11350E-03 0.91395E-04 0.11392E-03 0.16180E-03
 0.80500E-02 0.75348E-02 0.59609E-02 0.37374E-02 0.14551E-02 -.24272E-03 -.84696E-03 -.21855E-03 0.12477E-02 0.27201E-02
 0.33400E-02 0.27272E-02 0.12196E-02 -.33681E-03 -.10861E-02 -.58968E-03 0.10522E-02 0.33493E-02 0.56569E-02 0.73683E-02
 0.74798E-02 0.64325E-02 0.45390E-02 0.23157E-02 0.44727E-03 -.37662E-03 0.25281E-03 0.21587E-02 0.45013E-02 0.61145E-02
 0.61382E-02 0.45380E-02 0.21282E-02 0.83617E-04 -.69916E-03 0.25238E-04 0.18870E-02 0.41896E-02 0.62126E-02 0.74059E-02
 0.58591E-02 0.44927E-02 0.26154E-02 0.93860E-03 0.38408E-03 0.17306E-02 0.50918E-02 0.95682E-02 0.13452E-01 0.15034E-01
 0.13559E-01 0.96794E-02 0.50762E-02 0.15156E-02 -.56992E-06 0.48928E-03 0.22160E-02 0.42146E-02 0.57221E-02 0.63120E-02
 0.36127E-02 0.22470E-02 0.91539E-03 0.69309E-03 0.27938E-02 0.78468E-02 0.15160E-01 0.22590E-01 0.27359E-01 0.27471E-01
 0.22847E-01 0.15377E-01 0.78598E-02 0.25584E-02 0.29383E-03 0.49357E-03 0.19156E-02 0.34171E-02 0.43237E-02 0.43863E-02
 0.13404E-02 0.38663E-03 0.36294E-03 0.27888E-02 0.89289E-02 0.18702E-01 0.30019E-01 0.39271E-01 0.42966E-01 0.39590E-01
 0.30470E-01 0.19034E-01 0.89793E-02 0.25636E-02 -.33125E-05 0.37022E-04 0.11015E-02 0.20735E-02 0.24673E-02 0.21852E-02
 -.32066E-03 -.40932E-03 0.17204E-02 0.78323E-02 0.18678E-01 0.32831E-01 0.46550E-01 0.55173E-01 0.55406E-01 0.47127E-01
 0.33462E-01 0.19088E-01 0.79046E-02 0.15256E-02 -.70500E-03 -.57321E-03 0.25809E-03 0.85179E-03 0.89787E-03 0.40634E-03
 -.88015E-03 0.24434E-03 0.50745E-02 0.15103E-01 0.29924E-01 0.46466E-01 0.59735E-01 0.65007E-01 0.60251E-01 0.47252E-01
 0.30643E-01 0.15516E-01 0.51411E-02 0.87266E-04 -.10952E-02 -.45985E-03 0.43258E-03 0.81947E-03 0.51120E-03 -.29687E-03
 -.22081E-03 0.21486E-02 0.95068E-02 0.22447E-01 0.39058E-01 0.54953E-01 0.64867E-01 0.65150E-01 0.55675E-01 0.39911E-01
 0.23121E-01 0.98442E-02 0.21820E-02 -.34631E-03 0.27853E-03 0.19165E-02 0.30849E-02 0.31129E-02 0.20061E-02 0.42129E-03
 0.12510E-02 0.44594E-02 0.13318E-01 0.27110E-01 0.42628E-01 0.55055E-01 0.59978E-01 0.55538E-01 0.43391E-01 0.27859E-01
 0.13830E-01 0.46709E-02 0.12438E-02 0.22491E-02 0.53353E-02 0.82168E-02 0.93630E-02 0.82552E-02 0.54161E-02 0.23412E-02
 0.27090E-02 0.60303E-02 0.14835E-01 0.27148E-01 0.39182E-01 0.46714E-01 0.46918E-01 0.39704E-01 0.27777E-01 0.15356E-01
 0.63293E-02 0.27983E-02 0.46007E-02 0.97582E-02 0.15449E-01 0.19067E-01 0.19081E-01 0.15491E-01 0.98195E-02 0.46321E-02
 0.33145E-02 0.60343E-02 0.13347E-01 0.22532E-01 0.30095E-01 0.33097E-01 0.30351E-01 0.22934E-01 0.13739E-01 0.63022E-02
 0.34291E-02 0.61821E-02 0.13518E-01 0.22662E-01 0.30110E-01 0.32973E-01 0.30134E-01 0.22707E-01 0.13563E-01 0.61797E-02
 0.27081E-02 0.44621E-02 0.95318E-02 0.15167E-01 0.18794E-01 0.18866E-01 0.15347E-01 0.97405E-02 0.46211E-02 0.27806E-02
 0.61780E-02 0.14993E-01 0.27191E-01 0.38989E-01 0.46245E-01 0.46258E-01 0.39025E-01 0.27242E-01 0.15037E-01 0.61817E-02
 0.12358E-02 0.21277E-02 0.50526E-02 0.78165E-02 0.89297E-02 0.78645E-02 0.51190E-02 0.21759E-02 0.12453E-02 0.46020E-02
 0.13517E-01 0.27188E-01 0.42396E-01 0.54412E-01 0.58995E-01 0.54439E-01 0.42443E-01 0.27243E-01 0.13566E-01 0.46292E-02
 -.26682E-03 0.17866E-03 0.16304E-02 0.26840E-02 0.26893E-02 0.16401E-02 0.18021E-03 -.28157E-03 0.22851E-02 0.97711E-02
 0.22660E-01 0.38981E-01 0.54406E-01 0.63845E-01 0.63859E-01 0.54442E-01 0.39029E-01 0.22707E-01 0.98123E-02 0.23156E-02
 -.96560E-03 -.52447E-03 0.21919E-03 0.53687E-03 0.23410E-03 -.50081E-03 -.94239E-03 0.37557E-03 0.53841E-02 0.15463E-01
 0.30105E-01 0.46231E-01 0.58982E-01 0.63852E-01 0.59004E-01 0.46265E-01 0.30136E-01 0.15481E-01 0.53853E-02 0.36149E-03
 -.44078E-03 0.24007E-03 0.75715E-03 0.78506E-03 0.31465E-03 -.34226E-03 -.29341E-03 0.20181E-02 0.82653E-02 0.19079E-01
 0.32963E-01 0.46238E-01 0.54420E-01 0.54430E-01 0.46260E-01 0.32980E-01 0.19072E-01 0.82253E-02 0.19444E-02 -.38979E-03
 0.12015E-02 0.21016E-02 0.24822E-02 0.22028E-02 0.13714E-02 0.47880E-03 0.58863E-03 0.31781E-02 0.94053E-02 0.19087E-01
 0.30119E-01 0.39000E-01 0.42420E-01 0.39013E-01 0.30127E-01 0.19067E-01 0.93385E-02 0.30565E-02 0.41977E-03 0.28821E-03
 0.34773E-02 0.43780E-02 0.44517E-02 0.36750E-02 0.23163E-02 0.10490E-02 0.95624E-03 0.31908E-02 0.82856E-02 0.15488E-01
 0.22685E-01 0.27215E-01 0.27219E-01 0.22688E-01 0.15465E-01 0.82090E-02 0.30434E-02 0.73817E-03 0.78355E-03 0.20523E-02
 0.57508E-02 0.63633E-02 0.59202E-02 0.45443E-02 0.26763E-02 0.10653E-02 0.62131E-03 0.20603E-02 0.54277E-02 0.98055E-02
 0.13539E-01 0.15011E-01 0.13541E-01 0.97842E-02 0.53498E-02 0.19022E-02 0.37852E-03 0.75586E-03 0.23438E-02 0.42559E-02
 0.74194E-02 0.75123E-02 0.64655E-02 0.45633E-02 0.23524E-02 0.53377E-03 -.22349E-03 0.44564E-03 0.23351E-02 0.46160E-02
 0.61656E-02 0.61683E-02 0.46056E-02 0.22699E-02 0.29057E-03 -.47726E-03 0.20041E-03 0.19809E-02 0.42146E-02 0.62128E-02
 0.43760E-04 0.38966E-04 0.55108E-04 0.76963E-04 0.97220E-04 0.12014E-03 0.15277E-03 0.19489E-03 0.23740E-03 0.26810E-03
 0.27866E-03 0.26861E-03 0.24606E-03 0.22440E-03 0.21399E-03 0.21300E-03 0.20672E-03 0.17955E-03 0.13063E-03 0.77690E-04
 0.50230E-04 0.23358E-04 0.48555E-05 0.14065E-04 0.74155E-04 0.19865E-03 0.37780E-03 0.57620E-03 0.74487E-03 0.84061E-03
 0.84165E-03 0.75379E-03 0.60659E-03 0.44210E-03 0.29912E-03 0.19936E-03 0.14264E-03 0.11377E-03 0.95056E-04 0.75081E-04
 0.73643E-04 0.12255E-04 -.23615E-04 0.25233E-04 0.20388E-03 0.51538E-03 0.91017E-03 0.12994E-02 0.15848E-02 0.16919E-02
 0.15953E-02 0.13278E-02 0.96846E-03 0.61284E-03 0.33701E-03 0.17371E-03 0.11109E-03 0.10950E-03 0.12295E-03 0.11569E-03
 0.97862E-04 0.23809E-04 0.27328E-04 0.19787E-03 0.58408E-03 0.11562E-02 0.18037E-02 0.23694E-02 0.27029E-02 0.27127E-02
 0.23996E-02 0.18584E-02 0.12440E-02 0.70952E-03 0.34970E-03 0.17729E-03 0.14177E-03 0.16823E-03 0.19018E-03 0.16758E-03
 0.11454E-03 0.80525E-04 0.20305E-03 0.58161E-03 0.12429E-02 0.21018E-02 0.29726E-02 0.36283E-02 0.38823E-02 0.36603E-02
 0.30319E-02 0.21858E-02 0.13533E-02 0.71631E-03 0.34680E-03 0.20823E-03 0.20497E-03 0.23903E-03 0.24354E-03 0.19406E-03
 0.12892E-03 0.19825E-03 0.51032E-03 0.11510E-02 0.20988E-02 0.31953E-02 0.41790E-02 0.47739E-02 0.47978E-02 0.42419E-02
 0.32797E-02 0.21949E-02 0.12593E-02 0.62943E-03 0.31503E-03 0.22340E-03 0.23434E-03 0.25436E-03 0.23511E-03 0.17592E-03
 0.15220E-03 0.37220E-03 0.90412E-03 0.17988E-02 0.29675E-02 0.41739E-02 0.51003E-02 0.54670E-02 0.51520E-02 0.42531E-02
 0.30498E-02 0.18784E-02 0.98799E-03 0.46043E-03 0.23112E-03 0.17356E-03 0.17719E-03 0.17731E-03 0.15154E-03 0.11911E-03
 0.18934E-03 0.57083E-03 0.12966E-02 0.23663E-02 0.36197E-02 0.47594E-02 0.54546E-02 0.54792E-02 0.48194E-02 0.36865E-02
 0.24223E-02 0.13441E-02 0.61901E-03 0.23842E-03 0.87928E-04 0.45172E-04 0.34735E-04 0.26970E-04 0.20622E-04 0.47255E-04
 0.23339E-03 0.74455E-03 0.15860E-02 0.26984E-02 0.38655E-02 0.47703E-02 0.51244E-02 0.48037E-02 0.39129E-02 0.27377E-02
 0.16090E-02 0.75867E-03 0.24939E-03 0.71049E-05 -.87802E-04 -.12379E-03 -.13806E-03 -.13655E-03 -.10856E-03 -.13940E-04
 0.26940E-03 0.84525E-03 0.16926E-02 0.27002E-02 0.36305E-02 0.42012E-02 0.42146E-02 0.36612E-02 0.27278E-02 0.17040E-02
 0.84319E-03 0.26618E-03 -.45776E-04 -.18553E-03 -.24307E-03 -.26743E-03 -.27250E-03 -.25541E-03 -.19779E-03 -.50593E-04
 0.28327E-03 0.84552E-03 0.15879E-02 0.23728E-02 0.29875E-02 0.32294E-02 0.30078E-02 0.23963E-02 0.15978E-02 0.84046E-03
 0.27496E-03 -.65588E-04 -.23348E-03 -.30374E-03 -.33035E-03 -.33833E-03 -.33426E-03 -.31086E-03 -.23950E-03 -.64392E-04
 0.26980E-03 0.74812E-03 0.13049E-02 0.18142E-02 0.21279E-02 0.21387E-02 0.18371E-02 0.13215E-02 0.74999E-03 0.26432E-03
 -.65550E-04 -.24495E-03 -.32007E-03 -.34033E-03 -.34072E-03 -.34010E-03 -.34079E-03 -.32404E-03 -.24893E-03 -.63771E-04
 0.23623E-03 0.58346E-03 0.92487E-03 0.11814E-02 0.12839E-02 0.11989E-02 0.94714E-03 0.59822E-03 0.24223E-03 -.46712E-04
 -.23293E-03 -.31983E-03 -.33647E-03 -.32180E-03 -.31031E-03 -.31844E-03 -.33484E-03 -.32286E-03 -.23776E-03 -.50376E-04
 0.19878E-03 0.39754E-03 0.54723E-03 0.62999E-03 0.63737E-03 0.56553E-03 0.41880E-03 0.21747E-03 -.28972E-07 -.18619E-03
 -.30301E-03 -.34044E-03 -.32255E-03 -.29394E-03 -.29118E-03 -.31740E-03 -.33891E-03 -.30828E-03 -.19719E-03 -.14964E-04
 0.17266E-03 0.23513E-03 0.25356E-03 0.25821E-03 0.26248E-03 0.25002E-03 0.19001E-03 0.67814E-04 -.94034E-04 -.24305E-03
 -.32968E-03 -.34178E-03 -.31253E-03 -.29276E-03 -.30841E-03 -.33841E-03 -.33228E-03 -.25304E-03 -.10919E-03 0.50462E-04
 0.16113E-03 0.12414E-03 0.82537E-04 0.83492E-04 0.12579E-03 0.16193E-03 0.13604E-03 0.28338E-04 -.12725E-03 -.26570E-03
 -.33733E-03 -.34170E-03 -.32132E-03 -.31955E-03 -.33912E-03 -.33871E-03 -.27196E-03 -.13442E-03 0.24262E-04 0.13498E-03
 0.15314E-03 0.68218E-04 0.25193E-04 0.56964E-04 0.13233E-03 0.18096E-03 0.14548E-03 0.22204E-04 -.13815E-03 -.26845E-03
 -.33191E-03 -.34134E-03 -.33630E-03 -.33942E-03 -.33171E-03 -.27113E-03 -.13865E-03 0.31053E-04 0.16531E-03 0.20567E-03
 0.13373E-03 0.51312E-04 0.39246E-04 0.10013E-03 0.18094E-03 0.21148E-03 0.15224E-03 0.18531E-04 -.13393E-03 -.24939E-03
 -.30680E-03 -.32254E-03 -.32158E-03 -.30546E-03 -.24893E-03 -.13006E-03 0.34571E-04 0.18578E-03 0.25797E-03 0.22767E-03
 0.99296E-04 0.50620E-04 0.72238E-04 0.14031E-03 0.20040E-03 0.20341E-03 0.13417E-03 0.16800E-04 -.10393E-03 -.19149E-03
 -.23565E-03 -.24696E-03 -.23446E-03 -.19016E-03 -.98403E-04 0.37330E-04 0.17840E-03 0.26732E-03 0.26736E-03 0.19224E-03
 0.62925E-04 0.48824E-04 0.82833E-04 0.13350E-03 0.16438E-03 0.15575E-03 0.11091E-03 0.48890E-04 -.83924E-05 -.46922E-04
 -.64264E-04 -.63975E-04 -.45610E-04 -.14472E-05 0.73190E-04 0.16422E-03 0.23639E-03 0.25349E-03 0.20702E-03 0.12706E-03
 -.77052E-02 -.71799E-02 -.55877E-02 -.33544E-02 -.10761E-02 0.61281E-03 0.12114E-02 0.57718E-03 -.90205E-03 -.23912E-02
 -.30187E-02 -.23972E-02 -.87218E-03 0.69732E-03 0.14520E-02 0.96017E-03 -.67433E-03 -.29689E-02 -.52868E-02 -.70156E-02
 -.71254E-02 -.60699E-02 -.41646E-02 -.19372E-02 -.74279E-04 0.74168E-03 0.10643E-03 -.18065E-02 -.41610E-02 -.57853E-02
 -.58094E-02 -.41967E-02 -.17711E-02 0.28212E-03 0.10663E-02 0.34403E-03 -.15121E-02 -.38124E-02 -.58426E-02 -.70474E-02
 -.54864E-02 -.41185E-02 -.22443E-02 -.57426E-03 -.24623E-04 -.13721E-02 -.47352E-02 -.92192E-02 -.13114E-01 -.14701E-01
 -.13220E-01 -.93299E-02 -.47196E-02 -.11577E-02 0.35979E-03 -.12441E-03 -.18439E-02 -.38395E-02 -.53490E-02 -.59407E-02
 -.32300E-02 -.18690E-02 -.55182E-03 -.34256E-03 -.24449E-02 -.74920E-02 -.14804E-01 -.22242E-01 -.27020E-01 -.27133E-01
 -.22502E-01 -.15027E-01 -.75115E-02 -.22116E-02 0.59974E-04 -.12707E-03 -.15406E-02 -.30415E-02 -.39490E-02 -.40078E-02
 -.96110E-03 -.14212E-04 -.51193E-05 -.24415E-02 -.85813E-02 -.18350E-01 -.29669E-01 -.38929E-01 -.42629E-01 -.39249E-01
 -.30123E-01 -.18686E-01 -.86348E-02 -.22169E-02 0.36230E-03 0.33595E-03 -.72346E-03 -.16990E-02 -.20951E-02 -.18091E-02
 0.69117E-03 0.77364E-03 -.13636E-02 -.74795E-02 -.18328E-01 -.32487E-01 -.46216E-01 -.54844E-01 -.55074E-01 -.46786E-01
 -.33115E-01 -.18739E-01 -.75543E-02 -.11679E-02 0.10732E-02 0.94711E-03 0.11369E-03 -.48422E-03 -.53021E-03 -.35550E-04
 0.12446E-02 0.11397E-03 -.47183E-02 -.14747E-01 -.29575E-01 -.46133E-01 -.59418E-01 -.64691E-01 -.59924E-01 -.46911E-01
 -.30295E-01 -.15165E-01 -.47841E-02 0.27825E-03 0.14643E-02 0.82372E-03 -.75758E-04 -.46259E-03 -.14766E-03 0.66469E-03
 0.57898E-03 -.17976E-02 -.91571E-02 -.22097E-01 -.38716E-01 -.54628E-01 -.64554E-01 -.64835E-01 -.55345E-01 -.39569E-01
 -.22774E-01 -.94960E-02 -.18284E-02 0.70638E-03 0.80661E-04 -.15662E-02 -.27411E-02 -.27647E-02 -.16473E-02 -.57854E-04
 -.90581E-03 -.41203E-02 -.12979E-01 -.26768E-01 -.42290E-01 -.54725E-01 -.59655E-01 -.55213E-01 -.43056E-01 -.27518E-01
 -.13490E-01 -.43325E-02 -.90196E-03 -.19015E-02 -.49866E-02 -.78728E-02 -.90223E-02 -.79111E-02 -.50656E-02 -.19899E-02
 -.23802E-02 -.57021E-02 -.14502E-01 -.26809E-01 -.38840E-01 -.46373E-01 -.46579E-01 -.39366E-01 -.27439E-01 -.15022E-01
 -.59989E-02 -.24690E-02 -.42669E-02 -.94177E-02 -.15104E-01 -.18722E-01 -.18737E-01 -.15149E-01 -.94802E-02 -.42981E-02
 -.29929E-02 -.57057E-02 -.13009E-01 -.22188E-01 -.29747E-01 -.32748E-01 -.30002E-01 -.22588E-01 -.13401E-01 -.59733E-02
 -.31040E-02 -.58537E-02 -.13183E-01 -.22322E-01 -.29768E-01 -.32630E-01 -.29791E-01 -.22368E-01 -.13233E-01 -.58571E-02
 -.23779E-02 -.41203E-02 -.91825E-02 -.14818E-01 -.18447E-01 -.18516E-01 -.14993E-01 -.93905E-02 -.42830E-02 -.24530E-02
 -.58509E-02 -.14659E-01 -.26853E-01 -.38654E-01 -.45913E-01 -.45924E-01 -.38687E-01 -.26906E-01 -.14708E-01 -.58571E-02
 -.88888E-03 -.17698E-02 -.46952E-02 -.74683E-02 -.85854E-02 -.75134E-02 -.47603E-02 -.18211E-02 -.90386E-03 -.42700E-02
 -.13183E-01 -.26851E-01 -.42063E-01 -.54091E-01 -.58680E-01 -.54116E-01 -.42109E-01 -.26906E-01 -.13232E-01 -.42936E-02
 0.62608E-03 0.18717E-03 -.12717E-02 -.23365E-02 -.23422E-02 -.12823E-02 0.18526E-03 0.64111E-03 -.19387E-02 -.94320E-02
 -.22321E-01 -.38647E-01 -.54085E-01 -.63538E-01 -.63552E-01 -.54120E-01 -.38692E-01 -.22366E-01 -.94720E-02 -.19692E-02
 0.13301E-02 0.89060E-03 0.13974E-03 -.18279E-03 0.12522E-03 0.86912E-03 0.13113E-02 -.16648E-04 -.50359E-02 -.15119E-01
 -.29763E-01 -.45900E-01 -.58667E-01 -.63545E-01 -.58689E-01 -.45934E-01 -.29793E-01 -.15136E-01 -.50391E-02 -.71294E-05
 0.81058E-03 0.12748E-03 -.39355E-03 -.41895E-03 0.58312E-04 0.71627E-03 0.65800E-03 -.16661E-02 -.79193E-02 -.18732E-01
 -.32620E-01 -.45906E-01 -.54098E-01 -.54108E-01 -.45929E-01 -.32639E-01 -.18727E-01 -.78788E-02 -.15914E-02 0.75347E-03
 -.82341E-03 -.17281E-02 -.21111E-02 -.18278E-02 -.99343E-03 -.10738E-03 -.23140E-03 -.28321E-02 -.90614E-02 -.18741E-01
 -.29776E-01 -.38664E-01 -.42087E-01 -.38676E-01 -.29785E-01 -.18723E-01 -.89952E-02 -.27076E-02 -.57307E-04 0.86961E-04
 -.30960E-02 -.40012E-02 -.40765E-02 -.32984E-02 -.19415E-02 -.68262E-03 -.60083E-03 -.28424E-02 -.79397E-02 -.15145E-01
 -.22346E-01 -.26879E-01 -.26882E-01 -.22346E-01 -.15121E-01 -.78652E-02 -.26971E-02 -.38133E-03 -.41192E-03 -.16710E-02
 -.53798E-02 -.59926E-02 -.55460E-02 -.41682E-02 -.23039E-02 -.69937E-03 -.26061E-03 -.17036E-02 -.50779E-02 -.94664E-02
 -.13209E-01 -.14682E-01 -.13206E-01 -.94420E-02 -.50036E-02 -.15521E-02 -.20250E-04 -.38687E-03 -.19681E-02 -.38811E-02
 -.70661E-02 -.71530E-02 -.60932E-02 -.41840E-02 -.19764E-02 -.16441E-03 0.58927E-03 -.83899E-04 -.19848E-02 -.42827E-02
 -.58434E-02 -.58433E-02 -.42682E-02 -.19213E-02 0.64681E-04 0.83950E-03 0.17177E-03 -.16024E-02 -.38411E-02 -.58521E-02
 0.39029E-03 0.39379E-03 0.37220E-03 0.33599E-03 0.29859E-03 0.26631E-03 0.22875E-03 0.16670E-03 0.77684E-04 -.75284E-05
 -.42841E-04 -.76124E-05 0.71457E-04 0.14305E-03 0.17652E-03 0.18371E-03 0.19858E-03 0.24098E-03 0.30196E-03 0.35781E-03
 0.38340E-03 0.40149E-03 0.40771E-03 0.38423E-03 0.31214E-03 0.17589E-03 -.29112E-04 -.28126E-03 -.52204E-03 -.67160E-03
 -.67216E-03 -.52783E-03 -.30368E-03 -.82029E-04 0.86003E-04 0.19494E-03 0.26382E-03 0.30989E-03 0.34120E-03 0.36355E-03
 0.35562E-03 0.40109E-03 0.41666E-03 0.34848E-03 0.14749E-03 -.20800E-03 -.68807E-03 -.11977E-02 -.15952E-02 -.17494E-02
 -.16080E-02 -.12281E-02 -.74478E-03 -.29810E-03 0.26868E-04 0.21438E-03 0.29433E-03 0.31193E-03 0.31000E-03 0.32043E-03
 0.31797E-03 0.37570E-03 0.34628E-03 0.13737E-03 -.31701E-03 -.10124E-02 -.18416E-02 -.26036E-02 -.30692E-02 -.30832E-02
 -.26443E-02 -.19073E-02 -.11037E-02 -.43392E-03 0.29696E-05 0.21280E-03 0.26535E-03 0.24716E-03 0.23005E-03 0.25414E-03
 0.28435E-03 0.30681E-03 0.14761E-03 -.31556E-03 -.11367E-02 -.22396E-02 -.33991E-02 -.42977E-02 -.46500E-02 -.43370E-02
 -.34689E-02 -.23313E-02 -.12474E-02 -.44268E-03 0.15718E-04 0.19017E-03 0.20105E-03 0.16376E-03 0.15603E-03 0.20569E-03
 0.25970E-03 0.17657E-03 -.20371E-03 -.10081E-02 -.22371E-02 -.37016E-02 -.50448E-02 -.58648E-02 -.58897E-02 -.51109E-02
 -.37915E-02 -.23388E-02 -.11180E-02 -.31804E-03 0.69670E-04 0.17601E-03 0.15576E-03 0.12463E-03 0.14114E-03 0.20642E-03
 0.22974E-03 -.24237E-04 -.68178E-03 -.18352E-02 -.33927E-02 -.50393E-02 -.63194E-02 -.68213E-02 -.63720E-02 -.51255E-02
 -.34885E-02 -.19258E-02 -.76448E-03 -.10073E-03 0.16169E-03 0.19945E-03 0.16830E-03 0.15873E-03 0.19689E-03 0.25181E-03
 0.17117E-03 -.27730E-03 -.11932E-02 -.25954E-02 -.42838E-02 -.58479E-02 -.68089E-02 -.68372E-02 -.59199E-02 -.43704E-02
 -.26706E-02 -.12481E-02 -.31903E-03 0.13210E-03 0.26142E-03 0.24812E-03 0.21919E-03 0.23110E-03 0.27890E-03 0.30022E-03
 0.80411E-04 -.52285E-03 -.15937E-02 -.30571E-02 -.46242E-02 -.58563E-02 -.63430E-02 -.59048E-02 -.46929E-02 -.31139E-02
 -.16261E-02 -.54022E-03 0.63800E-04 0.28723E-03 0.30056E-03 0.25213E-03 0.23065E-03 0.26354E-03 0.31993E-03 0.30777E-03
 -.89622E-05 -.67604E-03 -.17470E-02 -.30632E-02 -.42974E-02 -.50618E-02 -.50828E-02 -.43443E-02 -.31044E-02 -.17643E-02
 -.67628E-03 -.92010E-05 0.26287E-03 0.27898E-03 0.19435E-03 0.12362E-03 0.12537E-03 0.20068E-03 0.28918E-03 0.27059E-03
 -.46318E-04 -.67425E-03 -.15975E-02 -.26123E-02 -.34171E-02 -.37333E-02 -.34402E-02 -.26415E-02 -.16144E-02 -.67399E-03
 -.38055E-04 0.23473E-03 0.22062E-03 0.61999E-04 -.98911E-04 -.16279E-03 -.94968E-04 0.67372E-04 0.22257E-03 0.22972E-03
 -.78516E-05 -.52004E-03 -.12028E-02 -.18607E-02 -.22703E-02 -.22783E-02 -.18798E-02 -.12221E-02 -.53046E-03 -.79155E-05
 0.23398E-03 0.19281E-03 -.42562E-04 -.32843E-03 -.51722E-03 -.51561E-03 -.32543E-03 -.41912E-04 0.18920E-03 0.22893E-03
 0.80211E-04 -.28027E-03 -.70078E-03 -.10418E-02 -.11793E-02 -.10585E-02 -.72342E-03 -.29767E-03 0.70858E-04 0.26290E-03
 0.21908E-03 -.43254E-04 -.42339E-03 -.75945E-03 -.89485E-03 -.76227E-03 -.42522E-03 -.41522E-04 0.22315E-03 0.26814E-03
 0.16482E-03 -.40784E-04 -.23565E-03 -.35816E-03 -.36832E-03 -.25881E-03 -.62974E-04 0.15032E-03 0.29251E-03 0.27834E-03
 0.60433E-04 -.32873E-03 -.75882E-03 -.10452E-02 -.10486E-02 -.76409E-03 -.32793E-03 0.68768E-04 0.28904E-03 0.30294E-03
 0.21216E-03 0.14316E-03 0.10328E-03 0.87572E-04 0.93341E-04 0.12848E-03 0.19777E-03 0.27817E-03 0.30498E-03 0.19346E-03
 -.10005E-03 -.51648E-03 -.89286E-03 -.10472E-02 -.89724E-03 -.51958E-03 -.96798E-04 0.20286E-03 0.31705E-03 0.29113E-03
 0.22984E-03 0.26167E-03 0.29632E-03 0.29795E-03 0.26500E-03 0.23122E-03 0.23278E-03 0.26323E-03 0.25565E-03 0.12239E-03
 -.16378E-03 -.51443E-03 -.75980E-03 -.76228E-03 -.51924E-03 -.16549E-03 0.12695E-03 0.26463E-03 0.27155E-03 0.23638E-03
 0.24776E-03 0.33047E-03 0.37139E-03 0.34184E-03 0.26626E-03 0.20295E-03 0.19612E-03 0.23087E-03 0.23208E-03 0.12286E-03
 -.96834E-04 -.32513E-03 -.42388E-03 -.32749E-03 -.98044E-04 0.12508E-03 0.23496E-03 0.22839E-03 0.18456E-03 0.18452E-03
 0.28406E-03 0.36670E-03 0.37542E-03 0.30861E-03 0.21533E-03 0.16123E-03 0.17901E-03 0.23751E-03 0.26136E-03 0.19583E-03
 0.63951E-04 -.42967E-04 -.41816E-04 0.66987E-04 0.19845E-03 0.25835E-03 0.22300E-03 0.15118E-03 0.12509E-03 0.18042E-03
 0.33182E-03 0.38217E-03 0.35610E-03 0.27486E-03 0.19365E-03 0.16703E-03 0.20925E-03 0.27969E-03 0.31428E-03 0.28284E-03
 0.21897E-03 0.18820E-03 0.22205E-03 0.28465E-03 0.30750E-03 0.25736E-03 0.16915E-03 0.11425E-03 0.13912E-03 0.23084E-03
 0.37189E-03 0.38790E-03 0.35016E-03 0.28419E-03 0.23084E-03 0.22230E-03 0.25686E-03 0.29700E-03 0.30166E-03 0.26647E-03
 0.22912E-03 0.22957E-03 0.26567E-03 0.29319E-03 0.27196E-03 0.20901E-03 0.15396E-03 0.15417E-03 0.21593E-03 0.30426E-03
 0.80211E-02 0.75100E-02 0.59451E-02 0.37271E-02 0.14445E-02 -.25395E-03 -.85376E-03 -.21793E-03 0.12525E-02 0.27236E-02
 0.33413E-02 0.27293E-02 0.12234E-02 -.33557E-03 -.10915E-02 -.60025E-03 0.10410E-02 0.33384E-02 0.56414E-02 0.73443E-02
 0.74548E-02 0.64164E-02 0.45293E-02 0.23060E-02 0.43631E-03 -.38391E-03 0.25272E-03 0.21628E-02 0.45042E-02 0.61156E-02
 0.61416E-02 0.45455E-02 0.21349E-02 0.83386E-04 -.70648E-03 0.15898E-04 0.18780E-02 0.41768E-02 0.61911E-02 0.73781E-02