unknown system                          
   1.00000000000000     
     2.573869    0.000000    0.000000
     1.286934    2.229036    0.000000
     0.000000    0.000000   30.304665
   Cu   H 
     4     1
Direct
  0.000000  0.000000  0.395979
  0.333333  0.333333  0.465326
  0.666667  0.666667  0.534674
  0.000000  0.000000  0.604021
  0.372185  0.333333  0.637020
 
   20   20  240
 -.76755488374E-02 -.71596049706E-02 -.55832088318E-02 -.33560788368E-02 -.10713236896E-02
 0.62433323109E-03 0.12196203974E-02 0.57690987824E-03 -.90446677859E-03 -.23875244276E-02
 -.30105600901E-02 -.23928572350E-02 -.87414428546E-03 0.69643025881E-03 0.14586515946E-02
 0.97035519747E-03 -.66930479665E-03 -.29684224797E-02 -.52792914585E-02 -.69931173911E-02
 -.71047456941E-02 -.60593025818E-02 -.41612517730E-02 -.19310557193E-02 -.61998684117E-04
 0.75260015443E-03 0.10931048636E-03 -.18072758953E-02 -.41555173902E-02 -.57723427413E-02
 -.57987908438E-02 -.41963149408E-02 -.17759060262E-02 0.28403631828E-03 0.10785984244E-02
 0.35806834350E-03 -.15045739095E-02 -.38077328545E-02 -.58306079995E-02 -.70261634924E-02
 -.54816331848E-02 -.41153219177E-02 -.22359857700E-02 -.55727815990E-03 -.54518843484E-05
 -.13611394282E-02 -.47341015178E-02 -.92182744622E-02 -.13103577754E-01 -.14683122586E-01
 -.13205771418E-01 -.93247403830E-02 -.47169429585E-02 -.11481193006E-02 0.37682615005E-03
 -.10794801108E-03 -.18339955269E-02 -.38338980760E-02 -.53425687528E-02 -.59333602919E-02
 -.32316325814E-02 -.18633646498E-02 -.53532587216E-03 -.31893719452E-03 -.24235514998E-02
 -.74798724421E-02 -.14799475504E-01 -.22237813078E-01 -.27010599312E-01 -.27120093171E-01
 -.22489654381E-01 -.15015412032E-01 -.74970190697E-02 -.21928035540E-02 0.79668570606E-04
 -.11176912511E-03 -.15320700534E-02 -.30387387000E-02 -.39500853306E-02 -.40109410864E-02
 -.95693650815E-03 -.29486054700E-05 0.13078474481E-04 -.24207782555E-02 -.85633863335E-02
 -.18337388197E-01 -.29660041766E-01 -.38922532657E-01 -.42624187627E-01 -.39245343675E-01
 -.30116344860E-01 -.18672935354E-01 -.86148868118E-02 -.21943293859E-02 0.38129658319E-03
 0.34810238230E-03 -.71739665270E-03 -.16967840695E-02 -.20947823647E-02 -.18086500489E-02
 0.70146733435E-03 0.78338450497E-03 -.13537516471E-02 -.74685187848E-02 -.18315765917E-01
 -.32475022839E-01 -.46207448454E-01 -.54839890890E-01 -.55073390603E-01 -.46786450651E-01
 -.33111668180E-01 -.18730436474E-01 -.75402594198E-02 -.11517653977E-02 0.10874393985E-02
 0.95741383785E-03 0.12119049737E-03 -.47690372477E-03 -.52132922488E-03 -.25325796059E-04
 0.12516904210E-02 0.11604383828E-03 -.47180222552E-02 -.14743952511E-01 -.29567769661E-01
 -.46125339494E-01 -.59414589284E-01 -.64692097757E-01 -.59924628720E-01 -.46907760222E-01
 -.30288860645E-01 -.15159547248E-01 -.47813304596E-02 0.28145480910E-03 0.14709728041E-02
 0.83418887755E-03 -.63487969086E-04 -.44992531943E-03 -.13502700851E-03 0.67588224965E-03
 0.57834921969E-03 -.17984031445E-02 -.91563410891E-02 -.22093143346E-01 -.38710292907E-01
 -.54623899278E-01 -.64555716244E-01 -.64839051575E-01 -.55344837380E-01 -.39560252168E-01
 -.22762878767E-01 -.94905177909E-02 -.18319869036E-02 0.70010844988E-03 0.80994057001E-04
 -.15561990960E-02 -.27265959282E-02 -.27529177582E-02 -.16414218553E-02 -.56452090526E-04
 -.90767696465E-03 -.41144687297E-02 -.12968501339E-01 -.26758303347E-01 -.42284099386E-01
 -.54723478617E-01 -.59655108972E-01 -.55211952850E-01 -.43050938857E-01 -.27507297225E-01
 -.13477173376E-01 -.43244346225E-02 -.90237067202E-03 -.19065972910E-02 -.49880746760E-02
 -.78659359733E-02 -.90113614116E-02 -.79046054267E-02 -.50675889277E-02 -.19958204975E-02
 -.23758337158E-02 -.56889914657E-02 -.14484436611E-01 -.26794893195E-01 -.38834170756E-01
 -.46371208866E-01 -.46574210822E-01 -.39357117808E-01 -.27428712296E-01 -.15011619152E-01
 -.59891098319E-02 -.24590148689E-02 -.42587809009E-02 -.94135503157E-02 -.15102348709E-01
 -.18719365187E-01 -.18731581050E-01 -.15143708918E-01 -.94789727441E-02 -.42986876590E-02
 -.29846519512E-02 -.56959617024E-02 -.12996411912E-01 -.22175055654E-01 -.29739054456E-01
 -.32742207829E-01 -.29994102513E-01 -.22576180161E-01 -.13389519611E-01 -.59643268122E-02
 -.30960367859E-02 -.58423306118E-02 -.13168557096E-01 -.22309498503E-01 -.29762700642E-01
 -.32628913751E-01 -.29786879700E-01 -.22356667968E-01 -.13219410963E-01 -.58461826368E-02
 -.23741062360E-02 -.41215962887E-02 -.91795085688E-02 -.14806976583E-01 -.18433546577E-01
 -.18505548625E-01 -.14987248959E-01 -.93854476658E-02 -.42762465794E-02 -.24443526610E-02
 -.58401343429E-02 -.14645021808E-01 -.26837569609E-01 -.38640479403E-01 -.45906524289E-01
 -.45920840005E-01 -.38679356993E-01 -.26888849016E-01 -.14687409834E-01 -.58425399309E-02
 -.89125798363E-03 -.17762154673E-02 -.46949808194E-02 -.74558511444E-02 -.85664621742E-02
 -.74994134889E-02 -.47576095590E-02 -.18253566666E-02 -.90544378869E-03 -.42629804967E-02
 -.13169365521E-01 -.26835887519E-01 -.42050975579E-01 -.54082503288E-01 -.58673641284E-01
 -.54110043720E-01 -.42099046946E-01 -.26892073730E-01 -.13217589288E-01 -.42860474208E-02
 0.62557392783E-03 0.18839799836E-03 -.12637763677E-02 -.23193776755E-02 -.23206174636E-02
 -.12663369597E-02 0.18833023780E-03 0.63425278881E-03 -.19447909403E-02 -.94287912039E-02
 -.22309586592E-01 -.38633927286E-01 -.54076731406E-01 -.63533634155E-01 -.63547130121E-01
 -.54113652349E-01 -.38684467049E-01 -.22360668610E-01 -.94688700875E-02 -.19683284082E-02
 0.13376973656E-02 0.90311707797E-03 0.15620531497E-03 -.16370973322E-03 0.14435386500E-03
 0.88410745568E-03 0.13185533198E-02 -.16578871751E-04 -.50381999361E-02 -.15118242419E-01
 -.29758136556E-01 -.45893181028E-01 -.58660457193E-01 -.63539757430E-01 -.58684046550E-01
 -.45928621637E-01 -.29789865313E-01 -.15135695896E-01 -.50390467409E-02 -.43799412168E-05
 0.82131798285E-03 0.14188501217E-03 -.37723849454E-03 -.40367792909E-03 0.71334625403E-04
 0.72818296388E-03 0.66970882672E-03 -.16560700634E-02 -.79133579537E-02 -.18730516375E-01
 -.32618606443E-01 -.45901164708E-01 -.54090533652E-01 -.54100417575E-01 -.45923079103E-01
 -.32634502169E-01 -.18722891278E-01 -.78732643005E-02 -.15849150622E-02 0.76128459409E-03
 -.81878651275E-03 -.17208747423E-02 -.21018638759E-02 -.18198535579E-02 -.98686375895E-03
 -.98371905608E-04 -.21773765197E-03 -.28173301351E-02 -.90512796767E-02 -.18736427477E-01
 -.29770981611E-01 -.38654807619E-01 -.42075486210E-01 -.38667617521E-01 -.29780400857E-01
 -.18718360543E-01 -.89849238826E-02 -.26940483949E-02 -.46356045047E-04 0.93011815011E-04
 -.30966686591E-02 -.39976009716E-02 -.40722599927E-02 -.32970197668E-02 -.19395825212E-02
 -.67435046768E-03 -.58685899947E-03 -.28302306258E-02 -.79339054983E-02 -.15140369553E-01
 -.22335270012E-01 -.26861228779E-01 -.26866185805E-01 -.22339703677E-01 -.15118727632E-01
 -.78583473026E-02 -.26826021788E-02 -.36691999344E-03 -.40582802723E-03 -.16721181873E-02
 -.53733094571E-02 -.59819898109E-02 -.55412617694E-02 -.41708690835E-02 -.23042132048E-02
 -.68973968249E-03 -.24663755646E-03 -.16971311780E-02 -.50803907064E-02 -.94661212616E-02
 -.13195620054E-01 -.14661123079E-01 -.13190575851E-01 -.94386968026E-02 -.50032204010E-02
 -.15445881359E-02 -.78051801893E-05 -.37974684147E-03 -.19695546185E-02 -.38825829228E-02
 -.70441351914E-02 -.71326334452E-02 -.60870623663E-02 -.41881300882E-02 -.19760789837E-02
 -.15318159745E-03 0.60185432893E-03 -.81880048135E-04 -.19912755021E-02 -.42843589249E-02
 -.58331515255E-02 -.58288060107E-02 -.42607543237E-02 -.19210251448E-02 0.66772125095E-04
 0.84742773845E-03 0.17888056340E-03 -.16021643257E-02 -.38417760005E-02 -.58419750292E-02
 0.21168012461E-03 0.23639542167E-03 0.26050019869E-03 0.27251776800E-03 0.26300889607E-03
 0.23283124565E-03 0.19345437988E-03 0.15915154267E-03 0.13832992919E-03 0.13071872394E-03
 0.13061957063E-03 0.13181719195E-03 0.13075761100E-03 0.12765654028E-03 0.12597215948E-03
 0.12998914843E-03 0.14134145363E-03 0.15751608260E-03 0.17457170566E-03 0.19164236357E-03
 0.22340113276E-03 0.27542357861E-03 0.33017620467E-03 0.34427718987E-03 0.28604356464E-03
 0.15722871846E-03 -.86354195048E-05 -.16747617029E-03 -.28595816306E-03 -.34816088350E-03
 -.35034144059E-03 -.29586123526E-03 -.19597958795E-03 -.71568484493E-04 0.50542589364E-04
 0.14592558156E-03 0.20048964825E-03 0.21507366444E-03 0.20625465947E-03 0.20113122844E-03
 0.23893412128E-03 0.32128947794E-03 0.37362359171E-03 0.33203747225E-03 0.16577594755E-03
 -.10476831782E-03 -.41846746665E-03 -.70155100058E-03 -.89394335161E-03 -.96205758912E-03
 -.89974718626E-03 -.72517780783E-03 -.47740036619E-03 -.21022736912E-03 0.19837880856E-04
 0.17043608608E-03 0.22883255104E-03 0.21796270062E-03 0.18695208212E-03 0.18645415219E-03
 0.24818499230E-03 0.33213975752E-03 0.32833945315E-03 0.17115155191E-03 -.15057472412E-03
 -.58801564703E-03 -.10507101090E-02 -.14352812328E-02 -.16544221470E-02 -.16606144219E-02
 -.14590339566E-02 -.11045112238E-02 -.68332677281E-03 -.28771394996E-03 0.83312542642E-05
 0.16789461685E-03 0.20202936514E-03 0.16609497436E-03 0.13496407121E-03 0.16263700218E-03
 0.24278463883E-03 0.27711837501E-03 0.16383935315E-03 -.15024969395E-03 -.65055410137E-03
 -.12560310150E-02 -.18414949060E-02 -.22711982478E-02 -.24380414936E-02 -.22998798985E-02
 -.18972490581E-02 -.13397209135E-02 -.76512986691E-03 -.29242872828E-03 0.10954628578E-04
 0.13992957952E-03 0.14402123378E-03 0.10430167822E-03 0.97030393363E-04 0.15431968706E-03
 0.22217106758E-03 0.15558763424E-03 -.10232052919E-03 -.58601126437E-03 -.12556479358E-02
 -.19955994145E-02 -.26405383326E-02 -.30251868869E-02 -.30432731264E-02 -.26908548020E-02
 -.20702217439E-02 -.13491773106E-02 -.69604246429E-03 -.22329729642E-03 0.36919863703E-04
 0.12351091647E-03 0.11604832599E-03 0.97419746226E-04 0.11941660912E-03 0.18012041298E-03
 0.19314355561E-03 -.42970720671E-05 -.41373175604E-03 -.10481991701E-02 -.18406104703E-02
 -.26395384664E-02 -.32454429148E-02 -.34832467431E-02 -.32791789413E-02 -.26972640350E-02
 -.19107320292E-02 -.11246532217E-02 -.49565560881E-03 -.89689393455E-04 0.11218820669E-03
 0.17846575861E-03 0.18720796699E-03 0.19569546902E-03 0.22262499549E-03 0.24253987883E-03
 0.16451505121E-03 -.16305119672E-03 -.69931908262E-03 -.14334889271E-02 -.22670826647E-02
 -.30183313472E-02 -.34771411470E-02 -.34950802094E-02 -.30617288644E-02 -.23153695259E-02
 -.14755461594E-02 -.73996960439E-03 -.21130267993E-03 0.10950360021E-03 0.27897830410E-03
 0.36029580261E-03 0.39674296809E-03 0.40839228045E-03 0.39417189559E-03 0.32938674909E-03
 0.14241226816E-03 -.28715158154E-03 -.89687485398E-03 -.16519540312E-02 -.24258500190E-02
 -.30242932673E-02 -.32615554539E-02 -.30523655936E-02 -.24619755642E-02 -.16763461960E-02
 -.90767234712E-03 -.29733451784E-03 0.12221125773E-03 0.39400425384E-03 0.57278882935E-03
 0.68435726047E-03 0.72778523879E-03 0.69836997288E-03 0.59789700692E-03 0.42188006401E-03
 0.12934331439E-03 -.35538516790E-03 -.96698295249E-03 -.16526913818E-02 -.22753575590E-02
 -.26570370866E-02 -.26671384639E-02 -.22977201464E-02 -.16707050930E-02 -.96989273745E-03
 -.34632838207E-03 0.13816714527E-03 0.49973257881E-03 0.77751204248E-03 0.98560234249E-03
 0.11051925453E-02 0.11108474617E-02 0.99866365274E-03 0.78870815893E-03 0.50091254100E-03
 0.12554027091E-03 -.35723837694E-03 -.89797373520E-03 -.14388127863E-02 -.18583014412E-02
 -.20237947089E-02 -.18721173024E-02 -.14536273103E-02 -.90066920928E-03 -.34623430758E-03
 0.14057739629E-03 0.55742502791E-03 0.92316029630E-03 0.12330613298E-02 0.14504413643E-02
 0.15314389913E-02 0.14557564337E-02 0.12396924148E-02 0.92455862755E-03 0.54906242834E-03
 0.12993001992E-03 -.29218679588E-03 -.70627844446E-03 -.10653771585E-02 -.12856083108E-02
 -.12939583912E-02 -.10825610931E-02 -.71737925418E-03 -.29087513626E-03 0.13688092033E-03
 0.55545467633E-03 0.97158137547E-03 0.13668100380E-02 0.16869161022E-02 0.18672894513E-02
 0.18673039214E-02 0.16885138127E-02 0.13711185888E-02 0.97486583393E-03 0.55264153988E-03
 0.14040434082E-03 -.17248411702E-03 -.43385245175E-03 -.62135289929E-03 -.69561156653E-03
 -.63399283730E-03 -.45229206610E-03 -.18916204984E-03 0.12835811735E-03 0.49812226811E-03
 0.92036567613E-03 0.13656296341E-02 0.17678708330E-02 0.20484864347E-02 0.21485255321E-02
 0.20478339362E-02 0.17687612381E-02 0.13696512150E-02 0.92703627282E-03 0.50683434212E-03
 0.15450218550E-03 -.24103604403E-04 -.14071706632E-03 -.20392131362E-03 -.20911407246E-03
 -.15520296738E-03 -.44845532912E-04 0.13182223989E-03 0.40054225807E-03 0.77651457718E-03
 0.12307882841E-02 0.16861614993E-02 0.20489403672E-02 0.22468664538E-02 0.22454660117E-02
 0.20463216989E-02 0.16860743279E-02 0.12368706073E-02 0.79025337004E-03 0.42056094193E-03
 0.17030280422E-03 0.11908125042E-03 0.10934975869E-03 0.10688171875E-03 0.10243960872E-03
 0.10819176133E-03 0.15788955918E-03 0.30168706972E-03 0.57981636018E-03 0.98516897086E-03
 0.14488467298E-02 0.18674635538E-02 0.21501715198E-02 0.22467967125E-02 0.21457845511E-02
 0.18647567064E-02 0.14534518798E-02 0.99694347843E-03 0.59431157438E-03 0.31539312491E-03
 0.18616928540E-03 0.22620198629E-03 0.26823196796E-03 0.26961250342E-03 0.23037877227E-03
 0.19202415149E-03 0.22184786125E-03 0.38185718184E-03 0.69100677074E-03 0.11045716165E-02
 0.15296675925E-02 0.18674431989E-02 0.20497078624E-02 0.20481018575E-02 0.18652759419E-02
 0.15314962748E-02 0.11109351281E-02 0.69729820768E-03 0.38317445519E-03 0.21778866034E-03
 0.19958318967E-03 0.27985682414E-03 0.32140170617E-03 0.29494865902E-03 0.22439884827E-03
 0.17561912932E-03 0.22410488890E-03 0.41429920253E-03 0.73213045594E-03 0.11086989908E-02
 0.14526076664E-02 0.16872354024E-02 0.17692625165E-02 0.16865493903E-02 0.14525100991E-02
 0.11091204147E-02 0.72980953445E-03 0.40446021060E-03 0.20456018406E-03 0.14958086635E-03
 0.20744686185E-03 0.28221248158E-03 0.29485829600E-03 0.24225657251E-03 0.16946806062E-03
 0.14474400524E-03 0.22337459171E-03 0.41928581787E-03 0.69819556924E-03 0.99370773408E-03
 0.12347747909E-02 0.13683366985E-02 0.13683214576E-02 0.12347551753E-02 0.99222044156E-03
 0.69027959702E-03 0.39825893515E-03 0.18627148842E-03 0.96462764134E-04 0.12153219922E-03
 0.20894380953E-03 0.25489964378E-03 0.24374609347E-03 0.19200256804E-03 0.14608841281E-03
 0.15404298728E-03 0.24035496729E-03 0.39746283852E-03 0.59277658712E-03 0.78170084896E-03
 0.91972659766E-03 0.97256924517E-03 0.92469650999E-03 0.78432661109E-03 0.58249924578E-03
 0.36613279682E-03 0.18646986749E-03 0.84005096369E-04 0.72648282298E-04 0.13080773840E-03
 0.20806521297E-03 0.23063117135E-03 0.22404005870E-03 0.20201183270E-03 0.18827898521E-03
 0.20241448928E-03 0.25078133049E-03 0.32660836872E-03 0.41482082173E-03 0.49584529933E-03
 0.54812935533E-03 0.55308305128E-03 0.50308390352E-03 0.40746028077E-03 0.29087629719E-03
 0.18423972341E-03 0.11349742488E-03 0.91395107574E-04 0.11391930605E-03 0.16180337195E-03
 0.80499512667E-02 0.75347918465E-02 0.59608831339E-02 0.37373954211E-02 0.14551170206E-02
 -.24271710527E-03 -.84695817555E-03 -.21855349744E-03 0.12477477733E-02 0.27200945878E-02
 0.33399800790E-02 0.27271678042E-02 0.12196341258E-02 -.33681312385E-03 -.10861286295E-02
 -.58968263092E-03 0.10522055014E-02 0.33492994818E-02 0.56568792800E-02 0.73683285912E-02
 0.74797673653E-02 0.64324612762E-02 0.45390189995E-02 0.23157377966E-02 0.44727208657E-03
 -.37661987568E-03 0.25281013941E-03 0.21586584046E-02 0.45012795886E-02 0.61144712598E-02
 0.61382285031E-02 0.45380295257E-02 0.21282330473E-02 0.83616563764E-04 -.69916005772E-03
 0.25237576068E-04 0.18869878785E-02 0.41896107426E-02 0.62126423816E-02 0.74058766642E-02
 0.58590760165E-02 0.44926694077E-02 0.26153653452E-02 0.93860417374E-03 0.38408340387E-03
 0.17305909572E-02 0.50918495380E-02 0.95682207936E-02 0.13452243554E-01 0.15034089772E-01
 0.13558738381E-01 0.96794483413E-02 0.50761614150E-02 0.15156109759E-02 -.56992043085E-06
 0.48928233426E-03 0.22159603212E-02 0.42145635969E-02 0.57221413660E-02 0.63119690674E-02
 0.36127401415E-02 0.22470496750E-02 0.91539278569E-03 0.69309368456E-03 0.27937560736E-02
 0.78468446207E-02 0.15160229052E-01 0.22590251493E-01 0.27358556563E-01 0.27471018638E-01
 0.22847319427E-01 0.15377281119E-01 0.78598089225E-02 0.25584482117E-02 0.29382604249E-03
 0.49356631555E-03 0.19155938015E-02 0.34170943574E-02 0.43236881947E-02 0.43862628904E-02
 0.13403563938E-02 0.38662843937E-03 0.36294060212E-03 0.27888028516E-02 0.89288516605E-02
 0.18702191854E-01 0.30019065769E-01 0.39270984941E-01 0.42965700029E-01 0.39589676228E-01
 0.30469696160E-01 0.19033620354E-01 0.89792631668E-02 0.25636217009E-02 -.33124908612E-05
 0.37022147808E-04 0.11014758932E-02 0.20735289212E-02 0.24672571028E-02 0.21852168495E-02
 -.32066031139E-03 -.40932367224E-03 0.17204458106E-02 0.78323348062E-02 0.18678198521E-01
 0.32830701100E-01 0.46550483837E-01 0.55172522528E-01 0.55405623704E-01 0.47127093981E-01
 0.33462081244E-01 0.19087887383E-01 0.79046282428E-02 0.15256171930E-02 -.70499568736E-03
 -.57320668080E-03 0.25809166368E-03 0.85179321789E-03 0.89786661633E-03 0.40634378354E-03
 -.88014592111E-03 0.24433664609E-03 0.50744751123E-02 0.15103190396E-01 0.29924099174E-01
 0.46465659754E-01 0.59735405356E-01 0.65006879634E-01 0.60251479306E-01 0.47252396087E-01
 0.30643267688E-01 0.15515776063E-01 0.51411172730E-02 0.87266125220E-04 -.10952204004E-02
 -.45984941360E-03 0.43257956546E-03 0.81947078596E-03 0.51120164265E-03 -.29686728104E-03
 -.22080851100E-03 0.21485799266E-02 0.95068239897E-02 0.22447154211E-01 0.39058360092E-01
 0.54953080269E-01 0.64866885886E-01 0.65150301904E-01 0.55674985566E-01 0.39911216299E-01
 0.23121138799E-01 0.98441866434E-02 0.21819816709E-02 -.34630526053E-03 0.27852989684E-03
 0.19165257356E-02 0.30849393385E-02 0.31128869225E-02 0.20060795849E-02 0.42128966228E-03
 0.12509599750E-02 0.44594319530E-02 0.13318172833E-01 0.27109577237E-01 0.42628248881E-01
 0.55054501011E-01 0.59977533907E-01 0.55538421919E-01 0.43390895921E-01 0.27858679828E-01
 0.13829857589E-01 0.46709190151E-02 0.12438182447E-02 0.22490791478E-02 0.53352826420E-02
 0.82167832247E-02 0.93630099204E-02 0.82552410024E-02 0.54160859708E-02 0.23412315462E-02
 0.27090248267E-02 0.60302802932E-02 0.14835140164E-01 0.27148021918E-01 0.39182274372E-01
 0.46714077046E-01 0.46917508661E-01 0.39704443777E-01 0.27777306677E-01 0.15356461511E-01
 0.63292923571E-02 0.27982904431E-02 0.46006815372E-02 0.97582229958E-02 0.15448529488E-01
 0.19067056511E-01 0.19080646168E-01 0.15490891735E-01 0.98194629114E-02 0.46321209319E-02
 0.33145224164E-02 0.60342780943E-02 0.13347466438E-01 0.22532225804E-01 0.30094723100E-01
 0.33096531607E-01 0.30351074721E-01 0.22933831006E-01 0.13739425600E-01 0.63022376931E-02
 0.34290990419E-02 0.61821347934E-02 0.13518305802E-01 0.22661787546E-01 0.30110265487E-01
 0.32973466606E-01 0.30134391664E-01 0.22706533644E-01 0.13563462895E-01 0.61797103740E-02
 0.27081050797E-02 0.44621371225E-02 0.95318121969E-02 0.15166560767E-01 0.18794206104E-01
 0.18865797708E-01 0.15347040614E-01 0.97405431758E-02 0.46210750709E-02 0.27806285384E-02
 0.61780249511E-02 0.14992585417E-01 0.27191039700E-01 0.38988743181E-01 0.46245124091E-01
 0.46257717469E-01 0.39024657608E-01 0.27241777013E-01 0.15037081711E-01 0.61816767345E-02
 0.12358390838E-02 0.21276756604E-02 0.50525502338E-02 0.78165395582E-02 0.89296924940E-02
 0.78644620020E-02 0.51189773268E-02 0.21758573116E-02 0.12452870570E-02 0.46020433895E-02
 0.13516772678E-01 0.27188392698E-01 0.42395526986E-01 0.54411521960E-01 0.58994937406E-01
 0.54439076927E-01 0.42442755678E-01 0.27243398287E-01 0.13565863655E-01 0.46292348044E-02
 -.26682273147E-03 0.17865958900E-03 0.16304370575E-02 0.26840496025E-02 0.26893203288E-02
 0.16401221928E-02 0.18020674325E-03 -.28156978927E-03 0.22851308660E-02 0.97710872683E-02
 0.22660162384E-01 0.38981408142E-01 0.54405564581E-01 0.63844635858E-01 0.63858817362E-01
 0.54442467864E-01 0.39028771080E-01 0.22707459216E-01 0.98123405780E-02 0.23156083060E-02
 -.96560208254E-03 -.52446785324E-03 0.21919384602E-03 0.53686918170E-03 0.23410117656E-03
 -.50080719289E-03 -.94238569373E-03 0.37556877559E-03 0.53841428155E-02 0.15463090499E-01
 0.30104817489E-01 0.46231422560E-01 0.58981715402E-01 0.63851504847E-01 0.59003891802E-01
 0.46265464035E-01 0.30136459538E-01 0.15481496550E-01 0.53852994055E-02 0.36149229742E-03
 -.44077660714E-03 0.24007310634E-03 0.75715325545E-03 0.78505654784E-03 0.31465140430E-03
 -.34225845830E-03 -.29341253899E-03 0.20180900882E-02 0.82652749180E-02 0.19078516065E-01
 0.32962956523E-01 0.46237862769E-01 0.54419757654E-01 0.54429617030E-01 0.46260098841E-01
 0.32980008355E-01 0.19072317112E-01 0.82252767385E-02 0.19444284013E-02 -.38979327840E-03
 0.12015411374E-02 0.21015838820E-02 0.24821815991E-02 0.22028390916E-02 0.13714373659E-02
 0.47879909383E-03 0.58863390751E-03 0.31781205272E-02 0.94053219738E-02 0.19086865802E-01
 0.30118726155E-01 0.39000158152E-01 0.42419918926E-01 0.39012976063E-01 0.30127369300E-01
 0.19067357343E-01 0.93384664134E-02 0.30564609751E-02 0.41977485490E-03 0.28821070256E-03
 0.34773387069E-02 0.43780342955E-02 0.44516863703E-02 0.36750100367E-02 0.23162821142E-02
 0.10489563921E-02 0.95624335512E-03 0.31907762804E-02 0.82856119181E-02 0.15488245816E-01
 0.22685268173E-01 0.27214642530E-01 0.27219054040E-01 0.22688293137E-01 0.15464957123E-01
 0.82090017409E-02 0.30434166166E-02 0.73817375585E-03 0.78354837530E-03 0.20522728086E-02
 0.57507974278E-02 0.63632954866E-02 0.59202276598E-02 0.45442646040E-02 0.26763405671E-02
 0.10652617313E-02 0.62130881466E-03 0.20603309927E-02 0.54276614787E-02 0.98055457842E-02
 0.13539110061E-01 0.15011476266E-01 0.13540861557E-01 0.97842162550E-02 0.53497812585E-02
 0.19021934497E-02 0.37852231867E-03 0.75586409156E-03 0.23437555540E-02 0.42559180363E-02
 0.74193877539E-02 0.75122719512E-02 0.64655461745E-02 0.45632889489E-02 0.23523737486E-02
 0.53377271692E-03 -.22349027698E-03 0.44564454039E-03 0.23350606362E-02 0.46159802950E-02
 0.61655929606E-02 0.61683420742E-02 0.46055735016E-02 0.22698825863E-02 0.29056935660E-03
 -.47726086258E-03 0.20040554611E-03 0.19808936364E-02 0.42145829710E-02 0.62127864853E-02
 0.43759720256E-04 0.38965596332E-04 0.55108216657E-04 0.76962831827E-04 0.97219578606E-04
 0.12014009198E-03 0.15276613638E-03 0.19489490940E-03 0.23739757220E-03 0.26809723156E-03
 0.27866431302E-03 0.26861183456E-03 0.24605785367E-03 0.22440286746E-03 0.21399156115E-03
 0.21299760201E-03 0.20672224375E-03 0.17955118119E-03 0.13062674128E-03 0.77689791397E-04
 0.50230169677E-04 0.23358267811E-04 0.48555356784E-05 0.14064840201E-04 0.74154882967E-04
 0.19864614337E-03 0.37780109887E-03 0.57619884822E-03 0.74487119191E-03 0.84060810790E-03
 0.84165383520E-03 0.75378541230E-03 0.60659027445E-03 0.44209913828E-03 0.29911966930E-03
 0.19935613477E-03 0.14263947304E-03 0.11377433373E-03 0.95055852000E-04 0.75080756460E-04
 0.73642816403E-04 0.12255149159E-04 -.23614941654E-04 0.25232811709E-04 0.20388089473E-03
 0.51537645410E-03 0.91017088177E-03 0.12993883035E-02 0.15847504679E-02 0.16918540960E-02
 0.15953104230E-02 0.13278027997E-02 0.96846462474E-03 0.61284125176E-03 0.33700897693E-03
 0.17371256209E-03 0.11109119660E-03 0.10950304960E-03 0.12295466013E-03 0.11569352387E-03
 0.97862483244E-04 0.23808616930E-04 0.27328118421E-04 0.19787230028E-03 0.58407606168E-03
 0.11562322594E-02 0.18037390369E-02 0.23693642006E-02 0.27028687467E-02 0.27127472821E-02
 0.23995956243E-02 0.18584363593E-02 0.12439630624E-02 0.70952244756E-03 0.34969542963E-03
 0.17728763640E-03 0.14177186895E-03 0.16823161661E-03 0.19018401304E-03 0.16758172654E-03
 0.11453655705E-03 0.80525175392E-04 0.20305141406E-03 0.58161274652E-03 0.12428813382E-02
 0.21018088711E-02 0.29726375583E-02 0.36282649663E-02 0.38822558130E-02 0.36602770826E-02
 0.30319264486E-02 0.21857860762E-02 0.13533130128E-02 0.71631450845E-03 0.34680133501E-03
 0.20823266058E-03 0.20497283299E-03 0.23903391664E-03 0.24354279779E-03 0.19406310460E-03
 0.12891576571E-03 0.19825211749E-03 0.51031949666E-03 0.11510338557E-02 0.20987881148E-02
 0.31952594515E-02 0.41789704488E-02 0.47739143192E-02 0.47978387796E-02 0.42418715367E-02
 0.32797457415E-02 0.21949179649E-02 0.12592946982E-02 0.62943205387E-03 0.31502860273E-03
 0.22339565584E-03 0.23434023926E-03 0.25436243828E-03 0.23511330778E-03 0.17591580223E-03
 0.15219593806E-03 0.37219873004E-03 0.90412168177E-03 0.17988425062E-02 0.29675292404E-02
 0.41738519570E-02 0.51002994580E-02 0.54669660080E-02 0.51520096301E-02 0.42531258050E-02
 0.30498327810E-02 0.18784362842E-02 0.98798919200E-03 0.46042573784E-03 0.23112319337E-03
 0.17356462872E-03 0.17719226929E-03 0.17731404014E-03 0.15153915604E-03 0.11910684344E-03
 0.18933699823E-03 0.57082925834E-03 0.12966400596E-02 0.23663427425E-02 0.36196532389E-02
 0.47594430597E-02 0.54546048825E-02 0.54792460240E-02 0.48193741157E-02 0.36864570154E-02
 0.24223195022E-02 0.13440989523E-02 0.61901490896E-03 0.23841504314E-03 0.87928295468E-04
 0.45172263960E-04 0.34735305597E-04 0.26970191158E-04 0.20621827815E-04 0.47254584803E-04
 0.23339393899E-03 0.74455006350E-03 0.15859879249E-02 0.26984308771E-02 0.38654804005E-02
 0.47702803122E-02 0.51244237992E-02 0.48037016390E-02 0.39128659737E-02 0.27376825024E-02
 0.16090218579E-02 0.75866946162E-03 0.24938530789E-03 0.71049431192E-05 -.87802453969E-04
 -.12379290934E-03 -.13805678242E-03 -.13654898260E-03 -.10856228969E-03 -.13940229454E-04
 0.26940415007E-03 0.84525463297E-03 0.16925528916E-02 0.27001733653E-02 0.36305274188E-02
 0.42011856008E-02 0.42146257720E-02 0.36611772942E-02 0.27278482920E-02 0.17040038488E-02
 0.84318565322E-03 0.26617992386E-03 -.45775534616E-04 -.18553039686E-03 -.24306836493E-03
 -.26742914309E-03 -.27249573805E-03 -.25540509711E-03 -.19778736360E-03 -.50592851505E-04
 0.28326755380E-03 0.84551804228E-03 0.15879003927E-02 0.23727965496E-02 0.29874821831E-02
 0.32294361821E-02 0.30077947043E-02 0.23963212254E-02 0.15978017968E-02 0.84045872156E-03
 0.27496378281E-03 -.65588435767E-04 -.23348263232E-03 -.30374202944E-03 -.33034786788E-03
 -.33832945292E-03 -.33426091745E-03 -.31086293212E-03 -.23950302791E-03 -.64391902029E-04
 0.26980457509E-03 0.74811996978E-03 0.13048706074E-02 0.18141848706E-02 0.21278773134E-02
 0.21387488582E-02 0.18371430355E-02 0.13214514585E-02 0.74999116371E-03 0.26431998672E-03
 -.65549552289E-04 -.24495281568E-03 -.32006519714E-03 -.34033476526E-03 -.34072340866E-03
 -.34009669725E-03 -.34079246208E-03 -.32403865597E-03 -.24892528888E-03 -.63771422830E-04
 0.23623256727E-03 0.58346118130E-03 0.92486763841E-03 0.11814182974E-02 0.12838599612E-02
 0.11989122412E-02 0.94713835514E-03 0.59822406873E-03 0.24222705361E-03 -.46712496680E-04
 -.23292945906E-03 -.31982515378E-03 -.33647159620E-03 -.32179765288E-03 -.31031173802E-03
 -.31843546452E-03 -.33484176176E-03 -.32285704873E-03 -.23775857233E-03 -.50375523497E-04
 0.19878008324E-03 0.39754312957E-03 0.54723404935E-03 0.62998730253E-03 0.63736986674E-03
 0.56552593592E-03 0.41880391662E-03 0.21746803772E-03 -.28971538057E-07 -.18619356600E-03
 -.30301183452E-03 -.34043514716E-03 -.32255081304E-03 -.29393672789E-03 -.29117978404E-03
 -.31739531330E-03 -.33890975178E-03 -.30827835756E-03 -.19718593336E-03 -.14964465795E-04
 0.17266045906E-03 0.23512886275E-03 0.25356346303E-03 0.25821172780E-03 0.26248317452E-03
 0.25002377958E-03 0.19001289427E-03 0.67814307101E-04 -.94034124356E-04 -.24305312481E-03
 -.32968001603E-03 -.34178047819E-03 -.31253421756E-03 -.29276038892E-03 -.30841028773E-03
 -.33841046054E-03 -.33227809927E-03 -.25304193583E-03 -.10918886100E-03 0.50462096471E-04
 0.16113432059E-03 0.12413823963E-03 0.82536882331E-04 0.83492345539E-04 0.12578800798E-03
 0.16192722691E-03 0.13604389204E-03 0.28338134868E-04 -.12724701133E-03 -.26570274624E-03
 -.33732662046E-03 -.34170203408E-03 -.32132188718E-03 -.31954873170E-03 -.33911968035E-03
 -.33871132285E-03 -.27195667850E-03 -.13441723687E-03 0.24262277869E-04 0.13497962847E-03
 0.15314033863E-03 0.68218463923E-04 0.25193044110E-04 0.56964017205E-04 0.13233495980E-03
 0.18095991908E-03 0.14547869112E-03 0.22204173980E-04 -.13815175086E-03 -.26844519228E-03
 -.33190838380E-03 -.34133626684E-03 -.33630408705E-03 -.33941782344E-03 -.33170761459E-03
 -.27113488920E-03 -.13865090222E-03 0.31053191393E-04 0.16531282148E-03 0.20567152366E-03
 0.13373295377E-03 0.51312332687E-04 0.39246265146E-04 0.10012940584E-03 0.18093595509E-03
 0.21148430386E-03 0.15224330360E-03 0.18531258029E-04 -.13393463031E-03 -.24939079977E-03
 -.30679861811E-03 -.32254220227E-03 -.32157813387E-03 -.30545722467E-03 -.24892903327E-03
 -.13006033437E-03 0.34571408051E-04 0.18577894070E-03 0.25796563517E-03 0.22766942607E-03
 0.99296354563E-04 0.50619696594E-04 0.72237642087E-04 0.14030517451E-03 0.20040074560E-03
 0.20341306274E-03 0.13416660181E-03 0.16799913496E-04 -.10393310861E-03 -.19148637007E-03
 -.23565219355E-03 -.24696421835E-03 -.23445647581E-03 -.19015772860E-03 -.98402925119E-04
 0.37329722048E-04 0.17840118122E-03 0.26732003619E-03 0.26735957087E-03 0.19223810534E-03
 0.62924745635E-04 0.48824395890E-04 0.82832570854E-04 0.13349651095E-03 0.16438161668E-03
 0.15575003152E-03 0.11091369274E-03 0.48889939340E-04 -.83923531200E-05 -.46922410412E-04
 -.64264176771E-04 -.63974509960E-04 -.45610395954E-04 -.14471512308E-05 0.73190453755E-04
 0.16421511903E-03 0.23638759650E-03 0.25348634327E-03 0.20701866850E-03 0.12706415032E-03
 -.77051859228E-02 -.71799144199E-02 -.55876530360E-02 -.33543901956E-02 -.10761201421E-02
 0.61281251699E-03 0.12113752773E-02 0.57718067009E-03 -.90205261558E-03 -.23911908812E-02
 -.30187471497E-02 -.23971871742E-02 -.87218025262E-03 0.69731544905E-03 0.14519664952E-02
 0.96016831596E-03 -.67432537155E-03 -.29688869698E-02 -.52868058917E-02 -.70156359209E-02
 -.71253716752E-02 -.60699092264E-02 -.41645902932E-02 -.19372360955E-02 -.74279380016E-04