    5    5    1    1
  0.3477306E+02  0.2573869E-09  0.2573869E-09  0.3030466E-08  0.5000000E-15
  1.000000000000000E-004
  CAR 
 unknown system                          
     45     52     28
 
  0.0000000E+00  0.0000000E+00  0.0000000E+00  0.1000000E-01
    1      -11.608603   1.000000
    2      -10.591229   1.000000
    3       -8.984471   1.000000
    4       -7.524191   1.000000
    5       -6.089141   1.000000
    6       -5.575030   1.000000
    7       -5.557051   1.000000
    8       -5.523543   1.000000
    9       -5.314854   1.000000
   10       -5.290886   1.000000
   11       -5.285243   1.000000
   12       -5.222917   1.000000
   13       -5.222534   1.000000
   14       -4.964483   1.000000
   15       -4.963367   1.000000
   16       -4.872549   1.000000
   17       -4.748039   1.000000
   18       -4.723645   1.000000
   19       -4.481101   1.000000
   20       -4.477532   1.000000
   21       -4.263124   1.000000
   22       -4.258113   1.000000
   23       -3.982614   1.000000
   24       -3.981555   1.000000
   25       -2.913639   1.000000
   26        1.608091   0.000000
   27        1.936068   0.000000
   28        2.364150   0.000000
 
  0.1000000E+00  0.6938894E-17  0.0000000E+00  0.2000000E-01
    1      -11.303160   1.000000
    2      -10.293836   1.000000
    3       -8.721157   1.000000
    4       -7.301296   1.000000
    5       -6.147329   1.000000
    6       -5.673370   1.000000
    7       -5.583456   1.000000
    8       -5.452886   1.000000
    9       -5.385709   1.000000
   10       -5.345999   1.000000
   11       -5.275630   1.000000
   12       -5.203319   1.000000
   13       -5.125616   1.000000
   14       -5.112047   1.000000
   15       -4.990888   1.000000
   16       -4.880448   1.000000
   17       -4.745340   1.000000
   18       -4.699650   1.000000
   19       -4.485893   1.000000
   20       -4.452232   1.000000
   21       -4.283274   1.000000
   22       -4.254906   1.000000
   23       -3.977628   1.000000
   24       -3.760305   1.000000
   25       -2.227181   0.099974
   26        1.852829   0.000000
   27        2.239925   0.000000
   28        2.666673   0.000000
 
  0.2000000E+00 -0.1387779E-16  0.0000000E+00  0.2000000E-01
    1      -10.427519   1.000000
    2       -9.453298   1.000000
    3       -8.037211   1.000000
    4       -6.773530   1.000000
    5       -6.325728   1.000000
    6       -5.885557   1.000000
    7       -5.762114   1.000000
    8       -5.638314   1.000000
    9       -5.460205   1.000000
   10       -5.266260   1.000000
   11       -5.206355   1.000000
   12       -5.196488   1.000000
   13       -5.050975   1.000000
   14       -4.999330   1.000000
   15       -4.880242   1.000000
   16       -4.811566   1.000000
   17       -4.783307   1.000000
   18       -4.596698   1.000000
   19       -4.565887   1.000000
   20       -4.429385   1.000000
   21       -4.255142   1.000000
   22       -4.073336   1.000000
   23       -3.973342   1.000000
   24       -2.894481   1.000000
   25       -0.902649   0.000000
   26        2.579492   0.000000
   27        3.149566   0.000000
   28        3.574490   0.000000
 
  0.3000000E+00 -0.2775558E-16  0.0000000E+00  0.2000000E-01
    1       -9.163837   1.000000
    2       -8.301456   1.000000
    3       -7.361771   1.000000
    4       -6.581235   1.000000
    5       -6.378363   1.000000
    6       -6.134378   1.000000
    7       -5.853902   1.000000
    8       -5.649849   1.000000
    9       -5.515082   1.000000
   10       -5.275541   1.000000
   11       -5.178206   1.000000
   12       -5.041978   1.000000
   13       -4.867136   1.000000
   14       -4.815306   1.000000
   15       -4.740546   1.000000
   16       -4.629497   1.000000
   17       -4.508338   1.000000
   18       -4.370712   1.000000
   19       -4.333453   1.000000
   20       -4.243898   1.000000
   21       -4.119910   1.000000
   22       -3.960603   1.000000
   23       -3.588234   1.000000
   24       -1.732298   0.000000
   25        0.753786   0.000000
   26        3.747807   0.000000
   27        4.616467   0.000000
   28        5.007854   0.000000
 
  0.4000000E+00 -0.2775558E-16  0.0000000E+00  0.2000000E-01
    1       -8.179322   1.000000
    2       -7.345056   1.000000
    3       -7.054185   1.000000
    4       -6.660429   1.000000
    5       -6.484487   1.000000
    6       -6.274658   1.000000
    7       -5.929199   1.000000
    8       -5.470855   1.000000
    9       -5.334714   1.000000
   10       -5.262620   1.000000
   11       -5.255483   1.000000
   12       -4.911555   1.000000
   13       -4.738920   1.000000
   14       -4.466538   1.000000
   15       -4.369315   1.000000
   16       -4.351988   1.000000
   17       -4.100344   1.000000
   18       -4.078105   1.000000
   19       -4.048337   1.000000
   20       -3.964249   1.000000
   21       -3.802461   1.000000
   22       -3.549220   1.000000
   23       -2.524901   0.998298
   24       -0.343874   0.000000
   25        1.708518   0.000000
   26        2.851974   0.000000
   27        3.618265   0.000000
   28        4.540321   0.000000
 
  0.5000000E+00 -0.2775558E-16  0.0000000E+00  0.1000000E-01
    1       -7.968370   1.000000
    2       -7.021060   1.000000
    3       -6.990399   1.000000
    4       -6.637986   1.000000
    5       -6.540811   1.000000
    6       -6.331656   1.000000
    7       -5.919469   1.000000
    8       -5.405559   1.000000
    9       -5.300447   1.000000
   10       -5.264237   1.000000
   11       -5.160972   1.000000
   12       -4.931208   1.000000
   13       -4.461028   1.000000
   14       -4.430153   1.000000
   15       -4.271901   1.000000
   16       -4.230740   1.000000
   17       -4.041028   1.000000
   18       -3.951650   1.000000
   19       -3.891073   1.000000
   20       -3.685227   1.000000
   21       -3.581955   1.000000
   22       -2.222065   0.087861
   23       -1.355298   0.000000
   24       -0.805693   0.000000
   25        0.631384   0.000000
   26        2.153130   0.000000
   27        3.325005   0.000000
   28        3.858227   0.000000
 
  0.0000000E+00  0.1000000E+00  0.0000000E+00  0.2000000E-01
    1      -11.304414   1.000000
    2      -10.293744   1.000000
    3       -8.719870   1.000000
    4       -7.300720   1.000000
    5       -6.130951   1.000000
    6       -5.674045   1.000000
    7       -5.588377   1.000000
    8       -5.453828   1.000000
    9       -5.378986   1.000000
   10       -5.350919   1.000000
   11       -5.276029   1.000000
   12       -5.205394   1.000000
   13       -5.125514   1.000000
   14       -5.111743   1.000000
   15       -4.991502   1.000000
   16       -4.881532   1.000000
   17       -4.753398   1.000000
   18       -4.696913   1.000000
   19       -4.488321   1.000000
   20       -4.449041   1.000000
   21       -4.284530   1.000000
   22       -4.256680   1.000000
   23       -3.977998   1.000000
   24       -3.762508   1.000000
   25       -2.228375   0.102970
   26        1.852975   0.000000
   27        2.239791   0.000000
   28        2.666478   0.000000
 
  0.1000000E+00  0.1000000E+00  0.0000000E+00  0.2000000E-01
    1      -11.305883   1.000000
    2      -10.293743   1.000000
    3       -8.718647   1.000000
    4       -7.300169   1.000000
    5       -6.117636   1.000000
    6       -5.677801   1.000000
    7       -5.580155   1.000000
    8       -5.454702   1.000000
    9       -5.374661   1.000000
   10       -5.355646   1.000000
   11       -5.275978   1.000000
   12       -5.208453   1.000000
   13       -5.125416   1.000000
   14       -5.112417   1.000000
   15       -4.991571   1.000000
   16       -4.883263   1.000000
   17       -4.761232   1.000000
   18       -4.696567   1.000000
   19       -4.490441   1.000000
   20       -4.446454   1.000000
   21       -4.284745   1.000000
   22       -4.259213   1.000000
   23       -3.978554   1.000000
   24       -3.765487   1.000000
   25       -2.229624   0.106173
   26        1.853140   0.000000
   27        2.239688   0.000000
   28        2.666408   0.000000
 
  0.2000000E+00  0.1000000E+00  0.0000000E+00  0.2000000E-01
    1      -10.715816   1.000000
    2       -9.722084   1.000000
    3       -8.236801   1.000000
    4       -6.910751   1.000000
    5       -6.233390   1.000000
    6       -5.798521   1.000000
    7       -5.742440   1.000000
    8       -5.584468   1.000000
    9       -5.441554   1.000000
   10       -5.326007   1.000000
   11       -5.255260   1.000000
   12       -5.167632   1.000000
   13       -5.088991   1.000000
   14       -5.080287   1.000000
   15       -4.927043   1.000000
   16       -4.843165   1.000000
   17       -4.699502   1.000000
   18       -4.605710   1.000000
   19       -4.586471   1.000000
   20       -4.451157   1.000000
   21       -4.342240   1.000000
   22       -4.076793   1.000000
   23       -4.016475   1.000000
   24       -3.153607   1.000000
   25       -1.294833   0.000000
   26        2.339724   0.000000
   27        2.846668   0.000000
   28        3.272029   0.000000
 
  0.3000000E+00  0.1000000E+00  0.0000000E+00  0.2000000E-01
    1       -9.630065   1.000000
    2       -8.701005   1.000000
    3       -7.521597   1.000000
    4       -6.497685   1.000000
    5       -6.313282   1.000000
    6       -6.017062   1.000000
    7       -5.887000   1.000000
    8       -5.744055   1.000000
    9       -5.570235   1.000000
   10       -5.293846   1.000000
   11       -5.256737   1.000000
   12       -5.174029   1.000000
   13       -5.040750   1.000000
   14       -4.924773   1.000000
   15       -4.817348   1.000000
   16       -4.746369   1.000000
   17       -4.582947   1.000000
   18       -4.485659   1.000000
   19       -4.351401   1.000000
   20       -4.291231   1.000000
   21       -4.133627   1.000000
   22       -4.040800   1.000000
   23       -3.708913   1.000000
   24       -2.168865   0.017585
   25        0.145068   0.000000
   26        3.313503   0.000000
   27        4.052991   0.000000
   28        4.506817   0.000000
 
  0.4000000E+00  0.1000000E+00  0.0000000E+00  0.2000000E-01
    1       -8.423765   1.000000
    2       -7.616439   1.000000
    3       -7.055784   1.000000
    4       -6.559101   1.000000
    5       -6.348881   1.000000
    6       -6.151367   1.000000
    7       -5.919517   1.000000
    8       -5.638505   1.000000
    9       -5.551715   1.000000
   10       -5.321868   1.000000
   11       -5.222724   1.000000
   12       -5.084536   1.000000
   13       -4.889929   1.000000
   14       -4.727116   1.000000
   15       -4.626596   1.000000
   16       -4.487381   1.000000
   17       -4.372356   1.000000
   18       -4.239915   1.000000
   19       -4.158438   1.000000
   20       -3.978459   1.000000
   21       -3.932601   1.000000
   22       -3.615225   1.000000
   23       -2.825693   1.000000
   24       -0.776799   0.000000
   25        1.839213   0.000000
   26        3.877775   0.000000
   27        4.729135   0.000000
   28        5.162725   0.000000
 
  0.5000000E+00  0.1000000E+00  0.0000000E+00  0.2000000E-01
    1       -7.911867   1.000000
    2       -6.960737   1.000000
    3       -6.894640   1.000000
    4       -6.557932   1.000000
    5       -6.449958   1.000000
    6       -6.231547   1.000000
    7       -5.921325   1.000000
    8       -5.545646   1.000000
    9       -5.413646   1.000000
   10       -5.321960   1.000000
   11       -5.213174   1.000000
   12       -4.943352   1.000000
   13       -4.795758   1.000000
   14       -4.508971   1.000000
   15       -4.377761   1.000000
   16       -4.239707   1.000000
   17       -4.134075   1.000000
   18       -4.089263   1.000000
   19       -4.018810   1.000000
   20       -3.858535   1.000000
   21       -3.375055   1.000000
   22       -2.329150   0.563705
   23       -1.334646   0.000000
   24        0.117591   0.000000
   25        1.030188   0.000000
   26        2.483971   0.000000
   27        3.514392   0.000000
   28        4.361446   0.000000
 
 -0.4000000E+00  0.1000000E+00  0.0000000E+00  0.2000000E-01
    1       -7.919398   1.000000
    2       -6.962408   1.000000
    3       -6.894914   1.000000
    4       -6.558196   1.000000
    5       -6.450629   1.000000
    6       -6.229485   1.000000
    7       -5.919261   1.000000
    8       -5.531699   1.000000
    9       -5.417112   1.000000
   10       -5.320993   1.000000
   11       -5.208331   1.000000
   12       -4.943999   1.000000
   13       -4.793523   1.000000
   14       -4.509558   1.000000
   15       -4.378005   1.000000
   16       -4.241269   1.000000
   17       -4.131876   1.000000
   18       -4.093593   1.000000
   19       -4.018678   1.000000
   20       -3.858271   1.000000
   21       -3.385825   1.000000
   22       -2.328820   0.561866
   23       -1.331030   0.000000
   24        0.119854   0.000000
   25        1.035006   0.000000
   26        2.484891   0.000000
   27        3.510867   0.000000
   28        4.364122   0.000000
 
 -0.3000000E+00  0.1000000E+00  0.0000000E+00  0.2000000E-01
    1       -8.428812   1.000000
    2       -7.621565   1.000000
    3       -7.061059   1.000000
    4       -6.559387   1.000000
    5       -6.348657   1.000000
    6       -6.147448   1.000000
    7       -5.912395   1.000000
    8       -5.632337   1.000000
    9       -5.550571   1.000000
   10       -5.314917   1.000000
   11       -5.219997   1.000000
   12       -5.079713   1.000000
   13       -4.894666   1.000000
   14       -4.728935   1.000000
   15       -4.627081   1.000000
   16       -4.491185   1.000000
   17       -4.372707   1.000000
   18       -4.248603   1.000000
   19       -4.162006   1.000000
   20       -3.979899   1.000000
   21       -3.933057   1.000000
   22       -3.615418   1.000000
   23       -2.819842   1.000000
   24       -0.762378   0.000000
   25        1.849951   0.000000
   26        3.873062   0.000000
   27        4.723117   0.000000
   28        5.160923   0.000000
 
 -0.2000000E+00  0.1000000E+00  0.0000000E+00  0.2000000E-01
    1       -9.625446   1.000000
    2       -8.704493   1.000000
    3       -7.532463   1.000000
    4       -6.504811   1.000000
    5       -6.313497   1.000000
    6       -6.014425   1.000000
    7       -5.884222   1.000000
    8       -5.743441   1.000000
    9       -5.571980   1.000000
   10       -5.293171   1.000000
   11       -5.256247   1.000000
   12       -5.168333   1.000000
   13       -5.045346   1.000000
   14       -4.922992   1.000000
   15       -4.825778   1.000000
   16       -4.746045   1.000000
   17       -4.584404   1.000000
   18       -4.479116   1.000000
   19       -4.351495   1.000000
   20       -4.291512   1.000000
   21       -4.133184   1.000000
   22       -4.039150   1.000000
   23       -3.705224   1.000000
   24       -2.153772   0.010174
   25        0.152425   0.000000
   26        3.313632   0.000000
   27        4.053561   0.000000
   28        4.508687   0.000000
 
 -0.1000000E+00  0.1000000E+00  0.0000000E+00  0.2000000E-01
    1      -10.711718   1.000000
    2       -9.722679   1.000000
    3       -8.241681   1.000000
    4       -6.912846   1.000000
    5       -6.253843   1.000000
    6       -5.797464   1.000000
    7       -5.742826   1.000000
    8       -5.585491   1.000000
    9       -5.444074   1.000000
   10       -5.330790   1.000000
   11       -5.257261   1.000000
   12       -5.163610   1.000000
   13       -5.086934   1.000000
   14       -5.080275   1.000000
   15       -4.924284   1.000000
   16       -4.835179   1.000000
   17       -4.699147   1.000000
   18       -4.606408   1.000000
   19       -4.584954   1.000000
   20       -4.443422   1.000000
   21       -4.340637   1.000000
   22       -4.079000   1.000000
   23       -4.014003   1.000000
   24       -3.142361   1.000000
   25       -1.290838   0.000000
   26        2.339339   0.000000
   27        2.847010   0.000000
   28        3.271593   0.000000
 
  0.0000000E+00  0.2000000E+00  0.0000000E+00  0.2000000E-01
    1      -10.433906   1.000000
    2       -9.452255   1.000000
    3       -8.029567   1.000000
    4       -6.769706   1.000000
    5       -6.289667   1.000000
    6       -5.884488   1.000000
    7       -5.763611   1.000000
    8       -5.637609   1.000000
    9       -5.466296   1.000000
   10       -5.269985   1.000000
   11       -5.217217   1.000000
   12       -5.195000   1.000000
   13       -5.046615   1.000000
   14       -5.000970   1.000000
   15       -4.884314   1.000000
   16       -4.813074   1.000000
   17       -4.784938   1.000000
   18       -4.598143   1.000000
   19       -4.566289   1.000000
   20       -4.431281   1.000000
   21       -4.257529   1.000000
   22       -4.077262   1.000000
   23       -3.973703   1.000000
   24       -2.908670   1.000000
   25       -0.908851   0.000000
   26        2.579589   0.000000
   27        3.148997   0.000000
   28        3.575250   0.000000
 
  0.1000000E+00  0.2000000E+00  0.0000000E+00  0.2000000E-01
    1      -10.719338   1.000000
    2       -9.721228   1.000000
    3       -8.231736   1.000000
    4       -6.908680   1.000000
    5       -6.206428   1.000000
    6       -5.796472   1.000000
    7       -5.751202   1.000000
    8       -5.582650   1.000000
    9       -5.442546   1.000000
   10       -5.324147   1.000000
   11       -5.257999   1.000000
   12       -5.171622   1.000000
   13       -5.091360   1.000000
   14       -5.076959   1.000000
   15       -4.930781   1.000000
   16       -4.851806   1.000000
   17       -4.699479   1.000000
   18       -4.599735   1.000000
   19       -4.588132   1.000000
   20       -4.460716   1.000000
   21       -4.342520   1.000000
   22       -4.073015   1.000000
   23       -4.018603   1.000000
   24       -3.163566   1.000000
   25       -1.298564   0.000000
   26        2.340048   0.000000
   27        2.846301   0.000000
   28        3.271333   0.000000
 
  0.2000000E+00  0.2000000E+00  0.0000000E+00  0.2000000E-01
    1      -10.441487   1.000000
    2       -9.451753   1.000000
    3       -8.022500   1.000000
    4       -6.766318   1.000000
    5       -6.255384   1.000000
    6       -5.878941   1.000000
    7       -5.761249   1.000000
    8       -5.636413   1.000000
    9       -5.467828   1.000000
   10       -5.271061   1.000000
   11       -5.225716   1.000000
   12       -5.195664   1.000000
   13       -5.044956   1.000000
   14       -5.003920   1.000000
   15       -4.887772   1.000000
   16       -4.814585   1.000000
   17       -4.788726   1.000000
   18       -4.599911   1.000000
   19       -4.568662   1.000000
   20       -4.433427   1.000000
   21       -4.259257   1.000000
   22       -4.084009   1.000000
   23       -3.974381   1.000000
   24       -2.924880   1.000000
   25       -0.915445   0.000000
   26        2.579678   0.000000
   27        3.148474   0.000000
   28        3.573853   0.000000
 
  0.3000000E+00  0.2000000E+00  0.0000000E+00  0.2000000E-01
    1       -9.646630   1.000000
    2       -8.698747   1.000000
    3       -7.505599   1.000000
    4       -6.474681   1.000000
    5       -6.292215   1.000000
    6       -6.007822   1.000000
    7       -5.878753   1.000000
    8       -5.741726   1.000000
    9       -5.575677   1.000000
   10       -5.292631   1.000000
   11       -5.257001   1.000000
   12       -5.183265   1.000000
   13       -5.053164   1.000000
   14       -4.927377   1.000000
   15       -4.815486   1.000000
   16       -4.748339   1.000000
   17       -4.584758   1.000000
   18       -4.485977   1.000000
   19       -4.359307   1.000000
   20       -4.292648   1.000000
   21       -4.133731   1.000000
   22       -4.040497   1.000000
   23       -3.720344   1.000000
   24       -2.192923   0.038684
   25        0.130919   0.000000
   26        3.310481   0.000000
   27        4.051915   0.000000
   28        4.506841   0.000000
 
  0.4000000E+00  0.2000000E+00  0.0000000E+00  0.2000000E-01
    1       -8.556408   1.000000
    2       -7.695164   1.000000
    3       -6.994984   1.000000
    4       -6.422277   1.000000
    5       -6.176929   1.000000
    6       -6.073813   1.000000
    7       -5.912083   1.000000
    8       -5.834192   1.000000
    9       -5.557353   1.000000
   10       -5.409700   1.000000
   11       -5.329556   1.000000
   12       -5.283343   1.000000
   13       -4.989968   1.000000
   14       -4.920217   1.000000
   15       -4.739305   1.000000
   16       -4.630275   1.000000
   17       -4.414821   1.000000
   18       -4.259507   1.000000
   19       -4.190075   1.000000
   20       -3.982640   1.000000
   21       -3.917503   1.000000
   22       -3.561986   1.000000
   23       -2.837531   1.000000
   24       -0.936848   0.000000
   25        1.648240   0.000000
   26        4.504905   0.000000
   27        5.314122   0.000000
   28        5.686023   0.000000
 
  0.5000000E+00  0.2000000E+00  0.0000000E+00  0.2000000E-01
    1       -7.812138   1.000000
    2       -6.871354   1.000000
    3       -6.665888   1.000000
    4       -6.413725   1.000000
    5       -6.240795   1.000000
    6       -6.096268   1.000000
    7       -5.910274   1.000000
    8       -5.776910   1.000000
    9       -5.545405   1.000000
   10       -5.497604   1.000000
   11       -5.383066   1.000000
   12       -5.053209   1.000000
   13       -4.947079   1.000000
   14       -4.807137   1.000000
   15       -4.636958   1.000000
   16       -4.524384   1.000000
   17       -4.369707   1.000000
   18       -4.189284   1.000000
   19       -4.034433   1.000000
   20       -3.881724   1.000000
   21       -3.188858   1.000000
   22       -2.340870   0.627829
   23       -1.224206   0.000000
   24        0.725903   0.000000
   25        2.474475   0.000000
   26        3.568283   0.000000
   27        4.297812   0.000000
   28        4.924143   0.000000
 
 -0.4000000E+00  0.2000000E+00  0.0000000E+00  0.2000000E-01
    1       -7.669470   1.000000
    2       -6.640523   1.000000
    3       -6.578413   1.000000
    4       -6.321020   1.000000
    5       -6.286679   1.000000
    6       -6.052059   1.000000
    7       -5.911247   1.000000
    8       -5.806592   1.000000
    9       -5.570464   1.000000
   10       -5.442060   1.000000
   11       -5.317804   1.000000
   12       -5.085845   1.000000
   13       -4.875826   1.000000
   14       -4.685717   1.000000
   15       -4.554587   1.000000
   16       -4.436352   1.000000
   17       -4.274309   1.000000
   18       -4.121610   1.000000
   19       -4.052645   1.000000
   20       -3.951768   1.000000
   21       -2.405703   0.893065
   22       -0.673235   0.000000
   23       -0.085495   0.000000
   24        0.676972   0.000000
   25        1.097517   0.000000
   26        2.757806   0.000000
   27        4.107423   0.000000
   28        4.179328   0.000000
 
 -0.3000000E+00  0.2000000E+00  0.0000000E+00  0.2000000E-01
    1       -7.829980   1.000000
    2       -6.871822   1.000000
    3       -6.667586   1.000000
    4       -6.413955   1.000000
    5       -6.241666   1.000000
    6       -6.089315   1.000000
    7       -5.906175   1.000000
    8       -5.771985   1.000000
    9       -5.544485   1.000000
   10       -5.490373   1.000000
   11       -5.376367   1.000000
   12       -5.051896   1.000000
   13       -4.947372   1.000000
   14       -4.807685   1.000000
   15       -4.633394   1.000000
   16       -4.527830   1.000000
   17       -4.369541   1.000000
   18       -4.189841   1.000000
   19       -4.037465   1.000000
   20       -3.880580   1.000000
   21       -3.210242   1.000000
   22       -2.339597   0.620999
   23       -1.211251   0.000000
   24        0.753419   0.000000
   25        2.484308   0.000000
   26        3.573539   0.000000
   27        4.291609   0.000000
   28        4.931433   0.000000
 
 -0.2000000E+00  0.2000000E+00  0.0000000E+00  0.2000000E-01
    1       -8.548526   1.000000
    2       -7.707981   1.000000
    3       -7.013078   1.000000
    4       -6.428050   1.000000
    5       -6.172925   1.000000
    6       -6.073703   1.000000
    7       -5.911000   1.000000
    8       -5.834355   1.000000
    9       -5.557759   1.000000
   10       -5.409738   1.000000
   11       -5.317857   1.000000
   12       -5.278776   1.000000
   13       -4.988092   1.000000
   14       -4.916150   1.000000
   15       -4.739916   1.000000
   16       -4.636430   1.000000
   17       -4.411237   1.000000
   18       -4.263207   1.000000
   19       -4.202013   1.000000
   20       -3.980424   1.000000
   21       -3.921861   1.000000
   22       -3.561021   1.000000
   23       -2.824833   1.000000
   24       -0.904828   0.000000
   25        1.674197   0.000000
   26        4.520185   0.000000
   27        5.305739   0.000000
   28        5.693006   0.000000
 
 -0.1000000E+00  0.2000000E+00  0.0000000E+00  0.2000000E-01
    1       -9.632957   1.000000
    2       -8.702996   1.000000
    3       -7.524051   1.000000
    4       -6.493060   1.000000
    5       -6.304166   1.000000
    6       -6.011832   1.000000
    7       -5.880359   1.000000
    8       -5.742346   1.000000
    9       -5.575704   1.000000
   10       -5.293566   1.000000
   11       -5.256937   1.000000
   12       -5.172858   1.000000
   13       -5.050561   1.000000
   14       -4.923455   1.000000
   15       -4.824655   1.000000
   16       -4.746898   1.000000
   17       -4.585319   1.000000
   18       -4.478893   1.000000
   19       -4.355235   1.000000
   20       -4.292158   1.000000
   21       -4.133187   1.000000
   22       -4.038923   1.000000
   23       -3.710149   1.000000
   24       -2.164948   0.015317
   25        0.145580   0.000000
   26        3.312220   0.000000
   27        4.052981   0.000000
   28        4.511186   0.000000
 
  0.0000000E+00  0.3000000E+00  0.0000000E+00  0.2000000E-01
    1       -9.185685   1.000000
    2       -8.294039   1.000000
    3       -7.337712   1.000000
    4       -6.552763   1.000000
    5       -6.373265   1.000000
    6       -6.125689   1.000000
    7       -5.845282   1.000000
    8       -5.650022   1.000000
    9       -5.514373   1.000000
   10       -5.277048   1.000000
   11       -5.190614   1.000000
   12       -5.042714   1.000000
   13       -4.873462   1.000000
   14       -4.815443   1.000000
   15       -4.737896   1.000000
   16       -4.634350   1.000000
   17       -4.509590   1.000000
   18       -4.372004   1.000000
   19       -4.334418   1.000000
   20       -4.245316   1.000000
   21       -4.120021   1.000000
   22       -3.961109   1.000000
   23       -3.602103   1.000000
   24       -1.764552   0.000000
   25        0.729233   0.000000
   26        3.734848   0.000000
   27        4.613356   0.000000
   28        4.981733   0.000000
 
  0.1000000E+00  0.3000000E+00  0.0000000E+00  0.2000000E-01
    1       -9.641636   1.000000
    2       -8.695812   1.000000
    3       -7.501661   1.000000
    4       -6.477649   1.000000
    5       -6.300321   1.000000
    6       -6.015949   1.000000
    7       -5.888751   1.000000
    8       -5.743483   1.000000
    9       -5.572717   1.000000
   10       -5.296748   1.000000
   11       -5.259225   1.000000
   12       -5.187493   1.000000
   13       -5.042565   1.000000
   14       -4.930759   1.000000
   15       -4.805058   1.000000
   16       -4.747266   1.000000
   17       -4.583192   1.000000
   18       -4.491914   1.000000
   19       -4.352445   1.000000
   20       -4.291118   1.000000
   21       -4.133663   1.000000
   22       -4.042305   1.000000
   23       -3.715181   1.000000
   24       -2.194582   0.040692
   25        0.131203   0.000000
   26        3.311979   0.000000
   27        4.051659   0.000000
   28        4.508590   0.000000
 
  0.2000000E+00  0.3000000E+00  0.0000000E+00  0.2000000E-01
    1       -9.650673   1.000000
    2       -8.695058   1.000000
    3       -7.494139   1.000000
    4       -6.466706   1.000000
    5       -6.288142   1.000000
    6       -6.008834   1.000000
    7       -5.884610   1.000000
    8       -5.742249   1.000000
    9       -5.574423   1.000000
   10       -5.294966   1.000000
   11       -5.258950   1.000000
   12       -5.192970   1.000000
   13       -5.049491   1.000000
   14       -4.932761   1.000000
   15       -4.804457   1.000000
   16       -4.748309   1.000000
   17       -4.584053   1.000000
   18       -4.492505   1.000000
   19       -4.356514   1.000000
   20       -4.291891   1.000000
   21       -4.133764   1.000000
   22       -4.042244   1.000000
   23       -3.721667   1.000000
   24       -2.207475   0.059335
   25        0.123901   0.000000
   26        3.310371   0.000000
   27        4.051158   0.000000
   28        4.503358   0.000000
 
  0.3000000E+00  0.3000000E+00  0.0000000E+00  0.2000000E-01
    1       -9.212036   1.000000
    2       -8.288890   1.000000
    3       -7.316233   1.000000
    4       -6.523610   1.000000
    5       -6.365607   1.000000
    6       -6.108665   1.000000
    7       -5.831007   1.000000
    8       -5.649558   1.000000
    9       -5.510025   1.000000
   10       -5.277058   1.000000
   11       -5.202506   1.000000
   12       -5.043728   1.000000
   13       -4.878923   1.000000
   14       -4.815467   1.000000
   15       -4.734190   1.000000
   16       -4.645280   1.000000
   17       -4.510911   1.000000
   18       -4.373887   1.000000
   19       -4.336418   1.000000
   20       -4.246790   1.000000
   21       -4.120612   1.000000
   22       -3.961752   1.000000
   23       -3.621265   1.000000
   24       -1.801020   0.000000
   25        0.703264   0.000000
   26        3.720483   0.000000
   27        4.611363   0.000000
   28        4.956910   0.000000
 
  0.4000000E+00  0.3000000E+00  0.0000000E+00  0.2000000E-01
    1       -8.488671   1.000000
    2       -7.594293   1.000000
    3       -7.017325   1.000000
    4       -6.516381   1.000000