unknown system                          
   1.00000000000000     
     2.573869    0.000000    0.000000
     1.286934    2.229036    0.000000
     0.000000    0.000000   30.304665
   Cu   H 
     4     1
Direct
  0.000000  0.000000  0.395979
  0.333333  0.333333  0.465326
  0.666667  0.666667  0.534674
  0.000000  0.000000  0.604021
  0.372185  0.333333  0.637020
 
   10   10  120
 0.39965E-10 0.47487E-10 0.11038E-11 0.30449E-10 0.25699E-12 0.63222E-11 0.45158E-13 0.21228E-10 0.33981E-12 0.56225E-10
 0.26290E-10 0.19269E-10 0.63922E-12 0.27207E-11 0.21919E-12 0.77889E-10 0.39052E-13 0.37588E-10 0.37896E-12 0.20626E-10
 0.65369E-12 0.49495E-12 0.56176E-12 0.21259E-12 0.19443E-13 0.75884E-13 0.85737E-13 0.10798E-11 0.46067E-13 0.52804E-12
 0.16286E-11 0.64489E-12 0.24233E-12 0.46477E-13 0.17264E-13 0.12275E-12 0.10034E-12 0.55721E-12 0.80082E-13 0.11287E-11
 0.66225E-13 0.64226E-13 0.12754E-13 0.13933E-13 0.35069E-13 0.78978E-13 0.60091E-14 0.74593E-13 0.86348E-13 0.63713E-13
 0.41414E-11 0.40864E-10 0.94480E-13 0.26348E-12 0.22624E-12 0.81730E-11 0.28880E-13 0.40755E-12 0.10232E-12 0.19514E-10
 0.34486E-13 0.33806E-13 0.65642E-13 0.60132E-13 0.84516E-14 0.24078E-13 0.21261E-13 0.13212E-13 0.63283E-14 0.35250E-13
 0.19750E-10 0.52059E-10 0.27451E-11 0.21954E-11 0.28436E-12 0.41422E-12 0.15793E-13 0.52611E-13 0.10689E-12 0.13296E-10
 0.34058E-12 0.32418E-12 0.59480E-13 0.17299E-12 0.18506E-12 0.10436E-12 0.74801E-14 0.10729E-12 0.19260E-12 0.31446E-12
 0.59069E-10 0.17976E-10 0.97043E-12 0.10780E-10 0.20627E-12 0.21118E-10 0.47157E-13 0.14084E-10 0.30611E-12 0.21487E-10
 0.97992E-12 0.72111E-12 0.10790E-11 0.26019E-11 0.22135E-13 0.21336E-12 0.30795E-12 0.11468E-11 0.56590E-13 0.54660E-12
 0.50738E-12 0.40674E-08 0.91563E-12 0.19309E-11 0.66516E-13 0.45383E-11 0.11828E-12 0.23752E-10 0.41926E-12 0.21710E-10
 0.85968E-12 0.69357E-12 0.47834E-12 0.11818E-12 0.71609E-14 0.53069E-13 0.19383E-12 0.11992E-11 0.54328E-13 0.55228E-12
 0.21832E-11 0.67674E-12 0.13085E-12 0.10825E-13 0.48572E-14 0.73927E-13 0.35250E-12 0.77229E-12 0.83447E-13 0.16085E-11
 0.11505E-13 0.27062E-13 0.55095E-14 0.41911E-14 0.10908E-13 0.30129E-13 0.76328E-14 0.36457E-13 0.53818E-13 0.32016E-13
 0.17766E-12 0.39839E-11 0.62422E-13 0.11742E-12 0.66391E-13 0.63478E-11 0.69320E-13 0.96569E-11 0.23720E-12 0.18936E-10
 0.22402E-12 0.10413E-12 0.16358E-12 0.21141E-12 0.11047E-13 0.56566E-13 0.11063E-12 0.75356E-13 0.16792E-13 0.84391E-13
 0.10635E-11 0.29280E-10 0.28500E-11 0.25685E-11 0.94758E-13 0.97752E-11 0.10268E-12 0.11392E-11 0.25140E-12 0.21675E-07
 0.55751E-13 0.36262E-12 0.67928E-13 0.16678E-12 0.11965E-12 0.24161E-12 0.20262E-13 0.25364E-12 0.26422E-12 0.23800E-12
 0.52022E-12 0.20612E-10 0.96170E-12 0.18311E-10 0.76453E-13 0.18022E-10 0.11814E-12 0.72197E-08 0.23028E-12 0.48905E-11
 0.26035E-13 0.32599E-13 0.63664E-13 0.50362E-13 0.33445E-14 0.20067E-13 0.60521E-13 0.34014E-13 0.95202E-14 0.27985E-13
 0.28241E-13 0.15476E-10 0.12615E-11 0.90476E-12 0.22926E-13 0.73208E-12 0.27187E-12 0.15777E-10 0.31967E-12 0.20103E-10
 0.63997E-13 0.91645E-12 0.23422E-12 0.33695E-13 0.30531E-14 0.20095E-13 0.20735E-12 0.10723E-11 0.46622E-13 0.54022E-12
 0.60521E-13 0.43224E-12 0.37054E-13 0.36915E-14 0.15543E-14 0.24480E-13 0.80186E-12 0.79413E-12 0.79353E-13 0.22583E-11
 0.22621E-14 0.11324E-13 0.25813E-14 0.17764E-14 0.41078E-14 0.12240E-13 0.59536E-14 0.14794E-13 0.25271E-13 0.13503E-13
 0.18749E-13 0.70334E-12 0.22815E-13 0.31530E-13 0.22649E-13 0.62509E-11 0.17208E-12 0.25261E-09 0.20937E-12 0.54283E-11
 0.59286E-13 0.23932E-12 0.20602E-12 0.51986E-12 0.87708E-14 0.13808E-12 0.44403E-12 0.26605E-12 0.29907E-13 0.20255E-12
 0.32530E-13 0.18330E-10 0.24296E-11 0.25874E-11 0.29532E-13 0.28030E-09 0.41027E-12 0.54099E-11 0.20044E-12 0.24728E-10
 0.94161E-14 0.27557E-12 0.57170E-13 0.14934E-12 0.49336E-13 0.21053E-12 0.36346E-13 0.19844E-12 0.25875E-12 0.17024E-12
 0.27735E-13 0.19235E-10 0.89471E-12 0.35426E-10 0.25854E-13 0.53766E-11 0.29442E-12 0.23853E-10 0.16560E-12 0.20366E-11
 0.58287E-14 0.72581E-14 0.10492E-13 0.10089E-13 0.11102E-14 0.46074E-14 0.10200E-13 0.77022E-14 0.27894E-14 0.65503E-14
 0.66752E-14 0.39800E-11 0.24617E-11 0.70964E-12 0.12795E-13 0.39657E-12 0.15575E-11 0.11499E-10 0.34596E-12 0.23420E-10
 0.10644E-13 0.16585E-11 0.20101E-12 0.28394E-13 0.16098E-14 0.17653E-13 0.28375E-12 0.12823E-11 0.44589E-13 0.51451E-12
 0.11643E-13 0.41969E-12 0.30226E-13 0.18874E-14 0.69389E-15 0.19734E-13 0.43081E-11 0.10554E-11 0.73067E-13 0.30619E-11
 0.90206E-15 0.74940E-14 0.15821E-14 0.10270E-14 0.20817E-14 0.77161E-14 0.58564E-14 0.99504E-14 0.13947E-13 0.89095E-14
 0.42744E-14 0.39216E-12 0.19901E-13 0.24036E-13 0.12323E-13 0.52010E-11 0.70843E-12 0.32711E-09 0.22719E-12 0.21549E-11
 0.10464E-13 0.13907E-11 0.33551E-12 0.40770E-11 0.83544E-14 0.56274E-12 0.16023E-11 0.21853E-12 0.57968E-13 0.68891E-12
 0.75079E-14 0.12664E-10 0.27547E-11 0.28981E-11 0.17084E-13 0.43831E-09 0.27031E-12 0.46722E-12 0.22116E-12 0.51376E-11
 0.27617E-14 0.29909E-12 0.53499E-13 0.12812E-12 0.24203E-13 0.22861E-12 0.69542E-13 0.22174E-12 0.27280E-12 0.12025E-12
 0.64393E-14 0.23600E-10 0.80343E-12 0.80520E-10 0.14905E-13 0.21854E-11 0.10036E-11 0.50890E-11 0.11970E-12 0.11438E-11
 0.17902E-14 0.21372E-14 0.28033E-14 0.27756E-14 0.37470E-15 0.15543E-14 0.23037E-14 0.23315E-14 0.97145E-15 0.19845E-14
 0.20400E-14 0.18195E-11 0.51449E-11 0.41497E-12 0.61062E-14 0.16190E-12 0.44350E-11 0.88015E-11 0.29582E-12 0.21752E-10
 0.28449E-14 0.30944E-11 0.12118E-12 0.94369E-14 0.72164E-15 0.69944E-14 0.15643E-12 0.12544E-11 0.41439E-13 0.53879E-12
 0.30115E-14 0.28522E-12 0.98255E-14 0.77716E-15 0.38858E-15 0.74940E-14 0.36647E-11 0.12239E-11 0.84724E-13 0.59256E-11
 0.33307E-15 0.39968E-14 0.80491E-15 0.52736E-15 0.97145E-15 0.41356E-14 0.41078E-14 0.50515E-14 0.71193E-14 0.44270E-14
 0.15266E-14 0.16351E-12 0.73275E-14 0.86042E-14 0.58009E-14 0.55597E-11 0.14667E-11 0.15411E-11 0.83711E-13 0.23917E-11
 0.22621E-14 0.48946E-11 0.20736E-12 0.95843E-11 0.57732E-14 0.12882E-11 0.20679E-12 0.31017E-13 0.39579E-13 0.99509E-12
 0.21927E-14 0.92917E-11 0.25452E-11 0.30586E-11 0.75495E-14 0.15127E-11 0.31641E-13 0.35916E-13 0.78479E-13 0.27398E-11
 0.10270E-14 0.25674E-12 0.48531E-13 0.13982E-12 0.10936E-13 0.83322E-13 0.43257E-13 0.78271E-13 0.23680E-12 0.10666E-12
 0.19429E-14 0.22981E-10 0.79951E-12 0.77902E-09 0.67446E-14 0.24261E-11 0.12186E-11 0.27291E-11 0.10678E-12 0.71093E-12
 0.55511E-15 0.72164E-15 0.12212E-14 0.10686E-14 0.16653E-15 0.69389E-15 0.66613E-15 0.83267E-15 0.48572E-15 0.73552E-15
 0.73552E-15 0.10128E-11 0.23410E-10 0.30864E-12 0.35250E-14 0.93758E-13 0.90722E-11 0.67746E-11 0.31808E-12 0.33665E-10
 0.13045E-14 0.95763E-11 0.92926E-13 0.67724E-14 0.49960E-15 0.50515E-14 0.98144E-13 0.14482E-11 0.44978E-13 0.48878E-12
 0.10686E-14 0.23528E-12 0.69389E-14 0.49960E-15 0.16653E-15 0.52180E-14 0.21224E-11 0.13841E-11 0.81157E-13 0.11988E-10
 0.19429E-15 0.24702E-14 0.47184E-15 0.36082E-15 0.61062E-15 0.23315E-14 0.34139E-14 0.32613E-14 0.51209E-14 0.29143E-14
 0.55511E-15 0.95035E-13 0.53568E-14 0.57732E-14 0.33029E-14 0.51179E-11 0.18276E-11 0.37056E-12 0.51001E-13 0.20972E-11
 0.80491E-15 0.14227E-10 0.13162E-12 0.86435E-11 0.45242E-14 0.19616E-11 0.61243E-13 0.84655E-14 0.26937E-13 0.83636E-12
 0.84655E-15 0.70147E-11 0.28582E-11 0.30929E-11 0.44964E-14 0.36808E-12 0.83822E-14 0.90900E-14 0.47337E-13 0.15206E-11
 0.51348E-15 0.27871E-12 0.51847E-13 0.12655E-12 0.72720E-14 0.51084E-13 0.28325E-13 0.47309E-13 0.27278E-12 0.84627E-13
 0.69389E-15 0.36048E-10 0.68735E-12 0.10458E-08 0.41078E-14 0.21441E-11 0.83152E-12 0.15199E-11 0.84335E-13 0.49509E-12
 0.38858E-15 0.38858E-15 0.47184E-15 0.47184E-15 0.83267E-16 0.49960E-15 0.36082E-15 0.45797E-15 0.23592E-15 0.40246E-15
 0.45797E-15 0.64925E-12 0.57825E-09 0.21509E-12 0.21372E-14 0.53152E-13 0.21850E-11 0.53842E-11 0.22969E-12 0.33387E-10
 0.51348E-15 0.24120E-09 0.71138E-13 0.35805E-14 0.27756E-15 0.28866E-14 0.52597E-13 0.16130E-11 0.34306E-13 0.45122E-12
 0.49960E-15 0.17605E-12 0.36637E-14 0.36082E-15 0.13878E-15 0.29976E-14 0.59319E-12 0.15810E-11 0.89942E-13 0.44113E-10
  0.0000     0.15543E-14 0.30531E-15 0.27756E-15 0.24980E-15 0.16376E-14 0.24425E-14 0.21094E-14 0.30809E-14 0.18943E-14
 0.38858E-15 0.54956E-13 0.29976E-14 0.31086E-14 0.20262E-14 0.56463E-11 0.53076E-12 0.71956E-13 0.20789E-13 0.57743E-11
 0.22204E-15 0.31050E-11 0.69000E-13 0.15409E-11 0.31919E-14 0.60091E-12 0.13475E-13 0.26090E-14 0.99781E-14 0.27903E-12
 0.41633E-15 0.54669E-11 0.30189E-11 0.32169E-11 0.27478E-14 0.71679E-13 0.25535E-14 0.29143E-14 0.19679E-13 0.11236E-11
 0.22204E-15 0.20112E-12 0.38927E-13 0.13270E-12 0.41078E-14 0.20567E-13 0.98949E-14 0.19373E-13 0.22196E-12 0.75356E-13
 0.41633E-15 0.38266E-10 0.61805E-12 0.96262E-10 0.25674E-14 0.60198E-11 0.25692E-12 0.11245E-11 0.75398E-13 0.35616E-12
 0.19429E-15 0.18041E-15 0.33307E-15 0.31919E-15 0.55511E-16 0.33307E-15 0.16653E-15 0.24980E-15 0.15266E-15 0.18041E-15
 0.26368E-15 0.44128E-12 0.14323E-10 0.16698E-12 0.14433E-14 0.33640E-13 0.61615E-12 0.43092E-11 0.23008E-12 0.77608E-10
 0.30531E-15 0.32997E-10 0.49169E-13 0.22204E-14 0.27756E-15 0.18319E-14 0.25840E-13 0.18578E-11 0.36582E-13 0.44202E-12
 0.23592E-15 0.14529E-12 0.22760E-14 0.24980E-15 0.55511E-16 0.19984E-14 0.22768E-12 0.17883E-11 0.90504E-13 0.72096E-09
 0.12490E-15 0.10547E-14 0.19429E-15 0.38858E-15 0.16653E-15 0.97145E-15 0.20262E-14 0.14155E-14 0.20678E-14 0.12976E-14
 0.19429E-15 0.34889E-13 0.18874E-14 0.19151E-14 0.11935E-14 0.54571E-11 0.18931E-12 0.29615E-13 0.11602E-13 0.18169E-10
 0.16653E-15 0.77580E-12 0.32419E-13 0.42832E-12 0.23315E-14 0.21205E-12 0.50654E-14 0.11935E-14 0.44548E-14 0.11179E-12
 0.26368E-15 0.43393E-11 0.32949E-11 0.32109E-11 0.17625E-14 0.29837E-13 0.10547E-14 0.12490E-14 0.10901E-13 0.79553E-12
 0.12490E-15 0.20584E-12 0.40676E-13 0.12837E-12 0.26576E-14 0.11616E-13 0.44270E-14 0.10769E-13 0.19539E-12 0.64247E-13
 0.22898E-15 0.92574E-10 0.57229E-12 0.36217E-10 0.16862E-14 0.19357E-10 0.10270E-12 0.79728E-12 0.63352E-13 0.27331E-12
 0.12490E-15 0.55511E-16 0.14572E-15 0.13878E-15 0.83267E-16 0.11102E-15 0.16653E-15 0.20123E-15 0.27756E-16 0.62450E-16
 0.13878E-15 0.32177E-12 0.46425E-11 0.12510E-12 0.94369E-15 0.22746E-13 0.18269E-12 0.35534E-11 0.18360E-12 0.16345E-09
 0.15959E-15 0.67304E-11 0.40787E-13 0.16653E-14 0.12490E-15 0.13878E-14 0.16487E-13 0.18466E-11 0.30587E-13 0.41839E-12
 0.83267E-16 0.11284E-12 0.16931E-14 0.18041E-15 0.83267E-16 0.13045E-14 0.91926E-13 0.19475E-11 0.74642E-13 0.46396E-09
 0.97145E-16 0.61062E-15 0.18041E-15 0.16653E-15 0.11102E-15 0.69389E-15 0.16098E-14 0.94369E-15 0.14433E-14 0.77022E-15
 0.16653E-15 0.23662E-13 0.13600E-14 0.14294E-14 0.77716E-15 0.69430E-11 0.64893E-13 0.14100E-13 0.65503E-14 0.17192E-10
 0.11102E-15 0.21141E-12 0.19679E-13 0.14405E-12 0.18319E-14 0.70680E-13 0.22066E-14 0.62450E-15 0.22898E-14 0.43555E-13
 0.17347E-15 0.35484E-11 0.30249E-11 0.32396E-11 0.10686E-14 0.14183E-13 0.55511E-15 0.69389E-15 0.64115E-14 0.67413E-12
 0.97145E-16 0.16734E-12 0.33515E-13 0.99670E-13 0.17555E-14 0.67238E-14 0.22204E-14 0.63213E-14 0.14783E-12 0.48725E-13
 0.90206E-16 0.20650E-09 0.51915E-12 0.20545E-10 0.10686E-14 0.16982E-10 0.40572E-13 0.67465E-12 0.48371E-13 0.21261E-12
 0.97145E-16 0.41633E-16 0.18041E-15 0.11102E-15 0.12490E-15 0.20817E-15  0.0000     0.11796E-15 0.69389E-16 0.12490E-15
 0.10408E-15 0.24297E-12 0.17519E-11 0.97772E-13 0.68001E-15 0.17941E-13 0.72678E-13 0.29447E-11 0.22404E-12 0.44879E-08
 0.12490E-15 0.20693E-11 0.32016E-13 0.11449E-14 0.76328E-16 0.86042E-15 0.10006E-13 0.23459E-11 0.35097E-13 0.47738E-12
 0.19429E-15 0.91455E-13 0.11102E-14 0.18041E-15 0.27756E-16 0.91593E-15 0.43299E-13 0.21980E-11 0.91933E-13 0.39420E-10
 0.13878E-15 0.56899E-15 0.16653E-15 0.22204E-15 0.22204E-15 0.43021E-15 0.13461E-14 0.83267E-15 0.10825E-14 0.70777E-15
 0.12490E-15 0.18673E-13 0.99920E-15 0.10131E-14 0.58287E-15 0.64205E-11 0.32578E-13 0.76605E-14 0.40037E-14 0.44761E-11
 0.16653E-15 0.79561E-13 0.11539E-13 0.58564E-13 0.15404E-14 0.35069E-13 0.15266E-14 0.32613E-15 0.13461E-14 0.23856E-13
 0.14572E-15 0.29279E-11 0.37457E-11 0.32073E-11 0.91593E-15 0.75911E-14 0.31919E-15 0.31225E-15 0.38858E-14 0.52325E-12
 0.41633E-16 0.20908E-12 0.38143E-13 0.11911E-12 0.13323E-14 0.40662E-14 0.13461E-14 0.39482E-14 0.13014E-12 0.46886E-13
 0.12490E-15 0.33866E-07 0.56705E-12 0.12202E-10 0.83961E-15 0.43298E-11 0.22461E-13 0.52376E-12 0.46699E-13 0.17202E-12
 0.69389E-16  0.0000     0.11796E-15 0.41633E-16 0.11102E-15 0.90206E-16 0.83267E-16 0.69389E-16 0.34694E-16 0.34694E-16
 0.55511E-16 0.18751E-12 0.11753E-11 0.77466E-13 0.40246E-15 0.10957E-13 0.35014E-13 0.24574E-11 0.13468E-12 0.32431E-09
 0.62450E-16 0.13360E-11 0.21573E-13 0.80144E-15 0.62450E-16 0.64532E-15 0.53429E-14 0.22823E-11 0.26437E-13 0.36048E-12
 0.62450E-16 0.74052E-13 0.78063E-15 0.15613E-15 -.27756E-16 0.64185E-15 0.23703E-13 0.23698E-11 0.75634E-13 0.16972E-10
 0.55511E-16 0.22204E-15 0.15613E-15 0.55511E-16 0.15613E-15 0.28449E-15 0.98532E-15 0.50654E-15 0.65226E-15 0.44409E-15
 0.26368E-15 0.11283E-13 0.70777E-15 0.74593E-15 0.36082E-15 0.11623E-10 0.14364E-13 0.38719E-14 0.22204E-14 0.59774E-12
 0.34694E-16 0.37616E-13 0.58981E-14 0.29504E-13 0.10200E-14 0.14926E-13 0.62450E-15 0.24980E-15 0.62450E-15 0.11033E-13
 0.90206E-16 0.24384E-11 0.34081E-11 0.31935E-11 0.58287E-15 0.38164E-14 0.20817E-15 0.20817E-15 0.22621E-14 0.48057E-12
 0.76328E-16 0.12458E-12 0.28061E-13 0.91829E-13 0.74940E-15 0.23037E-14 0.63838E-15 0.22413E-14 0.81331E-13 0.37172E-13
 0.97145E-16 0.25074E-09 0.41703E-12 0.85601E-11 0.54817E-15 0.60318E-12 0.10825E-13 0.47948E-12 0.36630E-13 0.13999E-12
 0.62450E-16 0.69389E-17 0.13184E-15 0.48572E-16 0.27756E-16 0.15959E-15 0.10408E-15 0.69389E-16 0.13878E-16 0.55511E-16
 0.10408E-15 0.14808E-12 0.70630E-12 0.63012E-13 0.36082E-15 0.97630E-14 0.18353E-13 0.20617E-11 0.14114E-12 0.39285E-10
 0.97145E-16 0.76173E-12 0.19609E-13 0.66613E-15 0.11796E-15 0.56899E-15 0.41078E-14 0.28059E-11 0.29282E-13 0.37756E-12
 0.69389E-16 0.61472E-13 0.61062E-15 0.12490E-15 0.55511E-16 0.63144E-15 0.13767E-13 0.24488E-11 0.83628E-13 0.91056E-11
 0.69389E-16 0.24980E-15 -.69389E-17 0.18041E-15 0.20817E-15 0.29143E-15 0.90206E-15 0.44409E-15 0.64532E-15 0.38858E-15
 0.14572E-15 0.10089E-13 0.54123E-15 0.57593E-15 0.25674E-15 0.10405E-10 0.95063E-14 0.33029E-14 0.19915E-14 0.41554E-12
 0.27756E-16 0.19630E-13 0.45658E-14 0.16313E-13 0.87430E-15 0.98324E-14 0.64532E-15 0.18735E-15 0.62450E-15 0.75287E-14
 0.83267E-16 0.20485E-11 0.40174E-11 0.30485E-11 0.54817E-15 0.32058E-14 0.24980E-15 0.14572E-15 0.20539E-14 0.39426E-12
 0.27756E-16 0.13315E-12 0.30878E-13 0.98574E-13 0.68695E-15 0.20470E-14 0.54123E-15 0.20123E-14 0.80547E-13 0.32981E-13
 0.83267E-16 0.35410E-10 0.42589E-12 0.61879E-11 0.54817E-15 0.41608E-12 0.74107E-14 0.39255E-12 0.33189E-13 0.11781E-12
 0.69389E-17 -.48572E-16 0.69389E-16  0.0000     0.34694E-16 0.48572E-16 0.27756E-16 0.34694E-16 -.55511E-16 0.27756E-16
 0.55511E-16 0.11989E-12 0.51022E-12 0.50952E-13 0.29143E-15 0.69458E-14 0.10943E-13 0.17676E-11 0.12183E-12 0.15834E-10
 0.41633E-16 0.54080E-12 0.15037E-13 0.41633E-15 0.55511E-16 0.36082E-15 0.27270E-14 0.29843E-11 0.27159E-13 0.36406E-12
 0.48572E-16 0.50057E-13 0.40939E-15 0.14572E-15 -.10408E-15 0.41633E-15 0.88610E-14 0.26047E-11 0.72706E-13 0.59997E-11
 0.27756E-16 0.62450E-16 0.41633E-16 -.62450E-16 0.55511E-16 0.18041E-15 0.66613E-15 0.33307E-15 0.43715E-15 0.27756E-15
 0.10408E-15 0.71956E-14 0.35388E-15 0.33307E-15 0.29143E-15 0.20882E-10 0.53499E-14 0.18735E-14 0.11727E-14 0.17084E-12
 -.48572E-16 0.11276E-13 0.28727E-14 0.10006E-13 0.69389E-15 0.54748E-14 0.33307E-15 0.20123E-15 0.36082E-15 0.43368E-14
 -.13878E-16 0.17513E-11 0.39562E-11 0.29967E-11 0.34694E-15 0.17902E-14 0.13878E-15 0.83267E-16 0.13184E-14 0.36056E-12
  0.0000     0.11467E-12 0.28109E-13 0.82677E-13 0.49266E-15 0.12698E-14 0.38858E-15 0.13184E-14 0.62138E-13 0.27825E-13
  0.0000     0.16017E-10 0.39962E-12 0.47553E-11 0.37470E-15 0.17285E-12 0.43715E-14 0.36039E-12 0.27679E-13 0.98699E-13
  0.0000     -.20817E-16 0.55511E-16 0.34694E-16 -.69389E-16 0.55511E-16 0.20817E-16 0.34694E-16 0.69389E-17 -.34694E-16
 -.34694E-16 0.96631E-13 0.36263E-12 0.41592E-13 0.13878E-15 0.53429E-14 0.64740E-14 0.14971E-11 0.10450E-12 0.40244E-11
 0.41633E-16 0.37571E-12 0.12754E-13 0.36082E-15 -.69389E-16 0.22898E-15 0.18388E-14 0.32863E-11 0.22454E-13 0.35223E-12
  0.0000     0.41252E-13 0.22204E-15 0.27756E-16 0.69389E-17 0.29143E-15 0.54262E-14 0.24633E-11 0.66114E-13 0.42403E-11
 0.10408E-15 0.11102E-15 -.69389E-17 0.41633E-16 -.69389E-17 0.97145E-16 0.56899E-15 0.31919E-15 0.38858E-15 0.20123E-15
 0.55511E-16 0.54887E-14 0.31919E-15 0.29143E-15 0.25674E-15 0.25430E-10 0.34556E-14 0.13808E-14 0.10478E-14 0.10346E-12
 -.69389E-17 0.66336E-14 0.20817E-14 0.60507E-14 0.55511E-15 0.34903E-14 0.25674E-15 0.13878E-15 0.24286E-15 0.28380E-14
 0.20817E-16 0.14900E-11 0.41912E-11 0.27221E-11 0.29143E-15 0.13600E-14 0.17347E-15 0.34694E-16 0.97145E-15 0.32833E-12
  0.0000     0.99615E-13 0.23009E-13 0.71818E-13 0.45103E-15 0.98532E-15 0.20123E-15 0.10131E-14 0.54755E-13 0.23259E-13
 0.41633E-16 0.41476E-11 0.37868E-12 0.37299E-11 0.31225E-15 0.10508E-12 0.29143E-14 0.32594E-12 0.23592E-13 0.85355E-13
 -.13878E-16 0.13878E-16 0.76328E-16 0.83267E-16 0.20817E-16 0.13878E-16 0.34694E-16 0.34694E-16 0.20817E-16 -.69389E-17
 -.27756E-16 0.80616E-13 0.26362E-12 0.34688E-13 0.22898E-15 0.47531E-14 0.45519E-14 0.12972E-11 0.92863E-13 0.24644E-11
 0.69389E-17 0.26850E-12 0.10381E-13 0.34001E-15 0.83267E-16 0.34694E-15 0.15404E-14 0.49106E-11 0.24147E-13 0.35132E-12
 0.55511E-16 0.34507E-13 0.25674E-15 0.41633E-16 -.13878E-16 0.27756E-15 0.39690E-14 0.24853E-11 0.70936E-13 0.32003E-11
 -.13878E-16 0.62450E-16 0.55511E-16 0.69389E-16 0.41633E-16 0.19429E-15 0.45797E-15 0.19429E-15 0.29143E-15 0.15266E-15
 0.62450E-16 0.49474E-14 0.30531E-15 0.30531E-15 0.76328E-16 0.42092E-10 0.23523E-14 0.10131E-14 0.65919E-15 0.67439E-13
 -.41633E-16 0.45519E-14 0.15127E-14 0.41286E-14 0.40246E-15 0.23870E-14 0.18388E-15 0.65919E-16 0.23245E-15 0.19845E-14
 0.27756E-16 0.12899E-11 0.56644E-11 0.26263E-11 0.18041E-15 0.10165E-14 0.17347E-16 0.52042E-16 0.69042E-15 0.30710E-12
 0.20817E-16 0.90192E-13 0.24605E-13 0.74954E-13 0.28449E-15 0.74940E-15 0.20470E-15 0.70083E-15 0.38469E-13 0.22357E-13
 -.27756E-16 0.26240E-11 0.36920E-12 0.30114E-11 0.20123E-15 0.67668E-13 0.20192E-14 0.30809E-12 0.22073E-13 0.72983E-13
  0.0000     -.27756E-16  0.0000     -.13878E-16 -.41633E-16 0.34694E-16 -.83267E-16 -.41633E-16 -.13878E-16 -.41633E-16
 -.69389E-17 0.64948E-13 0.19917E-12 0.28803E-13 0.48572E-16 0.28519E-14 0.29005E-14 0.11040E-11 0.63255E-13 0.96939E-12
 0.20817E-16 0.20083E-12 0.78895E-14 0.18041E-15 0.69389E-17 0.20817E-16 0.94369E-15 0.67414E-11 0.17722E-13 0.28192E-12
 -.69389E-17 0.28942E-13 0.83267E-16 -.11102E-15 -.11796E-15 0.12490E-15 0.26090E-14 0.22955E-11 0.62249E-13 0.25472E-11
 -.41633E-16 -.97145E-16 -.11102E-15 0.13878E-15 -.97145E-16 0.62450E-16 0.36082E-15 0.13878E-15 0.14919E-15 0.11102E-15
 -.41633E-16 0.29698E-14 0.34694E-16 0.11796E-15 0.15266E-15 0.16007E-09 0.14329E-14 0.58287E-15 0.51001E-15 0.37276E-13
 -.13878E-16 0.29629E-14 0.90206E-15 0.27756E-14 0.24980E-15 0.14294E-14 0.60715E-16 0.29490E-16 0.11276E-15 0.12455E-14
 -.41633E-16 0.11037E-11 0.74535E-11 0.23770E-11 0.13878E-15 0.63144E-15 0.33827E-16 0.32092E-16 0.48746E-15 0.28217E-12
 -.90206E-16 0.62443E-13 0.17902E-13 0.63831E-13 0.18041E-15 0.49266E-15 0.48572E-16 0.41633E-15 0.29390E-13 0.18374E-13
 -.20817E-16 0.10258E-11 0.29068E-12 0.24858E-11 0.10408E-15 0.37373E-13 0.12594E-14 0.28132E-12 0.18499E-13 0.65316E-13
 0.83267E-16 0.20817E-16 0.41633E-16 0.83267E-16 0.27756E-16 0.13878E-15 0.27756E-16 0.83267E-16 0.69389E-17 0.13878E-16
 -.13878E-16 0.55560E-13 0.16689E-12 0.22600E-13 0.24980E-15 0.31225E-14 0.18596E-14 0.96376E-12 0.68272E-13 0.64299E-12
 -.27756E-16 0.16740E-12 0.66752E-14 0.31919E-15 0.69389E-16 0.31225E-15 0.74940E-15 0.72500E-11 0.19817E-13 0.29010E-12
 -.27756E-16 0.22579E-13 0.13878E-15 0.41633E-16 0.83267E-16 0.16653E-15 0.18388E-14 0.21965E-11 0.61888E-13 0.20885E-11
 0.55511E-16 0.69389E-16 0.97145E-16 0.24286E-15 0.55511E-16 0.22204E-15 0.29143E-15 0.26368E-15 0.19082E-15 0.86736E-16
 0.27756E-16 0.32960E-14 0.19429E-15 0.30531E-15 0.21511E-15 0.51201E-09 0.13323E-14 0.68869E-15 0.41633E-15 0.33999E-13
 0.62450E-16 0.18457E-14 0.88818E-15 0.18666E-14 0.31225E-15 0.12768E-14 0.78930E-16 0.16653E-15 0.16437E-15 0.11432E-14
 0.83267E-16 0.96429E-12 0.70306E-11 0.22395E-11 0.15266E-15 0.60715E-15 0.27756E-16 0.45970E-16 0.52042E-15 0.25185E-12
 0.34694E-16 0.68029E-13 0.20095E-13 0.61978E-13 0.14572E-15 0.47878E-15 0.14398E-15 0.46838E-15 0.23721E-13 0.16834E-13
 0.20817E-16 0.68026E-12 0.29377E-12 0.20781E-11 0.15959E-15 0.33638E-13 0.11796E-14 0.25397E-12 0.16799E-13 0.56823E-13
 -.13878E-16 -.62450E-16 0.41633E-16 0.13878E-16 -.55511E-16 0.69389E-16  0.0000      0.0000     -.41633E-16 0.83267E-16
  0.0000     0.45963E-13 0.12785E-12 0.20449E-13 0.18041E-15 0.22204E-14 0.15335E-14 0.83170E-12 0.56975E-13 0.30580E-12
 0.13878E-16 0.12722E-12 0.67446E-14 0.22898E-15 -.55511E-16 0.69389E-16 0.77716E-15 0.11801E-10 0.16223E-13 0.26573E-12
 0.48572E-16 0.20463E-13 0.90206E-16 -.83267E-16 -.12490E-15 0.13878E-15 0.13531E-14 0.20260E-11 0.56212E-13 0.17495E-11
 0.69389E-16 0.13878E-16 -.55511E-16 0.13878E-16 -.27756E-16 -.69389E-16 0.25674E-15 0.15266E-15 0.17694E-15 0.12490E-15
 0.55511E-16 0.24147E-14 0.11102E-15 0.19429E-15 -.55511E-16 0.28334E-07 0.70777E-15 0.41980E-15 0.47184E-15 0.19526E-13
 -.55511E-16 0.15266E-14 0.72164E-15 0.14988E-14 0.18041E-15 0.83267E-15 0.14572E-15 0.13878E-15 0.10755E-15 0.73899E-15
 0.41633E-16 0.83639E-12 0.10487E-10 0.20636E-11 0.15959E-15 0.36776E-15  0.0000     0.34694E-17 0.33307E-15 0.23542E-12
 -.62450E-16 0.57725E-13 0.16223E-13 0.55178E-13 0.11449E-15 0.33307E-15 0.65919E-16 0.37470E-15 0.24113E-13 0.14669E-13
  0.0000     0.32536E-12 0.26761E-12 0.17498E-11 0.55511E-16 0.19342E-13 0.69389E-15 0.23595E-12 0.14766E-13 0.50931E-13
 0.13878E-16 -.13878E-16 0.13878E-16 0.69389E-16 0.41633E-16 -.13878E-16 0.69389E-16 0.83267E-16 -.55511E-16 -.27756E-16
 0.13878E-16 0.39024E-13 0.10603E-12 0.17153E-13 0.69389E-17 0.17208E-14 0.11588E-14 0.72722E-12 0.49571E-13 0.19537E-12
 -.27756E-16 0.10504E-12 0.45797E-14 0.29837E-15 0.55511E-16 0.11102E-15 0.63838E-15 0.20672E-10 0.18735E-13 0.25271E-12
 0.41633E-16 0.17153E-13 0.24286E-15 0.55511E-16 0.55511E-16 0.22204E-15 0.12074E-14 0.18921E-11 0.56219E-13 0.14917E-11
 -.13878E-16 -.69389E-17 0.13878E-15 0.69389E-16 0.41633E-16 -.13878E-16 0.18041E-15 0.18041E-15 0.11102E-15 0.11102E-15
 0.11102E-15 0.19429E-14 0.97145E-16 0.26368E-15  0.0000     0.61369E-10 0.70777E-15 0.37470E-15 0.33307E-15 0.17639E-13
 0.13878E-16 0.12421E-14 0.54123E-15 0.12490E-14 0.16653E-15 0.69389E-15 0.97145E-16 0.97145E-16 0.11102E-15 0.66613E-15
 0.27756E-16 0.73244E-12 0.16040E-10 0.19320E-11 0.27756E-16 0.38858E-15 -.13878E-16 0.10755E-15 0.34694E-15 0.22284E-12
 0.27756E-16 0.50016E-13 0.18596E-13 0.54137E-13 0.76328E-16 0.33307E-15 0.72858E-16 0.24980E-15 0.17999E-13 0.13406E-13
  0.0000     0.20917E-12 0.25208E-12 0.14910E-11 0.11102E-15 0.17659E-13 0.66613E-15 0.22235E-12 0.13406E-13 0.45158E-13
 -.27756E-16 -.27756E-16 0.27756E-16 -.69389E-16 -.41633E-16 0.27756E-16 -.69389E-16 -.13878E-16 -.83267E-16 0.27756E-16
 -.69389E-16 0.32030E-13 0.85668E-13 0.14905E-13 -.13878E-16 0.14988E-14 0.99920E-15 0.62834E-12 0.38303E-13 0.13700E-12
 -.27756E-16 0.84488E-13 0.45242E-14 0.18041E-15 -.69389E-16 -.20817E-15 0.37470E-15 0.49418E-10 0.13961E-13 0.20567E-12
 0.55511E-16 0.15071E-13 0.69389E-16 -.27756E-16 -.11102E-15 -.83267E-16 0.80491E-15 0.16704E-11 0.47296E-13 0.12993E-11
 0.69389E-16 -.11796E-15 -.55511E-16 0.13878E-16 -.20817E-15 -.11102E-15 0.69389E-16 0.16653E-15 0.83267E-16 0.83267E-16
  0.0000     0.15821E-14 0.97145E-16 -.69389E-16 -.27756E-16 0.37348E-10 0.40246E-15 0.27756E-15 0.26368E-15 0.11539E-13
 -.41633E-16 0.95757E-15 0.38858E-15 0.88818E-15 0.41633E-16 0.49960E-15 0.83267E-16 0.16653E-15 0.69389E-16 0.49960E-15
  0.0000     0.63577E-12 0.28445E-10 0.17344E-11 0.69389E-16 0.23592E-15 0.41633E-16  0.0000     0.26368E-15 0.20868E-12
 -.83267E-16 0.38997E-13 0.13642E-13 0.44506E-13 0.55511E-16 0.22204E-15 0.13878E-16 0.13878E-15 0.13933E-13 0.11352E-13
 -.13878E-16 0.14734E-12 0.20572E-12 0.12835E-11  0.0000     0.11512E-13 0.44409E-15 0.20686E-12 0.11380E-13 0.41973E-13
 0.27756E-16 0.27756E-16 0.41633E-16  0.0000      0.0000     0.55511E-16 0.41633E-16 0.41633E-16 -.27756E-16 0.55511E-16
 0.13878E-16 0.27381E-13 0.70388E-13 0.13364E-13 -.13878E-16 0.13878E-14 0.87430E-15 0.55089E-12 0.34361E-13 0.85307E-13
 0.27756E-16 0.69417E-13 0.36776E-14 0.55511E-16 -.69389E-16  0.0000     0.36082E-15 0.20886E-08 0.16473E-13 0.18295E-12
 -.27756E-16 0.13392E-13 0.29143E-15 0.13878E-15 0.55511E-16 0.27756E-16 0.81879E-15 0.15581E-11 0.46338E-13 0.11202E-11
 0.27756E-16 -.11102E-15 0.83267E-16 -.13878E-16 -.97145E-16 0.41633E-16 0.20817E-15 0.18041E-15 0.55511E-16 0.97145E-16
 0.97145E-16 0.14155E-14 -.27756E-16 0.13878E-15 -.97145E-16 0.12357E-10 0.41633E-15 0.24980E-15 0.19429E-15 0.10963E-13
 0.13878E-16 0.84655E-15 0.34694E-15 0.80491E-15 -.13878E-16 0.44409E-15 0.13878E-16 0.12490E-15 0.55511E-16 0.33307E-15
  0.0000     0.55850E-12 0.19176E-09 0.16303E-11 0.13878E-16 0.23592E-15 0.27756E-16 0.83267E-16 0.18041E-15 0.19768E-12
 -.27756E-16 0.34875E-13 0.16070E-13 0.42980E-13 0.13878E-16 0.19429E-15 0.27756E-16 0.15266E-15 0.12892E-13 0.10297E-13
 -.13878E-16 0.90733E-13 0.18176E-12 0.10979E-11 0.55511E-16 0.11158E-13 0.47184E-15 0.19486E-12 0.10381E-13 0.38081E-13
 -.13878E-16 0.13878E-16 0.41633E-16 0.83267E-16 -.11102E-15 -.27756E-16  0.0000     0.13878E-16 -.41633E-16 -.11102E-15
 0.69389E-17 0.22843E-13 0.59411E-13 0.11199E-13 0.15266E-15 0.11935E-14 0.63838E-15 0.47581E-12 0.30087E-13 0.55247E-13
 0.41633E-16 0.58384E-13 0.35527E-14 0.12490E-15 0.13878E-16 0.97145E-16 0.36082E-15 0.10752E-08 0.13822E-13 0.16361E-12
  0.0000     0.11227E-13 0.12490E-15 0.83267E-16 0.69389E-16 0.55511E-16 0.59674E-15 0.13465E-11 0.40565E-13 0.98659E-12
 0.83267E-16 0.13878E-15 0.27756E-16 0.97145E-16  0.0000     0.13878E-15 0.15266E-15 0.22204E-15 0.97145E-16 -.27756E-16
 0.41633E-16 0.12212E-14 0.69389E-16 0.97145E-16 0.27756E-16 0.13478E-10 0.27756E-15 0.23592E-15 0.12490E-15 0.83822E-14
 0.83267E-16 0.62450E-15 0.36082E-15 0.59674E-15 0.83267E-16 0.27756E-15 -.13878E-16 0.69389E-16 0.27756E-16 0.30531E-15
 0.27756E-16 0.48500E-12 0.91243E-09 0.14455E-11 0.41633E-16 0.22204E-15 -.27756E-16 0.55511E-16 0.15266E-15 0.17125E-12
 0.41633E-16 0.31086E-13 0.13350E-13 0.37456E-13 0.55511E-16 0.12490E-15 0.11102E-15 0.83267E-16 0.11324E-13 0.89373E-14
 -.13878E-16 0.58731E-13 0.16244E-12 0.95150E-12 0.27756E-16 0.85626E-14 0.27756E-15 0.17011E-12 0.89928E-14 0.34944E-13
 0.17347E-16 -.45103E-16 0.48572E-16 -.55511E-16 -.41633E-16 -.27756E-16 0.41633E-16 0.69389E-16 -.55511E-16 0.55511E-16
 0.10408E-16 0.19207E-13 0.50016E-13 0.10339E-13 0.97145E-16 0.11380E-14 0.45797E-15 0.41643E-12 0.24328E-13 0.32724E-13
 0.20817E-16 0.49155E-13 0.32196E-14 0.12490E-15 -.41633E-16 0.97145E-16 0.30531E-15 0.67923E-10 0.11276E-13 0.13313E-12
 0.27756E-16 0.10339E-13 0.83267E-16 0.11102E-15  0.0000     0.11102E-15 0.38858E-15 0.12102E-11 0.33529E-13 0.86510E-12
  0.0000     0.27756E-16 0.13878E-16 0.27756E-16 0.55511E-16 0.41633E-16 0.11102E-15 0.55511E-16 0.69389E-16 0.69389E-16
 0.13878E-16 0.11657E-14 -.13878E-16 0.69389E-16 -.27756E-16 0.51234E-11 0.27756E-15 0.20817E-15 0.97145E-16 0.77438E-14
 -.13878E-16 0.52736E-15 0.31919E-15 0.56899E-15 0.55511E-16 0.29143E-15 0.41633E-16  0.0000     -.27756E-16 0.30531E-15
 0.13878E-16 0.42517E-12 0.38266E-09 0.13250E-11 -.13878E-16 0.18041E-15 0.27756E-16 0.55511E-16 0.22204E-15 0.16991E-12
 0.27756E-16 0.25237E-13 0.10963E-13 0.30489E-13 0.41633E-16 0.11102E-15 0.41633E-16 0.11102E-15 0.10256E-13 0.76189E-14
 0.41633E-16 0.34178E-13 0.13324E-12 0.81984E-12 0.27756E-16 0.78410E-14 0.22204E-15 0.16599E-12 0.75911E-14 0.32856E-13
 -.22551E-16 -.60715E-16 0.48572E-16 -.13878E-16 -.55511E-16 0.83267E-16 -.55511E-16 0.41633E-16 -.55511E-16 -.10408E-16
 -.20817E-16 0.16230E-13 0.42098E-13 0.96451E-14 0.55511E-16 0.10825E-14 0.56899E-15 0.36142E-12 0.23120E-13 0.19601E-13
 -.13878E-16 0.41397E-13 0.32335E-14 0.83267E-16 0.69389E-16 0.27756E-16 0.26368E-15 0.16417E-10 0.14082E-13 0.11903E-12
  0.0000     0.96867E-14 -.13878E-16 0.11102E-15 0.55511E-16 0.41633E-16 0.58287E-15 0.11219E-11 0.39399E-13 0.75134E-12
 0.11102E-15 0.55511E-16 0.41633E-16 0.16653E-15 0.83267E-16  0.0000     0.18041E-15 0.83267E-16 0.41633E-16 -.27756E-16
 -.13878E-16 0.12074E-14 0.55511E-16 0.41633E-16  0.0000     0.36075E-10 0.31919E-15 0.15266E-15 0.15266E-15 0.75911E-14
 0.41633E-16 0.45797E-15 0.26368E-15 0.55511E-15 0.13878E-16 0.30531E-15 0.12490E-15 0.55511E-16  0.0000     0.29143E-15
 0.41633E-16 0.37012E-12 0.32273E-10 0.12436E-11 0.55511E-16 0.22204E-15  0.0000     -.27756E-16 0.97145E-16 0.13099E-12
 0.20817E-16 0.24047E-13 0.13635E-13 0.35569E-13 0.41633E-16 0.13878E-15 0.27756E-16 0.55511E-16 0.96312E-14 0.77577E-14
 -.15613E-16 0.20726E-13 0.11911E-12 0.70931E-12 0.55511E-16 0.78271E-14 0.24980E-15 0.12886E-12 0.76605E-14 0.29917E-13
 0.10517E-16 0.71557E-17 0.51305E-16 0.47380E-16 -.15613E-16 0.55728E-16 -.58547E-16 0.68196E-16 -.26536E-16 0.25465E-16
 0.27620E-16 0.13608E-13 0.35714E-13 0.91962E-14 0.19082E-16 0.11146E-14 0.57246E-15 0.31554E-12 0.18296E-13 0.13503E-13
 0.36131E-16 0.35115E-13 0.31316E-14 0.16914E-15 0.10950E-15 0.13444E-15 0.36733E-15 0.76754E-11 0.12373E-13 0.91109E-13
 0.59414E-16 0.91403E-14 0.11709E-15 0.62450E-16 0.88471E-16 0.82399E-16 0.59197E-15 0.10236E-11 0.36185E-13 0.65299E-12