PROCAR lm decomposed
# of k-points:   52         # of bands:   28         # of ions:    5

 k-point     1 :    0.00000000 0.00000000 0.00000000     weight = 0.01000000

band     1 # energy  -11.60860308 # occ.  2.00000000
 
ion      s     py     pz     px    dxy    dyz    dz2    dxz  x2-y2    tot
    1  0.007  0.000  0.001  0.000  0.000  0.000  0.000  0.000  0.000  0.008
    2  0.043  0.000  0.002  0.000  0.000  0.000  0.000  0.000  0.000  0.045
    3  0.135  0.000  0.003  0.000  0.000  0.000  0.000  0.000  0.000  0.137
    4  0.304  0.000  0.000  0.000  0.000  0.000  0.009  0.000  0.000  0.313
    5  0.088  0.000  0.001  0.000  0.000  0.000  0.000  0.000  0.000  0.089
tot    0.576  0.000  0.006  0.000  0.000  0.000  0.009  0.000  0.000  0.592
 
band     2 # energy  -10.59122945 # occ.  2.00000000
 
ion      s     py     pz     px    dxy    dyz    dz2    dxz  x2-y2    tot
    1  0.117  0.000  0.010  0.000  0.000  0.000  0.000  0.000  0.000  0.127
    2  0.263  0.000  0.000  0.000  0.000  0.000  0.002  0.000  0.000  0.266
    3  0.050  0.000  0.018  0.000  0.000  0.000  0.001  0.000  0.000  0.069
    4  0.067  0.000  0.008  0.000  0.000  0.000  0.011  0.000  0.000  0.087
    5  0.040  0.000  0.000  0.000  0.000  0.000  0.000  0.000  0.000  0.040
tot    0.537  0.000  0.037  0.000  0.000  0.000  0.015  0.000  0.000  0.588
 
band     3 # energy   -8.98447122 # occ.  2.00000000
 
ion      s     py     pz     px    dxy    dyz    dz2    dxz  x2-y2    tot
    1  0.190  0.000  0.002  0.000  0.000  0.000  0.020  0.000  0.000  0.212
    2  0.004  0.000  0.045  0.000  0.000  0.000  0.001  0.000  0.000  0.050
    3  0.203  0.000  0.000  0.000  0.000  0.000  0.040  0.000  0.000  0.243
    4  0.009  0.000  0.031  0.000  0.000  0.000  0.025  0.000  0.000  0.066
    5  0.032  0.000  0.000  0.000  0.000  0.000  0.000  0.000  0.000  0.032
tot    0.438  0.000  0.079  0.000  0.000  0.000  0.086  0.000  0.000  0.603
 
band     4 # energy   -7.52419117 # occ.  2.00000000
 
ion      s     py     pz     px    dxy    dyz    dz2    dxz  x2-y2    tot
    1  0.109  0.000  0.005  0.000  0.000  0.000  0.131  0.000  0.000  0.245
    2  0.101  0.000  0.003  0.000  0.000  0.000  0.226  0.000  0.000  0.330
    3  0.032  0.000  0.014  0.000  0.000  0.000  0.091  0.000  0.000  0.137
    4  0.000  0.000  0.011  0.000  0.000  0.000  0.014  0.000  0.000  0.026
    5  0.006  0.000  0.000  0.000  0.000  0.000  0.000  0.000  0.000  0.006
tot    0.247  0.000  0.034  0.000  0.000  0.000  0.462  0.000  0.000  0.743
 
band     5 # energy   -6.08914126 # occ.  2.00000000
 
ion      s     py     pz     px    dxy    dyz    dz2    dxz  x2-y2    tot
    1  0.000  0.000  0.000  0.000  0.000  0.000  0.004  0.000  0.000  0.004
    2  0.001  0.000  0.001  0.000  0.000  0.000  0.006  0.000  0.000  0.007
    3  0.002  0.000  0.002  0.000  0.000  0.000  0.083  0.000  0.000  0.087
    4  0.005  0.000  0.042  0.000  0.010  0.000  0.583  0.002  0.000  0.643
    5  0.049  0.000  0.001  0.000  0.000  0.000  0.000  0.000  0.000  0.050
tot    0.056  0.000  0.046  0.000  0.010  0.000  0.676  0.002  0.000  0.791
 
band     6 # energy   -5.57502993 # occ.  2.00000000
 
ion      s     py     pz     px    dxy    dyz    dz2    dxz  x2-y2    tot
    1  0.000  0.000  0.000  0.000  0.000  0.000  0.018  0.000  0.000  0.019
    2  0.001  0.000  0.000  0.000  0.004  0.000  0.003  0.000  0.000  0.008
    3  0.000  0.000  0.006  0.000  0.003  0.000  0.188  0.020  0.000  0.217
    4  0.003  0.000  0.006  0.000  0.570  0.000  0.119  0.006  0.001  0.706
    5  0.002  0.000  0.000  0.001  0.000  0.000  0.000  0.000  0.000  0.002
tot    0.005  0.000  0.012  0.001  0.577  0.000  0.328  0.027  0.002  0.952
 
band     7 # energy   -5.55705128 # occ.  2.00000000
 
ion      s     py     pz     px    dxy    dyz    dz2    dxz  x2-y2    tot
    1  0.000  0.000  0.000  0.000  0.000  0.000  0.000  0.000  0.000  0.000
    2  0.000  0.000  0.000  0.000  0.000  0.000  0.000  0.000  0.007  0.008
    3  0.000  0.000  0.000  0.000  0.000  0.033  0.000  0.000  0.005  0.039
    4  0.000  0.000  0.000  0.000  0.001  0.008  0.000  0.001  0.909  0.919
    5  0.000  0.001  0.000  0.000  0.000  0.000  0.000  0.000  0.000  0.001
tot    0.000  0.001  0.000  0.000  0.001  0.042  0.001  0.001  0.921  0.967
 
band     8 # energy   -5.52354337 # occ.  2.00000000
 
ion      s     py     pz     px    dxy    dyz    dz2    dxz  x2-y2    tot
    1  0.000  0.000  0.001  0.000  0.000  0.000  0.040  0.000  0.000  0.041
    2  0.001  0.000  0.003  0.000  0.003  0.000  0.003  0.000  0.000  0.010
    3  0.002  0.000  0.004  0.000  0.002  0.000  0.419  0.013  0.000  0.440
    4  0.001  0.000  0.015  0.000  0.322  0.000  0.101  0.002  0.000  0.442
    5  0.004  0.000  0.000  0.000  0.000  0.000  0.000  0.000  0.000  0.004
tot    0.008  0.000  0.023  0.001  0.327  0.000  0.562  0.015  0.000  0.936
 
band     9 # energy   -5.31485372 # occ.  2.00000000
 
ion      s     py     pz     px    dxy    dyz    dz2    dxz  x2-y2    tot
    1  0.001  0.000  0.005  0.000  0.000  0.000  0.248  0.000  0.000  0.254
    2  0.004  0.000  0.000  0.000  0.001  0.000  0.573  0.001  0.000  0.580
    3  0.001  0.000  0.013  0.000  0.017  0.000  0.051  0.000  0.000  0.082
    4  0.002  0.000  0.006  0.000  0.003  0.000  0.000  0.003  0.000  0.014
    5  0.003  0.000  0.000  0.000  0.000  0.000  0.000  0.000  0.000  0.003
tot    0.010  0.000  0.025  0.000  0.021  0.000  0.872  0.004  0.000  0.933
 
band    10 # energy   -5.29088613 # occ.  2.00000000
 
ion      s     py     pz     px    dxy    dyz    dz2    dxz  x2-y2    tot
    1  0.000  0.000  0.000  0.000  0.006  0.000  0.005  0.000  0.008  0.018
    2  0.000  0.000  0.000  0.000  0.011  0.027  0.007  0.020  0.015  0.080
    3  0.000  0.000  0.000  0.000  0.310  0.007  0.000  0.005  0.430  0.752
    4  0.000  0.000  0.000  0.000  0.000  0.067  0.000  0.048  0.000  0.115
    5  0.000  0.000  0.000  0.000  0.000  0.000  0.000  0.000  0.000  0.000
tot    0.000  0.000  0.000  0.000  0.326  0.101  0.012  0.073  0.452  0.966
 
band    11 # energy   -5.28524271 # occ.  2.00000000
 
ion      s     py     pz     px    dxy    dyz    dz2    dxz  x2-y2    tot
    1  0.000  0.000  0.000  0.000  0.008  0.000  0.004  0.000  0.006  0.018
    2  0.000  0.000  0.000  0.000  0.014  0.021  0.005  0.028  0.011  0.079
    3  0.000  0.000  0.000  0.000  0.426  0.006  0.000  0.008  0.322  0.762
    4  0.000  0.000  0.000  0.000  0.001  0.045  0.000  0.059  0.001  0.107
    5  0.000  0.000  0.000  0.000  0.000  0.000  0.000  0.000  0.000  0.000
tot    0.000  0.000  0.000  0.000  0.449  0.072  0.009  0.095  0.340  0.966
 
band    12 # energy   -5.22291704 # occ.  2.00000000
 
ion      s     py     pz     px    dxy    dyz    dz2    dxz  x2-y2    tot
    1  0.000  0.000  0.000  0.000  0.001  0.025  0.000  0.003  0.005  0.035
    2  0.000  0.000  0.000  0.000  0.094  0.011  0.000  0.001  0.736  0.843
    3  0.000  0.000  0.000  0.000  0.001  0.048  0.000  0.006  0.006  0.061
    4  0.000  0.000  0.000  0.000  0.002  0.010  0.000  0.001  0.016  0.028
    5  0.000  0.000  0.000  0.000  0.000  0.000  0.000  0.000  0.000  0.000
tot    0.000  0.000  0.000  0.000  0.097  0.094  0.000  0.012  0.763  0.967
 
band    13 # energy   -5.22253433 # occ.  2.00000000
 
ion      s     py     pz     px    dxy    dyz    dz2    dxz  x2-y2    tot
    1  0.000  0.000  0.000  0.000  0.005  0.003  0.000  0.025  0.001  0.035
    2  0.000  0.000  0.000  0.000  0.735  0.001  0.000  0.011  0.094  0.842
    3  0.000  0.000  0.000  0.000  0.006  0.006  0.000  0.047  0.001  0.060
    4  0.000  0.000  0.000  0.000  0.017  0.001  0.000  0.009  0.003  0.030
    5  0.000  0.000  0.000  0.000  0.000  0.000  0.000  0.000  0.000  0.000
tot    0.000  0.000  0.000  0.000  0.763  0.012  0.000  0.093  0.098  0.967
 
band    14 # energy   -4.96448284 # occ.  2.00000000
 
ion      s     py     pz     px    dxy    dyz    dz2    dxz  x2-y2    tot
    1  0.000  0.000  0.000  0.000  0.367  0.004  0.000  0.003  0.465  0.840
    2  0.000  0.000  0.000  0.000  0.000  0.049  0.000  0.039  0.001  0.088
    3  0.000  0.000  0.000  0.000  0.011  0.002  0.000  0.002  0.014  0.028
    4  0.000  0.000  0.000  0.000  0.000  0.006  0.000  0.005  0.000  0.012
    5  0.000  0.000  0.000  0.000  0.000  0.000  0.000  0.000  0.000  0.000
tot    0.000  0.000  0.000  0.000  0.378  0.061  0.000  0.049  0.479  0.968
 
band    15 # energy   -4.96336691 # occ.  2.00000000
 
ion      s     py     pz     px    dxy    dyz    dz2    dxz  x2-y2    tot
    1  0.000  0.000  0.000  0.000  0.465  0.003  0.000  0.004  0.369  0.841
    2  0.000  0.000  0.000  0.000  0.001  0.038  0.000  0.048  0.000  0.086
    3  0.000  0.000  0.000  0.000  0.015  0.002  0.000  0.002  0.013  0.032
    4  0.000  0.000  0.000  0.000  0.000  0.004  0.000  0.005  0.000  0.010
    5  0.000  0.000  0.000  0.000  0.000  0.000  0.000  0.000  0.000  0.000
tot    0.000  0.000  0.000  0.000  0.481  0.046  0.000  0.059  0.382  0.968
 
band    16 # energy   -4.87254935 # occ.  2.00000000
 
ion      s     py     pz     px    dxy    dyz    dz2    dxz  x2-y2    tot
    1  0.027  0.000  0.000  0.000  0.002  0.000  0.403  0.000  0.000  0.431
    2  0.013  0.000  0.045  0.000  0.000  0.000  0.051  0.000  0.000  0.109
    3  0.000  0.000  0.078  0.000  0.004  0.000  0.002  0.000  0.000  0.084
    4  0.014  0.000  0.042  0.000  0.005  0.001  0.025  0.009  0.000  0.095
    5  0.016  0.000  0.000  0.000  0.000  0.000  0.000  0.000  0.000  0.016
tot    0.069  0.000  0.166  0.000  0.010  0.001  0.480  0.009  0.000  0.735
 
band    17 # energy   -4.74803894 # occ.  2.00000000
 
ion      s     py     pz     px    dxy    dyz    dz2    dxz  x2-y2    tot
    1  0.000  0.000  0.000  0.000  0.001  0.002  0.003  0.001  0.001  0.009
    2  0.000  0.000  0.000  0.000  0.007  0.003  0.001  0.002  0.009  0.023
    3  0.000  0.000  0.001  0.000  0.060  0.039  0.000  0.029  0.079  0.208
    4  0.000  0.000  0.001  0.000  0.011  0.407  0.000  0.305  0.015  0.739
    5  0.000  0.000  0.000  0.000  0.000  0.000  0.000  0.000  0.000  0.001
tot    0.001  0.000  0.002  0.000  0.079  0.452  0.004  0.338  0.105  0.981
 
band    18 # energy   -4.72364482 # occ.  2.00000000
 
ion      s     py     pz     px    dxy    dyz    dz2    dxz  x2-y2    tot
    1  0.000  0.000  0.000  0.000  0.000  0.002  0.001  0.002  0.000  0.006
    2  0.000  0.000  0.000  0.000  0.011  0.002  0.000  0.002  0.009  0.024
    3  0.000  0.000  0.000  0.000  0.073  0.042  0.000  0.053  0.056  0.224
    4  0.000  0.000  0.000  0.000  0.010  0.309  0.000  0.401  0.007  0.728
    5  0.000  0.000  0.000  0.000  0.000  0.000  0.000  0.000  0.000  0.000
tot    0.000  0.000  0.001  0.000  0.094  0.354  0.002  0.458  0.072  0.982
 
band    19 # energy   -4.48110112 # occ.  2.00000000
 
ion      s     py     pz     px    dxy    dyz    dz2    dxz  x2-y2    tot
    1  0.000  0.000  0.000  0.000  0.043  0.021  0.000  0.018  0.050  0.133
    2  0.000  0.000  0.000  0.000  0.030  0.225  0.000  0.195  0.035  0.485
    3  0.000  0.000  0.000  0.000  0.012  0.156  0.000  0.136  0.014  0.317
    4  0.000  0.000  0.000  0.000  0.004  0.022  0.000  0.019  0.004  0.049
    5  0.000  0.000  0.000  0.000  0.000  0.000  0.000  0.000  0.000  0.000
tot    0.000  0.000  0.000  0.000  0.089  0.424  0.000  0.368  0.103  0.984
 
band    20 # energy   -4.47753193 # occ.  2.00000000
 
ion      s     py     pz     px    dxy    dyz    dz2    dxz  x2-y2    tot
    1  0.000  0.000  0.000  0.000  0.051  0.020  0.000  0.023  0.044  0.138
    2  0.000  0.000  0.000  0.000  0.033  0.201  0.000  0.231  0.029  0.495
    3  0.000  0.000  0.000  0.000  0.012  0.123  0.000  0.142  0.011  0.288
    4  0.000  0.000  0.000  0.000  0.004  0.026  0.000  0.029  0.003  0.062
    5  0.000  0.000  0.000  0.000  0.000  0.000  0.000  0.000  0.000  0.000
tot    0.000  0.000  0.000  0.000  0.101  0.370  0.000  0.426  0.087  0.984
 
band    21 # energy   -4.26312409 # occ.  2.00000000
 
ion      s     py     pz     px    dxy    dyz    dz2    dxz  x2-y2    tot
    1  0.000  0.000  0.000  0.000  0.007  0.160  0.000  0.157  0.007  0.330
    2  0.000  0.000  0.000  0.000  0.000  0.073  0.000  0.072  0.000  0.145
    3  0.000  0.000  0.000  0.000  0.005  0.217  0.000  0.213  0.005  0.441
    4  0.000  0.000  0.000  0.000  0.003  0.032  0.000  0.031  0.003  0.069
    5  0.000  0.000  0.000  0.000  0.000  0.000  0.000  0.000  0.000  0.000
tot    0.000  0.000  0.000  0.000  0.015  0.482  0.000  0.473  0.015  0.986
 
band    22 # energy   -4.25811319 # occ.  2.00000000
 
ion      s     py     pz     px    dxy    dyz    dz2    dxz  x2-y2    tot
    1  0.000  0.000  0.000  0.000  0.006  0.156  0.000  0.159  0.006  0.328
    2  0.000  0.000  0.000  0.000  0.000  0.066  0.000  0.067  0.000  0.134
    3  0.000  0.000  0.000  0.000  0.006  0.213  0.000  0.217  0.006  0.440
    4  0.000  0.000  0.000  0.000  0.003  0.038  0.000  0.039  0.003  0.084
    5  0.000  0.000  0.000  0.000  0.000  0.000  0.000  0.000  0.000  0.000
tot    0.000  0.000  0.000  0.000  0.015  0.473  0.000  0.482  0.015  0.986
 
band    23 # energy   -3.98261362 # occ.  2.00000000
 
ion      s     py     pz     px    dxy    dyz    dz2    dxz  x2-y2    tot
    1  0.000  0.000  0.000  0.000  0.003  0.342  0.000  0.248  0.004  0.597
    2  0.000  0.000  0.000  0.000  0.010  0.154  0.000  0.112  0.013  0.289
    3  0.000  0.000  0.000  0.000  0.003  0.052  0.000  0.038  0.004  0.096
    4  0.000  0.000  0.000  0.000  0.000  0.004  0.000  0.003  0.001  0.008
    5  0.000  0.000  0.000  0.000  0.000  0.000  0.000  0.000  0.000  0.000
tot    0.000  0.000  0.000  0.000  0.016  0.552  0.000  0.400  0.022  0.990
 
band    24 # energy   -3.98155460 # occ.  2.00000000
 
ion      s     py     pz     px    dxy    dyz    dz2    dxz  x2-y2    tot
    1  0.000  0.000  0.000  0.000  0.004  0.246  0.000  0.340  0.003  0.594
    2  0.000  0.000  0.000  0.000  0.013  0.112  0.000  0.154  0.010  0.289
    3  0.000  0.000  0.000  0.000  0.004  0.039  0.000  0.053  0.003  0.098
    4  0.000  0.000  0.000  0.000  0.001  0.004  0.000  0.005  0.000  0.009
    5  0.000  0.000  0.000  0.000  0.000  0.000  0.000  0.000  0.000  0.000
tot    0.000  0.000  0.000  0.000  0.022  0.400  0.000  0.552  0.016  0.990
 
band    25 # energy   -2.91363904 # occ.  2.00000000
 
ion      s     py     pz     px    dxy    dyz    dz2    dxz  x2-y2    tot
    1  0.020  0.000  0.152  0.000  0.000  0.000  0.031  0.000  0.000  0.203
    2  0.015  0.000  0.079  0.000  0.000  0.000  0.023  0.000  0.000  0.117
    3  0.012  0.000  0.036  0.000  0.000  0.000  0.018  0.000  0.000  0.066
    4  0.009  0.000  0.012  0.000  0.000  0.000  0.008  0.000  0.000  0.030
    5  0.004  0.000  0.000  0.000  0.000  0.000  0.000  0.000  0.000  0.004
tot    0.060  0.000  0.279  0.000  0.000  0.000  0.081  0.000  0.000  0.421
 
band    26 # energy    1.60809113 # occ.  0.00000000
 
ion      s     py     pz     px    dxy    dyz    dz2    dxz  x2-y2    tot
    1  0.017  0.000  0.002  0.000  0.000  0.000  0.017  0.000  0.000  0.037
    2  0.025  0.000  0.001  0.000  0.000  0.000  0.023  0.000  0.000  0.049
    3  0.033  0.000  0.001  0.000  0.000  0.000  0.029  0.000  0.000  0.063
    4  0.036  0.000  0.000  0.000  0.000  0.000  0.037  0.000  0.000  0.073
    5  0.000  0.000  0.003  0.000  0.000  0.000  0.000  0.000  0.000  0.003
tot    0.111  0.000  0.007  0.000  0.000  0.000  0.106  0.000  0.000  0.224
 
band    27 # energy    1.93606782 # occ.  0.00000000
 
ion      s     py     pz     px    dxy    dyz    dz2    dxz  x2-y2    tot
    1  0.006  0.000  0.003  0.000  0.000  0.000  0.006  0.000  0.000  0.016
    2  0.001  0.000  0.004  0.000  0.000  0.000  0.001  0.000  0.000  0.007
    3  0.000  0.000  0.004  0.000  0.000  0.000  0.000  0.000  0.000  0.005
    4  0.003  0.000  0.003  0.000  0.000  0.000  0.004  0.000  0.000  0.010
    5  0.001  0.000  0.001  0.000  0.000  0.000  0.000  0.000  0.000  0.002
tot    0.011  0.000  0.016  0.000  0.000  0.000  0.012  0.000  0.000  0.039
 
band    28 # energy    2.36415031 # occ.  0.00000000
 
ion      s     py     pz     px    dxy    dyz    dz2    dxz  x2-y2    tot
    1  0.005  0.000  0.002  0.000  0.000  0.000  0.005  0.000  0.000  0.011
    2  0.001  0.000  0.003  0.000  0.000  0.000  0.001  0.000  0.000  0.005
    3  0.000  0.000  0.003  0.000  0.000  0.000  0.000  0.000  0.000  0.003
    4  0.002  0.000  0.002  0.000  0.000  0.000  0.003  0.000  0.000  0.007
    5  0.001  0.000  0.000  0.000  0.000  0.000  0.000  0.000  0.000  0.001
tot    0.008  0.000  0.010  0.000  0.000  0.000  0.009  0.000  0.000  0.027
 

 k-point     2 :    0.10000000 0.00000000 0.00000000     weight = 0.02000000

band     1 # energy  -11.30316015 # occ.  2.00000000
 
ion      s     py     pz     px    dxy    dyz    dz2    dxz  x2-y2    tot
    1  0.006  0.000  0.001  0.000  0.000  0.000  0.000  0.000  0.000  0.007
    2  0.040  0.000  0.002  0.001  0.000  0.000  0.000  0.000  0.000  0.043
    3  0.127  0.001  0.003  0.003  0.000  0.000  0.000  0.000  0.000  0.134
    4  0.296  0.003  0.000  0.008  0.000  0.000  0.008  0.000  0.000  0.315
    5  0.091  0.000  0.001  0.000  0.000  0.000  0.000  0.000  0.000  0.092
tot    0.561  0.004  0.006  0.011  0.000  0.000  0.008  0.001  0.000  0.592
 
band     2 # energy  -10.29383591 # occ.  2.00000000
 
ion      s     py     pz     px    dxy    dyz    dz2    dxz  x2-y2    tot
    1  0.111  0.001  0.010  0.002  0.000  0.000  0.000  0.001  0.000  0.126
    2  0.256  0.002  0.000  0.006  0.000  0.000  0.002  0.000  0.000  0.266
    3  0.053  0.000  0.017  0.001  0.000  0.000  0.000  0.001  0.000  0.073
    4  0.061  0.001  0.008  0.002  0.000  0.000  0.011  0.001  0.000  0.085
    5  0.040  0.000  0.000  0.000  0.000  0.000  0.000  0.000  0.000  0.040
tot    0.520  0.004  0.036  0.011  0.001  0.001  0.013  0.003  0.000  0.589
 
band     3 # energy   -8.72115691 # occ.  2.00000000
 
ion      s     py     pz     px    dxy    dyz    dz2    dxz  x2-y2    tot
    1  0.180  0.001  0.003  0.004  0.000  0.000  0.017  0.000  0.000  0.206
    2  0.005  0.000  0.044  0.000  0.000  0.002  0.001  0.005  0.000  0.057
    3  0.194  0.002  0.000  0.005  0.000  0.000  0.037  0.000  0.000  0.238
    4  0.006  0.000  0.032  0.000  0.000  0.002  0.026  0.006  0.000  0.073
    5  0.033  0.000  0.000  0.000  0.000  0.000  0.000  0.000  0.000  0.033
tot    0.418  0.003  0.079  0.010  0.001  0.004  0.080  0.011  0.000  0.607
 
band     4 # energy   -7.30129647 # occ.  2.00000000
 
ion      s     py     pz     px    dxy    dyz    dz2    dxz  x2-y2    tot
    1  0.105  0.001  0.004  0.004  0.001  0.000  0.133  0.000  0.000  0.249
    2  0.090  0.001  0.004  0.004  0.001  0.000  0.230  0.001  0.000  0.331
    3  0.026  0.000  0.015  0.001  0.000  0.001  0.088  0.003  0.000  0.134
    4  0.000  0.000  0.011  0.000  0.000  0.001  0.014  0.003  0.000  0.031
    5  0.005  0.000  0.000  0.000  0.000  0.000  0.000  0.000  0.000  0.005
tot    0.227  0.003  0.034  0.009  0.002  0.003  0.466  0.007  0.001  0.750
 
band     5 # energy   -6.14732942 # occ.  2.00000000
 
ion      s     py     pz     px    dxy    dyz    dz2    dxz  x2-y2    tot
    1  0.000  0.000  0.000  0.000  0.000  0.000  0.005  0.000  0.000  0.005
    2  0.001  0.000  0.000  0.000  0.001  0.000  0.001  0.000  0.000  0.004
    3  0.001  0.000  0.006  0.000  0.007  0.000  0.142  0.000  0.003  0.159
    4  0.008  0.000  0.037  0.001  0.059  0.031  0.376  0.083  0.016  0.610
    5  0.043  0.000  0.000  0.000  0.000  0.000  0.000  0.000  0.000  0.043
tot    0.053  0.000  0.044  0.001  0.068  0.031  0.524  0.083  0.019  0.822
 
band     6 # energy   -5.67336969 # occ.  2.00000000
 
ion      s     py     pz     px    dxy    dyz    dz2    dxz  x2-y2    tot
    1  0.001  0.000  0.001  0.000  0.000  0.000  0.024  0.000  0.000  0.026
    2  0.002  0.000  0.000  0.000  0.011  0.001  0.028  0.004  0.004  0.049
    3  0.000  0.000  0.011  0.000  0.025  0.004  0.186  0.011  0.008  0.245
    4  0.004  0.000  0.004  0.000  0.187  0.005  0.343  0.011  0.063  0.616
    5  0.000  0.000  0.000  0.000  0.000  0.000  0.000  0.000  0.000  0.001
tot    0.006  0.000  0.016  0.001  0.223  0.009  0.582  0.026  0.075  0.938
 
band     7 # energy   -5.58345566 # occ.  2.00000000
 
ion      s     py     pz     px    dxy    dyz    dz2    dxz  x2-y2    tot
    1  0.000  0.000  0.001  0.000  0.002  0.000  0.021  0.000  0.001  0.024
    2  0.001  0.000  0.001  0.000  0.049  0.001  0.044  0.005  0.016  0.117
    3  0.000  0.000  0.008  0.000  0.006  0.025  0.083  0.077  0.002  0.200
    4  0.001  0.000  0.012  0.000  0.400  0.008  0.023  0.021  0.122  0.586
    5  0.003  0.000  0.000  0.000  0.000  0.000  0.000  0.000  0.000  0.004
tot    0.006  0.000  0.021  0.001  0.456  0.034  0.171  0.102  0.140  0.931
 
band     8 # energy   -5.45288569 # occ.  2.00000000
 
ion      s     py     pz     px    dxy    dyz    dz2    dxz  x2-y2    tot
    1  0.000  0.000  0.000  0.000  0.000  0.000  0.001  0.000  0.000  0.001
    2  0.000  0.000  0.000  0.000  0.003  0.002  0.001  0.000  0.009  0.015
    3  0.000  0.000  0.000  0.000  0.002  0.033  0.004  0.010  0.003  0.052
    4  0.000  0.001  0.000  0.000  0.200  0.008  0.000  0.002  0.687  0.898
    5  0.000  0.001  0.000  0.000  0.000  0.000  0.000  0.000  0.000  0.001
tot    0.000  0.002  0.000  0.001  0.204  0.044  0.006  0.012  0.699  0.968
 
band     9 # energy   -5.38570870 # occ.  2.00000000
 
ion      s     py     pz     px    dxy    dyz    dz2    dxz  x2-y2    tot
    1  0.004  0.000  0.001  0.000  0.032  0.004  0.031  0.013  0.011  0.095
    2  0.002  0.000  0.009  0.000  0.022  0.023  0.233  0.068  0.007  0.365
    3  0.000  0.000  0.017  0.000  0.180  0.005  0.108  0.015  0.057  0.383
    4  0.002  0.000  0.003  0.000  0.009  0.012  0.019  0.031  0.004  0.081
    5  0.001  0.000  0.000  0.000  0.000  0.000  0.000  0.000  0.000  0.002
tot    0.009  0.000  0.030  0.000  0.243  0.044  0.392  0.128  0.079  0.925
 
band    10 # energy   -5.34599944 # occ.  2.00000000
 
ion      s     py     pz     px    dxy    dyz    dz2    dxz  x2-y2    tot
    1  0.002  0.000  0.001  0.000  0.012  0.002  0.078  0.005  0.004  0.104
    2  0.001  0.000  0.006  0.000  0.020  0.021  0.173  0.062  0.005  0.288
    3  0.001  0.000  0.011  0.001  0.225  0.004  0.077  0.015  0.082  0.416
    4  0.002  0.000  0.004  0.000  0.018  0.015  0.046  0.037  0.000  0.121
    5  0.002  0.000  0.000  0.000  0.000  0.000  0.000  0.000  0.000  0.002
tot    0.008  0.000  0.022  0.001  0.275  0.041  0.374  0.119  0.091  0.932
 
band    11 # energy   -5.27563031 # occ.  2.00000000
 
ion      s     py     pz     px    dxy    dyz    dz2    dxz  x2-y2    tot
    1  0.001  0.000  0.000  0.000  0.018  0.006  0.021  0.017  0.006  0.069
    2  0.001  0.000  0.000  0.001  0.500  0.000  0.019  0.000  0.167  0.687
    3  0.000  0.000  0.002  0.000  0.019  0.002  0.068  0.006  0.006  0.103
    4  0.001  0.000  0.002  0.000  0.037  0.007  0.018  0.018  0.014  0.097
    5  0.000  0.000  0.000  0.000  0.000  0.000  0.000  0.000  0.000  0.000
tot    0.003  0.000  0.005  0.001  0.574  0.014  0.126  0.041  0.192  0.956
 
band    12 # energy   -5.20331948 # occ.  2.00000000
 
ion      s     py     pz     px    dxy    dyz    dz2    dxz  x2-y2    tot
    1  0.000  0.000  0.000  0.000  0.003  0.002  0.000  0.001  0.009  0.016
    2  0.000  0.000  0.000  0.000  0.001  0.052  0.000  0.019  0.002  0.074
    3  0.000  0.001  0.000  0.000  0.176  0.026  0.000  0.009  0.502  0.713
    4  0.000  0.000  0.000  0.000  0.000  0.119  0.000  0.043  0.002  0.165
    5  0.000  0.000  0.000  0.000  0.000  0.000  0.000  0.000  0.000  0.000
tot    0.000  0.001  0.000  0.000  0.181  0.199  0.000  0.072  0.514  0.968
 
band    13 # energy   -5.12561553 # occ.  2.00000000
 
ion      s     py     pz     px    dxy    dyz    dz2    dxz  x2-y2    tot
    1  0.000  0.000  0.000  0.000  0.001  0.023  0.002  0.008  0.005  0.040
    2  0.000  0.001  0.000  0.000  0.198  0.006  0.001  0.003  0.616  0.824
    3  0.000  0.000  0.000  0.000  0.004  0.043  0.000  0.014  0.016  0.076
    4  0.000  0.000  0.000  0.000  0.005  0.002  0.000  0.000  0.020  0.027
    5  0.000  0.000  0.000  0.000  0.000  0.000  0.000  0.000  0.000  0.000
tot    0.000  0.001  0.000  0.000  0.209  0.074  0.003  0.024  0.656  0.968
 
band    14 # energy   -5.11204714 # occ.  2.00000000
 
ion      s     py     pz     px    dxy    dyz    dz2    dxz  x2-y2    tot
    1  0.003  0.000  0.003  0.000  0.019  0.003  0.384  0.009  0.005  0.427
    2  0.000  0.000  0.020  0.000  0.032  0.009  0.077  0.030  0.007  0.176
    3  0.000  0.000  0.010  0.000  0.164  0.015  0.002  0.045  0.059  0.295
    4  0.002  0.000  0.007  0.000  0.006  0.001  0.000  0.002  0.000  0.018
    5  0.003  0.000  0.000  0.000  0.000  0.000  0.000  0.000  0.000  0.003
tot    0.009  0.000  0.040  0.000  0.221  0.028  0.464  0.085  0.072  0.919
 
band    15 # energy   -4.99088788 # occ.  2.00000000
 
ion      s     py     pz     px    dxy    dyz    dz2    dxz  x2-y2    tot
    1  0.001  0.000  0.000  0.001  0.559  0.002  0.033  0.004  0.192  0.792
    2  0.000  0.000  0.006  0.000  0.004  0.005  0.014  0.013  0.002  0.044
    3  0.001  0.000  0.003  0.000  0.011  0.014  0.028  0.042  0.003  0.101
    4  0.000  0.000  0.000  0.000  0.006  0.002  0.000  0.006  0.002  0.017
    5  0.000  0.000  0.000  0.000  0.000  0.000  0.000  0.000  0.000  0.000
tot    0.003  0.000  0.010  0.001  0.581  0.023  0.075  0.065  0.198  0.955
 
band    16 # energy   -4.88044768 # occ.  2.00000000
 
ion      s     py     pz     px    dxy    dyz    dz2    dxz  x2-y2    tot
    1  0.000  0.001  0.000  0.000  0.180  0.012  0.000  0.004  0.523  0.719
    2  0.000  0.000  0.000  0.000  0.001  0.106  0.000  0.035  0.002  0.144
    3  0.000  0.000  0.000  0.000  0.008  0.012  0.000  0.004  0.021  0.046
    4  0.000  0.000  0.000  0.000  0.001  0.044  0.000  0.015  0.002  0.061
    5  0.000  0.000  0.000  0.000  0.000  0.000  0.000  0.000  0.000  0.000
tot    0.000  0.001  0.000  0.000  0.189  0.174  0.000  0.058  0.548  0.970
 
band    17 # energy   -4.74534008 # occ.  2.00000000
 
ion      s     py     pz     px    dxy    dyz    dz2    dxz  x2-y2    tot
    1  0.000  0.000  0.000  0.000  0.021  0.005  0.000  0.001  0.062  0.090
    2  0.000  0.000  0.000  0.000  0.010  0.009  0.000  0.002  0.023  0.044
    3  0.000  0.000  0.000  0.000  0.043  0.067  0.000  0.028  0.130  0.268
    4  0.000  0.000  0.000  0.000  0.005  0.428  0.000  0.131  0.016  0.580
    5  0.000  0.000  0.000  0.000  0.000  0.000  0.000  0.000  0.000  0.000
tot    0.000  0.000  0.000  0.000  0.080  0.508  0.000  0.162  0.230  0.981
 
band    18 # energy   -4.69964952 # occ.  2.00000000
 
ion      s     py     pz     px    dxy    dyz    dz2    dxz  x2-y2    tot
    1  0.000  0.000  0.000  0.000  0.027  0.005  0.003  0.019  0.012  0.067
    2  0.000  0.000  0.000  0.000  0.033  0.011  0.005  0.032  0.014  0.095
    3  0.002  0.000  0.000  0.000  0.059  0.082  0.021  0.209  0.021  0.394
    4  0.000  0.000  0.006  0.000  0.015  0.083  0.005  0.291  0.006  0.405
    5  0.004  0.000  0.000  0.000  0.000  0.000  0.000  0.000  0.000  0.004
tot    0.007  0.000  0.007  0.001  0.133  0.181  0.035  0.551  0.053  0.965
 
band    19 # energy   -4.48589323 # occ.  2.00000000
 
ion      s     py     pz     px    dxy    dyz    dz2    dxz  x2-y2    tot
    1  0.000  0.000  0.000  0.000  0.039  0.044  0.000  0.018  0.102  0.203
    2  0.000  0.000  0.000  0.000  0.019  0.251  0.000  0.102  0.045  0.417
    3  0.000  0.000  0.000  0.000  0.014  0.142  0.000  0.057  0.039  0.252
    4  0.000  0.000  0.000  0.000  0.002  0.079  0.000  0.024  0.006  0.111
    5  0.000  0.000  0.000  0.000  0.000  0.000  0.000  0.000  0.000  0.000
tot    0.000  0.000  0.000  0.000  0.074  0.516  0.000  0.201  0.192  0.984
 
band    20 # energy   -4.45223209 # occ.  2.00000000
 
ion      s     py     pz     px    dxy    dyz    dz2    dxz  x2-y2    tot
    1  0.000  0.000  0.004  0.000  0.031  0.103  0.003  0.283  0.014  0.439
    2  0.000  0.000  0.004  0.000  0.038  0.071  0.000  0.165  0.015  0.294
    3  0.003  0.000  0.001  0.000  0.008  0.019  0.025  0.047  0.003  0.107
    4  0.000  0.000  0.003  0.000  0.001  0.025  0.000  0.088  0.001  0.117
    5  0.002  0.000  0.000  0.000  0.000  0.000  0.000  0.000  0.000  0.002
tot    0.006  0.000  0.012  0.000  0.078  0.218  0.027  0.583  0.034  0.959
 
band    21 # energy   -4.28327438 # occ.  2.00000000
 
ion      s     py     pz     px    dxy    dyz    dz2    dxz  x2-y2    tot
    1  0.011  0.000  0.014  0.000  0.012  0.068  0.085  0.272  0.006  0.468
    2  0.001  0.000  0.001  0.000  0.010  0.094  0.002  0.229  0.004  0.341
    3  0.001  0.000  0.003  0.000  0.004  0.003  0.009  0.005  0.002  0.027
    4  0.000  0.000  0.005  0.000  0.001  0.015  0.000  0.041  0.000  0.062
    5  0.002  0.000  0.000  0.000  0.000  0.000  0.000  0.000  0.000  0.002
tot    0.016  0.000  0.023  0.001  0.027  0.181  0.096  0.547  0.011  0.902
 
band    22 # energy   -4.25490558 # occ.  2.00000000
 
ion      s     py     pz     px    dxy    dyz    dz2    dxz  x2-y2    tot
    1  0.000  0.000  0.000  0.000  0.005  0.248  0.000  0.064  0.010  0.327
    2  0.000  0.000  0.000  0.000  0.004  0.068  0.000  0.040  0.013  0.125
    3  0.000  0.000  0.000  0.000  0.002  0.329  0.000  0.110  0.005  0.447
    4  0.000  0.000  0.000  0.000  0.002  0.056  0.000  0.023  0.006  0.087
    5  0.000  0.000  0.000  0.000  0.000  0.000  0.000  0.000  0.000  0.000
tot    0.000  0.000  0.000  0.000  0.013  0.702  0.000  0.236  0.034  0.986
 
band    23 # energy   -3.97762759 # occ.  2.00000000
 
ion      s     py     pz     px    dxy    dyz    dz2    dxz  x2-y2    tot
    1  0.000  0.000  0.000  0.000  0.002  0.415  0.000  0.138  0.007  0.563
    2  0.000  0.000  0.000  0.000  0.005  0.217  0.000  0.074  0.016  0.313
    3  0.000  0.000  0.000  0.000  0.002  0.072  0.000  0.024  0.006  0.104