Starting job 28337766 ("jobname") on c15-30 at Fri Oct 11 10:26:14 CEST 2019
 running on    4 total cores
 distrk:  each k-point on    4 cores,    1 groups
 distr:  one band on    2 cores,    2 groups
 using from now: INCAR     
 vasp.5.4.4.18Apr17-6-g9f103f2a35 (build Jun 30 2017 11:15:00) complex          
  
 POSCAR found type information on POSCAR  Cu H 
 POSCAR found :  2 types and       5 ions
 scaLAPACK will be used

 ----------------------------------------------------------------------------- 
|                                                                             |
|  ADVICE TO THIS USER RUNNING 'VASP/VAMP'   (HEAR YOUR MASTER'S VOICE ...):  |
|                                                                             |
|      You have a (more or less) 'small supercell' and for smaller cells      |
|      it is recommended  to use the reciprocal-space projection scheme!      |
|      The real space optimization is not  efficient for small cells and it   |
|      is also less accurate ...                                              |
|      Therefore set LREAL=.FALSE. in the  INCAR file                         |
|                                                                             |
 ----------------------------------------------------------------------------- 

 LDA part: xc-table for Pade appr. of Perdew
 POSCAR, INCAR and KPOINTS ok, starting setup
 FFT: planning ...
 WAVECAR not read
 entering main loop
       N       E                     dE             d eps       ncg     rms          rms(c)
DAV:   1     0.196742899932E+03    0.19674E+03   -0.13880E+04  3024   0.920E+02
DAV:   2    -0.107796946158E+02   -0.20752E+03   -0.20130E+03  3068   0.265E+02
DAV:   3    -0.209849983642E+02   -0.10205E+02   -0.10019E+02  3228   0.783E+01
DAV:   4    -0.211000952373E+02   -0.11510E+00   -0.11473E+00  3180   0.756E+00
DAV:   5    -0.211013134434E+02   -0.12182E-02   -0.12181E-02  3352   0.539E-01    0.146E+01
RMM:   6    -0.190529360483E+02    0.20484E+01   -0.43378E+01  3159   0.643E+01    0.742E+00
RMM:   7    -0.173160362401E+02    0.17369E+01   -0.71184E+00  3156   0.269E+01    0.169E+00
RMM:   8    -0.172895259749E+02    0.26510E-01   -0.12768E-01  3202   0.281E+00    0.185E+00
RMM:   9    -0.171976986353E+02    0.91827E-01   -0.66633E-02  3195   0.223E+00    0.717E-01
RMM:  10    -0.171881407505E+02    0.95579E-02   -0.19909E-02  3212   0.120E+00    0.444E-01
RMM:  11    -0.171829590015E+02    0.51817E-02   -0.81436E-03  3203   0.730E-01    0.157E-01
RMM:  12    -0.171820067457E+02    0.95226E-03   -0.19675E-03  3202   0.368E-01    0.106E-01
RMM:  13    -0.171815542996E+02    0.45245E-03   -0.56344E-04  3148   0.190E-01    0.545E-02
RMM:  14    -0.171814629192E+02    0.91380E-04   -0.36856E-04  3136   0.133E-01    0.591E-02
RMM:  15    -0.171814728001E+02   -0.98809E-05   -0.13616E-04  3048   0.869E-02    0.218E-02
RMM:  16    -0.171816497169E+02   -0.17692E-03   -0.36186E-05  3021   0.375E-02    0.115E-02
RMM:  17    -0.171819244025E+02   -0.27469E-03   -0.71228E-05  2905   0.315E-02    0.615E-03
RMM:  18    -0.171820496110E+02   -0.12521E-03   -0.12184E-05  2318   0.135E-02    0.274E-03
RMM:  19    -0.171821018647E+02   -0.52254E-04   -0.37677E-06  2025   0.106E-02    0.390E-03
RMM:  20    -0.171821337831E+02   -0.31918E-04   -0.14709E-06  1892   0.706E-03    0.263E-03
RMM:  21    -0.171821480123E+02   -0.14229E-04   -0.57538E-07  1830   0.355E-03    0.995E-04
RMM:  22    -0.171821542138E+02   -0.62014E-05   -0.22050E-07  1657   0.222E-03    0.664E-04
RMM:  23    -0.171821565191E+02   -0.23053E-05   -0.62001E-08  1551   0.190E-03    0.249E-04
RMM:  24    -0.171821568420E+02   -0.32299E-06   -0.43384E-09   524   0.107E-03
   1 F= -.17182157E+02 E0= -.17172634E+02  d E =-.190448E-01

Currently Loaded Modulefiles:
  1) intel/2017.4         2) perf-reports/7.0.6

Job script resource usage:
       JobID  MaxVMSize     MaxRSS 
------------ ---------- ---------- 
28337766.ba+    216884K      2487K 

Job step resource usage:
       JobID    JobName  AllocCPUS  MaxVMSize     MaxRSS    Elapsed ExitCode 
------------ ---------- ---------- ---------- ---------- ---------- -------- 
28337766        jobname          4                         00:00:27      0:0 
28337766.0    pmi_proxy          1    279832K       523K   00:00:26      0:0 

Job 28337766 ("jobname") completed on c15-30 at Fri Oct 11 10:26:41 CEST 2019
