  10  10   0   0
  0.2791547E+02  0.3946846E-09  0.3946846E-09  0.1792027E-08  0.5000000E-15
  1.000000000000000E-004
  CAR 
 unknown system                          
      8.30812253    -37.35859781  301     -0.48272114      1.00000000
    -37.359  0.0000E+00  0.0000E+00
    -37.206  0.0000E+00  0.0000E+00
    -37.054  0.0000E+00  0.0000E+00
    -36.902  0.0000E+00  0.0000E+00
    -36.750  0.0000E+00  0.0000E+00
    -36.597  0.0000E+00  0.0000E+00
    -36.445  0.0000E+00  0.0000E+00
    -36.293  0.0000E+00  0.0000E+00
    -36.141  0.0000E+00  0.0000E+00
    -35.989  0.0000E+00  0.0000E+00
    -35.836  0.0000E+00  0.0000E+00
    -35.684  0.0000E+00  0.0000E+00
    -35.532  0.0000E+00  0.0000E+00
    -35.380  0.0000E+00  0.0000E+00
    -35.227  0.0000E+00  0.2000E+01
    -35.075  0.0000E+00  0.2000E+01
    -34.923  0.0000E+00  0.2000E+01
    -34.771  0.0000E+00  0.2000E+01
    -34.619  0.0000E+00  0.2000E+01
    -34.466  0.0000E+00  0.2000E+01
    -34.314  0.0000E+00  0.2000E+01
    -34.162  0.0000E+00  0.2000E+01
    -34.010  0.0000E+00  0.2000E+01
    -33.857  0.0000E+00  0.4000E+01
    -33.705  0.0000E+00  0.4000E+01
    -33.553  0.0000E+00  0.4000E+01
    -33.401  0.0000E+00  0.4000E+01
    -33.249  0.0000E+00  0.4000E+01
    -33.096  0.0000E+00  0.4000E+01
    -32.944  0.0000E+00  0.4000E+01
    -32.792  0.0000E+00  0.4000E+01
    -32.640  0.0000E+00  0.4000E+01
    -32.487  0.0000E+00  0.4000E+01
    -32.335  0.0000E+00  0.4000E+01
    -32.183  0.0000E+00  0.4000E+01
    -32.031  0.0000E+00  0.4000E+01
    -31.879  0.0000E+00  0.4000E+01
    -31.726  0.0000E+00  0.4000E+01
    -31.574  0.0000E+00  0.4000E+01
    -31.422  0.0000E+00  0.4000E+01
    -31.270  0.0000E+00  0.4000E+01
    -31.117  0.0000E+00  0.4000E+01
    -30.965  0.0000E+00  0.4000E+01
    -30.813  0.0000E+00  0.4000E+01
    -30.661  0.0000E+00  0.4000E+01
    -30.509  0.0000E+00  0.4000E+01
    -30.356  0.0000E+00  0.4000E+01
    -30.204  0.0000E+00  0.4000E+01
    -30.052  0.0000E+00  0.4000E+01
    -29.900  0.0000E+00  0.4000E+01
    -29.747  0.0000E+00  0.4000E+01
    -29.595  0.0000E+00  0.4000E+01
    -29.443  0.0000E+00  0.4000E+01
    -29.291  0.0000E+00  0.4000E+01
    -29.139  0.0000E+00  0.4000E+01
    -28.986  0.0000E+00  0.4000E+01
    -28.834  0.0000E+00  0.4000E+01
    -28.682  0.0000E+00  0.4000E+01
    -28.530  0.0000E+00  0.4000E+01
    -28.377  0.0000E+00  0.4000E+01
    -28.225  0.0000E+00  0.4000E+01
    -28.073  0.0000E+00  0.4000E+01
    -27.921  0.0000E+00  0.4000E+01
    -27.769  0.0000E+00  0.4000E+01
    -27.616  0.0000E+00  0.4000E+01
    -27.464  0.0000E+00  0.4000E+01
    -27.312  0.0000E+00  0.4000E+01
    -27.160  0.0000E+00  0.4000E+01
    -27.007  0.0000E+00  0.4000E+01
    -26.855  0.0000E+00  0.4000E+01
    -26.703  0.0000E+00  0.4000E+01
    -26.551  0.0000E+00  0.4000E+01
    -26.399  0.0000E+00  0.4000E+01
    -26.246  0.0000E+00  0.4000E+01
    -26.094  0.0000E+00  0.4000E+01
    -25.942  0.0000E+00  0.4000E+01
    -25.790  0.0000E+00  0.4000E+01
    -25.637  0.0000E+00  0.4000E+01
    -25.485  0.0000E+00  0.4000E+01
    -25.333  0.0000E+00  0.4000E+01
    -25.181  0.0000E+00  0.4000E+01
    -25.029  0.0000E+00  0.4000E+01
    -24.876  0.0000E+00  0.4000E+01
    -24.724  0.0000E+00  0.4000E+01
    -24.572  0.0000E+00  0.4000E+01
    -24.420  0.0000E+00  0.4000E+01
    -24.267  0.0000E+00  0.4000E+01
    -24.115  0.0000E+00  0.4000E+01
    -23.963  0.0000E+00  0.4000E+01
    -23.811  0.0000E+00  0.4000E+01
    -23.659  0.0000E+00  0.4000E+01
    -23.506  0.0000E+00  0.4000E+01
    -23.354  0.0000E+00  0.4000E+01
    -23.202  0.0000E+00  0.4000E+01
    -23.050  0.0000E+00  0.4000E+01
    -22.897  0.0000E+00  0.4000E+01
    -22.745  0.0000E+00  0.4000E+01
    -22.593  0.0000E+00  0.4000E+01
    -22.441  0.0000E+00  0.4000E+01
    -22.289  0.0000E+00  0.4000E+01
    -22.136  0.0000E+00  0.4000E+01
    -21.984  0.0000E+00  0.4000E+01
    -21.832  0.0000E+00  0.4000E+01
    -21.680  0.0000E+00  0.4000E+01
    -21.527  0.0000E+00  0.4000E+01
    -21.375  0.0000E+00  0.4000E+01
    -21.223  0.0000E+00  0.4000E+01
    -21.071  0.0000E+00  0.4000E+01
    -20.919  0.0000E+00  0.4000E+01
    -20.766  0.0000E+00  0.4000E+01
    -20.614  0.0000E+00  0.4000E+01
    -20.462  0.0000E+00  0.4000E+01
    -20.310  0.0000E+00  0.4000E+01
    -20.157  0.0000E+00  0.4000E+01
    -20.005  0.0000E+00  0.4000E+01
    -19.853  0.0000E+00  0.4000E+01
    -19.701  0.0000E+00  0.4000E+01
    -19.549  0.0000E+00  0.4000E+01
    -19.396  0.0000E+00  0.4000E+01
    -19.244  0.0000E+00  0.4000E+01
    -19.092  0.0000E+00  0.4000E+01
    -18.940  0.0000E+00  0.4000E+01
    -18.787  0.2278E+01  0.4053E+01
    -18.635  0.8216E+01  0.4711E+01
    -18.483  0.2599E+01  0.5393E+01
    -18.331  0.1383E+01  0.5717E+01
    -18.179  0.9145E+00  0.5892E+01
    -18.026  0.5538E+01  0.7330E+01
    -17.874  0.1338E+02  0.9224E+01
    -17.722  0.2801E+01  0.9952E+01
    -17.570  0.3055E+02  0.1079E+02
    -17.417  0.6025E+01  0.1245E+02
    -17.265  0.6072E+01  0.1384E+02
    -17.113  0.2757E+02  0.1675E+02
    -16.961  0.1956E+02  0.1955E+02
    -16.809  0.4101E+00  0.2003E+02
    -16.656  0.2273E+01  0.2030E+02
    -16.504  0.4912E+01  0.2075E+02
    -16.352  0.4215E+01  0.2156E+02
    -16.200  0.0000E+00  0.2200E+02
    -16.047  0.0000E+00  0.2200E+02
    -15.895  0.2368E+02  0.2377E+02
    -15.743  0.1544E+02  0.2555E+02
    -15.591  0.3566E+01  0.2798E+02
    -15.439  0.0000E+00  0.2800E+02
    -15.286  0.0000E+00  0.2800E+02
    -15.134  0.0000E+00  0.2800E+02
    -14.982  0.0000E+00  0.2800E+02
    -14.830  0.0000E+00  0.2800E+02
    -14.677  0.0000E+00  0.2800E+02
    -14.525  0.0000E+00  0.2800E+02
    -14.373  0.0000E+00  0.2800E+02
    -14.221  0.0000E+00  0.2800E+02
    -14.069  0.0000E+00  0.2800E+02
    -13.916  0.0000E+00  0.2800E+02
    -13.764  0.0000E+00  0.2800E+02
    -13.612  0.0000E+00  0.2800E+02
    -13.460  0.0000E+00  0.2800E+02
    -13.307  0.0000E+00  0.2800E+02
    -13.155  0.0000E+00  0.2800E+02
    -13.003  0.0000E+00  0.2800E+02
    -12.851  0.0000E+00  0.2800E+02
    -12.699  0.0000E+00  0.2800E+02
    -12.546  0.0000E+00  0.2800E+02
    -12.394  0.0000E+00  0.2800E+02
    -12.242  0.0000E+00  0.2800E+02
    -12.090  0.0000E+00  0.2800E+02
    -11.937  0.0000E+00  0.2800E+02
    -11.785  0.0000E+00  0.2800E+02
    -11.633  0.0000E+00  0.2800E+02
    -11.481  0.0000E+00  0.2800E+02
    -11.329  0.0000E+00  0.2800E+02
    -11.176  0.0000E+00  0.2800E+02
    -11.024  0.0000E+00  0.2800E+02
    -10.872  0.0000E+00  0.2800E+02
    -10.720  0.0000E+00  0.2800E+02
    -10.567  0.0000E+00  0.2800E+02
    -10.415  0.0000E+00  0.2800E+02
    -10.263  0.0000E+00  0.2800E+02
    -10.111  0.0000E+00  0.2800E+02
     -9.959  0.0000E+00  0.2800E+02
     -9.806  0.0000E+00  0.2800E+02
     -9.654  0.0000E+00  0.2800E+02
     -9.502  0.0000E+00  0.2800E+02
     -9.350  0.0000E+00  0.2800E+02
     -9.197  0.0000E+00  0.2800E+02
     -9.045  0.0000E+00  0.2800E+02
     -8.893  0.0000E+00  0.2800E+02
     -8.741  0.0000E+00  0.2800E+02
     -8.589  0.0000E+00  0.2800E+02
     -8.436  0.0000E+00  0.2800E+02
     -8.284  0.0000E+00  0.2800E+02
     -8.132  0.0000E+00  0.2800E+02
     -7.980  0.0000E+00  0.2800E+02
     -7.827  0.0000E+00  0.2800E+02
     -7.675  0.0000E+00  0.2800E+02
     -7.523  0.0000E+00  0.2800E+02
     -7.371  0.0000E+00  0.2800E+02
     -7.219  0.0000E+00  0.2800E+02
     -7.066  0.0000E+00  0.2800E+02
     -6.914  0.0000E+00  0.2800E+02
     -6.762  0.0000E+00  0.2800E+02
     -6.610  0.0000E+00  0.2800E+02
     -6.457  0.0000E+00  0.2800E+02
     -6.305  0.0000E+00  0.2800E+02
     -6.153  0.0000E+00  0.2800E+02
     -6.001  0.0000E+00  0.2800E+02
     -5.849  0.0000E+00  0.2800E+02
     -5.696  0.0000E+00  0.2800E+02
     -5.544  0.2261E+01  0.2826E+02
     -5.392  0.2496E+01  0.2894E+02
     -5.240  0.5595E+01  0.2953E+02
     -5.087  0.7858E+01  0.3070E+02
     -4.935  0.5572E+01  0.3257E+02
     -4.783  0.7610E+01  0.3441E+02
     -4.631  0.7144E+01  0.3554E+02
     -4.479  0.7229E+01  0.3665E+02
     -4.326  0.8994E+01  0.3787E+02
     -4.174  0.1018E+02  0.3941E+02
     -4.022  0.6196E+01  0.4066E+02
     -3.870  0.6928E+01  0.4178E+02
     -3.717  0.9216E+01  0.4324E+02
     -3.565  0.7851E+01  0.4477E+02
     -3.413  0.6098E+01  0.4611E+02
     -3.261  0.5931E+01  0.4701E+02
     -3.109  0.4575E+01  0.4779E+02
     -2.956  0.1093E+02  0.4860E+02
     -2.804  0.7062E+01  0.5023E+02
     -2.652  0.5166E+01  0.5117E+02
     -2.500  0.9499E+01  0.5208E+02
     -2.347  0.1756E+02  0.5420E+02
     -2.195  0.1082E+02  0.5598E+02
     -2.043  0.1338E+02  0.5790E+02
     -1.891  0.7981E+01  0.5949E+02
     -1.739  0.7692E+01  0.6055E+02
     -1.586  0.7558E+01  0.6194E+02
     -1.434  0.4595E+01  0.6289E+02
     -1.282  0.1765E+01  0.6328E+02
     -1.130  0.1042E+01  0.6348E+02
     -0.977  0.1041E+01  0.6363E+02
     -0.825  0.9256E+00  0.6379E+02
     -0.673  0.6576E+00  0.6391E+02
     -0.521  0.0000E+00  0.6400E+02
     -0.369  0.0000E+00  0.6400E+02
     -0.216  0.0000E+00  0.6400E+02
     -0.064  0.0000E+00  0.6400E+02
      0.088  0.0000E+00  0.6400E+02
      0.240  0.0000E+00  0.6400E+02
      0.393  0.0000E+00  0.6400E+02
      0.545  0.2997E+00  0.6402E+02
      0.697  0.1106E+01  0.6409E+02
      0.849  0.4745E+01  0.6469E+02
      1.001  0.4103E+01  0.6542E+02
      1.154  0.3584E+01  0.6595E+02
      1.306  0.3822E+01  0.6651E+02
      1.458  0.4133E+01  0.6712E+02
      1.610  0.6476E+01  0.6789E+02
      1.763  0.7654E+01  0.6899E+02
      1.915  0.6289E+01  0.6998E+02
      2.067  0.8299E+01  0.7105E+02
      2.219  0.8032E+01  0.7296E+02
      2.371  0.5511E+01  0.7394E+02
      2.524  0.3027E+01  0.7482E+02
      2.676  0.6731E+00  0.7503E+02
      2.828  0.6323E+00  0.7513E+02
      2.980  0.5914E+00  0.7522E+02
      3.133  0.5506E+00  0.7531E+02
      3.285  0.5098E+00  0.7539E+02
      3.437  0.4690E+00  0.7546E+02
      3.589  0.2949E+00  0.7556E+02
      3.741  0.4755E+00  0.7562E+02
      3.894  0.3845E+00  0.7568E+02
      4.046  0.2936E+00  0.7573E+02
      4.198  0.2285E+00  0.7577E+02
      4.350  0.1980E+00  0.7580E+02
      4.503  0.1674E+00  0.7583E+02
      4.655  0.1369E+00  0.7586E+02
      4.807  0.1064E+00  0.7587E+02
      4.959  0.7582E-01  0.7589E+02
      5.111  0.6394E-01  0.7590E+02
      5.264  0.6129E-01  0.7591E+02
      5.416  0.5863E-01  0.7592E+02
      5.568  0.5597E-01  0.7593E+02
      5.720  0.5331E-01  0.7593E+02
      5.873  0.5065E-01  0.7594E+02
      6.025  0.4800E-01  0.7595E+02
      6.177  0.4534E-01  0.7596E+02
      6.329  0.0000E+00  0.7600E+02
      6.481  0.0000E+00  0.7600E+02
      6.634  0.0000E+00  0.7600E+02
      6.786  0.0000E+00  0.7600E+02
      6.938  0.0000E+00  0.7600E+02
      7.090  0.0000E+00  0.7600E+02
      7.243  0.0000E+00  0.7600E+02
      7.395  0.0000E+00  0.7600E+02
      7.547  0.0000E+00  0.7600E+02
      7.699  0.0000E+00  0.7600E+02
      7.851  0.0000E+00  0.7600E+02
      8.004  0.0000E+00  0.7600E+02
      8.156  0.0000E+00  0.7600E+02
      8.308  0.0000E+00  0.7600E+02
