   10   10    1    1
  0.2791547E+02  0.3946846E-09  0.3946846E-09  0.1792027E-08  0.5000000E-15
  1.000000000000000E-004
  CAR 
 unknown system                          
     64     10     38
 
  0.0000000E+00  0.0000000E+00  0.0000000E+00  0.2040816E-01
    1      -35.282838   1.000000
    2      -33.916241   1.000000
    3      -18.833753   1.000000
    4      -18.069422   1.000000
    5      -17.687592   1.000000
    6      -17.596339   1.000000
    7      -17.196881   1.000000
    8      -17.196881   1.000000
    9      -17.181631   1.000000
   10      -17.002497   1.000000
   11      -16.956889   1.000000
   12      -15.974620   1.000000
   13      -15.974620   1.000000
   14      -15.610607   1.000000
   15       -4.955733   1.000000
   16       -4.147586   1.000000
   17       -4.147586   1.000000
   18       -3.812215   1.000000
   19       -3.572953   1.000000
   20       -3.572953   1.000000
   21       -2.982248   1.000000
   22       -2.935017   1.000000
   23       -2.881818   1.000000
   24       -2.881818   1.000000
   25       -2.392000   1.000000
   26       -2.392000   1.000000
   27       -2.351541   1.000000
   28       -1.949857   1.000000
   29       -1.816080   1.000000
   30       -1.816080   1.000000
   31       -1.194148   1.000000
   32       -1.194148   1.000000
   33        0.420181   0.000000
   34        0.684933   0.000000
   35        0.684933   0.000000
   36        0.799402   0.000000
   37        0.897439   0.000000
   38        5.009530   0.000000
 
  0.1428571E+00  0.0000000E+00  0.0000000E+00  0.8163265E-01
    1      -35.279904   1.000000
    2      -33.912751   1.000000
    3      -18.776327   1.000000
    4      -18.082029   1.000000
    5      -17.739059   1.000000
    6      -17.565423   1.000000
    7      -17.441123   1.000000
    8      -17.190006   1.000000
    9      -17.145434   1.000000
   10      -16.998377   1.000000
   11      -16.689121   1.000000
   12      -15.965867   1.000000
   13      -15.880604   1.000000
   14      -15.631081   1.000000
   15       -4.967729   1.000000
   16       -4.418275   1.000000
   17       -4.215832   1.000000
   18       -4.145203   1.000000
   19       -3.638991   1.000000
   20       -3.623687   1.000000
   21       -3.431024   1.000000
   22       -3.031905   1.000000
   23       -2.928500   1.000000
   24       -2.662393   1.000000
   25       -2.621444   1.000000
   26       -2.506894   1.000000
   27       -2.361689   1.000000
   28       -2.034160   1.000000
   29       -1.961376   1.000000
   30       -1.932069   1.000000
   31       -1.564557   1.000000
   32       -1.499382   1.000000
   33        0.691826   0.000000
   34        0.825339   0.000000
   35        0.934806   0.000000
   36        1.078221   0.000000
   37        1.216205   0.000000
   38        3.662139   0.000000
 
  0.2857143E+00  0.0000000E+00  0.0000000E+00  0.8163265E-01
    1      -35.273299   1.000000
    2      -33.904891   1.000000
    3      -18.677386   1.000000
    4      -18.128730   1.000000
    5      -17.914076   1.000000
    6      -17.532693   1.000000
    7      -17.446744   1.000000
    8      -17.174479   1.000000
    9      -17.138490   1.000000
   10      -16.973963   1.000000
   11      -16.385075   1.000000
   12      -15.946061   1.000000
   13      -15.704083   1.000000
   14      -15.664896   1.000000
   15       -5.059036   1.000000
   16       -4.993484   1.000000
   17       -4.797060   1.000000
   18       -4.313752   1.000000
   19       -4.127185   1.000000
   20       -3.758060   1.000000
   21       -3.671721   1.000000
   22       -3.516453   1.000000
   23       -3.156593   1.000000
   24       -2.980094   1.000000
   25       -2.917641   1.000000
   26       -2.610795   1.000000
   27       -2.319780   1.000000
   28       -2.226666   1.000000
   29       -2.196176   1.000000
   30       -1.955051   1.000000
   31       -1.922152   1.000000
   32       -1.721893   1.000000
   33        0.726770   0.000000
   34        1.510417   0.000000
   35        1.557962   0.000000
   36        1.611860   0.000000
   37        1.696466   0.000000
   38        1.949957   0.000000
 
  0.4285714E+00  0.0000000E+00  0.0000000E+00  0.8163265E-01
    1      -35.267989   1.000000
    2      -33.898567   1.000000
    3      -18.662111   1.000000
    4      -18.133072   1.000000
    5      -18.007942   1.000000
    6      -17.578410   1.000000
    7      -17.301460   1.000000
    8      -17.161940   1.000000
    9      -17.137360   1.000000
   10      -16.940982   1.000000
   11      -16.215398   1.000000
   12      -15.930031   1.000000
   13      -15.674082   1.000000
   14      -15.586183   1.000000
   15       -5.521972   1.000000
   16       -5.293887   1.000000
   17       -5.019877   1.000000
   18       -4.877359   1.000000
   19       -4.076877   1.000000
   20       -4.028410   1.000000
   21       -3.891279   1.000000
   22       -3.621920   1.000000
   23       -3.481859   1.000000
   24       -3.210536   1.000000
   25       -2.936272   1.000000
   26       -2.544896   1.000000
   27       -2.481602   1.000000
   28       -2.379282   1.000000
   29       -2.272664   1.000000
   30       -2.136580   1.000000
   31       -2.105925   1.000000
   32       -1.613671   1.000000
   33        0.754412   0.000000
   34        1.694734   0.000000
   35        2.072564   0.000000
   36        2.078181   0.000000
   37        2.148930   0.000000
   38        2.427742   0.000000
 
  0.1428571E+00  0.1428571E+00  0.0000000E+00  0.8163265E-01
    1      -35.277019   1.000000
    2      -33.909334   1.000000
    3      -18.717494   1.000000
    4      -18.072551   1.000000
    5      -17.750026   1.000000
    6      -17.579174   1.000000
    7      -17.514951   1.000000
    8      -17.162972   1.000000
    9      -17.142950   1.000000
   10      -17.000348   1.000000
   11      -16.582021   1.000000
   12      -15.948702   1.000000
   13      -15.824683   1.000000
   14      -15.656384   1.000000
   15       -4.978155   1.000000
   16       -4.581329   1.000000
   17       -4.334674   1.000000
   18       -4.239281   1.000000
   19       -3.948721   1.000000
   20       -3.670301   1.000000
   21       -3.454215   1.000000
   22       -3.360542   1.000000
   23       -3.088088   1.000000
   24       -2.840974   1.000000
   25       -2.784900   1.000000
   26       -2.421387   1.000000
   27       -2.299417   1.000000
   28       -2.158482   1.000000
   29       -2.097138   1.000000
   30       -2.040662   1.000000
   31       -1.905068   1.000000
   32       -1.383734   1.000000
   33        0.882882   0.000000
   34        1.043324   0.000000
   35        1.071550   0.000000
   36        1.226311   0.000000
   37        1.473503   0.000000
   38        4.132862   0.000000
 
  0.2857143E+00  0.1428571E+00  0.0000000E+00  0.1632653E+00
    1      -35.270524   1.000000
    2      -33.901638   1.000000
    3      -18.608312   1.000000
    4      -18.080435   1.000000
    5      -17.882119   1.000000
    6      -17.595038   1.000000
    7      -17.394546   1.000000
    8      -17.204132   1.000000
    9      -17.094327   1.000000
   10      -16.987883   1.000000
   11      -16.406188   1.000000
   12      -15.924297   1.000000
   13      -15.714819   1.000000
   14      -15.699606   1.000000
   15       -5.080345   1.000000
   16       -4.986535   1.000000
   17       -4.772978   1.000000
   18       -4.385767   1.000000
   19       -4.298597   1.000000
   20       -4.109424   1.000000
   21       -3.784303   1.000000
   22       -3.602584   1.000000
   23       -3.488136   1.000000
   24       -3.240983   1.000000
   25       -2.862707   1.000000
   26       -2.754970   1.000000
   27       -2.425275   1.000000
   28       -2.365416   1.000000
   29       -2.142642   1.000000
   30       -2.079415   1.000000
   31       -1.749003   1.000000
   32       -1.459018   1.000000
   33        0.992389   0.000000
   34        1.578714   0.000000
   35        1.625664   0.000000
   36        1.678512   0.000000
   37        1.827369   0.000000
   38        2.049944   0.000000
 
  0.4285714E+00  0.1428571E+00  0.0000000E+00  0.1632653E+00
    1      -35.265304   1.000000
    2      -33.895448   1.000000
    3      -18.573144   1.000000
    4      -18.071168   1.000000
    5      -17.979379   1.000000
    6      -17.536534   1.000000
    7      -17.282733   1.000000
    8      -17.230895   1.000000
    9      -17.064756   1.000000
   10      -16.971567   1.000000
   11      -16.302534   1.000000
   12      -15.909672   1.000000
   13      -15.721105   1.000000
   14      -15.637733   1.000000
   15       -5.523916   1.000000
   16       -5.194186   1.000000
   17       -5.003026   1.000000
   18       -4.869580   1.000000
   19       -4.515521   1.000000
   20       -4.238138   1.000000
   21       -3.956630   1.000000
   22       -3.896183   1.000000
   23       -3.535101   1.000000
   24       -3.431195   1.000000
   25       -2.981883   1.000000
   26       -2.741583   1.000000
   27       -2.571769   1.000000
   28       -2.438969   1.000000
   29       -2.194817   1.000000
   30       -2.169409   1.000000
   31       -1.690471   1.000000
   32       -1.507649   1.000000
   33        1.031984   0.000000
   34        1.805265   0.000000
   35        2.086353   0.000000
   36        2.141305   0.000000
   37        2.199971   0.000000
   38        2.397074   0.000000
 
  0.2857143E+00  0.2857143E+00  0.0000000E+00  0.8163265E-01
    1      -35.264279   1.000000
    2      -33.894313   1.000000
    3      -18.454583   1.000000
    4      -17.985214   1.000000
    5      -17.864727   1.000000
    6      -17.653577   1.000000
    7      -17.260446   1.000000
    8      -17.167359   1.000000
    9      -17.140269   1.000000
   10      -16.966232   1.000000
   11      -16.465304   1.000000
   12      -15.882509   1.000000
   13      -15.794645   1.000000
   14      -15.723767   1.000000
   15       -5.213717   1.000000
   16       -4.986890   1.000000
   17       -4.775360   1.000000
   18       -4.751873   1.000000
   19       -4.523006   1.000000
   20       -4.459980   1.000000
   21       -4.303741   1.000000
   22       -4.203931   1.000000
   23       -3.759631   1.000000
   24       -3.568100   1.000000
   25       -3.400348   1.000000
   26       -2.996319   1.000000
   27       -2.381818   1.000000
   28       -2.177663   1.000000
   29       -2.042064   1.000000
   30       -1.903032   1.000000
   31       -1.696316   1.000000
   32       -1.067760   1.000000
   33        1.503461   0.000000
   34        1.747668   0.000000
   35        1.938299   0.000000
   36        1.995735   0.000000
   37        2.091330   0.000000
   38        2.350722   0.000000
 
  0.4285714E+00  0.2857143E+00  0.0000000E+00  0.1632653E+00
    1      -35.259260   1.000000
    2      -33.888425   1.000000
    3      -18.343842   1.000000
    4      -17.949566   1.000000
    5      -17.910531   1.000000
    6      -17.503810   1.000000
    7      -17.310698   1.000000
    8      -17.103534   1.000000
    9      -17.078774   1.000000
   10      -16.968869   1.000000
   11      -16.530950   1.000000
   12      -15.884052   1.000000
   13      -15.824169   1.000000
   14      -15.740069   1.000000
   15       -5.542588   1.000000
   16       -5.115657   1.000000
   17       -5.046613   1.000000
   18       -4.877517   1.000000
   19       -4.851739   1.000000
   20       -4.783956   1.000000
   21       -4.513303   1.000000
   22       -4.200978   1.000000
   23       -4.071478   1.000000
   24       -3.802964   1.000000
   25       -3.518620   1.000000
   26       -2.879693   1.000000
   27       -2.415183   1.000000
   28       -2.260512   1.000000
   29       -1.892902   1.000000
   30       -1.850931   1.000000
   31       -1.612431   1.000000
   32       -0.910579   1.000000
   33        1.636085   0.000000
   34        2.120082   0.000000
   35        2.180470   0.000000
   36        2.303777   0.000000
   37        2.417855   0.000000
   38        2.552834   0.000000
 
  0.4285714E+00  0.4285714E+00  0.0000000E+00  0.8163265E-01
    1      -35.254402   1.000000
    2      -33.882777   1.000000
    3      -18.092009   1.000000
    4      -17.942314   1.000000
    5      -17.830679   1.000000
    6      -17.481534   1.000000
    7      -17.235372   1.000000
    8      -17.160663   1.000000
    9      -16.977071   1.000000
   10      -16.911814   1.000000
   11      -16.795758   1.000000
   12      -15.966842   1.000000
   13      -15.822075   1.000000
   14      -15.798679   1.000000
   15       -5.670463   1.000000
   16       -5.423508   1.000000
   17       -5.326519   1.000000
   18       -5.119709   1.000000
   19       -4.864178   1.000000
   20       -4.794245   1.000000
   21       -4.720540   1.000000
   22       -4.663450   1.000000
   23       -4.401404   1.000000
   24       -3.781283   1.000000
   25       -3.747968   1.000000
   26       -2.821936   1.000000
   27       -2.330449   1.000000
   28       -2.268144   1.000000
   29       -1.646518   1.000000
   30       -1.610283   1.000000
   31       -1.506772   1.000000
   32       -0.580114   1.000000
   33        2.159665   0.000000
   34        2.241475   0.000000
   35        2.472597   0.000000
   36        2.544303   0.000000
   37        3.473524   0.000000
   38        6.232363   0.000000
