 vasp.5.4.4.18Apr17-6-g9f103f2a35 (build Jun 30 2017 11:15:00) complex          
  
 executed on    STALLO_VASP_5.4.4 date 2019.11.04  15:05:40
 running on    4 total cores
 distrk:  each k-point on    4 cores,    1 groups
 distr:  one band on NCORES_PER_BAND=   2 cores,    2 groups


--------------------------------------------------------------------------------------------------------


 INCAR:
 POTCAR:   PAW_PBE O 08Apr2002                    
 POTCAR:   PAW_PBE Sr_sv 07Sep2000                
 POTCAR:   PAW_PBE Ti 08Apr2002                   
 POTCAR:   PAW_PBE O 08Apr2002                    
   VRHFIN =O: s2p4                                                              
   LEXCH  = PE                                                                  
   EATOM  =   432.3788 eV,   31.7789 Ry                                         
                                                                                
   TITEL  = PAW_PBE O 08Apr2002                                                 
   LULTRA =        F    use ultrasoft PP ?                                      
   IUNSCR =        0    unscreen: 0-lin 1-nonlin 2-no                           
   RPACOR =     .000    partial core radius                                     
   POMASS =   16.000; ZVAL   =    6.000    mass and valenz                      
   RCORE  =    1.520    outmost cutoff radius                                   
   RWIGS  =    1.550; RWIGS  =     .820    wigner-seitz radius (au A)           
   ENMAX  =  400.000; ENMIN  =  300.000 eV                                      
   ICORE  =        2    local potential                                         
   LCOR   =        T    correct aug charges                                     
   LPAW   =        T    paw PP                                                  
   EAUG   =  605.392                                                            
   DEXC   =     .000                                                            
   RMAX   =    2.264    core radius for proj-oper                               
   RAUG   =    1.300    factor for augmentation sphere                          
   RDEP   =    1.550    radius for radial grids                                 
   QCUT   =   -5.520; QGAM   =   11.041    optimization parameters              
                                                                                
   Description                                                                  
     l     E      TYP  RCUT    TYP  RCUT                                        
     0   .000     23  1.200                                                     
     0  -.700     23  1.200                                                     
     1   .000     23  1.520                                                     
     1   .600     23  1.520                                                     
     2   .000      7  1.500                                                     
  local pseudopotential read in
  atomic valenz-charges read in
  non local Contribution for L=           0  read in
    real space projection operators read in
  non local Contribution for L=           0  read in
    real space projection operators read in
  non local Contribution for L=           1  read in
    real space projection operators read in
  non local Contribution for L=           1  read in
    real space projection operators read in
    PAW grid and wavefunctions read in
 
   number of l-projection  operators is LMAX  =           4
   number of lm-projection operators is LMMAX =           8
 
 POTCAR:   PAW_PBE Sr_sv 07Sep2000                
   VRHFIN =Sr: 4s4p5s                                                           
   LEXCH  = PE                                                                  
   EATOM  =   842.4562 eV,   61.9188 Ry                                         
                                                                                
   TITEL  = PAW_PBE Sr_sv 07Sep2000                                             
   LULTRA =        F    use ultrasoft PP ?                                      
   IUNSCR =        1    unscreen: 0-lin 1-nonlin 2-no                           
   RPACOR =    2.200    partial core radius                                     
   POMASS =   87.620; ZVAL   =   10.000    mass and valenz                      
   RCORE  =    2.500    outmost cutoff radius                                   
   RWIGS  =    4.040; RWIGS  =    2.138    wigner-seitz radius (au A)           
   ENMAX  =  229.282; ENMIN  =  171.961 eV                                      
   RCLOC  =    2.201    cutoff for local pot                                    
   LCOR   =        T    correct aug charges                                     
   LPAW   =        T    paw PP                                                  
   EAUG   =  366.804                                                            
   DEXC   =     .000                                                            
   RMAX   =    3.045    core radius for proj-oper                               
   RAUG   =    1.300    factor for augmentation sphere                          
   RDEP   =    2.562    radius for radial grids                                 
   QCUT   =   -4.105; QGAM   =    8.210    optimization parameters              
                                                                                
   Description                                                                  
     l     E      TYP  RCUT    TYP  RCUT                                        
     0   .000     23  2.480                                                     
     0   .000     23  2.480                                                     
     1   .000     23  2.500                                                     
     1   .000     23  2.500                                                     
     2   .000     23  2.500                                                     
     2   .000     23  2.500                                                     
  local pseudopotential read in
  partial core-charges read in
  atomic valenz-charges read in
  non local Contribution for L=           0  read in
    real space projection operators read in
  non local Contribution for L=           0  read in
    real space projection operators read in
  non local Contribution for L=           1  read in
    real space projection operators read in
  non local Contribution for L=           1  read in
    real space projection operators read in
  non local Contribution for L=           2  read in
    real space projection operators read in
  non local Contribution for L=           2  read in
    real space projection operators read in
    PAW grid and wavefunctions read in
 
   number of l-projection  operators is LMAX  =           6
   number of lm-projection operators is LMMAX =          18
 
 POTCAR:   PAW_PBE Ti 08Apr2002                   
   VRHFIN =Ti: d3 s1                                                            
   LEXCH  = PE                                                                  
   EATOM  =    94.7929 eV,    6.9671 Ry                                         
                                                                                
   TITEL  = PAW_PBE Ti 08Apr2002                                                
   LULTRA =        F    use ultrasoft PP ?                                      
   IUNSCR =        1    unscreen: 0-lin 1-nonlin 2-no                           
   RPACOR =    2.200    partial core radius                                     
   POMASS =   47.880; ZVAL   =    4.000    mass and valenz                      
   RCORE  =    2.800    outmost cutoff radius                                   
   RWIGS  =    2.500; RWIGS  =    1.323    wigner-seitz radius (au A)           
   ENMAX  =  178.330; ENMIN  =  133.747 eV                                      
   RCLOC  =    2.215    cutoff for local pot                                    
   LCOR   =        T    correct aug charges                                     
   LPAW   =        T    paw PP                                                  
   EAUG   =  328.883                                                            
   DEXC   =    -.043                                                            
   RMAX   =    3.453    core radius for proj-oper                               
   RAUG   =    1.300    factor for augmentation sphere                          
   RDEP   =    2.885    radius for radial grids                                 
   QCUT   =   -3.620; QGAM   =    7.241    optimization parameters              
                                                                                
   Description                                                                  
     l     E      TYP  RCUT    TYP  RCUT                                        
     2   .000     23  2.800                                                     
     2   .000     23  2.800                                                     
     0   .000     23  2.800                                                     
     0  1.500     23  2.800                                                     
     1  -.400     23  2.800                                                     
     3   .000      7   .000                                                     
  local pseudopotential read in
  partial core-charges read in
  atomic valenz-charges read in
  non local Contribution for L=           2  read in
    real space projection operators read in
  non local Contribution for L=           2  read in
    real space projection operators read in
  non local Contribution for L=           0  read in
    real space projection operators read in
  non local Contribution for L=           0  read in
    real space projection operators read in
  non local Contribution for L=           1  read in
    real space projection operators read in
    PAW grid and wavefunctions read in
 
   number of l-projection  operators is LMAX  =           5
   number of lm-projection operators is LMMAX =          15
 
 PAW_PBE O 08Apr2002                    :
 energy of atom  1       EATOM= -432.3788
 kinetic energy error for atom=    0.0224 (will be added to EATOM!!)
 PAW_PBE Sr_sv 07Sep2000                :
 energy of atom  2       EATOM= -842.4562
 kinetic energy error for atom=    0.0012 (will be added to EATOM!!)
 PAW_PBE Ti 08Apr2002                   :
 energy of atom  3       EATOM=  -94.7929
 kinetic energy error for atom=    0.0002 (will be added to EATOM!!)
 
 
 POSCAR:  O Sr Ti                                
  positions in direct lattice
  No initial velocities read in
 exchange correlation table for  LEXCH =        8
   RHO(1)=    0.500       N(1)  =     2000
   RHO(2)=  100.500       N(2)  =     4000
 


--------------------------------------------------------------------------------------------------------


 ion  position               nearest neighbor table
   1  0.500  0.500  0.335-   9 1.97   7 2.79   7 2.79   7 2.79   7 2.79
   2  0.500  0.000  0.445-   9 1.97   9 1.97   7 2.79   7 2.79   8 2.79   8 2.79
   3  0.000  0.500  0.445-   9 1.97   9 1.97   7 2.79   7 2.79   8 2.79   8 2.79
   4  0.500  0.500  0.555-  10 1.97   9 1.97   8 2.79   8 2.79   8 2.79   8 2.79
   5  0.500  0.000  0.665-  10 1.97  10 1.97   8 2.79   8 2.79
   6  0.000  0.500  0.665-  10 1.97  10 1.97   8 2.79   8 2.79
   7  0.000  0.000  0.335-   2 2.79   3 2.79   3 2.79   2 2.79   1 2.79   1 2.79   1 2.79   1 2.79
                             9 3.42   9 3.42   9 3.42   9 3.42   8 3.95
   8  0.000  0.000  0.555-   5 2.79   6 2.79   6 2.79   5 2.79   4 2.79   4 2.79   4 2.79   4 2.79
                             2 2.79   3 2.79   3 2.79   2 2.79  10 3.42  10 3.42  10 3.42  10 3.42
   9  0.500  0.500  0.445-   1 1.97   2 1.97   3 1.97   2 1.97   3 1.97   4 1.97   7 3.42   7 3.42
                             7 3.42   7 3.42   8 3.42   8 3.42   8 3.42   8 3.42
  10  0.500  0.500  0.665-   4 1.97   5 1.97   6 1.97   5 1.97   6 1.97   8 3.42   8 3.42   8 3.42
                             8 3.42
 
  LATTYP: Found a simple tetragonal cell.
 ALAT       =     3.9468463416
 C/A-ratio  =     4.5404021240
  
  Lattice vectors:
  
 A1 = (   3.9468463416,   0.0000000000,   0.0000000000)
 A2 = (   0.0000000000,   3.9468463416,   0.0000000000)
 A3 = (   0.0000000000,   0.0000000000,  17.9202695124)


Analysis of symmetry for initial positions (statically):
=====================================================================
 Subroutine PRICEL returns:
 Original cell was already a primitive cell.
 

 Routine SETGRP: Setting up the symmetry group for a 
 simple tetragonal supercell.


 Subroutine GETGRP returns: Found  8 space group operations
 (whereof  8 operations were pure point group operations)
 out of a pool of 16 trial point group operations.


The static configuration has the point symmetry C_4v.


Analysis of symmetry for dynamics (positions and initial velocities):
=====================================================================
 Subroutine PRICEL returns:
 Original cell was already a primitive cell.
 

 Routine SETGRP: Setting up the symmetry group for a 
 simple tetragonal supercell.


 Subroutine GETGRP returns: Found  8 space group operations
 (whereof  8 operations were pure point group operations)
 out of a pool of 16 trial point group operations.


The dynamic configuration has the point symmetry C_4v.


 Subroutine INISYM returns: Found  8 space group operations
 (whereof  8 operations are pure point group operations),
 and found     1 'primitive' translations

 
 
 KPOINTS: k-density: 4.0                          

Automatic generation of k-mesh.
Space group operators:
 irot       det(A)        alpha          n_x          n_y          n_z        tau_x        tau_y        tau_z
    1     1.000000     0.000000     1.000000     0.000000     0.000000     0.000000     0.000000     0.000000
    2     1.000000    90.000000     0.000000     0.000000    -1.000000     0.000000     0.000000     0.000000
    3     1.000000   180.000000     0.000000     0.000000     1.000000     0.000000     0.000000     0.000000
    4     1.000000    90.000000     0.000000     0.000000     1.000000     0.000000     0.000000     0.000000
    5    -1.000000   180.000000     0.000000     1.000000     0.000000     0.000000     0.000000     0.000000
    6    -1.000000   180.000000     0.707107     0.707107     0.000000     0.000000     0.000000     0.000000
    7    -1.000000   180.000000     1.000000     0.000000     0.000000     0.000000     0.000000     0.000000
    8    -1.000000   180.000000     0.707107    -0.707107     0.000000     0.000000     0.000000     0.000000
 
 Subroutine IBZKPT returns following result:
 ===========================================
 
 Found     10 irreducible k-points:
 
 Following reciprocal coordinates:
            Coordinates               Weight
  0.000000  0.000000  0.000000      1.000000
  0.142857  0.000000  0.000000      4.000000
  0.285714  0.000000  0.000000      4.000000
  0.428571  0.000000  0.000000      4.000000
  0.142857  0.142857  0.000000      4.000000
  0.285714  0.142857  0.000000      8.000000
  0.428571  0.142857  0.000000      8.000000
  0.285714  0.285714  0.000000      4.000000
  0.428571  0.285714  0.000000      8.000000
  0.428571  0.428571  0.000000      4.000000
 
 Following cartesian coordinates:
            Coordinates               Weight
  0.000000  0.000000  0.000000      1.000000
  0.036195  0.000000  0.000000      4.000000
  0.072391  0.000000  0.000000      4.000000
  0.108586  0.000000  0.000000      4.000000
  0.036195  0.036195  0.000000      4.000000
  0.072391  0.036195  0.000000      8.000000
  0.108586  0.036195  0.000000      8.000000
  0.072391  0.072391  0.000000      4.000000
  0.108586  0.072391  0.000000      8.000000
  0.108586  0.108586  0.000000      4.000000
 
 TETIRR: Found     65 inequivalent tetrahedra from      294


--------------------------------------------------------------------------------------------------------




 Dimension of arrays:
   k-points           NKPTS =     10   k-points in BZ     NKDIM =     10   number of bands    NBANDS=     38
   number of dos      NEDOS =    301   number of ions     NIONS =     10
   non local maximal  LDIM  =      6   non local SUM 2l+1 LMDIM =     18
   total plane-waves  NPLWV =  56448
   max r-space proj   IRMAX =      1   max aug-charges    IRDMAX=  14163
   dimension x,y,z NGX =    24 NGY =   24 NGZ =   98
   dimension x,y,z NGXF=    48 NGYF=   48 NGZF=  196
   support grid    NGXF=    48 NGYF=   48 NGZF=  196
   ions per type =               6   2   2
   NGX,Y,Z   is equivalent  to a cutoff of  10.11, 10.11,  9.09 a.u.
   NGXF,Y,Z  is equivalent  to a cutoff of  20.22, 20.22, 18.18 a.u.

 SYSTEM =  unknown system                          
 POSCAR =   O Sr Ti                                

 Startparameter for this run:
   NWRITE =      2    write-flag & timer
   PREC   = normal    normal or accurate (medium, high low for compatibility)
   ISTART =      0    job   : 0-new  1-cont  2-samecut
   ICHARG =      2    charge: 1-file 2-atom 10-const
   ISPIN  =      1    spin polarized calculation?
   LNONCOLLINEAR =      F non collinear calculations
   LSORBIT =      F    spin-orbit coupling
   INIWAV =      1    electr: 0-lowe 1-rand  2-diag
   LASPH  =      F    aspherical Exc in radial PAW
   METAGGA=      F    non-selfconsistent MetaGGA calc.

 Electronic Relaxation 1
   ENCUT  =  500.0 eV  36.75 Ry    6.06 a.u.   7.20  7.20 32.67*2*pi/ulx,y,z
   ENINI  =  500.0     initial cutoff
   ENAUG  =  605.4 eV  augmentation charge cutoff
   NELM   =     60;   NELMIN=  4; NELMDL= -5     # of ELM steps 
   EDIFF  = 0.1E-04   stopping-criterion for ELM
   LREAL  =      F    real-space projection
   NLSPLINE    = F    spline interpolate recip. space projectors
   LCOMPAT=      F    compatible to vasp.4.4
   GGA_COMPAT  = T    GGA compatible to vasp.4.4-vasp.4.6
   LMAXPAW     = -100 max onsite density
   LMAXMIX     =    2 max onsite mixed and CHGCAR
   VOSKOWN=      0    Vosko Wilk Nusair interpolation
   ROPT   =    0.00000   0.00000   0.00000
 Ionic relaxation
   EDIFFG = 0.1E-03   stopping-criterion for IOM
   NSW    =      0    number of steps for IOM
   NBLOCK =      1;   KBLOCK =      1    inner block; outer block 
   IBRION =     -1    ionic relax: 0-MD 1-quasi-New 2-CG
   NFREE  =      0    steps in history (QN), initial steepest desc. (CG)
   ISIF   =      2    stress and relaxation
   IWAVPR =     10    prediction:  0-non 1-charg 2-wave 3-comb
   ISYM   =      2    0-nonsym 1-usesym 2-fastsym
   LCORR  =      T    Harris-Foulkes like correction to forces

   POTIM  = 0.5000    time-step for ionic-motion
   TEIN   =    0.0    initial temperature
   TEBEG  =    0.0;   TEEND  =   0.0 temperature during run
   SMASS  =  -3.00    Nose mass-parameter (am)
   estimated Nose-frequenzy (Omega)   =  0.10E-29 period in steps =****** mass=  -0.356E-27a.u.
   SCALEE = 1.0000    scale energy and forces
   NPACO  =    256;   APACO  = 16.0  distance and # of slots for P.C.
   PSTRESS=    0.0 pullay stress

  Mass of Ions in am
   POMASS =  16.00 87.62 47.88
  Ionic Valenz
   ZVAL   =   6.00 10.00  4.00
  Atomic Wigner-Seitz radii
   RWIGS  =  -1.00 -1.00 -1.00
  virtual crystal weights 
   VCA    =   1.00  1.00  1.00
   NELECT =      64.0000    total number of electrons
   NUPDOWN=      -1.0000    fix difference up-down

 DOS related values:
   EMIN   =  10.00;   EMAX   =-10.00  energy-range for DOS
   EFERMI =   0.00
   ISMEAR =    -5;   SIGMA  =   0.20  broadening in eV -4-tet -1-fermi 0-gaus

 Electronic relaxation 2 (details)
   IALGO  =     68    algorithm
   LDIAG  =      T    sub-space diagonalisation (order eigenvalues)
   LSUBROT=      F    optimize rotation matrix (better conditioning)
   TURBO    =      0    0=normal 1=particle mesh
   IRESTART =      0    0=no restart 2=restart with 2 vectors
   NREBOOT  =      0    no. of reboots
   NMIN     =      0    reboot dimension
   EREF     =   0.00    reference energy to select bands
   IMIX   =      4    mixing-type and parameters
     AMIX     =   0.40;   BMIX     =  1.00
     AMIX_MAG =   1.60;   BMIX_MAG =  1.00
     AMIN     =   0.10
     WC   =   100.;   INIMIX=   1;  MIXPRE=   1;  MAXMIX= -45

 Intra band minimization:
   WEIMIN = 0.0000     energy-eigenvalue tresh-hold
   EBREAK =  0.66E-07  absolut break condition
   DEPER  =   0.30     relativ break condition  

   TIME   =   0.40     timestep for ELM

  volume/ion in A,a.u.               =      27.92       188.38
  Fermi-wavevector in a.u.,A,eV,Ry     =   1.001966  1.893442 13.659388  1.003937
  Thomas-Fermi vector in A             =   2.134423
 
 Write flags
   LWAVE        =      F    write WAVECAR
   LDOWNSAMPLE  =      F    k-point downsampling of WAVECAR
   LCHARG       =      T    write CHGCAR
   LVTOT        =      F    write LOCPOT, total local potential
   LVHAR        =      F    write LOCPOT, Hartree potential only
   LELF         =      F    write electronic localiz. function (ELF)
   LORBIT       =      0    0 simple, 1 ext, 2 COOP (PROOUT), +10 PAW based schemes


 Dipole corrections
   LMONO  =      F    monopole corrections only (constant potential shift)
   LDIPOL =      F    correct potential (dipole corrections)
   IDIPOL =      0    1-x, 2-y, 3-z, 4-all directions 
   EPSILON=  1.0000000 bulk dielectric constant

 Exchange correlation treatment:
   GGA     =    --    GGA type
   LEXCH   =     8    internal setting for exchange type
   VOSKOWN=      0    Vosko Wilk Nusair interpolation
   LHFCALC =     F    Hartree Fock is set to
   LHFONE  =     F    Hartree Fock one center treatment
   AEXX    =    0.0000 exact exchange contribution

 Linear response parameters
   LEPSILON=     F    determine dielectric tensor
   LRPA    =     F    only Hartree local field effects (RPA)
   LNABLA  =     F    use nabla operator in PAW spheres
   LVEL    =     F    velocity operator in full k-point grid
   LINTERFAST=   F  fast interpolation
   KINTER  =     0    interpolate to denser k-point grid
   CSHIFT  =0.1000    complex shift for real part using Kramers Kronig
   OMEGAMAX=  -1.0    maximum frequency
   DEG_THRESHOLD= 0.2000000E-02 threshold for treating states as degnerate
   RTIME   =   -0.100 relaxation time in fs
  (WPLASMAI=    0.000 imaginary part of plasma frequency in eV, 0.658/RTIME)
   DFIELD  = 0.0000000 0.0000000 0.0000000 field for delta impulse in time
 
 Orbital magnetization related:
   ORBITALMAG=     F  switch on orbital magnetization
   LCHIMAG   =     F  perturbation theory with respect to B field
   DQ        =  0.001000  dq finite difference perturbation B field
   LLRAUG    =     F  two centre corrections for induced B field



--------------------------------------------------------------------------------------------------------


 Static calculation
 charge density and potential will be updated during run
 non-spin polarized calculation
 RMM-DIIS sequential band-by-band and
  variant of blocked Davidson during initial phase
 perform sub-space diagonalisation
    before iterative eigenvector-optimisation
 modified Broyden-mixing scheme, WC =      100.0
 initial mixing is a Kerker type mixing with AMIX =  0.4000 and BMIX =      1.0000
 Hartree-type preconditioning will be used
 using additional bands            6
 reciprocal scheme for non local part
 use partial core corrections
 calculate Harris-corrections to forces 
   (improved forces if not selfconsistent)
 use gradient corrections 
 use of overlap-Matrix (Vanderbilt PP)
 Fermi weights with tetrahedron method with Bloechl corrections


--------------------------------------------------------------------------------------------------------


  energy-cutoff  :      500.00
  volume of cell :      279.15
      direct lattice vectors                 reciprocal lattice vectors
     3.946846342  0.000000000  0.000000000     0.253366844  0.000000000  0.000000000
     0.000000000  3.946846342  0.000000000     0.000000000  0.253366844  0.000000000
     0.000000000  0.000000000 17.920269512     0.000000000  0.000000000  0.055802732

  length of vectors
     3.946846342  3.946846342 17.920269512     0.253366844  0.253366844  0.055802732


 
 k-points in units of 2pi/SCALE and weight: k-density: 4.0                          
   0.00000000  0.00000000  0.00000000       0.020
   0.03619526  0.00000000  0.00000000       0.082
   0.07239053  0.00000000  0.00000000       0.082
   0.10858579  0.00000000  0.00000000       0.082
   0.03619526  0.03619526  0.00000000       0.082
   0.07239053  0.03619526  0.00000000       0.163
   0.10858579  0.03619526  0.00000000       0.163
   0.07239053  0.07239053  0.00000000       0.082
   0.10858579  0.07239053  0.00000000       0.163
   0.10858579  0.10858579  0.00000000       0.082
 
 k-points in reciprocal lattice and weights: k-density: 4.0                          
   0.00000000  0.00000000  0.00000000       0.020
   0.14285714  0.00000000  0.00000000       0.082
   0.28571429  0.00000000  0.00000000       0.082
   0.42857143  0.00000000  0.00000000       0.082
   0.14285714  0.14285714  0.00000000       0.082
   0.28571429  0.14285714  0.00000000       0.163
   0.42857143  0.14285714  0.00000000       0.163
   0.28571429  0.28571429  0.00000000       0.082
   0.42857143  0.28571429  0.00000000       0.163
   0.42857143  0.42857143  0.00000000       0.082
 
 position of ions in fractional coordinates (direct lattice) 
   0.50000000  0.50000000  0.33481639
   0.50000000  0.00000000  0.44493880
   0.00000000  0.50000000  0.44493880
   0.50000000  0.50000000  0.55506120
   0.50000000  0.00000000  0.66518361
   0.00000000  0.50000000  0.66518361
   0.00000000  0.00000000  0.33481639
   0.00000000  0.00000000  0.55506120
   0.50000000  0.50000000  0.44493880
   0.50000000  0.50000000  0.66518361
 
 position of ions in cartesian coordinates  (Angst):
   1.97342317  1.97342317  6.00000000
   1.97342317  0.00000000  7.97342317
   0.00000000  1.97342317  7.97342317
   1.97342317  1.97342317  9.94684634
   1.97342317  0.00000000 11.92026951
   0.00000000  1.97342317 11.92026951
   0.00000000  0.00000000  6.00000000
   0.00000000  0.00000000  9.94684634
   1.97342317  1.97342317  7.97342317
   1.97342317  1.97342317 11.92026951
 


--------------------------------------------------------------------------------------------------------


 k-point  1 :   0.0000 0.0000 0.0000  plane waves:    7081
 k-point  2 :   0.1429 0.0000 0.0000  plane waves:    7073
 k-point  3 :   0.2857 0.0000 0.0000  plane waves:    7094
 k-point  4 :   0.4286 0.0000 0.0000  plane waves:    7102
 k-point  5 :   0.1429 0.1429 0.0000  plane waves:    7074
 k-point  6 :   0.2857 0.1429 0.0000  plane waves:    7087
 k-point  7 :   0.4286 0.1429 0.0000  plane waves:    7089
 k-point  8 :   0.2857 0.2857 0.0000  plane waves:    7090
 k-point  9 :   0.4286 0.2857 0.0000  plane waves:    7082
 k-point 10 :   0.4286 0.4286 0.0000  plane waves:    7100

 maximum and minimum number of plane-waves per node :      3556     3525

 maximum number of plane-waves:      7102
 maximum index in each direction: 
   IXMAX=    7   IYMAX=    7   IZMAX=   32
   IXMIN=   -7   IYMIN=   -7   IZMIN=  -32


 parallel 3D FFT for wavefunctions:
    minimum data exchange during FFTs selected (reduces bandwidth)
 parallel 3D FFT for charge:
    minimum data exchange during FFTs selected (reduces bandwidth)


 total amount of memory used by VASP MPI-rank0    70089. kBytes
=======================================================================

   base      :      30000. kBytes
   nonl-proj :      15930. kBytes
   fftplans  :       4682. kBytes
   grid      :       8414. kBytes
   one-center:         77. kBytes
   wavefun   :      10986. kBytes
 
     INWAV:  cpu time    0.0000: real time    0.0000
 Broyden mixing: mesh for mixing (old mesh)
   NGX = 15   NGY = 15   NGZ = 65
  (NGX  = 48   NGY  = 48   NGZ  =196)
  gives a total of  14625 points

 initial charge density was supplied:
 charge density of overlapping atoms calculated
 number of electron      64.0000000 magnetization 
 keeping initial charge density in first step


--------------------------------------------------------------------------------------------------------


 Maximum index for augmentation-charges         3380 (set IRDMAX)


--------------------------------------------------------------------------------------------------------


 First call to EWALD:  gamma=   0.271
 Maximum number of real-space cells 4x 4x 1
 Maximum number of reciprocal cells 2x 2x 7

    FEWALD:  cpu time    0.0010: real time    0.0015


--------------------------------------- Iteration      1(   1)  ---------------------------------------


    POTLOK:  cpu time    0.0680: real time    0.1103
    SETDIJ:  cpu time    0.0070: real time    0.0074
     EDDAV:  cpu time    1.1418: real time    1.1473
 BZINTS: Fermi energy: 11.822336; 64.000000 electrons
         Band energy: -85.110581;  BLOECHL correction: -0.103472
       DOS:  cpu time    0.0030: real time    0.0036
    --------------------------------------------
      LOOP:  cpu time    1.2198: real time    1.2687

 eigenvalue-minimisations  :   760
 total energy-change (2. order) : 0.7620991E+03  (-0.2731073E+04)
 number of electron      64.0000000 magnetization 
 augmentation part       64.0000000 magnetization 

 Free energy of the ion-electron system (eV)
  ---------------------------------------------------
  alpha Z        PSCENC =       158.22566922
  Ewald energy   TEWEN  =      7862.55840796
  -Hartree energ DENC   =    -11901.37892223
  -exchange      EXHF   =         0.00000000
  -V(xc)+E(xc)   XCENC  =       161.51333474
  PAW double counting   =      2667.22594505    -2569.56892128
  entropy T*S    EENTRO =         0.00000000
  eigenvalues    EBANDS =       -85.11058133
  atomic energy  EATOM  =      4468.63412509
  Solvation  Ediel_sol  =         0.00000000
  ---------------------------------------------------
  free energy    TOTEN  =       762.09905723 eV

  energy without entropy =      762.09905723  energy(sigma->0) =      762.09905723


--------------------------------------------------------------------------------------------------------




--------------------------------------- Iteration      1(   2)  ---------------------------------------


     EDDAV:  cpu time    1.4298: real time    1.4508
 BZINTS: Fermi energy:  2.011930; 64.000000 electrons
         Band energy:-779.219910;  BLOECHL correction: -0.005318
       DOS:  cpu time    0.0030: real time    0.0037
    --------------------------------------------
      LOOP:  cpu time    1.4328: real time    1.4545

 eigenvalue-minimisations  :  1026
 total energy-change (2. order) :-0.6941093E+03  (-0.6740908E+03)
 number of electron      64.0000000 magnetization 
 augmentation part       64.0000000 magnetization 

 Free energy of the ion-electron system (eV)
  ---------------------------------------------------
  alpha Z        PSCENC =       158.22566922
  Ewald energy   TEWEN  =      7862.55840796
  -Hartree energ DENC   =    -11901.37892223
  -exchange      EXHF   =         0.00000000
  -V(xc)+E(xc)   XCENC  =       161.51333474
  PAW double counting   =      2667.22594505    -2569.56892128
  entropy T*S    EENTRO =         0.00000000
  eigenvalues    EBANDS =      -779.21991018
  atomic energy  EATOM  =      4468.63412509
  Solvation  Ediel_sol  =         0.00000000
  ---------------------------------------------------
  free energy    TOTEN  =        67.98972838 eV

  energy without entropy =       67.98972838  energy(sigma->0) =       67.98972838


--------------------------------------------------------------------------------------------------------




--------------------------------------- Iteration      1(   3)  ---------------------------------------


     EDDAV:  cpu time    1.4228: real time    1.4244
 BZINTS: Fermi energy: -4.656222; 64.000000 electrons
         Band energy:-939.035332;  BLOECHL correction:  0.000000
       DOS:  cpu time    0.0010: real time    0.0010
    --------------------------------------------
      LOOP:  cpu time    1.4238: real time    1.4254

 eigenvalue-minimisations  :  1018
 total energy-change (2. order) :-0.1598154E+03  (-0.1584238E+03)
 number of electron      64.0000000 magnetization 
 augmentation part       64.0000000 magnetization 

 Free energy of the ion-electron system (eV)
  ---------------------------------------------------
  alpha Z        PSCENC =       158.22566922
  Ewald energy   TEWEN  =      7862.55840796
  -Hartree energ DENC   =    -11901.37892223
  -exchange      EXHF   =         0.00000000
  -V(xc)+E(xc)   XCENC  =       161.51333474
  PAW double counting   =      2667.22594505    -2569.56892128
  entropy T*S    EENTRO =         0.00000000
  eigenvalues    EBANDS =      -939.03533201
  atomic energy  EATOM  =      4468.63412509
  Solvation  Ediel_sol  =         0.00000000
  ---------------------------------------------------
  free energy    TOTEN  =       -91.82569345 eV

  energy without entropy =      -91.82569345  energy(sigma->0) =      -91.82569345


--------------------------------------------------------------------------------------------------------




--------------------------------------- Iteration      1(   4)  ---------------------------------------


     EDDAV:  cpu time    1.4698: real time    1.4726
 BZINTS: Fermi energy: -6.380275; 64.000000 electrons
         Band energy:-948.295862;  BLOECHL correction:  0.000000
       DOS:  cpu time    0.0000: real time    0.0007
    --------------------------------------------
      LOOP:  cpu time    1.4698: real time    1.4734

 eigenvalue-minimisations  :  1064
 total energy-change (2. order) :-0.9260530E+01  (-0.9241555E+01)
 number of electron      64.0000000 magnetization 
 augmentation part       64.0000000 magnetization 

 Free energy of the ion-electron system (eV)
  ---------------------------------------------------
  alpha Z        PSCENC =       158.22566922
  Ewald energy   TEWEN  =      7862.55840796
  -Hartree energ DENC   =    -11901.37892223
  -exchange      EXHF   =         0.00000000
  -V(xc)+E(xc)   XCENC  =       161.51333474
  PAW double counting   =      2667.22594505    -2569.56892128
  entropy T*S    EENTRO =         0.00000000
  eigenvalues    EBANDS =      -948.29586189
  atomic energy  EATOM  =      4468.63412509
  Solvation  Ediel_sol  =         0.00000000
  ---------------------------------------------------
  free energy    TOTEN  =      -101.08622333 eV

  energy without entropy =     -101.08622333  energy(sigma->0) =     -101.08622333


--------------------------------------------------------------------------------------------------------




--------------------------------------- Iteration      1(   5)  ---------------------------------------


     EDDAV:  cpu time    1.6268: real time    1.6285
 BZINTS: Fermi energy: -6.418473; 64.000000 electrons
         Band energy:-948.696359;  BLOECHL correction:  0.000000
       DOS:  cpu time    0.0010: real time    0.0006
    CHARGE:  cpu time    0.0730: real time    0.0734
    MIXING:  cpu time    0.0020: real time    0.0021
    --------------------------------------------
      LOOP:  cpu time    1.7027: real time    1.7048

 eigenvalue-minimisations  :  1208
 total energy-change (2. order) :-0.4004968E+00  (-0.4002834E+00)
 number of electron      63.9999893 magnetization 
 augmentation part        6.8386840 magnetization 

 Broyden mixing:
  rms(total) = 0.26581E+01    rms(broyden)= 0.26576E+01
  rms(prec ) = 0.30325E+01
  weight for this iteration     100.00

 Free energy of the ion-electron system (eV)
  ---------------------------------------------------
  alpha Z        PSCENC =       158.22566922
  Ewald energy   TEWEN  =      7862.55840796
  -Hartree energ DENC   =    -11901.37892223
  -exchange      EXHF   =         0.00000000
  -V(xc)+E(xc)   XCENC  =       161.51333474
  PAW double counting   =      2667.22594505    -2569.56892128
  entropy T*S    EENTRO =         0.00000000
  eigenvalues    EBANDS =      -948.69635866
  atomic energy  EATOM  =      4468.63412509
  Solvation  Ediel_sol  =         0.00000000
  ---------------------------------------------------
  free energy    TOTEN  =      -101.48672010 eV

  energy without entropy =     -101.48672010  energy(sigma->0) =     -101.48672010


--------------------------------------------------------------------------------------------------------




--------------------------------------- Iteration      1(   6)  ---------------------------------------


    POTLOK:  cpu time    0.0620: real time    0.0660
    SETDIJ:  cpu time    0.0080: real time    0.0072
    EDDIAG:  cpu time    0.1830: real time    0.1838
  RMM-DIIS:  cpu time    0.9878: real time    0.9875
    ORTHCH:  cpu time    0.0260: real time    0.0262
 BZINTS: Fermi energy: -1.895709; 64.000000 electrons
         Band energy:-778.291265;  BLOECHL correction: -0.018960
       DOS:  cpu time    0.0040: real time    0.0036
    CHARGE:  cpu time    0.0740: real time    0.0746
    MIXING:  cpu time    0.0020: real time    0.0018
    --------------------------------------------
      LOOP:  cpu time    1.3468: real time    1.3508

 eigenvalue-minimisations  :   879
 total energy-change (2. order) : 0.2056159E+02  (-0.1654989E+02)
 number of electron      63.9999928 magnetization 
 augmentation part        7.2952972 magnetization 

 Broyden mixing:
  rms(total) = 0.11750E+01    rms(broyden)= 0.11741E+01
  rms(prec ) = 0.13178E+01
  weight for this iteration     100.00

 eigenvalues of (default mixing * dielectric matrix)
  average eigenvalue GAMMA=   0.7179
  0.7179

 Free energy of the ion-electron system (eV)
  ---------------------------------------------------
  alpha Z        PSCENC =       158.22566922
  Ewald energy   TEWEN  =      7862.55840796
  -Hartree energ DENC   =    -12054.96030146
  -exchange      EXHF   =         0.00000000
  -V(xc)+E(xc)   XCENC  =       171.74864784
  PAW double counting   =      2969.71807232    -2878.55848298
  entropy T*S    EENTRO =         0.00000000
  eigenvalues    EBANDS =      -778.29126499
  atomic energy  EATOM  =      4468.63412509
  Solvation  Ediel_sol  =         0.00000000
  ---------------------------------------------------
  free energy    TOTEN  =       -80.92512701 eV

  energy without entropy =      -80.92512701  energy(sigma->0) =      -80.92512701


--------------------------------------------------------------------------------------------------------




--------------------------------------- Iteration      1(   7)  ---------------------------------------


    POTLOK:  cpu time    0.0620: real time    0.0656
    SETDIJ:  cpu time    0.0070: real time    0.0072
    EDDIAG:  cpu time    0.1830: real time    0.1831
  RMM-DIIS:  cpu time    0.9549: real time    0.9549
    ORTHCH:  cpu time    0.0270: real time    0.0263
 BZINTS: Fermi energy: -2.588765; 64.000000 electrons
         Band energy:-775.408266;  BLOECHL correction:  0.000000
       DOS:  cpu time    0.0000: real time    0.0008
    CHARGE:  cpu time    0.0740: real time    0.0742
    MIXING:  cpu time    0.0020: real time    0.0019
    --------------------------------------------
      LOOP:  cpu time    1.3098: real time    1.3139

 eigenvalue-minimisations  :   859
 total energy-change (2. order) : 0.2842209E+01  (-0.1167779E+01)
 number of electron      63.9999922 magnetization 
 augmentation part        6.6710068 magnetization 

 Broyden mixing:
  rms(total) = 0.53309E+00    rms(broyden)= 0.53303E+00
  rms(prec ) = 0.59878E+00
  weight for this iteration     100.00

 eigenvalues of (default mixing * dielectric matrix)
  average eigenvalue GAMMA=   0.8228
  0.8228  0.8228

 Free energy of the ion-electron system (eV)
  ---------------------------------------------------
  alpha Z        PSCENC =       158.22566922
  Ewald energy   TEWEN  =      7862.55840796
  -Hartree energ DENC   =    -12050.31272349
  -exchange      EXHF   =         0.00000000
  -V(xc)+E(xc)   XCENC  =       169.34644629
  PAW double counting   =      2960.88108612    -2872.00766299
  entropy T*S    EENTRO =         0.00000000
  eigenvalues    EBANDS =      -775.40826611
  atomic energy  EATOM  =      4468.63412509
  Solvation  Ediel_sol  =         0.00000000
  ---------------------------------------------------
  free energy    TOTEN  =       -78.08291791 eV

  energy without entropy =      -78.08291791  energy(sigma->0) =      -78.08291791


--------------------------------------------------------------------------------------------------------




--------------------------------------- Iteration      1(   8)  ---------------------------------------


    POTLOK:  cpu time    0.0620: real time    0.0645
    SETDIJ:  cpu time    0.0080: real time    0.0071
    EDDIAG:  cpu time    0.1820: real time    0.1820
  RMM-DIIS:  cpu time    1.1008: real time    1.1006
    ORTHCH:  cpu time    0.0260: real time    0.0262
 BZINTS: Fermi energy: -2.245055; 64.000000 electrons
         Band energy:-757.659459;  BLOECHL correction:  0.000000
       DOS:  cpu time    0.0000: real time    0.0007
    CHARGE:  cpu time    0.0740: real time    0.0738
    MIXING:  cpu time    0.0020: real time    0.0019
    --------------------------------------------
      LOOP:  cpu time    1.4548: real time    1.4569

 eigenvalue-minimisations  :   983
 total energy-change (2. order) : 0.5318139E+00  (-0.1751510E+00)
 number of electron      63.9999923 magnetization 
 augmentation part        6.8124581 magnetization 

 Broyden mixing:
  rms(total) = 0.28429E+00    rms(broyden)= 0.28428E+00
  rms(prec ) = 0.32970E+00
  weight for this iteration     100.00

 eigenvalues of (default mixing * dielectric matrix)
  average eigenvalue GAMMA=   1.2044
  0.6749  1.0134  1.9249

 Free energy of the ion-electron system (eV)
  ---------------------------------------------------
  alpha Z        PSCENC =       158.22566922
  Ewald energy   TEWEN  =      7862.55840796
  -Hartree energ DENC   =    -12066.25756620
  -exchange      EXHF   =         0.00000000
  -V(xc)+E(xc)   XCENC  =       169.51410136
  PAW double counting   =      2994.62375913    -2907.19014107
  entropy T*S    EENTRO =         0.00000000
  eigenvalues    EBANDS =      -757.65945949
  atomic energy  EATOM  =      4468.63412509
  Solvation  Ediel_sol  =         0.00000000
  ---------------------------------------------------
  free energy    TOTEN  =       -77.55110401 eV

  energy without entropy =      -77.55110401  energy(sigma->0) =      -77.55110401


--------------------------------------------------------------------------------------------------------




--------------------------------------- Iteration      1(   9)  ---------------------------------------


    POTLOK:  cpu time    0.0640: real time    0.0669
    SETDIJ:  cpu time    0.0080: real time    0.0073
    EDDIAG:  cpu time    0.1810: real time    0.1820
  RMM-DIIS:  cpu time    1.0618: real time    1.0611
    ORTHCH:  cpu time    0.0260: real time    0.0261
 BZINTS: Fermi energy: -1.455759; 64.000000 electrons
         Band energy:-728.530916;  BLOECHL correction:  0.000000
       DOS:  cpu time    0.0010: real time    0.0007
    CHARGE:  cpu time    0.0740: real time    0.0740
    MIXING:  cpu time    0.0020: real time    0.0027
    --------------------------------------------
      LOOP:  cpu time    1.4178: real time    1.4208

 eigenvalue-minimisations  :   951
 total energy-change (2. order) : 0.2383934E+00  (-0.1144298E+00)
 number of electron      63.9999922 magnetization 
 augmentation part        6.9003530 magnetization 

 Broyden mixing:
  rms(total) = 0.11467E+00    rms(broyden)= 0.11462E+00
  rms(prec ) = 0.15648E+00
  weight for this iteration     100.00

 eigenvalues of (default mixing * dielectric matrix)
  average eigenvalue GAMMA=   1.1332
  2.2609  0.7176  0.7176  0.8368

 Free energy of the ion-electron system (eV)
  ---------------------------------------------------
  alpha Z        PSCENC =       158.22566922
  Ewald energy   TEWEN  =      7862.55840796
  -Hartree energ DENC   =    -12093.16047308
  -exchange      EXHF   =         0.00000000
  -V(xc)+E(xc)   XCENC  =       169.56954806
  PAW double counting   =      3042.63575187    -2957.24482361
  entropy T*S    EENTRO =         0.00000000
  eigenvalues    EBANDS =      -728.53091614
  atomic energy  EATOM  =      4468.63412509
  Solvation  Ediel_sol  =         0.00000000
  ---------------------------------------------------
  free energy    TOTEN  =       -77.31271063 eV

  energy without entropy =      -77.31271063  energy(sigma->0) =      -77.31271063


--------------------------------------------------------------------------------------------------------




--------------------------------------- Iteration      1(  10)  ---------------------------------------


    POTLOK:  cpu time    0.0630: real time    0.0674
    SETDIJ:  cpu time    0.0080: real time    0.0072
    EDDIAG:  cpu time    0.1820: real time    0.1823
  RMM-DIIS:  cpu time    1.2138: real time    1.2131
    ORTHCH:  cpu time    0.0260: real time    0.0262
 BZINTS: Fermi energy: -1.335101; 64.000000 electrons
         Band energy:-716.857930;  BLOECHL correction:  0.000000
       DOS:  cpu time    0.0000: real time    0.0007
    CHARGE:  cpu time    0.0740: real time    0.0739
    MIXING:  cpu time    0.0030: real time    0.0021
    --------------------------------------------
      LOOP:  cpu time    1.5698: real time    1.5729

 eigenvalue-minimisations  :  1083
 total energy-change (2. order) : 0.5495542E-01  (-0.2285912E-01)
 number of electron      63.9999922 magnetization 
 augmentation part        6.8675649 magnetization 

 Broyden mixing:
  rms(total) = 0.67123E-01    rms(broyden)= 0.67109E-01
  rms(prec ) = 0.98662E-01
  weight for this iteration     100.00

 eigenvalues of (default mixing * dielectric matrix)
  average eigenvalue GAMMA=   1.1926
  2.3378  1.1501  1.1501  0.6626  0.6626

 Free energy of the ion-electron system (eV)
  ---------------------------------------------------
  alpha Z        PSCENC =       158.22566922
  Ewald energy   TEWEN  =      7862.55840796
  -Hartree energ DENC   =    -12104.36923699
  -exchange      EXHF   =         0.00000000
  -V(xc)+E(xc)   XCENC  =       169.61009416
  PAW double counting   =      3053.63283422    -2968.69171859
  entropy T*S    EENTRO =         0.00000000
  eigenvalues    EBANDS =      -716.85793028
  atomic energy  EATOM  =      4468.63412509
  Solvation  Ediel_sol  =         0.00000000
  ---------------------------------------------------
  free energy    TOTEN  =       -77.25775522 eV

  energy without entropy =      -77.25775522  energy(sigma->0) =      -77.25775522


--------------------------------------------------------------------------------------------------------




--------------------------------------- Iteration      1(  11)  ---------------------------------------


    POTLOK:  cpu time    0.0630: real time    0.0670
    SETDIJ:  cpu time    0.0070: real time    0.0063
    EDDIAG:  cpu time    0.1830: real time    0.1830
  RMM-DIIS:  cpu time    1.1478: real time    1.1475
    ORTHCH:  cpu time    0.0250: real time    0.0258
 BZINTS: Fermi energy: -1.045270; 64.000000 electrons
         Band energy:-700.904751;  BLOECHL correction:  0.000000
       DOS:  cpu time    0.0010: real time    0.0007
    CHARGE:  cpu time    0.0730: real time    0.0732
    MIXING:  cpu time    0.0030: real time    0.0022
    --------------------------------------------
      LOOP:  cpu time    1.5028: real time    1.5057

 eigenvalue-minimisations  :  1033
 total energy-change (2. order) : 0.3068105E-01  (-0.1803318E-01)
 number of electron      63.9999922 magnetization 
 augmentation part        6.8037912 magnetization 

 Broyden mixing:
  rms(total) = 0.51174E-01    rms(broyden)= 0.51154E-01
  rms(prec ) = 0.69955E-01
  weight for this iteration     100.00

 eigenvalues of (default mixing * dielectric matrix)
  average eigenvalue GAMMA=   1.1910
  2.0950  2.0950  0.8417  0.7628  0.7628  0.5884

 Free energy of the ion-electron system (eV)
  ---------------------------------------------------
  alpha Z        PSCENC =       158.22566922
  Ewald energy   TEWEN  =      7862.55840796
  -Hartree energ DENC   =    -12120.26504152
  -exchange      EXHF   =         0.00000000
  -V(xc)+E(xc)   XCENC  =       169.75540995
  PAW double counting   =      3060.28715832    -2975.51805258
  entropy T*S    EENTRO =         0.00000000
  eigenvalues    EBANDS =      -700.90475060
  atomic energy  EATOM  =      4468.63412509
  Solvation  Ediel_sol  =         0.00000000
  ---------------------------------------------------
  free energy    TOTEN  =       -77.22707416 eV

  energy without entropy =      -77.22707416  energy(sigma->0) =      -77.22707416


--------------------------------------------------------------------------------------------------------




--------------------------------------- Iteration      1(  12)  ---------------------------------------


    POTLOK:  cpu time    0.0610: real time    0.0642
    SETDIJ:  cpu time    0.0070: real time    0.0061
    EDDIAG:  cpu time    0.1810: real time    0.1817
  RMM-DIIS:  cpu time    1.2398: real time    1.2392
    ORTHCH:  cpu time    0.0260: real time    0.0258
 BZINTS: Fermi energy: -0.873496; 64.000000 electrons
         Band energy:-692.804524;  BLOECHL correction:  0.000000
       DOS:  cpu time    0.0000: real time    0.0007
    CHARGE:  cpu time    0.0730: real time    0.0734
    MIXING:  cpu time    0.0030: real time    0.0023
    --------------------------------------------
      LOOP:  cpu time    1.5908: real time    1.5935

 eigenvalue-minimisations  :  1116
 total energy-change (2. order) : 0.9600573E-02  (-0.4127693E-02)
 number of electron      63.9999922 magnetization 
 augmentation part        6.7760959 magnetization 

 Broyden mixing:
  rms(total) = 0.39034E-01    rms(broyden)= 0.39030E-01
  rms(prec ) = 0.54985E-01
  weight for this iteration     100.00

 eigenvalues of (default mixing * dielectric matrix)
  average eigenvalue GAMMA=   1.2682
  2.4573  2.4573  0.9603  0.9603  0.7463  0.6479  0.6479

 Free energy of the ion-electron system (eV)
  ---------------------------------------------------
  alpha Z        PSCENC =       158.22566922
  Ewald energy   TEWEN  =      7862.55840796
  -Hartree energ DENC   =    -12128.60169776
  -exchange      EXHF   =         0.00000000
  -V(xc)+E(xc)   XCENC  =       169.85998742
  PAW double counting   =      3059.14438321    -2974.23382518
  entropy T*S    EENTRO =         0.00000000
  eigenvalues    EBANDS =      -692.80452355
  atomic energy  EATOM  =      4468.63412509
  Solvation  Ediel_sol  =         0.00000000
  ---------------------------------------------------
  free energy    TOTEN  =       -77.21747359 eV

  energy without entropy =      -77.21747359  energy(sigma->0) =      -77.21747359


--------------------------------------------------------------------------------------------------------




--------------------------------------- Iteration      1(  13)  ---------------------------------------


    POTLOK:  cpu time    0.0620: real time    0.0642
    SETDIJ:  cpu time    0.0070: real time    0.0063
    EDDIAG:  cpu time    0.1850: real time    0.1850
  RMM-DIIS:  cpu time    1.1948: real time    1.1943
    ORTHCH:  cpu time    0.0250: real time    0.0259
 BZINTS: Fermi energy: -0.772505; 64.000000 electrons
         Band energy:-683.436798;  BLOECHL correction:  0.000000
       DOS:  cpu time    0.0010: real time    0.0007
    CHARGE:  cpu time    0.0730: real time    0.0734
    MIXING:  cpu time    0.0030: real time    0.0025
    --------------------------------------------
      LOOP:  cpu time    1.5508: real time    1.5521

 eigenvalue-minimisations  :  1067
 total energy-change (2. order) : 0.1093298E-01  (-0.4383770E-02)
 number of electron      63.9999922 magnetization 
 augmentation part        6.7900647 magnetization 

 Broyden mixing:
  rms(total) = 0.25768E-01    rms(broyden)= 0.25748E-01
  rms(prec ) = 0.35083E-01
  weight for this iteration     100.00

 eigenvalues of (default mixing * dielectric matrix)
  average eigenvalue GAMMA=   1.4208
  2.9164  2.9164  1.2032  1.2032  0.9164  0.9164  0.6560  0.6385

 Free energy of the ion-electron system (eV)
  ---------------------------------------------------
  alpha Z        PSCENC =       158.22566922
  Ewald energy   TEWEN  =      7862.55840796
  -Hartree energ DENC   =    -12138.21804376
  -exchange      EXHF   =         0.00000000
  -V(xc)+E(xc)   XCENC  =       169.94863986
  PAW double counting   =      3057.48652949    -2972.40507029
  entropy T*S    EENTRO =         0.00000000
  eigenvalues    EBANDS =      -683.43679817
  atomic energy  EATOM  =      4468.63412509
  Solvation  Ediel_sol  =         0.00000000
  ---------------------------------------------------
  free energy    TOTEN  =       -77.20654062 eV

  energy without entropy =      -77.20654062  energy(sigma->0) =      -77.20654062


--------------------------------------------------------------------------------------------------------




--------------------------------------- Iteration      1(  14)  ---------------------------------------


    POTLOK:  cpu time    0.0610: real time    0.0635
    SETDIJ:  cpu time    0.0070: real time    0.0061
    EDDIAG:  cpu time    0.1810: real time    0.1812
  RMM-DIIS:  cpu time    1.1128: real time    1.1117
    ORTHCH:  cpu time    0.0250: real time    0.0258
 BZINTS: Fermi energy: -0.612483; 64.000000 electrons
         Band energy:-677.133739;  BLOECHL correction:  0.000000
       DOS:  cpu time    0.0010: real time    0.0007
    CHARGE:  cpu time    0.0730: real time    0.0733
    MIXING:  cpu time    0.0030: real time    0.0025
    --------------------------------------------
      LOOP:  cpu time    1.4638: real time    1.4650

 eigenvalue-minimisations  :  1009
 total energy-change (2. order) : 0.4283367E-02  (-0.1513005E-02)
 number of electron      63.9999922 magnetization 
 augmentation part        6.7978838 magnetization 

 Broyden mixing:
  rms(total) = 0.78597E-02    rms(broyden)= 0.78523E-02
  rms(prec ) = 0.15270E-01
  weight for this iteration     100.00

 eigenvalues of (default mixing * dielectric matrix)
  average eigenvalue GAMMA=   1.5238
  3.5960  2.5689  2.3156  0.9671  0.9671  1.0016  1.0016  0.6655  0.6305

 Free energy of the ion-electron system (eV)
  ---------------------------------------------------
  alpha Z        PSCENC =       158.22566922
  Ewald energy   TEWEN  =      7862.55840796
  -Hartree energ DENC   =    -12144.60755325
  -exchange      EXHF   =         0.00000000
  -V(xc)+E(xc)   XCENC  =       169.89261383
  PAW double counting   =      3052.87275269    -2967.64453350
  entropy T*S    EENTRO =         0.00000000
  eigenvalues    EBANDS =      -677.13373929
  atomic energy  EATOM  =      4468.63412509
  Solvation  Ediel_sol  =         0.00000000
  ---------------------------------------------------
  free energy    TOTEN  =       -77.20225725 eV

  energy without entropy =      -77.20225725  energy(sigma->0) =      -77.20225725


--------------------------------------------------------------------------------------------------------




--------------------------------------- Iteration      1(  15)  ---------------------------------------


    POTLOK:  cpu time    0.0600: real time    0.0628
    SETDIJ:  cpu time    0.0070: real time    0.0063
    EDDIAG:  cpu time    0.1820: real time    0.1820
  RMM-DIIS:  cpu time    1.1488: real time    1.1478
    ORTHCH:  cpu time    0.0250: real time    0.0257
 BZINTS: Fermi energy: -0.564561; 64.000000 electrons
         Band energy:-671.409730;  BLOECHL correction:  0.000000
       DOS:  cpu time    0.0010: real time    0.0006
    CHARGE:  cpu time    0.0730: real time    0.0733
    MIXING:  cpu time    0.0030: real time    0.0026
    --------------------------------------------
      LOOP:  cpu time    1.4998: real time    1.5010

 eigenvalue-minimisations  :  1028
 total energy-change (2. order) :-0.4346769E-03  (-0.6643003E-03)
 number of electron      63.9999922 magnetization 
 augmentation part        6.8063226 magnetization 

 Broyden mixing:
  rms(total) = 0.12450E-01    rms(broyden)= 0.12448E-01
  rms(prec ) = 0.15693E-01
  weight for this iteration     100.00

 eigenvalues of (default mixing * dielectric matrix)
  average eigenvalue GAMMA=   1.5460
  4.3476  2.5865  2.0528  1.3495  0.9329  0.9329  1.1120  0.6282  0.6643  0.8536

 Free energy of the ion-electron system (eV)
  ---------------------------------------------------
  alpha Z        PSCENC =       158.22566922
  Ewald energy   TEWEN  =      7862.55840796
  -Hartree energ DENC   =    -12150.29783679
  -exchange      EXHF   =         0.00000000
  -V(xc)+E(xc)   XCENC  =       169.89414810
  PAW double counting   =      3052.99259406    -2967.80006911
  entropy T*S    EENTRO =         0.00000000
  eigenvalues    EBANDS =      -671.40973046
  atomic energy  EATOM  =      4468.63412509
  Solvation  Ediel_sol  =         0.00000000
  ---------------------------------------------------
  free energy    TOTEN  =       -77.20269193 eV

  energy without entropy =      -77.20269193  energy(sigma->0) =      -77.20269193


--------------------------------------------------------------------------------------------------------




--------------------------------------- Iteration      1(  16)  ---------------------------------------


    POTLOK:  cpu time    0.0600: real time    0.0630
    SETDIJ:  cpu time    0.0070: real time    0.0062
    EDDIAG:  cpu time    0.1810: real time    0.1814
  RMM-DIIS:  cpu time    1.0388: real time    1.0388
    ORTHCH:  cpu time    0.0260: real time    0.0256
 BZINTS: Fermi energy: -0.527202; 64.000000 electrons
         Band energy:-669.186125;  BLOECHL correction:  0.000000
       DOS:  cpu time    0.0000: real time    0.0008
    CHARGE:  cpu time    0.0740: real time    0.0731
    MIXING:  cpu time    0.0030: real time    0.0028
    --------------------------------------------
      LOOP:  cpu time    1.3898: real time    1.3916

 eigenvalue-minimisations  :   932
 total energy-change (2. order) :-0.8914502E-03  (-0.5370367E-03)
 number of electron      63.9999922 magnetization 
 augmentation part        6.7905242 magnetization 

 Broyden mixing:
  rms(total) = 0.64334E-02    rms(broyden)= 0.64314E-02
  rms(prec ) = 0.87400E-02
  weight for this iteration     100.00

 eigenvalues of (default mixing * dielectric matrix)
  average eigenvalue GAMMA=   1.7309
  5.7094  2.9074  2.4708  1.6590  0.9492  0.9492  1.0937  1.0937  0.9177  0.6614
  0.6286

 Free energy of the ion-electron system (eV)
  ---------------------------------------------------
  alpha Z        PSCENC =       158.22566922
  Ewald energy   TEWEN  =      7862.55840796
  -Hartree energ DENC   =    -12152.50058264
  -exchange      EXHF   =         0.00000000
  -V(xc)+E(xc)   XCENC  =       169.90826822
  PAW double counting   =      3053.53368002    -2968.37702616
  entropy T*S    EENTRO =         0.00000000
  eigenvalues    EBANDS =      -669.18612508
  atomic energy  EATOM  =      4468.63412509
  Solvation  Ediel_sol  =         0.00000000
  ---------------------------------------------------
  free energy    TOTEN  =       -77.20358338 eV

  energy without entropy =      -77.20358338  energy(sigma->0) =      -77.20358338


--------------------------------------------------------------------------------------------------------




--------------------------------------- Iteration      1(  17)  ---------------------------------------


    POTLOK:  cpu time    0.0590: real time    0.0619
    SETDIJ:  cpu time    0.0070: real time    0.0063
    EDDIAG:  cpu time    0.1820: real time    0.1818
  RMM-DIIS:  cpu time    1.1788: real time    1.1790
    ORTHCH:  cpu time    0.0260: real time    0.0257
 BZINTS: Fermi energy: -0.469629; 64.000000 electrons
         Band energy:-668.169079;  BLOECHL correction:  0.000000
       DOS:  cpu time    0.0010: real time    0.0007
    CHARGE:  cpu time    0.0730: real time    0.0735
    MIXING:  cpu time    0.0030: real time    0.0029
    --------------------------------------------
      LOOP:  cpu time    1.5298: real time    1.5319

 eigenvalue-minimisations  :  1056
 total energy-change (2. order) :-0.1521794E-02  (-0.1462053E-03)
 number of electron      63.9999922 magnetization 
 augmentation part        6.7933391 magnetization 

 Broyden mixing:
  rms(total) = 0.50792E-02    rms(broyden)= 0.50770E-02
  rms(prec ) = 0.61814E-02
  weight for this iteration     100.00

 eigenvalues of (default mixing * dielectric matrix)
  average eigenvalue GAMMA=   1.6831
  6.0616  2.9863  2.3440  1.3379  1.3379  0.9265  0.9265  1.1327  1.0015  0.8538
  0.6281  0.6605

 Free energy of the ion-electron system (eV)
  ---------------------------------------------------
  alpha Z        PSCENC =       158.22566922
  Ewald energy   TEWEN  =      7862.55840796
  -Hartree energ DENC   =    -12153.52348190
  -exchange      EXHF   =         0.00000000
  -V(xc)+E(xc)   XCENC  =       169.91215023
  PAW double counting   =      3053.45306503    -2968.29596157
  entropy T*S    EENTRO =         0.00000000
  eigenvalues    EBANDS =      -668.16907922
  atomic energy  EATOM  =      4468.63412509
  Solvation  Ediel_sol  =         0.00000000
  ---------------------------------------------------
  free energy    TOTEN  =       -77.20510517 eV

  energy without entropy =      -77.20510517  energy(sigma->0) =      -77.20510517


--------------------------------------------------------------------------------------------------------




--------------------------------------- Iteration      1(  18)  ---------------------------------------


    POTLOK:  cpu time    0.0590: real time    0.0619
    SETDIJ:  cpu time    0.0070: real time    0.0062
    EDDIAG:  cpu time    0.1810: real time    0.1819
  RMM-DIIS:  cpu time    1.1258: real time    1.1241
    ORTHCH:  cpu time    0.0250: real time    0.0256
 BZINTS: Fermi energy: -0.550456; 64.000000 electrons
         Band energy:-668.449752;  BLOECHL correction:  0.000000
       DOS:  cpu time    0.0010: real time    0.0006
    CHARGE:  cpu time    0.0730: real time    0.0734
    MIXING:  cpu time    0.0030: real time    0.0030
    --------------------------------------------
      LOOP:  cpu time    1.4748: real time    1.4769

 eigenvalue-minimisations  :  1000
 total energy-change (2. order) :-0.4176137E-03  (-0.9495272E-04)
 number of electron      63.9999922 magnetization 
 augmentation part        6.7942909 magnetization 

 Broyden mixing:
  rms(total) = 0.27004E-02    rms(broyden)= 0.26980E-02
  rms(prec ) = 0.33501E-02
  weight for this iteration     100.00

 eigenvalues of (default mixing * dielectric matrix)
  average eigenvalue GAMMA=   1.7500
  6.5101  3.3891  2.1627  1.8205  1.8205  1.0624  1.0624  0.9206  0.9206  0.6283
  0.6606  0.8962  0.8962

 Free energy of the ion-electron system (eV)
  ---------------------------------------------------
  alpha Z        PSCENC =       158.22566922
  Ewald energy   TEWEN  =      7862.55840796
  -Hartree energ DENC   =    -12153.25118835
  -exchange      EXHF   =         0.00000000
  -V(xc)+E(xc)   XCENC  =       169.89594647
  PAW double counting   =      3052.80494016    -2967.62367106
  entropy T*S    EENTRO =         0.00000000
  eigenvalues    EBANDS =      -668.44975226
  atomic energy  EATOM  =      4468.63412509
  Solvation  Ediel_sol  =         0.00000000
  ---------------------------------------------------
  free energy    TOTEN  =       -77.20552278 eV

  energy without entropy =      -77.20552278  energy(sigma->0) =      -77.20552278


--------------------------------------------------------------------------------------------------------




--------------------------------------- Iteration      1(  19)  ---------------------------------------


    POTLOK:  cpu time    0.0610: real time    0.0631
    SETDIJ:  cpu time    0.0070: real time    0.0063
    EDDIAG:  cpu time    0.1820: real time    0.1828
  RMM-DIIS:  cpu time    1.0188: real time    1.0182
    ORTHCH:  cpu time    0.0260: real time    0.0258
 BZINTS: Fermi energy: -0.524262; 64.000000 electrons
         Band energy:-668.378430;  BLOECHL correction:  0.000000
       DOS:  cpu time    0.0000: real time    0.0006
    CHARGE:  cpu time    0.0730: real time    0.0735
    MIXING:  cpu time    0.0040: real time    0.0032
    --------------------------------------------
      LOOP:  cpu time    1.3718: real time    1.3735

 eigenvalue-minimisations  :   916
 total energy-change (2. order) :-0.1181693E-02  (-0.4667098E-04)
 number of electron      63.9999922 magnetization 
 augmentation part        6.7960400 magnetization 

 Broyden mixing:
  rms(total) = 0.30475E-02    rms(broyden)= 0.30470E-02
  rms(prec ) = 0.36245E-02
  weight for this iteration     100.00

 eigenvalues of (default mixing * dielectric matrix)
  average eigenvalue GAMMA=   1.8613
  7.4617  4.1451  2.4415  2.4415  1.2366  1.2366  1.2963  0.9191  0.9191  0.9553
  0.9553  0.6280  0.6589  0.7628

 Free energy of the ion-electron system (eV)
  ---------------------------------------------------
  alpha Z        PSCENC =       158.22566922
  Ewald energy   TEWEN  =      7862.55840796
  -Hartree energ DENC   =    -12153.33894276
  -exchange      EXHF   =         0.00000000
  -V(xc)+E(xc)   XCENC  =       169.90101415
  PAW double counting   =      3052.91179350    -2967.72034117
  entropy T*S    EENTRO =         0.00000000
  eigenvalues    EBANDS =      -668.37843046
  atomic energy  EATOM  =      4468.63412509
  Solvation  Ediel_sol  =         0.00000000
  ---------------------------------------------------
  free energy    TOTEN  =       -77.20670448 eV

  energy without entropy =      -77.20670448  energy(sigma->0) =      -77.20670448


--------------------------------------------------------------------------------------------------------




--------------------------------------- Iteration      1(  20)  ---------------------------------------


    POTLOK:  cpu time    0.0600: real time    0.0646
    SETDIJ:  cpu time    0.0070: real time    0.0063
    EDDIAG:  cpu time    0.1820: real time    0.1828
  RMM-DIIS:  cpu time    1.0238: real time    1.0224
    ORTHCH:  cpu time    0.0250: real time    0.0257
 BZINTS: Fermi energy: -0.540634; 64.000000 electrons
         Band energy:-668.306825;  BLOECHL correction:  0.000000
       DOS:  cpu time    0.0010: real time    0.0007
    CHARGE:  cpu time    0.0740: real time    0.0735
    MIXING:  cpu time    0.0030: real time    0.0033
    --------------------------------------------
      LOOP:  cpu time    1.3758: real time    1.3793

 eigenvalue-minimisations  :   896
 total energy-change (2. order) :-0.3610672E-03  (-0.2437509E-04)
 number of electron      63.9999922 magnetization 
 augmentation part        6.7939427 magnetization 

 Broyden mixing:
  rms(total) = 0.67145E-03    rms(broyden)= 0.67059E-03
  rms(prec ) = 0.79985E-03
  weight for this iteration     100.00

 eigenvalues of (default mixing * dielectric matrix)
  average eigenvalue GAMMA=   1.9496
  7.3171  5.2378  2.4448  2.3823  2.3823  1.3166  1.2042  1.2042  0.9177  0.9177
  0.9359  0.9359  0.6279  0.6595  0.7603

 Free energy of the ion-electron system (eV)
  ---------------------------------------------------
  alpha Z        PSCENC =       158.22566922
  Ewald energy   TEWEN  =      7862.55840796
  -Hartree energ DENC   =    -12153.40712152
  -exchange      EXHF   =         0.00000000
  -V(xc)+E(xc)   XCENC  =       169.90178738
  PAW double counting   =      3053.13163661    -2967.94474492
  entropy T*S    EENTRO =         0.00000000
  eigenvalues    EBANDS =      -668.30682536
  atomic energy  EATOM  =      4468.63412509
  Solvation  Ediel_sol  =         0.00000000
  ---------------------------------------------------
  free energy    TOTEN  =       -77.20706554 eV

  energy without entropy =      -77.20706554  energy(sigma->0) =      -77.20706554


--------------------------------------------------------------------------------------------------------




--------------------------------------- Iteration      1(  21)  ---------------------------------------


    POTLOK:  cpu time    0.0610: real time    0.0642
    SETDIJ:  cpu time    0.0070: real time    0.0063
    EDDIAG:  cpu time    0.1810: real time    0.1819
  RMM-DIIS:  cpu time    0.8859: real time    0.8848
    ORTHCH:  cpu time    0.0250: real time    0.0256
 BZINTS: Fermi energy: -0.522560; 64.000000 electrons
         Band energy:-668.332639;  BLOECHL correction:  0.000000
       DOS:  cpu time    0.0000: real time    0.0007
    CHARGE:  cpu time    0.0740: real time    0.0736
    MIXING:  cpu time    0.0040: real time    0.0035
    --------------------------------------------
      LOOP:  cpu time    1.2378: real time    1.2405

 eigenvalue-minimisations  :   777
 total energy-change (2. order) :-0.1208329E-03  (-0.8503296E-05)
 number of electron      63.9999922 magnetization 
 augmentation part        6.7928001 magnetization 

 Broyden mixing:
  rms(total) = 0.97714E-03    rms(broyden)= 0.97689E-03
  rms(prec ) = 0.11482E-02
  weight for this iteration     100.00

 eigenvalues of (default mixing * dielectric matrix)
  average eigenvalue GAMMA=   1.9381
  7.8931  5.1740  2.5558  2.4560  2.4560  1.2323  1.2323  1.2939  0.9153  0.9153
  0.6280  0.6600  0.8912  0.8912  0.9076  0.9076

 Free energy of the ion-electron system (eV)
  ---------------------------------------------------
  alpha Z        PSCENC =       158.22566922
  Ewald energy   TEWEN  =      7862.55840796
  -Hartree energ DENC   =    -12153.37646101
  -exchange      EXHF   =         0.00000000
  -V(xc)+E(xc)   XCENC  =       169.89922585
  PAW double counting   =      3053.17856789    -2967.99408243
  entropy T*S    EENTRO =         0.00000000
  eigenvalues    EBANDS =      -668.33263894
  atomic energy  EATOM  =      4468.63412509
  Solvation  Ediel_sol  =         0.00000000
  ---------------------------------------------------
  free energy    TOTEN  =       -77.20718638 eV

  energy without entropy =      -77.20718638  energy(sigma->0) =      -77.20718638


--------------------------------------------------------------------------------------------------------




--------------------------------------- Iteration      1(  22)  ---------------------------------------


    POTLOK:  cpu time    0.0600: real time    0.0628
    SETDIJ:  cpu time    0.0070: real time    0.0062
    EDDIAG:  cpu time    0.1840: real time    0.1840
  RMM-DIIS:  cpu time    0.7389: real time    0.7387
    ORTHCH:  cpu time    0.0260: real time    0.0256
 BZINTS: Fermi energy: -0.507062; 64.000000 electrons
         Band energy:-668.340262;  BLOECHL correction:  0.000000
       DOS:  cpu time    0.0010: real time    0.0008
    CHARGE:  cpu time    0.0730: real time    0.0735
    MIXING:  cpu time    0.0040: real time    0.0036
    --------------------------------------------
      LOOP:  cpu time    1.0938: real time    1.0953

 eigenvalue-minimisations  :   640
 total energy-change (2. order) :-0.3531052E-04  (-0.2623380E-05)
 number of electron      63.9999922 magnetization 
 augmentation part        6.7934448 magnetization 

 Broyden mixing:
  rms(total) = 0.21596E-03    rms(broyden)= 0.21580E-03
  rms(prec ) = 0.25469E-03
  weight for this iteration     100.00

 eigenvalues of (default mixing * dielectric matrix)
  average eigenvalue GAMMA=   1.9238
  8.0144  5.2662  2.8700  2.4913  2.1852  1.5226  1.2315  1.2315  0.9194  0.9194
  1.0164  1.0164  1.0703  0.6280  0.6599  0.8309  0.8309

 Free energy of the ion-electron system (eV)
  ---------------------------------------------------
  alpha Z        PSCENC =       158.22566922
  Ewald energy   TEWEN  =      7862.55840796
  -Hartree energ DENC   =    -12153.37314750
  -exchange      EXHF   =         0.00000000
  -V(xc)+E(xc)   XCENC  =       169.90025530
  PAW double counting   =      3053.16962165    -2967.98189111
  entropy T*S    EENTRO =         0.00000000
  eigenvalues    EBANDS =      -668.34026228
  atomic energy  EATOM  =      4468.63412509
  Solvation  Ediel_sol  =         0.00000000
  ---------------------------------------------------
  free energy    TOTEN  =       -77.20722169 eV

  energy without entropy =      -77.20722169  energy(sigma->0) =      -77.20722169


--------------------------------------------------------------------------------------------------------




--------------------------------------- Iteration      1(  23)  ---------------------------------------


    POTLOK:  cpu time    0.0600: real time    0.0654
    SETDIJ:  cpu time    0.0070: real time    0.0063
    EDDIAG:  cpu time    0.1810: real time    0.1818
  RMM-DIIS:  cpu time    0.6569: real time    0.6563
    ORTHCH:  cpu time    0.0250: real time    0.0255
 BZINTS: Fermi energy: -0.493876; 64.000000 electrons
         Band energy:-668.334203;  BLOECHL correction:  0.000000
       DOS:  cpu time    0.0010: real time    0.0007
    CHARGE:  cpu time    0.0730: real time    0.0735
    MIXING:  cpu time    0.0050: real time    0.0038
    --------------------------------------------
      LOOP:  cpu time    1.0088: real time    1.0134

 eigenvalue-minimisations  :   550
 total energy-change (2. order) :-0.1017080E-04  (-0.9215776E-06)
 number of electron      63.9999922 magnetization 
 augmentation part        6.7933287 magnetization 

 Broyden mixing:
  rms(total) = 0.14841E-03    rms(broyden)= 0.14834E-03
  rms(prec ) = 0.18017E-03
  weight for this iteration     100.00

 eigenvalues of (default mixing * dielectric matrix)
  average eigenvalue GAMMA=   1.9257
  8.1651  5.2586  3.1934  2.3321  2.3321  1.7185  1.4387  1.4387  0.9159  0.9159
  1.0763  1.0763  0.9657  0.9657  0.6280  0.6601  0.7907  0.7907

 Free energy of the ion-electron system (eV)
  ---------------------------------------------------
  alpha Z        PSCENC =       158.22566922
  Ewald energy   TEWEN  =      7862.55840796
  -Hartree energ DENC   =    -12153.38008813
  -exchange      EXHF   =         0.00000000
  -V(xc)+E(xc)   XCENC  =       169.90079508
  PAW double counting   =      3053.17951023    -2967.99144821
  entropy T*S    EENTRO =         0.00000000
  eigenvalues    EBANDS =      -668.33420309
  atomic energy  EATOM  =      4468.63412509
  Solvation  Ediel_sol  =         0.00000000
  ---------------------------------------------------
  free energy    TOTEN  =       -77.20723186 eV

  energy without entropy =      -77.20723186  energy(sigma->0) =      -77.20723186


--------------------------------------------------------------------------------------------------------




--------------------------------------- Iteration      1(  24)  ---------------------------------------


    POTLOK:  cpu time    0.0590: real time    0.0618
    SETDIJ:  cpu time    0.0070: real time    0.0061
    EDDIAG:  cpu time    0.1810: real time    0.1819
  RMM-DIIS:  cpu time    0.6429: real time    0.6421
    ORTHCH:  cpu time    0.0250: real time    0.0256
 BZINTS: Fermi energy: -0.482721; 64.000000 electrons
         Band energy:-668.341296;  BLOECHL correction:  0.000000
       DOS:  cpu time    0.0000: real time    0.0007
    --------------------------------------------
      LOOP:  cpu time    0.9149: real time    0.9182

 eigenvalue-minimisations  :   509
 total energy-change (2. order) :-0.4168271E-05  (-0.4682977E-06)
 number of electron      63.9999922 magnetization 
 augmentation part        6.7933287 magnetization 

 Free energy of the ion-electron system (eV)
  ---------------------------------------------------
  alpha Z        PSCENC =       158.22566922
  Ewald energy   TEWEN  =      7862.55840796
  -Hartree energ DENC   =    -12153.37309902
  -exchange      EXHF   =         0.00000000
  -V(xc)+E(xc)   XCENC  =       169.90074165
  PAW double counting   =      3053.18119858    -2967.99298364
  entropy T*S    EENTRO =         0.00000000
  eigenvalues    EBANDS =      -668.34129585
  atomic energy  EATOM  =      4468.63412509
  Solvation  Ediel_sol  =         0.00000000
  ---------------------------------------------------
  free energy    TOTEN  =       -77.20723603 eV

  energy without entropy =      -77.20723603  energy(sigma->0) =      -77.20723603


--------------------------------------------------------------------------------------------------------




 average (electrostatic) potential at core
  the test charge radii are     0.7215  1.1929  1.2598
  (the norm of the test charge is              1.0000)
       1 -74.5697       2 -75.0260       3 -75.0260       4 -75.1470       5 -74.5618
       6 -74.5618       7 -41.4089       8 -40.0031       9 -30.8157      10 -30.8936
 
 
 
 E-fermi :  -0.4827     XC(G=0):  -5.6698     alpha+bet : -5.3917


 k-point     1 :       0.0000    0.0000    0.0000
  band No.  band energies     occupation 
      1     -35.2828      2.00000
      2     -33.9162      2.00000
      3     -18.8338      2.00000
      4     -18.0694      2.00000
      5     -17.6876      2.00000
      6     -17.5963      2.00000
      7     -17.1969      2.00000
      8     -17.1969      2.00000
      9     -17.1816      2.00000
     10     -17.0025      2.00000
     11     -16.9569      2.00000
     12     -15.9746      2.00000
     13     -15.9746      2.00000
     14     -15.6106      2.00000
     15      -4.9557      2.00000
     16      -4.1476      2.00000
     17      -4.1476      2.00000
     18      -3.8122      2.00000
     19      -3.5730      2.00000
     20      -3.5730      2.00000
     21      -2.9822      2.00000
     22      -2.9350      2.00000
     23      -2.8818      2.00000
     24      -2.8818      2.00000
     25      -2.3920      2.00000
     26      -2.3920      2.00000
     27      -2.3515      2.00000
     28      -1.9499      2.00000
     29      -1.8161      2.00000
     30      -1.8161      2.00000
     31      -1.1941      2.00000
     32      -1.1941      2.00000
     33       0.4202      0.00000
     34       0.6849      0.00000
     35       0.6849      0.00000
     36       0.7994      0.00000
     37       0.8974      0.00000
     38       5.0095      0.00000

 k-point     2 :       0.1429    0.0000    0.0000
  band No.  band energies     occupation 
      1     -35.2799      2.00000
      2     -33.9128      2.00000
      3     -18.7763      2.00000
      4     -18.0820      2.00000
      5     -17.7391      2.00000
      6     -17.5654      2.00000
      7     -17.4411      2.00000
      8     -17.1900      2.00000
      9     -17.1454      2.00000
     10     -16.9984      2.00000
     11     -16.6891      2.00000
     12     -15.9659      2.00000
     13     -15.8806      2.00000
     14     -15.6311      2.00000
     15      -4.9677      2.00000
     16      -4.4183      2.00000
     17      -4.2158      2.00000
     18      -4.1452      2.00000
     19      -3.6390      2.00000
     20      -3.6237      2.00000
     21      -3.4310      2.00000
     22      -3.0319      2.00000
     23      -2.9285      2.00000
     24      -2.6624      2.00000
     25      -2.6214      2.00000
     26      -2.5069      2.00000
     27      -2.3617      2.00000
     28      -2.0342      2.00000
     29      -1.9614      2.00000
     30      -1.9321      2.00000
     31      -1.5646      2.00000
     32      -1.4994      2.00000
     33       0.6918      0.00000
     34       0.8253      0.00000
     35       0.9348      0.00000
     36       1.0782      0.00000
     37       1.2162      0.00000
     38       3.6621      0.00000

 k-point     3 :       0.2857    0.0000    0.0000
  band No.  band energies     occupation 
      1     -35.2733      2.00000
      2     -33.9049      2.00000
      3     -18.6774      2.00000
      4     -18.1287      2.00000
      5     -17.9141      2.00000
      6     -17.5327      2.00000
      7     -17.4467      2.00000
      8     -17.1745      2.00000
      9     -17.1385      2.00000
     10     -16.9740      2.00000
     11     -16.3851      2.00000
     12     -15.9461      2.00000
     13     -15.7041      2.00000
     14     -15.6649      2.00000
     15      -5.0590      2.00000
     16      -4.9935      2.00000
     17      -4.7971      2.00000
     18      -4.3138      2.00000
     19      -4.1272      2.00000
     20      -3.7581      2.00000
     21      -3.6717      2.00000
     22      -3.5165      2.00000
     23      -3.1566      2.00000
     24      -2.9801      2.00000
     25      -2.9176      2.00000
     26      -2.6108      2.00000
     27      -2.3198      2.00000
     28      -2.2267      2.00000
     29      -2.1962      2.00000
     30      -1.9551      2.00000
     31      -1.9222      2.00000
     32      -1.7219      2.00000
     33       0.7268      0.00000
     34       1.5104      0.00000
     35       1.5580      0.00000
     36       1.6119      0.00000
     37       1.6965      0.00000
     38       1.9500      0.00000

 k-point     4 :       0.4286    0.0000    0.0000
  band No.  band energies     occupation 
      1     -35.2680      2.00000
      2     -33.8986      2.00000
      3     -18.6621      2.00000
      4     -18.1331      2.00000
      5     -18.0079      2.00000
      6     -17.5784      2.00000
      7     -17.3015      2.00000
      8     -17.1619      2.00000
      9     -17.1374      2.00000
     10     -16.9410      2.00000
     11     -16.2154      2.00000
     12     -15.9300      2.00000
     13     -15.6741      2.00000
     14     -15.5862      2.00000
     15      -5.5220      2.00000
     16      -5.2939      2.00000
     17      -5.0199      2.00000
     18      -4.8774      2.00000
     19      -4.0769      2.00000
     20      -4.0284      2.00000
     21      -3.8913      2.00000
     22      -3.6219      2.00000
     23      -3.4819      2.00000
     24      -3.2105      2.00000
     25      -2.9363      2.00000
     26      -2.5449      2.00000
     27      -2.4816      2.00000
     28      -2.3793      2.00000
     29      -2.2727      2.00000
     30      -2.1366      2.00000
     31      -2.1059      2.00000
     32      -1.6137      2.00000
     33       0.7544      0.00000
     34       1.6947      0.00000
     35       2.0726      0.00000
     36       2.0782      0.00000
     37       2.1489      0.00000
     38       2.4277      0.00000

 k-point     5 :       0.1429    0.1429    0.0000
  band No.  band energies     occupation 
      1     -35.2770      2.00000
      2     -33.9093      2.00000
      3     -18.7175      2.00000
      4     -18.0726      2.00000
      5     -17.7500      2.00000
      6     -17.5792      2.00000
      7     -17.5150      2.00000
      8     -17.1630      2.00000
      9     -17.1430      2.00000
     10     -17.0003      2.00000
     11     -16.5820      2.00000
     12     -15.9487      2.00000
     13     -15.8247      2.00000
     14     -15.6564      2.00000
     15      -4.9782      2.00000
     16      -4.5813      2.00000
     17      -4.3347      2.00000
     18      -4.2393      2.00000
     19      -3.9487      2.00000
     20      -3.6703      2.00000
     21      -3.4542      2.00000
     22      -3.3605      2.00000
     23      -3.0881      2.00000
     24      -2.8410      2.00000
     25      -2.7849      2.00000
     26      -2.4214      2.00000
     27      -2.2994      2.00000
     28      -2.1585      2.00000
     29      -2.0971      2.00000
     30      -2.0407      2.00000
     31      -1.9051      2.00000
     32      -1.3837      2.00000
     33       0.8829      0.00000
     34       1.0433      0.00000
     35       1.0715      0.00000
     36       1.2263      0.00000
     37       1.4735      0.00000
     38       4.1329      0.00000

 k-point     6 :       0.2857    0.1429    0.0000
  band No.  band energies     occupation 
      1     -35.2705      2.00000
      2     -33.9016      2.00000
      3     -18.6083      2.00000
      4     -18.0804      2.00000
      5     -17.8821      2.00000
      6     -17.5950      2.00000
      7     -17.3945      2.00000
      8     -17.2041      2.00000
      9     -17.0943      2.00000
     10     -16.9879      2.00000
     11     -16.4062      2.00000
     12     -15.9243      2.00000
     13     -15.7148      2.00000
     14     -15.6996      2.00000
     15      -5.0803      2.00000
     16      -4.9865      2.00000
     17      -4.7730      2.00000
     18      -4.3858      2.00000
     19      -4.2986      2.00000
     20      -4.1094      2.00000
     21      -3.7843      2.00000
     22      -3.6026      2.00000
     23      -3.4881      2.00000
     24      -3.2410      2.00000
     25      -2.8627      2.00000
     26      -2.7550      2.00000
     27      -2.4253      2.00000
     28      -2.3654      2.00000
     29      -2.1426      2.00000
     30      -2.0794      2.00000
     31      -1.7490      2.00000
     32      -1.4590      2.00000
     33       0.9924      0.00000
     34       1.5787      0.00000
     35       1.6257      0.00000
     36       1.6785      0.00000
     37       1.8274      0.00000
     38       2.0499      0.00000

 k-point     7 :       0.4286    0.1429    0.0000
  band No.  band energies     occupation 
      1     -35.2653      2.00000
      2     -33.8954      2.00000
      3     -18.5731      2.00000
      4     -18.0712      2.00000
      5     -17.9794      2.00000
      6     -17.5365      2.00000
      7     -17.2827      2.00000
      8     -17.2309      2.00000
      9     -17.0648      2.00000
     10     -16.9716      2.00000
     11     -16.3025      2.00000
     12     -15.9097      2.00000
     13     -15.7211      2.00000
     14     -15.6377      2.00000
     15      -5.5239      2.00000
     16      -5.1942      2.00000
     17      -5.0030      2.00000
     18      -4.8696      2.00000
     19      -4.5155      2.00000
     20      -4.2381      2.00000
     21      -3.9566      2.00000
     22      -3.8962      2.00000
     23      -3.5351      2.00000
     24      -3.4312      2.00000
     25      -2.9819      2.00000
     26      -2.7416      2.00000
     27      -2.5718      2.00000
     28      -2.4390      2.00000
     29      -2.1948      2.00000
     30      -2.1694      2.00000
     31      -1.6905      2.00000
     32      -1.5076      2.00000
     33       1.0320      0.00000
     34       1.8053      0.00000
     35       2.0864      0.00000
     36       2.1413      0.00000
     37       2.2000      0.00000
     38       2.3971      0.00000

 k-point     8 :       0.2857    0.2857    0.0000
  band No.  band energies     occupation 
      1     -35.2643      2.00000
      2     -33.8943      2.00000
      3     -18.4546      2.00000
      4     -17.9852      2.00000
      5     -17.8647      2.00000
      6     -17.6536      2.00000
      7     -17.2604      2.00000
      8     -17.1674      2.00000
      9     -17.1403      2.00000
     10     -16.9662      2.00000
     11     -16.4653      2.00000
     12     -15.8825      2.00000
     13     -15.7946      2.00000
     14     -15.7238      2.00000
     15      -5.2137      2.00000
     16      -4.9869      2.00000
     17      -4.7754      2.00000
     18      -4.7519      2.00000
     19      -4.5230      2.00000
     20      -4.4600      2.00000
     21      -4.3037      2.00000
     22      -4.2039      2.00000
     23      -3.7596      2.00000
     24      -3.5681      2.00000
     25      -3.4003      2.00000
     26      -2.9963      2.00000
     27      -2.3818      2.00000
     28      -2.1777      2.00000
     29      -2.0421      2.00000
     30      -1.9030      2.00000
     31      -1.6963      2.00000
     32      -1.0678      2.00000
     33       1.5035      0.00000
     34       1.7477      0.00000
     35       1.9383      0.00000
     36       1.9957      0.00000
     37       2.0913      0.00000
     38       2.3507      0.00000

 k-point     9 :       0.4286    0.2857    0.0000
  band No.  band energies     occupation 
      1     -35.2593      2.00000
      2     -33.8884      2.00000
      3     -18.3438      2.00000
      4     -17.9496      2.00000
      5     -17.9105      2.00000
      6     -17.5038      2.00000
      7     -17.3107      2.00000
      8     -17.1035      2.00000
      9     -17.0788      2.00000
     10     -16.9689      2.00000
     11     -16.5309      2.00000
     12     -15.8841      2.00000
     13     -15.8242      2.00000
     14     -15.7401      2.00000
     15      -5.5426      2.00000
     16      -5.1157      2.00000
     17      -5.0466      2.00000
     18      -4.8775      2.00000
     19      -4.8517      2.00000
     20      -4.7840      2.00000
     21      -4.5133      2.00000
     22      -4.2010      2.00000
     23      -4.0715      2.00000
     24      -3.8030      2.00000
     25      -3.5186      2.00000
     26      -2.8797      2.00000
     27      -2.4152      2.00000
     28      -2.2605      2.00000
     29      -1.8929      2.00000
     30      -1.8509      2.00000
     31      -1.6124      2.00000
     32      -0.9106      2.00000
     33       1.6361      0.00000
     34       2.1201      0.00000
     35       2.1805      0.00000
     36       2.3038      0.00000
     37       2.4179      0.00000
     38       2.5528      0.00000

 k-point    10 :       0.4286    0.4286    0.0000
  band No.  band energies     occupation 
      1     -35.2544      2.00000
      2     -33.8828      2.00000
      3     -18.0920      2.00000
      4     -17.9423      2.00000
      5     -17.8307      2.00000
      6     -17.4815      2.00000
      7     -17.2354      2.00000
      8     -17.1607      2.00000
      9     -16.9771      2.00000
     10     -16.9118      2.00000
     11     -16.7958      2.00000
     12     -15.9668      2.00000
     13     -15.8221      2.00000
     14     -15.7987      2.00000
     15      -5.6705      2.00000
     16      -5.4235      2.00000
     17      -5.3265      2.00000
     18      -5.1197      2.00000
     19      -4.8642      2.00000
     20      -4.7942      2.00000
     21      -4.7205      2.00000
     22      -4.6634      2.00000
     23      -4.4014      2.00000
     24      -3.7813      2.00000
     25      -3.7480      2.00000
     26      -2.8219      2.00000
     27      -2.3304      2.00000
     28      -2.2681      2.00000
     29      -1.6465      2.00000
     30      -1.6103      2.00000
     31      -1.5068      2.00000
     32      -0.5801      2.00000
     33       2.1597      0.00000
     34       2.2415      0.00000
     35       2.4726      0.00000
     36       2.5443      0.00000
     37       3.4735      0.00000
     38       6.2324      0.00000


--------------------------------------------------------------------------------------------------------


 soft charge-density along one line, spin component           1
         0         1         2         3         4         5         6         7         8         9
 total charge-density along one line
 
 pseudopotential strength for first ion, spin component:           1
 12.880  -0.379   0.000  -0.021   0.000  -0.000   0.001  -0.000
 -0.379   0.090  -0.000   0.002  -0.000   0.000  -0.000   0.000
  0.000  -0.000  -9.240  -0.000   0.000  -0.019   0.000  -0.000
 -0.021   0.002  -0.000  -9.262   0.000   0.000  -0.015  -0.000
  0.000  -0.000   0.000   0.000  -9.240  -0.000  -0.000  -0.019
 -0.000   0.000  -0.019   0.000  -0.000   0.224  -0.000   0.000
  0.001  -0.000   0.000  -0.015  -0.000  -0.000   0.223   0.000
 -0.000   0.000  -0.000  -0.000  -0.019   0.000   0.000   0.224
 total augmentation occupancy for first ion, spin component:           1
  1.866   0.122   0.000  -0.010  -0.000   0.000   0.012   0.000
  0.122   0.012   0.000   0.027   0.000   0.000   0.004   0.000
  0.000   0.000   1.518   0.000   0.000   0.121   0.000   0.000
 -0.010   0.027   0.000   1.509  -0.000   0.000   0.131   0.000
  0.000   0.000   0.000  -0.000   1.518   0.000  -0.000   0.121
  0.000   0.000   0.121   0.000   0.000   0.011   0.000   0.000
  0.012   0.004   0.000   0.131  -0.000   0.000   0.012  -0.000
  0.000  -0.000   0.000   0.000   0.121   0.000   0.000   0.011


------------------------ aborting loop because EDIFF is reached ----------------------------------------


    CHARGE:  cpu time    0.0750: real time    0.0755
    FORLOC:  cpu time    0.0110: real time    0.0101
    FORNL :  cpu time    0.3909: real time    0.3907
    STRESS:  cpu time    0.9219: real time    0.9222
    FORCOR:  cpu time    0.0660: real time    0.0654
    FORHAR:  cpu time    0.0190: real time    0.0189
    MIXING:  cpu time    0.0040: real time    0.0040
    OFIELD:  cpu time    0.0000: real time    0.0000

  FORCE on cell =-STRESS in cart. coord.  units (eV):
  Direction    XX          YY          ZZ          XY          YZ          ZX
  --------------------------------------------------------------------------------------
  Alpha Z   158.22567   158.22567   158.22567
  Ewald   10368.72277 10368.72277-12874.89039     0.00000     0.00000     0.00000
  Hartree 11528.52570 11528.52570-10903.68229    -0.00000    -0.00000    -0.00000
  E(xc)    -288.07461  -288.07461  -287.63144     0.00000    -0.00000     0.00000
  Local  -22703.03476-22703.03476 22981.19511     0.00000    -0.00000     0.00000
  n-local  -244.58877  -233.69268  -241.10532    -0.89279     0.00002     0.00002
  augment    58.14270    58.14270    57.12565    -0.00000     0.00000     0.00000
  Kinetic  1099.33209  1122.20345  1107.01075    -4.66111    -0.00001    -0.00001
  Fock        0.00000     0.00000     0.00000     0.00000     0.00000     0.00000
  -------------------------------------------------------------------------------------
  Total      -5.86548    -5.86548    -3.75227     0.00000     0.00000     0.00000
  in kB     -33.66427   -33.66427   -21.53573     0.00000     0.00000     0.00000
  external pressure =      -29.62 kB  Pullay stress =        0.00 kB


 VOLUME and BASIS-vectors are now :
 -----------------------------------------------------------------------------
  energy-cutoff  :      500.00
  volume of cell :      279.15
      direct lattice vectors                 reciprocal lattice vectors
     3.946846342  0.000000000  0.000000000     0.253366844  0.000000000  0.000000000
     0.000000000  3.946846342  0.000000000     0.000000000  0.253366844  0.000000000
     0.000000000  0.000000000 17.920269512     0.000000000  0.000000000  0.055802732

  length of vectors
     3.946846342  3.946846342 17.920269512     0.253366844  0.253366844  0.055802732


 FORCES acting on ions
    electron-ion (+dipol)            ewald-force                    non-local-force                 convergence-correction
 -----------------------------------------------------------------------------------------------
   0.165E-12 0.292E-12 0.943E+03   -.174E-15 -.960E-15 -.952E+03   0.000E+00 0.000E+00 0.814E+01   0.609E-14 -.255E-14 0.162E-02
   0.157E-12 0.112E-12 0.313E+03   0.679E-14 0.509E-14 -.312E+03   0.000E+00 0.662E-23 -.442E+00   0.141E-14 0.835E-14 -.109E-03
   -.116E-13 0.281E-12 0.313E+03   -.612E-14 -.118E-14 -.312E+03   0.000E+00 0.000E+00 -.442E+00   0.619E-14 0.228E-13 -.109E-03
   0.153E-12 0.108E-13 -.313E+03   -.628E-14 -.146E-14 0.311E+03   -.212E-21 0.000E+00 0.289E+01   -.186E-14 0.869E-14 -.309E-03
   0.186E-12 0.158E-12 -.912E+03   0.332E-15 0.415E-14 0.914E+03   0.000E+00 0.000E+00 -.217E+01   0.351E-15 0.209E-13 0.705E-03
   -.287E-14 -.238E-12 -.912E+03   -.830E-14 0.864E-15 0.914E+03   0.000E+00 0.000E+00 -.217E+01   0.721E-14 -.280E-14 0.705E-03
   -.168E-14 0.719E-13 0.151E+04   0.357E-15 0.112E-14 -.151E+04   0.000E+00 0.000E+00 -.501E+01   0.286E-14 0.211E-13 0.213E-02
   -.428E-14 0.360E-12 -.521E+03   -.276E-14 0.744E-15 0.522E+03   0.000E+00 0.000E+00 -.909E+00   0.652E-14 -.730E-14 -.364E-03
   0.208E-14 -.124E-12 0.208E+03   0.274E-14 -.285E-14 -.209E+03   -.119E-21 0.000E+00 -.275E+00   -.215E-14 -.149E-14 -.116E-04
   0.310E-14 0.567E-13 -.632E+03   0.271E-14 -.378E-14 0.628E+03   0.212E-21 0.000E+00 0.133E+01   -.348E-14 -.298E-14 0.486E-03
 -----------------------------------------------------------------------------------------------
   0.646E-12 0.980E-12 -.940E+00   -.107E-13 0.174E-14 0.114E-12   -.119E-21 0.662E-23 0.940E+00   0.231E-13 0.647E-13 0.474E-02
 
 
 POSITION                                       TOTAL-FORCE (eV/Angst)
 -----------------------------------------------------------------------------------
      1.97342      1.97342      6.00000        -0.000000      0.000000     -0.606010
      1.97342      0.00000      7.97342        -0.000000      0.000000     -0.056861
      0.00000      1.97342      7.97342        -0.000000     -0.000000     -0.056861
      1.97342      1.97342      9.94685        -0.000000      0.000000      1.142486
      1.97342      0.00000     11.92027         0.000000     -0.000000      0.387059
      0.00000      1.97342     11.92027        -0.000000      0.000000      0.387059
      0.00000      0.00000      6.00000        -0.000000      0.000000      1.371455
      0.00000      0.00000      9.94685        -0.000000      0.000000      0.715486
      1.97342      1.97342      7.97342        -0.000000      0.000000     -1.080980
      1.97342      1.97342     11.92027        -0.000000      0.000000     -2.202834
 -----------------------------------------------------------------------------------
    total drift:                                0.000000      0.000000      0.004016


--------------------------------------------------------------------------------------------------------



  FREE ENERGIE OF THE ION-ELECTRON SYSTEM (eV)
  ---------------------------------------------------
  free  energy   TOTEN  =       -77.20723603 eV

  energy  without entropy=      -77.20723603  energy(sigma->0) =      -77.20723603
 


--------------------------------------------------------------------------------------------------------


    POTLOK:  cpu time    0.0660: real time    0.0663


--------------------------------------------------------------------------------------------------------


     LOOP+:  cpu time   35.3526: real time   35.5465
    4ORBIT:  cpu time    0.0000: real time    0.0000
 BZINTS: Fermi energy: -0.482721; 64.000000 electrons
         Band energy:-668.341296;  BLOECHL correction:  0.000000

 total amount of memory used by VASP MPI-rank0    70089. kBytes
=======================================================================

   base      :      30000. kBytes
   nonl-proj :      15930. kBytes
   fftplans  :       4682. kBytes
   grid      :       8414. kBytes
   one-center:         77. kBytes
   wavefun   :      10986. kBytes
 
  
  
 General timing and accounting informations for this job:
 ========================================================
  
                  Total CPU time used (sec):       36.704
                            User time (sec):       36.023
                          System time (sec):        0.682
                         Elapsed time (sec):       37.313
  
                   Maximum memory used (kb):       78716.
                   Average memory used (kb):           0.
  
                          Minor page faults:        23790
                          Major page faults:          190
                 Voluntary context switches:         3646
