unknown system                          
           1
     3.946846    0.000000    0.000000
     0.000000    3.946846    0.000000
     0.000000    0.000000   17.920270
   O    Sr   Ti
   6   2   2
Direct configuration=     1
   0.50000000  0.50000000  0.33481639
   0.50000000  0.00000000  0.44493880
   0.00000000  0.50000000  0.44493880
   0.50000000  0.50000000  0.55506120
   0.50000000  0.00000000  0.66518361
   0.00000000  0.50000000  0.66518361
   0.00000000  0.00000000  0.33481639
   0.00000000  0.00000000  0.55506120
   0.50000000  0.50000000  0.44493880
   0.50000000  0.50000000  0.66518361
