unknown system                          
   1.00000000000000     
     4.913700    0.000000    0.000000
    -2.456850    4.255389    0.000000
     0.000000    0.000000    5.405130
   Si   O 
     3     6
Direct
  0.469800  0.020000  0.666670
  0.000000  0.469800  0.333330
  0.530200  0.530200  0.000000
  0.414500  0.266200  0.785600
  0.733800  0.148300  0.452270
  0.851700  0.585500  0.118930
  0.148300  0.733800  0.547730
  0.266200  0.414500  0.214400
  0.585500  0.851700  0.881070
 
   64   64   72
  1.4929      1.4340      1.4092      1.4114      1.4361      1.4799      1.5398      1.6136      1.7002      1.7990    
  1.9095      2.0301      2.1579      2.2887      2.4183      2.5439      2.6639      2.7787      2.8896      2.9991    
  3.1125      3.2402      3.3999      3.6159      3.9165      4.3303      4.8866      5.6189      6.5713      7.8022    
  9.3807      11.376      13.844      16.817      20.290      24.223      28.519      33.021      37.490      41.611    
  45.022      47.365      48.364      47.886      45.975      42.845      38.825      34.290      29.593      25.016    
  20.764      16.962      13.675      10.919      8.6721      6.8806      5.4740      4.3780      3.5277      2.8731    
  2.3790      2.0179      1.7654      1.5976      1.4479      1.3881      1.3647      1.3708      1.4024      1.4568    
  1.5316      1.6251      1.7361      1.8636      2.0067      2.1631      2.3292      2.4997      2.6687      2.8308    
  2.9816      3.1189      3.2419      3.3514      3.4499      3.5435      3.6439      3.7706      3.9489      4.2070    
  4.5733      5.0753      5.7437      6.6168      7.7425      9.1748      10.964      13.143      15.720      18.668    
  21.919      25.362      28.835      32.123      34.976      37.134      38.373      38.547      37.625      35.699    
  32.959      29.659      26.065      22.418      18.912      15.685      12.826      10.376      8.3365      6.6793    
  5.3547      4.3062      3.4813      2.8387      2.3478      1.9847      1.7278      1.5556      1.4358      1.3777    
  1.3574      1.3684      1.4070      1.4716      1.5607      1.6730      1.8077      1.9639      2.1403      2.3342    
  2.5413      2.7554      2.9693      3.1752      3.3659      3.5359      3.6816      3.8016      3.8963      3.9691    
  4.0275      4.0855      4.1637      4.2887      4.4887      4.7910      5.2213      5.8066      6.5783      7.5737    
  8.8319      10.385      12.248      14.410      16.829      19.428      22.092      24.673      26.996      28.874    
  30.132      30.642      30.341      29.250      27.469      25.155      22.496      19.681      16.879      14.222    
  11.807      9.6896      7.8893      6.3961      5.1795      4.1997      3.4176      2.8006      2.3242      1.9682    
  1.7141      1.5428      1.4499      1.3963      1.3811      1.3982      1.4449      1.5200      1.6231      1.7539    
  1.9121      2.0970      2.3073      2.5402      2.7909      3.0527      3.3171      3.5744      3.8146      4.0287    
  4.2093      4.3520      4.4549      4.5192      4.5499      4.5568      4.5562      4.5707      4.6274      4.7545    
  4.9780      5.3216      5.8080      6.4620      7.3102      8.3777      9.6814      11.222      12.976      14.895    
  16.901      18.891      20.738      22.308      23.469      24.113      24.171      23.631      22.533      20.970    
  19.066      16.960      14.786      12.662      10.680      8.9001      7.3525      6.0411      4.9510      4.0571    
  3.3325      2.7538      2.3023      1.9621      1.7176      1.5523      1.4858      1.4399      1.4324      1.4578    
  1.5140      1.6006      1.7180      1.8670      2.0480      2.2612      2.5054      2.7782      3.0746      3.3876    
  3.7080      4.0244      4.3244      4.5952      4.8252      5.0055      5.1307      5.1998      5.2156      5.1857    
  5.1233      5.0474      4.9826      4.9568      4.9976      5.1300      5.3752      5.7521      6.2784      6.9713    
  7.8438      8.9004      10.131      11.506      12.975      14.468      15.897      17.164      18.170      18.826    
  19.070      18.872      18.242      17.228      15.908      14.379      12.742      11.092      9.5097      8.0525    
  6.7554      5.6315      4.6776      3.8808      3.2250      2.6950      2.2778      1.9614      1.7332      1.5794    
  1.5403      1.5061      1.5097      1.5464      1.6144      1.7139      1.8464      2.0136      2.2169      2.4573    
  2.7346      3.0468      3.3898      3.7567      4.1378      4.5210      4.8913      5.2325      5.5282      5.7640    
  5.9295      6.0194      6.0343      5.9803      5.8691      5.7180      5.5494      5.3901      5.2687      5.2124    
  5.2446      5.3844      5.6463      6.0421      6.5803      7.2640      8.0880      9.0350      10.073      11.157    
  12.225      13.208      14.033      14.630      14.946      14.945      14.620      13.994      13.110      12.032    
  10.833      9.5856      8.3545      7.1909      6.1292      5.1877      4.3713      3.6768      3.0968      2.6232    
  2.2479      1.9625      1.7571      1.6203      1.6104      1.5927      1.6119      1.6637      1.7468      1.8619    
  2.0110      2.1967      2.4218      2.6884      2.9972      3.3477      3.7368      4.1586      4.6040      5.0603    
  5.5111      5.9366      6.3155      6.6272      6.8545      6.9860      7.0178      6.9540      6.8056      6.5899    
  6.3296      6.0511      5.7837      5.5563      5.3954      5.3229      5.3547      5.5018      5.7702      6.1613    
  6.6705      7.2858      7.9857      8.7390      9.5047      10.235      10.876      11.377      11.692      11.789    
  11.651      11.285      10.713      9.9745      9.1187      8.1980      7.2621      6.3532      5.5025      4.7300    
  4.0459      3.4536      2.9524      2.5398      2.2119      1.9631      1.7862      1.6718      1.6941      1.6980    
  1.7377      1.8095      1.9121      2.0463      2.2146      2.4204      2.6676      2.9595      3.2984      3.6854    
  4.1190      4.5952      5.1064      5.6403      6.1797      6.7021      7.1815      7.5905      7.9038      8.1020    
  8.1741      8.1198      7.9485      7.6784      7.3342      6.9448      6.5413      6.1551      5.8152      5.5468    
  5.3691      5.2952      5.3321      5.4811      5.7380      6.0925      6.5279      7.0208      7.5419      8.0568    
  8.5283      8.9183      9.1916      9.3199      9.2854      9.0837      8.7245      8.2299      7.6312      6.9643    
  6.2657      5.5683      4.8988      4.2768      3.7150      3.2209      2.7983      2.4487      2.1712      1.9630    
  1.8189      1.7319      1.7900      1.8206      1.8863      1.9835      2.1109      2.2689      2.4602      2.6888    
  2.9594      3.2768      3.6451      4.0668      4.5429      5.0716      5.6477      6.2608      6.8939      7.5231    
  8.1179      8.6445      9.0689      9.3616      9.5025      9.4834      9.3097      8.9993      8.5796      8.0841    
  7.5488      7.0091      6.4981      6.0439      5.6692      5.3901      5.2165      5.1517      5.1929      5.3315    
  5.5533      5.8387      6.1640      6.5026      6.8266      7.1078      7.3198      7.4398      7.4510      7.3447    
  7.1221      6.7939      6.3788      5.9005      5.3847      4.8561      4.3366      3.8439      3.3913      2.9884    
  2.6416      2.3546      2.1289      1.9637      1.8556      1.7997      1.8977      1.9596      2.0565      2.1849    
  2.3429      2.5304      2.7498      3.0052      3.3022      3.6469      4.0446      4.5001      5.0165      5.5950    
  6.2334      6.9242      7.6522      8.3934      9.1147      9.7760      10.335      10.750      10.991      11.039    
  10.891      10.562      10.080      9.4854      8.8198      8.1267      7.4452      6.8085      6.2429      5.7676    
  5.3949      5.1308      4.9752      4.9221      4.9595      5.0705      5.2342      5.4274      5.6263      5.8087    
  5.9539      6.0439      6.0644      6.0057      5.8642      5.6435      5.3534      5.0090      4.6282      4.2293    
  3.8297      3.4446      3.0866      2.7657      2.4894      2.2628      2.0886      1.9672      1.8972      1.8754    
  2.0164      2.1135      2.2466      2.4119      2.6068      2.8303      3.0839      3.3718      3.6999      4.0751    
  4.5042      4.9936      5.5487      6.1738      6.8703      7.6345      8.4547      9.3084      10.162      10.970    
  11.682      12.247      12.620      12.769      12.680      12.363      11.842      11.161      10.369      9.5211    
  8.6647      7.8418      7.0844      6.4151      5.8488      5.3931      5.0503      4.8170      4.6843      4.6378    
  4.6587      4.7252      4.8154      4.9088      4.9876      5.0369      5.0447      5.0018      4.9026      4.7464    
  4.5372      4.2841      3.9992      3.6964      3.3893      3.0908      2.8119      2.5622      2.3492      2.1785    
  2.0535      1.9756      1.9446      1.9590      2.1443      2.2800      2.4536      2.6612      2.8993      3.1658    
  3.4612      3.7889      4.1546      4.5658      5.0300      5.5550      6.1483      6.8169      7.5664      8.3977    
  9.3038      10.266      11.251      12.212      13.092      13.828      14.362      14.648      14.657      14.387    
  13.858      13.112      12.207      11.206      10.169      9.1517      8.1943      7.3264      6.5658      5.9217    
  5.3970      4.9899      4.6937      4.4967      4.3825      4.3310      4.3205      4.3305      4.3436      4.3460    
  4.3270      4.2784      4.1944      4.0717      3.9112      3.7172      3.4979      3.2636      3.0252      2.7934    
  2.5779      2.3871      2.2282      2.1067      2.0266      1.9900      1.9977      2.0495      2.2780      2.4550    
  2.6727      2.9275      3.2151      3.5322      3.8778      4.2542      4.6665      5.1215      5.6271      6.1917    
  6.8242      7.5344      8.3317      9.2225      10.206      11.267      12.379      13.492      14.547      15.471    
  16.192      16.647      16.793      16.611      16.111      15.332      14.334      13.189      11.971      10.751    
  9.5814      8.5036      7.5415      6.7066      6.0018      5.4247      4.9691      4.6252      4.3788      4.2116    
  4.1024      4.0302      3.9765      3.9267      3.8705      3.8003      3.7108      3.5982      3.4611      3.3012    
  3.1235      2.9353      2.7454      2.5623      2.3946      2.2494      2.1336      2.0526      2.0107      2.0111    
  2.0554      2.1445      2.4135      2.6329      2.8975      3.2036      3.5464      3.9217      4.3270      4.7629    
  5.2327      5.7423      6.2987      6.9100      7.5859      8.3379      9.1791      10.121      11.170      12.320    
  13.546      14.806      16.034      17.154      18.081      18.736      19.055      19.003      18.576      17.802    
  16.741      15.471      14.080      12.652      11.260      9.9579      8.7815      7.7472      6.8589      6.1129    
  5.5011      5.0134      4.6365      4.3539      4.1454      3.9895      3.8662      3.7592      3.6572      3.5526    
  3.4407      3.3180      3.1826      3.0348      2.8774      2.7155      2.5558      2.4050      2.2700      2.1570    
  2.0722      2.0212      2.0091      2.0401      2.1169      2.2412      2.5462      2.8077      3.1203      3.4804    
  3.8833      4.3240      4.7988      5.3061      5.8470      6.4249      7.0451      7.7144      8.4419      9.2398    
  10.124      11.111      12.215      13.437      14.762      16.152      17.545      18.860      20.002      20.878    
  21.404      21.524      21.215      20.492      19.408      18.044      16.496      14.865      13.245      11.707    
  10.301      9.0540      7.9736      7.0551      6.2877      5.6583      5.1528      4.7551      4.4459      4.2040    
  4.0080      3.8394      3.6846      3.5354      3.3868      3.2363      3.0825      2.9254      2.7670      2.6110    
  2.4626      2.3271      2.2097      2.1153      2.0494      2.0175      2.0256      2.0791      2.1822      2.3375    
  2.6727      2.9735      3.3329      3.7478      4.2139      4.7260      5.2794      5.8705      6.4974      7.1603    
  7.8612      8.6045      9.3972      10.251      11.183      12.213      13.361      14.639      16.041      17.538    
  19.075      20.570      21.923      23.029      23.785      24.114      23.970      23.350      22.294      20.878    
  19.205      17.392      15.548      13.768      12.121      10.647      9.3618      8.2624      7.3356      6.5643    
  5.9311      5.4185      5.0075      4.6770      4.4048      4.1704      3.9575      3.7556      3.5591      3.3658    
  3.1753      2.9883      2.8069      2.6347      2.4763      2.3365      2.2195      2.1290      2.0693      2.0455    
  2.0639      2.1310      2.2525      2.4324      2.7915      3.1255      3.5277      3.9954      4.5250      5.1121    
  5.7514      6.4376      7.1656      7.9316      8.7334      9.5712      10.449      11.376      12.367      13.445    
  14.633      15.951      17.405      18.977      20.623      22.267      23.810      25.136      26.131      26.695    
  26.758      26.294      25.323      23.913      22.167      20.209      18.166      16.154      14.262      12.551    
  11.047      9.7553      8.6610      7.7438      6.9818      6.3541      5.8401      5.4183      5.0661      4.7613    
  4.4850      4.2239      3.9706      3.7222      3.4792      3.2433      3.0177      2.8066      2.6150      2.4483    
  2.3108      2.2061      2.1376      2.1096      2.1278      2.1991      2.3303      2.5267      2.9024      3.2612    
  3.6986      4.2134      4.8034      5.4652      6.1941      6.9837      7.8260      8.7129      9.6370      10.593    
  11.581      12.605      13.677      14.816      16.048      17.397      18.878      20.489      22.198      23.943    
  25.631      27.147      28.367      29.172      29.470      29.209      28.385      27.050      25.298      23.256    
  21.063      18.851      16.731      14.785      13.056      11.561      10.289      9.2188      8.3250      7.5814    
  6.9638      6.4488      6.0127      5.6321      5.2860      4.9583      4.6392      4.3247      4.0150      3.7131    
  3.4233      3.1513      2.9032      2.6855      2.5040      2.3630      2.2664      2.2179      2.2229      2.2875    
  2.4186      2.6222      3.0066      3.3795      3.8419      4.3944      5.0370      5.7684      6.5855      7.4816    
  8.4469      9.4692      10.536      11.635      12.761      13.912      15.093      16.319      17.610      18.990    
  20.482      22.094      23.814      25.597      27.367      29.018      30.422      31.451      31.991      31.964    
  31.339      30.147      28.468      26.423      24.154      21.805      19.504      17.349      15.406      13.705    
  12.249      11.021      9.9917      9.1321      8.4125      7.8053      7.2839      6.8228      6.3993      5.9952    
  5.5986      5.2043      4.8124      4.4265      4.0526      3.6978      3.3701      3.0774      2.8269      2.6248    
  2.4764      2.3865      2.3602      2.4034      2.5220      2.7217      3.1064      3.4810      3.9558      4.5333    
  5.2163      6.0067      6.9040      7.9029      8.9929      10.159      11.382      12.647      13.939      15.249    
  16.575      17.920      19.297      20.723      22.221      23.809      25.490      27.244      29.018      30.725    
  32.248      33.456      34.219      34.434      34.044      33.052      31.520      29.559      27.307      24.911    
  22.505      20.203      18.086      16.204      14.573      13.188      12.025      11.053      10.237      9.5437    
  8.9411      8.3994      7.8928      7.4012      6.9117      6.4186      5.9227      5.4294      4.9465      4.4837    
  4.0507      3.6572      3.3121      3.0229      2.7968      2.6400      2.5591      2.5602      2.6489      2.8299    
  3.2071      3.5682      4.0408      4.6282      5.3358      6.1693      7.1320      8.2218      9.4290      10.737    
  12.125      13.569      15.049      16.549      18.055      19.559      21.060      22.562      24.080      25.633    
  27.240      28.904      30.601      32.275      33.827      35.132      36.061      36.495      36.353      35.609    
  34.294      32.500      30.358      28.016      25.610      23.256      21.046      19.041      17.275      15.758    
  14.477      13.405      12.505      11.739      11.068      10.454      9.8651      9.2784      8.6795      8.0636    
  7.4340      6.7995      6.1722      5.5656      4.9929      4.4664      3.9966      3.5921      3.2604      3.0092    
  2.8460      2.7788      2.8140      2.9561      3.3191      3.6472      4.1002      4.6805      5.3944      6.2509    
  7.2580      8.4183      9.7253      11.163      12.709      14.336      16.017      17.729      19.447      21.150    
  22.818      24.437      26.007      27.542      29.064      30.596      32.145      33.672      35.111      36.372    
  37.347      37.922      38.004      37.537      36.522      35.015      33.115      30.949      28.657      26.369    
  24.179      22.154      20.336      18.750      17.395      16.254      15.297      14.483      13.765      13.097    
  12.438      11.758      11.039      10.276      9.4777      8.6580      7.8367      7.0345      6.2715      5.5651    
  4.9288      4.3723      3.9028      3.5268      3.2519      3.0868      3.0397      3.1165      3.4598      3.7298    
  4.1417      4.6952      5.3953      6.2522      7.2783      8.4815      9.8611      11.405      13.090      14.888    
  16.770      18.703      20.654      22.587      24.464      26.249      27.920      29.474      30.931      32.322    
  33.648      34.898      36.057      37.090      37.934      38.505      38.713      38.491      37.811      36.693    
  35.200      33.417      31.441      29.379      27.345      25.433      23.689      22.141      20.798      19.656    
  18.691      17.868      17.137      16.446      15.743      14.985      14.147      13.223      12.222      11.168    
  10.092      9.0263      8.0020      7.0467      6.1812      5.4188      4.7665      4.2284      3.8087      3.5142    
  3.3536      3.3342      3.6534      3.8352      4.1793      4.6825      5.3464      6.1799      7.1971      8.4115    
  9.8289      11.443      13.235      15.178      17.241      19.387      21.577      23.760      25.879      27.876    
  29.703      31.335      32.777      34.034      35.091      35.962      36.681      37.280      37.767      38.118    
  38.278      38.188      37.805      37.120      36.155      34.948      33.543      31.993      30.362      28.738    
  27.221      25.859      24.661      23.625      22.739      21.973      21.284      20.617      19.910      19.107    
  18.169      17.081      15.856      14.524      13.128      11.719      10.345      9.0489      7.8651      6.8164    
  5.9137      5.1593      4.5520      4.0925      3.7853      3.6371      3.9282      3.9887      4.2338      4.6588    
  5.2614      6.0463      7.0265      8.2185      9.6347      11.277      13.132      15.179      17.387      19.719    
  22.130      24.562      26.942      29.188      31.224      33.001      34.494      35.658      36.449      36.888    
  37.043      37.014      36.897      36.757      36.614      36.451      36.238      35.947      35.565      35.080    
  34.476      33.735      32.849      31.846      30.791      29.787      28.898      28.120      27.440      26.837    
  26.276      25.704      25.055      24.260      23.262      22.033      20.577      18.932      17.157      15.321    
  13.498      11.751      10.135      8.6909      7.4400      6.3881      5.5301      4.8575      4.3654      4.0545    
  4.3131      4.2187      4.3316      4.6470      5.1596      5.8692      6.7845      7.9216      9.2975      10.921    
  12.790      14.888      17.189      19.661      22.257      24.915      27.549      30.060      32.347      34.329    
  35.948      37.092      37.676      37.695      37.230      36.430      35.479      34.556      33.793      33.263    
  32.987      32.950      33.117      33.429      33.802      34.135      34.332      34.330      34.124      33.771    
  33.378      33.033      32.726      32.434      32.130      31.765      31.273      30.572      29.586      28.263    
  26.594      24.616      22.406      20.060      17.679      15.359      13.180      11.207      9.4809      8.0182    
  6.8161      5.8593      5.1302      4.6165      4.8374      4.5537      4.5013      4.6743      5.0659      5.6717    
  6.4946      7.5468      8.8460      10.407      12.237      14.327      16.661      19.211      21.935      24.771    
  27.630      30.398      32.952      35.185      36.999      38.219      38.698      38.382      37.326      35.699    
  33.754      31.785      30.070      28.815      28.146      28.105      28.667      29.743      31.185      32.798    
  34.376      35.743      36.790      37.497      37.926      38.208      38.455      38.658      38.787      38.796    
  38.615      38.149      37.296      35.972      34.141      31.834      29.141      26.192      23.133      20.100    
  17.211      14.557      12.204      10.188      8.5163      7.1731      6.1304      5.3589      5.5353      5.0218    
  4.7704      4.7690      5.0084      5.4809      6.1841      7.1241      8.3153      9.7752      11.516      13.542    
  15.843      18.400      21.181      24.129      27.158      30.146      32.957      35.460      37.524      38.916    
  39.420      38.909      37.382      34.983      31.998      28.819      25.871      23.532      22.079      21.669    
  22.335      24.000      26.470      29.462      32.643      35.696      38.375      40.546      42.201      43.438    
  44.431      45.320      46.093      46.698      47.050      47.035      46.511      45.351      43.474      40.885    
  37.681      34.035      30.153      26.237      22.457      18.945      15.793      13.059      10.765      8.9024    
  7.4388      6.3305      6.4513      5.6541      5.1651      4.9577      5.0151      5.3258      5.8826      6.6853    
  7.7426      9.0695      10.682      12.591      14.797      17.291      20.050      23.031      26.155      29.305    
  32.335      35.095      37.436      39.082      39.744      39.214      37.406      34.403      30.474      26.066    
  21.731      18.025      15.414      14.215      14.582      16.498      19.778      24.079      28.949      33.906    
  38.529      42.530      45.791      48.358      50.403      52.162      53.789      55.241      56.413      57.147    
  57.249      56.521      54.812      52.073      48.389      43.971      39.105      34.091      29.190      24.597    
  20.441      16.801      13.711      11.171      9.1511      7.5983      7.6439      6.4893      5.7130      5.2644    
  5.1114      5.2339      5.6196      6.2625      7.1644      8.3349      9.7887      11.540      13.599      15.965    
  18.628      21.559      24.694      27.927      31.114      34.094      36.706      38.660      39.598      39.230    
  37.376      34.025      29.383      23.894      18.192      12.990      8.9473      6.5755      6.1902      7.8974    
  11.583      16.910      23.346      30.254      37.009      43.123      48.317      52.549      55.972      58.865    
  61.520      64.057      66.354      68.199      69.317      69.409      68.218      65.598      61.581      56.394    
  50.409      44.060      37.749      31.783      26.360      21.584      17.500      14.108      11.375      9.2460    
  9.1826      7.5758      6.4460      5.7127      5.3190      5.2291      5.4219      5.8853      6.6144      7.6116    
  8.8867      10.454      12.326      14.513      17.016      19.820      22.882      26.113      29.381      32.523    
  35.371      37.649      38.952      38.912      37.256      33.865      28.844      22.577      15.716      9.0786    
  3.5002     -.31114     -1.8522     -.85374      2.7023      8.5605      16.192      24.856      33.733      42.097    
  49.454      55.616      60.686      64.973      68.857      72.643      76.326      79.641      82.212      83.611    
  83.427      81.367      77.348      71.557      64.430      56.552      48.521      40.828      33.796      27.594    
  22.276      17.832      14.217      11.363      11.137      8.9678      7.4019      6.3278      5.6575      5.3309    
  5.3118      5.5791      6.1213      6.9337      8.0189      9.3864      11.050      13.024      15.318      17.934    
  20.847      23.995      27.263      30.497      33.525      36.110      37.828      38.251      37.019      33.908    
  28.900      22.272      14.621      6.8048     -.21900     -5.5638     -8.5368     -8.6881     -5.8298     -.67684E-01
  8.1636      18.116      28.838      39.372      48.963      57.213      64.117      69.981      75.268      80.411    
  85.621      90.675      95.098      98.308      99.710      98.806      95.328      89.341      81.271      71.830    
  61.844      52.063      43.027      35.033      28.182      22.452      17.767      14.031      13.564      10.716    
  8.6200      7.1367      6.1452      5.5547      5.3058      5.3636      5.7081      6.3278      7.2180      8.3812    
  9.8273      11.572      13.631      16.016      18.724      21.717      24.908      28.161      31.306      34.147    
  36.293      37.269      36.651      34.118      29.528      23.017      15.068      6.4928     -1.6975     -8.4822    
 -12.995     -14.605     -12.943     -7.9273     0.17604      10.719      22.726      35.073      46.746      57.083    
  65.891      73.417      80.178      86.733      93.466      100.35      106.87      112.30      115.84      116.76    
  114.54      109.02      100.51      89.766      77.809      65.698      54.285      44.099      35.359      28.061    
  22.093      17.309      16.495      12.854      10.133      8.1652      6.7998      5.9128      5.4155      5.2524    
  5.3914      5.8135      6.5074      7.4679      8.6989      10.213      12.028      14.164      16.631      19.417    
  22.466      25.669      28.870      31.894      34.437      36.012      36.144      34.437      30.639      24.736    
  17.046      8.2583     -.65296     -8.6013     -14.582     -17.795     -17.689     -13.991     -6.7561      3.5529    
  16.056      29.578      42.910      55.114      65.746      74.906      83.102      90.999      99.141      107.72    
  116.34      124.18      130.26      133.60      133.39      129.18      121.03      109.60      96.018      81.614    
  67.618      54.901      43.909      34.728      27.236      21.226      19.927      15.391      11.956      9.4304    
  7.6349      6.4142      5.6475      5.2530      5.1813      5.4036      5.9019      6.6650      7.6899      8.9835    
  10.562      12.448      14.663      17.212      20.071      23.164      26.362      29.500      32.367      34.530    
  35.486      34.786      32.087      27.237      20.373      11.994      2.9439     -5.7178     -12.910     -17.688    
 -19.333     -17.376     -11.658     -2.4108      9.6801      23.520      37.820      51.419      63.596      74.225    
  83.712      92.766      102.08      112.04      122.49      132.63      141.35      147.51      150.02      147.99    
  141.11      129.87      115.40      99.157      82.699      67.320      53.811      42.460      33.197      25.779    
  23.819      18.299      14.080      10.934      8.6553      7.0626      6.0038      5.3674      5.0817      5.1041    
  5.4096      5.9818      6.8121      7.9012      9.2608      10.912      12.880      15.185      17.827      20.764    
  23.904      27.104      30.197      32.882      34.666      35.067      33.679      30.238      24.706      17.363    
  8.8434     0.73406E-01 -7.8821     -13.993     -17.387     -17.414     -13.703     -6.2391      4.5405      17.733    
  32.104      46.382      59.605      71.373      81.900      91.840      101.97      112.87      124.64      136.66    
  147.79      156.82      162.45      163.39      158.81      148.76      134.30      117.04      98.681      80.865    
  64.810      51.126      39.901      30.911      28.077      21.513      16.463      12.653      9.8513      7.8532    
  6.4803      5.5918      5.0902      4.9154      5.0327      5.4214      6.0685      6.9699      8.1317      9.5712    
  11.313      13.384      15.801      18.555      21.593      24.806      28.051      31.142      33.685      35.190    
  35.212      33.406      29.591      23.834      16.517      8.3414     0.24427     -6.7508     -11.674     -13.714    
 -12.293     -7.1534      1.5388      13.142      26.600      40.663      54.224      66.626      77.825      88.315    
  98.871      110.20      122.64      135.85      148.82      160.31      168.98      173.24      171.78      164.10    
  150.81      133.52      114.19      94.591      76.318      60.382      47.143      36.490      32.540      24.921    
  19.028      14.539      11.194      8.7692      7.0652      5.9164      5.1988      4.8318      4.7682      4.9817    
  5.4566      6.1856      7.1702      8.4228      9.9647      11.824      14.027      16.589      19.494      22.679    
  26.031      29.406      32.575      35.097      36.512      36.423      34.543      30.764      25.219      18.336    
  10.823      3.5809     -2.4170     -6.2493     -7.1557     -4.6452      1.3942      10.616      22.223      35.116    
  48.166      60.540      71.923      82.572      93.143      104.39      116.83      130.43      144.42      157.60    
  168.68      176.05      178.05      173.62      162.77      146.73      127.52      107.17      87.397      69.619    