   9   9   0   0
  0.1255774E+02  0.4913700E-09  0.4913700E-09  0.5405130E-09  0.5000000E-15
  1.000000000000000E-004
  CAR 
 unknown system                          
     13.74632546    -20.45162310  301      1.23557594      1.00000000
    -20.452  0.0000E+00  0.0000E+00
    -20.338  0.0000E+00  0.0000E+00
    -20.224  0.0000E+00  0.0000E+00
    -20.110  0.0000E+00  0.0000E+00
    -19.996  0.0000E+00  0.0000E+00
    -19.882  0.0000E+00  0.0000E+00
    -19.768  0.0000E+00  0.0000E+00
    -19.654  0.0000E+00  0.0000E+00
    -19.540  0.0000E+00  0.0000E+00
    -19.426  0.0000E+00  0.0000E+00
    -19.312  0.0000E+00  0.0000E+00
    -19.198  0.0000E+00  0.0000E+00
    -19.084  0.0000E+00  0.0000E+00
    -18.970  0.0000E+00  0.0000E+00
    -18.856  0.0000E+00  0.0000E+00
    -18.742  0.0000E+00  0.0000E+00
    -18.628  0.0000E+00  0.0000E+00
    -18.514  0.0000E+00  0.0000E+00
    -18.400  0.4384E+00  0.7581E-02
    -18.286  0.1764E+01  0.1507E+00
    -18.172  0.3947E+01  0.4389E+00
    -18.058  0.7659E+01  0.1091E+01
    -17.944  0.3594E+01  0.1908E+01
    -17.830  0.0000E+00  0.2000E+01
    -17.716  0.1458E+01  0.2058E+01
    -17.602  0.3214E+01  0.2298E+01
    -17.488  0.6099E+01  0.2802E+01
    -17.374  0.7803E+01  0.3530E+01
    -17.260  0.1050E+01  0.3951E+01
    -17.146  0.0000E+00  0.4000E+01
    -17.032  0.4237E+00  0.4007E+01
    -16.918  0.2385E+01  0.4159E+01
    -16.804  0.7474E+01  0.4795E+01
    -16.690  0.3940E+01  0.5490E+01
    -16.576  0.2641E+01  0.5849E+01
    -16.462  0.6579E+01  0.6180E+01
    -16.348  0.7038E+01  0.7164E+01
    -16.234  0.4660E+01  0.7790E+01
    -16.120  0.1335E+02  0.9173E+01
    -16.006  0.0000E+00  0.1000E+02
    -15.892  0.2995E+02  0.1100E+02
    -15.778  0.0000E+00  0.1200E+02
    -15.664  0.0000E+00  0.1200E+02
    -15.550  0.0000E+00  0.1200E+02
    -15.436  0.0000E+00  0.1200E+02
    -15.322  0.0000E+00  0.1200E+02
    -15.208  0.0000E+00  0.1200E+02
    -15.094  0.0000E+00  0.1200E+02
    -14.980  0.0000E+00  0.1200E+02
    -14.866  0.0000E+00  0.1200E+02
    -14.752  0.0000E+00  0.1200E+02
    -14.638  0.0000E+00  0.1200E+02
    -14.524  0.0000E+00  0.1200E+02
    -14.410  0.0000E+00  0.1200E+02
    -14.296  0.0000E+00  0.1200E+02
    -14.182  0.0000E+00  0.1200E+02
    -14.068  0.0000E+00  0.1200E+02
    -13.954  0.0000E+00  0.1200E+02
    -13.840  0.0000E+00  0.1200E+02
    -13.726  0.0000E+00  0.1200E+02
    -13.612  0.0000E+00  0.1200E+02
    -13.498  0.0000E+00  0.1200E+02
    -13.384  0.0000E+00  0.1200E+02
    -13.270  0.0000E+00  0.1200E+02
    -13.156  0.0000E+00  0.1200E+02
    -13.042  0.0000E+00  0.1200E+02
    -12.928  0.0000E+00  0.1200E+02
    -12.814  0.0000E+00  0.1200E+02
    -12.700  0.0000E+00  0.1200E+02
    -12.586  0.0000E+00  0.1200E+02
    -12.472  0.0000E+00  0.1200E+02
    -12.358  0.0000E+00  0.1200E+02
    -12.244  0.0000E+00  0.1200E+02
    -12.130  0.0000E+00  0.1200E+02
    -12.016  0.0000E+00  0.1200E+02
    -11.902  0.0000E+00  0.1200E+02
    -11.788  0.0000E+00  0.1200E+02
    -11.674  0.0000E+00  0.1200E+02
    -11.560  0.0000E+00  0.1200E+02
    -11.446  0.0000E+00  0.1200E+02
    -11.332  0.0000E+00  0.1200E+02
    -11.218  0.0000E+00  0.1200E+02
    -11.104  0.0000E+00  0.1200E+02
    -10.990  0.0000E+00  0.1200E+02
    -10.876  0.0000E+00  0.1200E+02
    -10.762  0.0000E+00  0.1200E+02
    -10.648  0.0000E+00  0.1200E+02
    -10.534  0.0000E+00  0.1200E+02
    -10.420  0.0000E+00  0.1200E+02
    -10.306  0.0000E+00  0.1200E+02
    -10.192  0.0000E+00  0.1200E+02
    -10.078  0.0000E+00  0.1200E+02
     -9.964  0.0000E+00  0.1200E+02
     -9.850  0.0000E+00  0.1200E+02
     -9.736  0.0000E+00  0.1200E+02
     -9.622  0.0000E+00  0.1200E+02
     -9.508  0.0000E+00  0.1200E+02
     -9.394  0.0000E+00  0.1200E+02
     -9.280  0.0000E+00  0.1200E+02
     -9.166  0.0000E+00  0.1200E+02
     -9.052  0.0000E+00  0.1200E+02
     -8.938  0.0000E+00  0.1200E+02
     -8.824  0.0000E+00  0.1200E+02
     -8.710  0.0000E+00  0.1200E+02
     -8.596  0.0000E+00  0.1200E+02
     -8.482  0.0000E+00  0.1200E+02
     -8.368  0.0000E+00  0.1200E+02
     -8.254  0.0000E+00  0.1200E+02
     -8.140  0.2158E+00  0.1201E+02
     -8.026  0.4081E+00  0.1205E+02
     -7.912  0.6154E+00  0.1211E+02
     -7.798  0.8368E+00  0.1219E+02
     -7.684  0.1144E+01  0.1230E+02
     -7.570  0.1571E+01  0.1246E+02
     -7.456  0.2626E+01  0.1268E+02
     -7.342  0.7622E+01  0.1327E+02
     -7.228  0.2125E+01  0.1381E+02
     -7.114  0.5584E+00  0.1395E+02
     -7.000  0.2432E+00  0.1400E+02
     -6.886  0.1932E+00  0.1402E+02
     -6.772  0.3167E+00  0.1405E+02
     -6.658  0.5157E+00  0.1409E+02
     -6.544  0.1013E+01  0.1418E+02
     -6.430  0.1751E+01  0.1433E+02
     -6.316  0.3094E+01  0.1460E+02
     -6.202  0.4711E+01  0.1505E+02
     -6.088  0.2398E+01  0.1551E+02
     -5.974  0.1391E+01  0.1572E+02
     -5.860  0.8477E+00  0.1585E+02
     -5.747  0.6150E+00  0.1593E+02
     -5.633  0.3652E+00  0.1599E+02
     -5.519  0.1112E+00  0.1600E+02
     -5.405  0.1668E+01  0.1609E+02
     -5.291  0.3408E+01  0.1640E+02
     -5.177  0.3173E+01  0.1677E+02
     -5.063  0.2960E+01  0.1712E+02
     -4.949  0.2412E+01  0.1744E+02
     -4.835  0.1684E+01  0.1766E+02
     -4.721  0.1344E+01  0.1783E+02
     -4.607  0.9017E+00  0.1796E+02
     -4.493  0.1734E+01  0.1802E+02
     -4.379  0.1157E+02  0.1891E+02
     -4.265  0.5236E+01  0.1983E+02
     -4.151  0.8017E+01  0.2046E+02
     -4.037  0.7103E+01  0.2140E+02
     -3.923  0.3270E+01  0.2203E+02
     -3.809  0.5668E+01  0.2234E+02
     -3.695  0.7210E+01  0.2326E+02
     -3.581  0.2877E+01  0.2381E+02
     -3.467  0.2540E+00  0.2400E+02
     -3.353  0.0000E+00  0.2400E+02
     -3.239  0.0000E+00  0.2400E+02
     -3.125  0.0000E+00  0.2400E+02
     -3.011  0.0000E+00  0.2400E+02
     -2.897  0.0000E+00  0.2400E+02
     -2.783  0.0000E+00  0.2400E+02
     -2.669  0.0000E+00  0.2400E+02
     -2.555  0.0000E+00  0.2400E+02
     -2.441  0.0000E+00  0.2400E+02
     -2.327  0.0000E+00  0.2400E+02
     -2.213  0.7736E+01  0.2411E+02
     -2.099  0.1186E+02  0.2541E+02
     -1.985  0.8176E+01  0.2629E+02
     -1.871  0.5289E+01  0.2707E+02
     -1.757  0.4159E+01  0.2776E+02
     -1.643  0.3448E+01  0.2809E+02
     -1.529  0.1098E+02  0.2905E+02
     -1.415  0.3961E+01  0.2988E+02
     -1.301  0.3289E+01  0.3007E+02
     -1.187  0.1283E+02  0.3111E+02
     -1.073  0.1091E+01  0.3196E+02
     -0.959  0.1657E+02  0.3248E+02
     -0.845  0.1328E+01  0.3387E+02
     -0.731  0.4585E+01  0.3409E+02
     -0.617  0.7643E+01  0.3482E+02
     -0.503  0.9362E+01  0.3594E+02
     -0.389  0.1251E+02  0.3700E+02
     -0.275  0.4986E+01  0.3779E+02
     -0.161  0.9448E+01  0.3850E+02
     -0.047  0.7957E+01  0.3955E+02
      0.067  0.5785E+01  0.4017E+02
      0.181  0.1543E+02  0.4123E+02
      0.295  0.8521E+00  0.4200E+02
      0.409  0.1304E+02  0.4259E+02
      0.523  0.3270E+01  0.4373E+02
      0.637  0.4484E+01  0.4409E+02
      0.751  0.6568E+01  0.4468E+02
      0.865  0.7710E+01  0.4590E+02
      0.979  0.7204E+01  0.4658E+02
      1.093  0.5408E+01  0.4774E+02
      1.207  0.0000E+00  0.4800E+02
      1.321  0.0000E+00  0.4800E+02
      1.435  0.0000E+00  0.4800E+02
      1.549  0.0000E+00  0.4800E+02
      1.663  0.0000E+00  0.4800E+02
      1.777  0.0000E+00  0.4800E+02
      1.891  0.0000E+00  0.4800E+02
      2.005  0.0000E+00  0.4800E+02
      2.119  0.0000E+00  0.4800E+02
      2.233  0.0000E+00  0.4800E+02
      2.347  0.0000E+00  0.4800E+02
      2.461  0.0000E+00  0.4800E+02
      2.575  0.0000E+00  0.4800E+02
      2.689  0.0000E+00  0.4800E+02
      2.803  0.0000E+00  0.4800E+02
      2.917  0.0000E+00  0.4800E+02
      3.031  0.0000E+00  0.4800E+02
      3.145  0.0000E+00  0.4800E+02
      3.259  0.0000E+00  0.4800E+02
      3.373  0.0000E+00  0.4800E+02
      3.487  0.0000E+00  0.4800E+02
      3.601  0.0000E+00  0.4800E+02
      3.715  0.0000E+00  0.4800E+02
      3.829  0.0000E+00  0.4800E+02
      3.943  0.0000E+00  0.4800E+02
      4.057  0.0000E+00  0.4800E+02
      4.171  0.0000E+00  0.4800E+02
      4.285  0.0000E+00  0.4800E+02
      4.399  0.0000E+00  0.4800E+02
      4.513  0.0000E+00  0.4800E+02
      4.627  0.0000E+00  0.4800E+02
      4.741  0.0000E+00  0.4800E+02
      4.855  0.0000E+00  0.4800E+02
      4.969  0.0000E+00  0.4800E+02
      5.083  0.0000E+00  0.4800E+02
      5.197  0.0000E+00  0.4800E+02
      5.311  0.0000E+00  0.4800E+02
      5.425  0.0000E+00  0.4800E+02
      5.539  0.0000E+00  0.4800E+02
      5.653  0.0000E+00  0.4800E+02
      5.767  0.0000E+00  0.4800E+02
      5.881  0.0000E+00  0.4800E+02
      5.995  0.0000E+00  0.4800E+02
      6.109  0.0000E+00  0.4800E+02
      6.223  0.0000E+00  0.4800E+02
      6.337  0.0000E+00  0.4800E+02
      6.451  0.0000E+00  0.4800E+02
      6.565  0.0000E+00  0.4800E+02
      6.679  0.0000E+00  0.4800E+02
      6.793  0.0000E+00  0.4800E+02
      6.907  0.0000E+00  0.4800E+02
      7.021  0.0000E+00  0.4800E+02
      7.135  0.1333E-02  0.4800E+02
      7.249  0.2282E-01  0.4800E+02
      7.363  0.7054E-01  0.4801E+02
      7.477  0.1445E+00  0.4802E+02
      7.591  0.2216E+00  0.4804E+02
      7.705  0.2629E+00  0.4807E+02
      7.819  0.2862E+00  0.4810E+02
      7.933  0.3184E+00  0.4813E+02
      8.047  0.3652E+00  0.4817E+02
      8.161  0.4146E+00  0.4822E+02
      8.275  0.4666E+00  0.4827E+02
      8.389  0.5210E+00  0.4832E+02
      8.503  0.6061E+00  0.4839E+02
      8.617  0.7640E+00  0.4846E+02
      8.731  0.8645E+00  0.4856E+02
      8.845  0.8616E+00  0.4865E+02
      8.959  0.9247E+00  0.4876E+02
      9.073  0.9899E+00  0.4887E+02
      9.187  0.1057E+01  0.4898E+02
      9.301  0.1508E+01  0.4912E+02
      9.415  0.1552E+01  0.4930E+02
      9.529  0.1301E+01  0.4946E+02
      9.643  0.1293E+01  0.4960E+02
      9.757  0.1509E+01  0.4976E+02
      9.871  0.2057E+01  0.4995E+02
      9.985  0.1155E+01  0.5013E+02
     10.099  0.1144E+01  0.5025E+02
     10.213  0.3181E+01  0.5047E+02
     10.327  0.1025E+02  0.5121E+02
     10.441  0.4145E+01  0.5201E+02
     10.555  0.6089E+01  0.5255E+02
     10.669  0.7684E+01  0.5346E+02
     10.783  0.4740E+01  0.5416E+02
     10.896  0.2404E+01  0.5449E+02
     11.010  0.4369E+01  0.5484E+02
     11.124  0.6779E+01  0.5552E+02
     11.238  0.4929E+01  0.5611E+02
     11.352  0.5291E+01  0.5666E+02
     11.466  0.5758E+01  0.5735E+02
     11.580  0.2787E+01  0.5785E+02
     11.694  0.1646E+00  0.5800E+02
     11.808  0.0000E+00  0.5800E+02
     11.922  0.0000E+00  0.5800E+02
     12.036  0.0000E+00  0.5800E+02
     12.150  0.0000E+00  0.5800E+02
     12.264  0.0000E+00  0.5800E+02
     12.378  0.0000E+00  0.5800E+02
     12.492  0.0000E+00  0.5800E+02
     12.606  0.0000E+00  0.5800E+02
     12.720  0.0000E+00  0.5800E+02
     12.834  0.0000E+00  0.5800E+02
     12.948  0.0000E+00  0.5800E+02
     13.062  0.0000E+00  0.5800E+02
     13.176  0.0000E+00  0.5800E+02
     13.290  0.0000E+00  0.5800E+02
     13.404  0.0000E+00  0.5800E+02
     13.518  0.0000E+00  0.5800E+02
     13.632  0.0000E+00  0.5800E+02
     13.746  0.0000E+00  0.5800E+02
