<?xml version="1.0" encoding="ISO-8859-1"?>
<modeling>
 <generator>
  <i name="program" type="string">vasp </i>
  <i name="version" type="string">5.4.1  </i>
  <i name="subversion" type="string">05Feb16 (build Mar 02 2016 14:09:44) complex                          parallel </i>
  <i name="platform" type="string">Abel-impi-ifc-cuda </i>
  <i name="date" type="string">2019 09 13 </i>
  <i name="time" type="string">11:30:04 </i>
 </generator>
 <incar>
  <i type="string" name="PREC">normal    ! low/normal/accurate</i>
  <i type="string" name="ALGO"> Fast      ! Algorithm for electronic re</i>
  <i type="int" name="ISPIN">     1</i>
  <i type="int" name="NELMIN">     4</i>
  <i name="EDIFF">      0.00001000</i>
  <i type="int" name="NSW">     0</i>
  <i name="ENCUT">    700.00000000</i>
  <i type="string" name="LREAL"> Auto      ! Projection in reciprocal sp</i>
  <i type="int" name="ISMEAR">    -5</i>
  <i name="SIGMA">      0.20000000</i>
  <i type="logical" name="LWAVE"> F  </i>
  <v type="int" name="KPOINT_BSE">    -1     0     0     0</v>
 </incar>
 <kpoints>
  <generation param="Gamma">
   <v type="int" name="divisions">       6        6        5 </v>
   <v name="usershift">      0.00000000       0.00000000       0.00000000 </v>
   <v name="genvec1">      0.16666667       0.00000000       0.00000000 </v>
   <v name="genvec2">      0.00000000       0.16666667       0.00000000 </v>
   <v name="genvec3">      0.00000000       0.00000000       0.20000000 </v>
   <v name="shift">      0.00000000       0.00000000       0.00000000 </v>
  </generation>
  <varray name="kpointlist" >
   <v>       0.00000000       0.00000000       0.00000000 </v>
   <v>       0.16666667       0.00000000       0.00000000 </v>
   <v>       0.33333333       0.00000000       0.00000000 </v>
   <v>       0.50000000       0.00000000       0.00000000 </v>
   <v>       0.00000000       0.16666667       0.00000000 </v>
   <v>       0.16666667       0.16666667       0.00000000 </v>
   <v>       0.33333333       0.16666667       0.00000000 </v>
   <v>       0.50000000       0.16666667       0.00000000 </v>
   <v>      -0.33333333       0.16666667       0.00000000 </v>
   <v>      -0.16666667       0.16666667       0.00000000 </v>
   <v>       0.00000000       0.33333333       0.00000000 </v>
   <v>       0.16666667       0.33333333       0.00000000 </v>
   <v>       0.33333333       0.33333333       0.00000000 </v>
   <v>       0.50000000       0.33333333       0.00000000 </v>
   <v>      -0.33333333       0.33333333       0.00000000 </v>
   <v>      -0.16666667       0.33333333       0.00000000 </v>
   <v>       0.00000000       0.50000000       0.00000000 </v>
   <v>       0.16666667       0.50000000       0.00000000 </v>
   <v>       0.33333333       0.50000000       0.00000000 </v>
   <v>       0.50000000       0.50000000       0.00000000 </v>
   <v>       0.00000000       0.00000000       0.20000000 </v>
   <v>       0.16666667       0.00000000       0.20000000 </v>
   <v>       0.33333333       0.00000000       0.20000000 </v>
   <v>       0.50000000       0.00000000       0.20000000 </v>
   <v>      -0.33333333       0.00000000       0.20000000 </v>
   <v>      -0.16666667       0.00000000       0.20000000 </v>
   <v>       0.00000000       0.16666667       0.20000000 </v>
   <v>       0.16666667       0.16666667       0.20000000 </v>
   <v>       0.33333333       0.16666667       0.20000000 </v>
   <v>       0.50000000       0.16666667       0.20000000 </v>
   <v>      -0.33333333       0.16666667       0.20000000 </v>
   <v>      -0.16666667       0.16666667       0.20000000 </v>
   <v>       0.00000000       0.33333333       0.20000000 </v>
   <v>       0.16666667       0.33333333       0.20000000 </v>
   <v>       0.33333333       0.33333333       0.20000000 </v>
   <v>       0.50000000       0.33333333       0.20000000 </v>
   <v>      -0.33333333       0.33333333       0.20000000 </v>
   <v>      -0.16666667       0.33333333       0.20000000 </v>
   <v>       0.00000000       0.50000000       0.20000000 </v>
   <v>       0.16666667       0.50000000       0.20000000 </v>
   <v>       0.33333333       0.50000000       0.20000000 </v>
   <v>       0.50000000       0.50000000       0.20000000 </v>
   <v>      -0.33333333       0.50000000       0.20000000 </v>
   <v>      -0.16666667       0.50000000       0.20000000 </v>
   <v>       0.00000000      -0.33333333       0.20000000 </v>
   <v>       0.16666667      -0.33333333       0.20000000 </v>
   <v>       0.33333333      -0.33333333       0.20000000 </v>
   <v>       0.50000000      -0.33333333       0.20000000 </v>
   <v>      -0.33333333      -0.33333333       0.20000000 </v>
   <v>      -0.16666667      -0.33333333       0.20000000 </v>
   <v>       0.00000000      -0.16666667       0.20000000 </v>
   <v>       0.16666667      -0.16666667       0.20000000 </v>
   <v>       0.33333333      -0.16666667       0.20000000 </v>
   <v>       0.50000000      -0.16666667       0.20000000 </v>
   <v>      -0.33333333      -0.16666667       0.20000000 </v>
   <v>      -0.16666667      -0.16666667       0.20000000 </v>
   <v>       0.00000000       0.00000000       0.40000000 </v>
   <v>       0.16666667       0.00000000       0.40000000 </v>
   <v>       0.33333333       0.00000000       0.40000000 </v>
   <v>       0.50000000       0.00000000       0.40000000 </v>
   <v>      -0.33333333       0.00000000       0.40000000 </v>
   <v>      -0.16666667       0.00000000       0.40000000 </v>
   <v>       0.00000000       0.16666667       0.40000000 </v>
   <v>       0.16666667       0.16666667       0.40000000 </v>
   <v>       0.33333333       0.16666667       0.40000000 </v>
   <v>       0.50000000       0.16666667       0.40000000 </v>
   <v>      -0.33333333       0.16666667       0.40000000 </v>
   <v>      -0.16666667       0.16666667       0.40000000 </v>
   <v>       0.00000000       0.33333333       0.40000000 </v>
   <v>       0.16666667       0.33333333       0.40000000 </v>
   <v>       0.33333333       0.33333333       0.40000000 </v>
   <v>       0.50000000       0.33333333       0.40000000 </v>
   <v>      -0.33333333       0.33333333       0.40000000 </v>
   <v>      -0.16666667       0.33333333       0.40000000 </v>
   <v>       0.00000000       0.50000000       0.40000000 </v>
   <v>       0.16666667       0.50000000       0.40000000 </v>
   <v>       0.33333333       0.50000000       0.40000000 </v>
   <v>       0.50000000       0.50000000       0.40000000 </v>
   <v>      -0.33333333       0.50000000       0.40000000 </v>
   <v>      -0.16666667       0.50000000       0.40000000 </v>
   <v>       0.00000000      -0.33333333       0.40000000 </v>
   <v>       0.16666667      -0.33333333       0.40000000 </v>
   <v>       0.33333333      -0.33333333       0.40000000 </v>
   <v>       0.50000000      -0.33333333       0.40000000 </v>
   <v>      -0.33333333      -0.33333333       0.40000000 </v>
   <v>      -0.16666667      -0.33333333       0.40000000 </v>
   <v>       0.00000000      -0.16666667       0.40000000 </v>
   <v>       0.16666667      -0.16666667       0.40000000 </v>
   <v>       0.33333333      -0.16666667       0.40000000 </v>
   <v>       0.50000000      -0.16666667       0.40000000 </v>
   <v>      -0.33333333      -0.16666667       0.40000000 </v>
   <v>      -0.16666667      -0.16666667       0.40000000 </v>
  </varray>
  <varray name="weights" >
   <v>       0.00555556 </v>
   <v>       0.01111111 </v>
   <v>       0.01111111 </v>
   <v>       0.00555556 </v>
   <v>       0.01111111 </v>
   <v>       0.01111111 </v>
   <v>       0.01111111 </v>
   <v>       0.01111111 </v>
   <v>       0.01111111 </v>
   <v>       0.01111111 </v>
   <v>       0.01111111 </v>
   <v>       0.01111111 </v>
   <v>       0.01111111 </v>
   <v>       0.01111111 </v>
   <v>       0.01111111 </v>
   <v>       0.01111111 </v>
   <v>       0.00555556 </v>
   <v>       0.01111111 </v>
   <v>       0.01111111 </v>
   <v>       0.00555556 </v>
   <v>       0.01111111 </v>
   <v>       0.01111111 </v>
   <v>       0.01111111 </v>
   <v>       0.01111111 </v>
   <v>       0.01111111 </v>
   <v>       0.01111111 </v>
   <v>       0.01111111 </v>
   <v>       0.01111111 </v>
   <v>       0.01111111 </v>
   <v>       0.01111111 </v>
   <v>       0.01111111 </v>
   <v>       0.01111111 </v>
   <v>       0.01111111 </v>
   <v>       0.01111111 </v>
   <v>       0.01111111 </v>
   <v>       0.01111111 </v>
   <v>       0.01111111 </v>
   <v>       0.01111111 </v>
   <v>       0.01111111 </v>
   <v>       0.01111111 </v>
   <v>       0.01111111 </v>
   <v>       0.01111111 </v>
   <v>       0.01111111 </v>
   <v>       0.01111111 </v>
   <v>       0.01111111 </v>
   <v>       0.01111111 </v>
   <v>       0.01111111 </v>
   <v>       0.01111111 </v>
   <v>       0.01111111 </v>
   <v>       0.01111111 </v>
   <v>       0.01111111 </v>
   <v>       0.01111111 </v>
   <v>       0.01111111 </v>
   <v>       0.01111111 </v>
   <v>       0.01111111 </v>
   <v>       0.01111111 </v>
   <v>       0.01111111 </v>
   <v>       0.01111111 </v>
   <v>       0.01111111 </v>
   <v>       0.01111111 </v>
   <v>       0.01111111 </v>
   <v>       0.01111111 </v>
   <v>       0.01111111 </v>
   <v>       0.01111111 </v>
   <v>       0.01111111 </v>
   <v>       0.01111111 </v>
   <v>       0.01111111 </v>
   <v>       0.01111111 </v>
   <v>       0.01111111 </v>
   <v>       0.01111111 </v>
   <v>       0.01111111 </v>
   <v>       0.01111111 </v>
   <v>       0.01111111 </v>
   <v>       0.01111111 </v>
   <v>       0.01111111 </v>
   <v>       0.01111111 </v>
   <v>       0.01111111 </v>
   <v>       0.01111111 </v>
   <v>       0.01111111 </v>
   <v>       0.01111111 </v>
   <v>       0.01111111 </v>
   <v>       0.01111111 </v>
   <v>       0.01111111 </v>
   <v>       0.01111111 </v>
   <v>       0.01111111 </v>
   <v>       0.01111111 </v>
   <v>       0.01111111 </v>
   <v>       0.01111111 </v>
   <v>       0.01111111 </v>
   <v>       0.01111111 </v>
   <v>       0.01111111 </v>
   <v>       0.01111111 </v>
  </varray>
  <varray name="tetrahedronlist"  type="int" >
   <v type="int" >        2        2        5        6       27 </v>
   <v type="int" >        2        1        2        5       27 </v>
   <v type="int" >        2        1        2       21       27 </v>
   <v type="int" >        2        2        6       27       28 </v>
   <v type="int" >        2        2       22       27       28 </v>
   <v type="int" >        2        2       21       22       27 </v>
   <v type="int" >        2        3        6        7       28 </v>
   <v type="int" >        2        2        3        6       28 </v>
   <v type="int" >        2        2        3       22       28 </v>
   <v type="int" >        2        3        7       28       29 </v>
   <v type="int" >        2        3       23       28       29 </v>
   <v type="int" >        2        3       22       23       28 </v>
   <v type="int" >        2        4        7        8       29 </v>
   <v type="int" >        2        3        4        7       29 </v>
   <v type="int" >        2        3        4       23       29 </v>
   <v type="int" >        2        4        8       29       30 </v>
   <v type="int" >        2        4       24       29       30 </v>
   <v type="int" >        2        4       23       24       29 </v>
   <v type="int" >        2        3        8        9       30 </v>
   <v type="int" >        2        3        4        8       30 </v>
   <v type="int" >        2        3        4       24       30 </v>
   <v type="int" >        2        3        9       30       31 </v>
   <v type="int" >        2        3       25       30       31 </v>
   <v type="int" >        2        3       24       25       30 </v>
   <v type="int" >        2        2        9       10       31 </v>
   <v type="int" >        2        2        3        9       31 </v>
   <v type="int" >        2        2        3       25       31 </v>
   <v type="int" >        2        2       10       31       32 </v>
   <v type="int" >        2        2       26       31       32 </v>
   <v type="int" >        2        2       25       26       31 </v>
   <v type="int" >        2        1        5       10       32 </v>
   <v type="int" >        2        1        2       10       32 </v>
   <v type="int" >        2        1        2       26       32 </v>
   <v type="int" >        2        1        5       27       32 </v>
   <v type="int" >        2        1       21       27       32 </v>
   <v type="int" >        2        1       21       26       32 </v>
   <v type="int" >        2        6       11       12       33 </v>
   <v type="int" >        2        5        6       11       33 </v>
   <v type="int" >        2        5        6       27       33 </v>
   <v type="int" >        2        6       12       33       34 </v>
   <v type="int" >        2        6       28       33       34 </v>
   <v type="int" >        2        6       27       28       33 </v>
   <v type="int" >        2        7       12       13       34 </v>
   <v type="int" >        2        6        7       12       34 </v>
   <v type="int" >        2        6        7       28       34 </v>
   <v type="int" >        2        7       13       34       35 </v>
   <v type="int" >        2        7       29       34       35 </v>
   <v type="int" >        2        7       28       29       34 </v>
   <v type="int" >        2        8       13       14       35 </v>
   <v type="int" >        2        7        8       13       35 </v>
   <v type="int" >        2        7        8       29       35 </v>
   <v type="int" >        2        8       14       35       36 </v>
   <v type="int" >        2        8       30       35       36 </v>
   <v type="int" >        2        8       29       30       35 </v>
   <v type="int" >        2        9       14       15       36 </v>
   <v type="int" >        2        8        9       14       36 </v>
   <v type="int" >        2        8        9       30       36 </v>
   <v type="int" >        2        9       15       36       37 </v>
   <v type="int" >        2        9       31       36       37 </v>
   <v type="int" >        2        9       30       31       36 </v>
   <v type="int" >        2       10       15       16       37 </v>
   <v type="int" >        2        9       10       15       37 </v>
   <v type="int" >        2        9       10       31       37 </v>
   <v type="int" >        2       10       16       37       38 </v>
   <v type="int" >        2       10       32       37       38 </v>
   <v type="int" >        2       10       31       32       37 </v>
   <v type="int" >        2        5       11       16       38 </v>
   <v type="int" >        2        5       10       16       38 </v>
   <v type="int" >        2        5       10       32       38 </v>
   <v type="int" >        2        5       11       33       38 </v>
   <v type="int" >        2        5       27       33       38 </v>
   <v type="int" >        2        5       27       32       38 </v>
   <v type="int" >        2       12       17       18       39 </v>
   <v type="int" >        2       11       12       17       39 </v>
   <v type="int" >        2       11       12       33       39 </v>
   <v type="int" >        2       12       18       39       40 </v>
   <v type="int" >        2       12       34       39       40 </v>
   <v type="int" >        2       12       33       34       39 </v>
   <v type="int" >        2       13       18       19       40 </v>
   <v type="int" >        2       12       13       18       40 </v>
   <v type="int" >        2       12       13       34       40 </v>
   <v type="int" >        2       13       19       40       41 </v>
   <v type="int" >        2       13       35       40       41 </v>
   <v type="int" >        2       13       34       35       40 </v>
   <v type="int" >        2       14       19       20       41 </v>
   <v type="int" >        2       13       14       19       41 </v>
   <v type="int" >        2       13       14       35       41 </v>
   <v type="int" >        2       14       20       41       42 </v>
   <v type="int" >        2       14       36       41       42 </v>
   <v type="int" >        2       14       35       36       41 </v>
   <v type="int" >        2       15       19       20       42 </v>
   <v type="int" >        2       14       15       20       42 </v>
   <v type="int" >        2       14       15       36       42 </v>
   <v type="int" >        2       15       19       42       43 </v>
   <v type="int" >        2       15       37       42       43 </v>
   <v type="int" >        2       15       36       37       42 </v>
   <v type="int" >        2       16       18       19       43 </v>
   <v type="int" >        2       15       16       19       43 </v>
   <v type="int" >        2       15       16       37       43 </v>
   <v type="int" >        2       16       18       43       44 </v>
   <v type="int" >        2       16       38       43       44 </v>
   <v type="int" >        2       16       37       38       43 </v>
   <v type="int" >        2       11       17       18       44 </v>
   <v type="int" >        2       11       16       18       44 </v>
   <v type="int" >        2       11       16       38       44 </v>
   <v type="int" >        2       11       17       39       44 </v>
   <v type="int" >        2       11       33       39       44 </v>
   <v type="int" >        2       11       33       38       44 </v>
   <v type="int" >        2       11       16       18       45 </v>
   <v type="int" >        2       11       17       18       45 </v>
   <v type="int" >        2       17       18       39       45 </v>
   <v type="int" >        2       16       18       45       46 </v>
   <v type="int" >        2       18       40       45       46 </v>
   <v type="int" >        2       18       39       40       45 </v>
   <v type="int" >        2       15       16       19       46 </v>
   <v type="int" >        2       16       18       19       46 </v>
   <v type="int" >        2       18       19       40       46 </v>
   <v type="int" >        2       15       19       46       47 </v>
   <v type="int" >        2       19       41       46       47 </v>
   <v type="int" >        2       19       40       41       46 </v>
   <v type="int" >        2       14       15       20       47 </v>
   <v type="int" >        2       15       19       20       47 </v>
   <v type="int" >        2       19       20       41       47 </v>
   <v type="int" >        2       14       20       47       48 </v>
   <v type="int" >        2       20       42       47       48 </v>
   <v type="int" >        2       20       41       42       47 </v>
   <v type="int" >        2       13       14       19       48 </v>
   <v type="int" >        2       14       19       20       48 </v>
   <v type="int" >        2       19       20       42       48 </v>
   <v type="int" >        2       13       19       48       49 </v>
   <v type="int" >        2       19       43       48       49 </v>
   <v type="int" >        2       19       42       43       48 </v>
   <v type="int" >        2       12       13       18       49 </v>
   <v type="int" >        2       13       18       19       49 </v>
   <v type="int" >        2       18       19       43       49 </v>
   <v type="int" >        2       12       18       49       50 </v>
   <v type="int" >        2       18       44       49       50 </v>
   <v type="int" >        2       18       43       44       49 </v>
   <v type="int" >        2       11       12       17       50 </v>
   <v type="int" >        2       12       17       18       50 </v>
   <v type="int" >        2       17       18       44       50 </v>
   <v type="int" >        2       11       17       45       50 </v>
   <v type="int" >        2       17       39       45       50 </v>
   <v type="int" >        2       17       39       44       50 </v>
   <v type="int" >        2        5       10       16       51 </v>
   <v type="int" >        2        5       11       16       51 </v>
   <v type="int" >        2       11       16       45       51 </v>
   <v type="int" >        2       10       16       51       52 </v>
   <v type="int" >        2       16       46       51       52 </v>
   <v type="int" >        2       16       45       46       51 </v>
   <v type="int" >        2        9       10       15       52 </v>
   <v type="int" >        2       10       15       16       52 </v>
   <v type="int" >        2       15       16       46       52 </v>
   <v type="int" >        2        9       15       52       53 </v>
   <v type="int" >        2       15       47       52       53 </v>
   <v type="int" >        2       15       46       47       52 </v>
   <v type="int" >        2        8        9       14       53 </v>
   <v type="int" >        2        9       14       15       53 </v>
   <v type="int" >        2       14       15       47       53 </v>
   <v type="int" >        2        8       14       53       54 </v>
   <v type="int" >        2       14       48       53       54 </v>
   <v type="int" >        2       14       47       48       53 </v>
   <v type="int" >        2        7        8       13       54 </v>
   <v type="int" >        2        8       13       14       54 </v>
   <v type="int" >        2       13       14       48       54 </v>
   <v type="int" >        2        7       13       54       55 </v>
   <v type="int" >        2       13       49       54       55 </v>
   <v type="int" >        2       13       48       49       54 </v>
   <v type="int" >        2        6        7       12       55 </v>
   <v type="int" >        2        7       12       13       55 </v>
   <v type="int" >        2       12       13       49       55 </v>
   <v type="int" >        2        6       12       55       56 </v>
   <v type="int" >        2       12       50       55       56 </v>
   <v type="int" >        2       12       49       50       55 </v>
   <v type="int" >        2        5        6       11       56 </v>
   <v type="int" >        2        6       11       12       56 </v>
   <v type="int" >        2       11       12       50       56 </v>
   <v type="int" >        2        5       11       51       56 </v>
   <v type="int" >        2       11       45       51       56 </v>
   <v type="int" >        2       11       45       50       56 </v>
   <v type="int" >        2        1        2       10       21 </v>
   <v type="int" >        2        1        5       10       21 </v>
   <v type="int" >        2        5       10       21       51 </v>
   <v type="int" >        2        2       10       21       22 </v>
   <v type="int" >        2       10       21       22       52 </v>
   <v type="int" >        2       10       21       51       52 </v>
   <v type="int" >        2        2        3        9       22 </v>
   <v type="int" >        2        2        9       10       22 </v>
   <v type="int" >        2        9       10       22       52 </v>
   <v type="int" >        2        3        9       22       23 </v>
   <v type="int" >        2        9       22       23       53 </v>
   <v type="int" >        2        9       22       52       53 </v>
   <v type="int" >        2        3        4        8       23 </v>
   <v type="int" >        2        3        8        9       23 </v>
   <v type="int" >        2        8        9       23       53 </v>
   <v type="int" >        2        4        8       23       24 </v>
   <v type="int" >        2        8       23       24       54 </v>
   <v type="int" >        2        8       23       53       54 </v>
   <v type="int" >        2        3        4        7       24 </v>
   <v type="int" >        2        4        7        8       24 </v>
   <v type="int" >        2        7        8       24       54 </v>
   <v type="int" >        2        3        7       24       25 </v>
   <v type="int" >        2        7       24       25       55 </v>
   <v type="int" >        2        7       24       54       55 </v>
   <v type="int" >        2        2        3        6       25 </v>
   <v type="int" >        2        3        6        7       25 </v>
   <v type="int" >        2        6        7       25       55 </v>
   <v type="int" >        2        2        6       25       26 </v>
   <v type="int" >        2        6       25       26       56 </v>
   <v type="int" >        2        6       25       55       56 </v>
   <v type="int" >        2        1        2        5       26 </v>
   <v type="int" >        2        2        5        6       26 </v>
   <v type="int" >        2        5        6       26       56 </v>
   <v type="int" >        2        1        5       21       26 </v>
   <v type="int" >        2        5       21       26       51 </v>
   <v type="int" >        2        5       26       51       56 </v>
   <v type="int" >        2       22       27       28       63 </v>
   <v type="int" >        2       21       22       27       63 </v>
   <v type="int" >        2       21       22       57       63 </v>
   <v type="int" >        2       22       28       63       64 </v>
   <v type="int" >        2       22       58       63       64 </v>
   <v type="int" >        2       22       57       58       63 </v>
   <v type="int" >        2       23       28       29       64 </v>
   <v type="int" >        2       22       23       28       64 </v>
   <v type="int" >        2       22       23       58       64 </v>
   <v type="int" >        2       23       29       64       65 </v>
   <v type="int" >        2       23       59       64       65 </v>
   <v type="int" >        2       23       58       59       64 </v>
   <v type="int" >        2       24       29       30       65 </v>
   <v type="int" >        2       23       24       29       65 </v>
   <v type="int" >        2       23       24       59       65 </v>
   <v type="int" >        2       24       30       65       66 </v>
   <v type="int" >        2       24       60       65       66 </v>
   <v type="int" >        2       24       59       60       65 </v>
   <v type="int" >        2       25       30       31       66 </v>
   <v type="int" >        2       24       25       30       66 </v>
   <v type="int" >        2       24       25       60       66 </v>
   <v type="int" >        2       25       31       66       67 </v>
   <v type="int" >        2       25       61       66       67 </v>
   <v type="int" >        2       25       60       61       66 </v>
   <v type="int" >        2       26       31       32       67 </v>
   <v type="int" >        2       25       26       31       67 </v>
   <v type="int" >        2       25       26       61       67 </v>
   <v type="int" >        2       26       32       67       68 </v>
   <v type="int" >        2       26       62       67       68 </v>
   <v type="int" >        2       26       61       62       67 </v>
   <v type="int" >        2       21       27       32       68 </v>
   <v type="int" >        2       21       26       32       68 </v>
   <v type="int" >        2       21       26       62       68 </v>
   <v type="int" >        2       21       27       63       68 </v>
   <v type="int" >        2       21       57       63       68 </v>
   <v type="int" >        2       21       57       62       68 </v>
   <v type="int" >        2       28       33       34       69 </v>
   <v type="int" >        2       27       28       33       69 </v>
   <v type="int" >        2       27       28       63       69 </v>
   <v type="int" >        2       28       34       69       70 </v>
   <v type="int" >        2       28       64       69       70 </v>
   <v type="int" >        2       28       63       64       69 </v>
   <v type="int" >        2       29       34       35       70 </v>
   <v type="int" >        2       28       29       34       70 </v>
   <v type="int" >        2       28       29       64       70 </v>
   <v type="int" >        2       29       35       70       71 </v>
   <v type="int" >        2       29       65       70       71 </v>
   <v type="int" >        2       29       64       65       70 </v>
   <v type="int" >        2       30       35       36       71 </v>
   <v type="int" >        2       29       30       35       71 </v>
   <v type="int" >        2       29       30       65       71 </v>
   <v type="int" >        2       30       36       71       72 </v>
   <v type="int" >        2       30       66       71       72 </v>
   <v type="int" >        2       30       65       66       71 </v>
   <v type="int" >        2       31       36       37       72 </v>
   <v type="int" >        2       30       31       36       72 </v>
   <v type="int" >        2       30       31       66       72 </v>
   <v type="int" >        2       31       37       72       73 </v>
   <v type="int" >        2       31       67       72       73 </v>
   <v type="int" >        2       31       66       67       72 </v>
   <v type="int" >        2       32       37       38       73 </v>
   <v type="int" >        2       31       32       37       73 </v>
   <v type="int" >        2       31       32       67       73 </v>
   <v type="int" >        2       32       38       73       74 </v>
   <v type="int" >        2       32       68       73       74 </v>
   <v type="int" >        2       32       67       68       73 </v>
   <v type="int" >        2       27       33       38       74 </v>
   <v type="int" >        2       27       32       38       74 </v>
   <v type="int" >        2       27       32       68       74 </v>
   <v type="int" >        2       27       33       69       74 </v>
   <v type="int" >        2       27       63       69       74 </v>
   <v type="int" >        2       27       63       68       74 </v>
   <v type="int" >        2       34       39       40       75 </v>
   <v type="int" >        2       33       34       39       75 </v>
   <v type="int" >        2       33       34       69       75 </v>
   <v type="int" >        2       34       40       75       76 </v>
   <v type="int" >        2       34       70       75       76 </v>
   <v type="int" >        2       34       69       70       75 </v>
   <v type="int" >        2       35       40       41       76 </v>
   <v type="int" >        2       34       35       40       76 </v>
   <v type="int" >        2       34       35       70       76 </v>
   <v type="int" >        2       35       41       76       77 </v>
   <v type="int" >        2       35       71       76       77 </v>
   <v type="int" >        2       35       70       71       76 </v>
   <v type="int" >        2       36       41       42       77 </v>
   <v type="int" >        2       35       36       41       77 </v>
   <v type="int" >        2       35       36       71       77 </v>
   <v type="int" >        2       36       42       77       78 </v>
   <v type="int" >        2       36       72       77       78 </v>
   <v type="int" >        2       36       71       72       77 </v>
   <v type="int" >        2       37       42       43       78 </v>
   <v type="int" >        2       36       37       42       78 </v>
   <v type="int" >        2       36       37       72       78 </v>
   <v type="int" >        2       37       43       78       79 </v>
   <v type="int" >        2       37       73       78       79 </v>
   <v type="int" >        2       37       72       73       78 </v>
   <v type="int" >        2       38       43       44       79 </v>
   <v type="int" >        2       37       38       43       79 </v>
   <v type="int" >        2       37       38       73       79 </v>
   <v type="int" >        2       38       44       79       80 </v>
   <v type="int" >        2       38       74       79       80 </v>
   <v type="int" >        2       38       73       74       79 </v>
   <v type="int" >        2       33       39       44       80 </v>
   <v type="int" >        2       33       38       44       80 </v>
   <v type="int" >        2       33       38       74       80 </v>
   <v type="int" >        2       33       39       75       80 </v>
   <v type="int" >        2       33       69       75       80 </v>
   <v type="int" >        2       33       69       74       80 </v>
   <v type="int" >        2       40       45       46       81 </v>
   <v type="int" >        2       39       40       45       81 </v>
   <v type="int" >        2       39       40       75       81 </v>
   <v type="int" >        2       40       46       81       82 </v>
   <v type="int" >        2       40       76       81       82 </v>
   <v type="int" >        2       40       75       76       81 </v>
   <v type="int" >        2       41       46       47       82 </v>
   <v type="int" >        2       40       41       46       82 </v>
   <v type="int" >        2       40       41       76       82 </v>
   <v type="int" >        2       41       47       82       83 </v>
   <v type="int" >        2       41       77       82       83 </v>
   <v type="int" >        2       41       76       77       82 </v>
   <v type="int" >        2       42       47       48       83 </v>
   <v type="int" >        2       41       42       47       83 </v>
   <v type="int" >        2       41       42       77       83 </v>
   <v type="int" >        2       42       48       83       84 </v>
   <v type="int" >        2       42       78       83       84 </v>
   <v type="int" >        2       42       77       78       83 </v>
   <v type="int" >        2       43       48       49       84 </v>
   <v type="int" >        2       42       43       48       84 </v>
   <v type="int" >        2       42       43       78       84 </v>
   <v type="int" >        2       43       49       84       85 </v>
   <v type="int" >        2       43       79       84       85 </v>
   <v type="int" >        2       43       78       79       84 </v>
   <v type="int" >        2       44       49       50       85 </v>
   <v type="int" >        2       43       44       49       85 </v>
   <v type="int" >        2       43       44       79       85 </v>
   <v type="int" >        2       44       50       85       86 </v>
   <v type="int" >        2       44       80       85       86 </v>
   <v type="int" >        2       44       79       80       85 </v>
   <v type="int" >        2       39       45       50       86 </v>
   <v type="int" >        2       39       44       50       86 </v>
   <v type="int" >        2       39       44       80       86 </v>
   <v type="int" >        2       39       45       81       86 </v>
   <v type="int" >        2       39       75       81       86 </v>
   <v type="int" >        2       39       75       80       86 </v>
   <v type="int" >        2       46       51       52       87 </v>
   <v type="int" >        2       45       46       51       87 </v>
   <v type="int" >        2       45       46       81       87 </v>
   <v type="int" >        2       46       52       87       88 </v>
   <v type="int" >        2       46       82       87       88 </v>
   <v type="int" >        2       46       81       82       87 </v>
   <v type="int" >        2       47       52       53       88 </v>
   <v type="int" >        2       46       47       52       88 </v>
   <v type="int" >        2       46       47       82       88 </v>
   <v type="int" >        2       47       53       88       89 </v>
   <v type="int" >        2       47       83       88       89 </v>
   <v type="int" >        2       47       82       83       88 </v>
   <v type="int" >        2       48       53       54       89 </v>
   <v type="int" >        2       47       48       53       89 </v>
   <v type="int" >        2       47       48       83       89 </v>
   <v type="int" >        2       48       54       89       90 </v>
   <v type="int" >        2       48       84       89       90 </v>
   <v type="int" >        2       48       83       84       89 </v>
   <v type="int" >        2       49       54       55       90 </v>
   <v type="int" >        2       48       49       54       90 </v>
   <v type="int" >        2       48       49       84       90 </v>
   <v type="int" >        2       49       55       90       91 </v>
   <v type="int" >        2       49       85       90       91 </v>
   <v type="int" >        2       49       84       85       90 </v>
   <v type="int" >        2       50       55       56       91 </v>
   <v type="int" >        2       49       50       55       91 </v>
   <v type="int" >        2       49       50       85       91 </v>
   <v type="int" >        2       50       56       91       92 </v>
   <v type="int" >        2       50       86       91       92 </v>
   <v type="int" >        2       50       85       86       91 </v>
   <v type="int" >        2       45       51       56       92 </v>
   <v type="int" >        2       45       50       56       92 </v>
   <v type="int" >        2       45       50       86       92 </v>
   <v type="int" >        2       45       51       87       92 </v>
   <v type="int" >        2       45       81       87       92 </v>
   <v type="int" >        2       45       81       86       92 </v>
   <v type="int" >        2       21       22       52       57 </v>
   <v type="int" >        2       21       51       52       57 </v>
   <v type="int" >        2       51       52       57       87 </v>
   <v type="int" >        2       22       52       57       58 </v>
   <v type="int" >        2       52       57       58       88 </v>
   <v type="int" >        2       52       57       87       88 </v>
   <v type="int" >        2       22       23       53       58 </v>
   <v type="int" >        2       22       52       53       58 </v>
   <v type="int" >        2       52       53       58       88 </v>
   <v type="int" >        2       23       53       58       59 </v>
   <v type="int" >        2       53       58       59       89 </v>
   <v type="int" >        2       53       58       88       89 </v>
   <v type="int" >        2       23       24       54       59 </v>
   <v type="int" >        2       23       53       54       59 </v>
   <v type="int" >        2       53       54       59       89 </v>
   <v type="int" >        2       24       54       59       60 </v>
   <v type="int" >        2       54       59       60       90 </v>
   <v type="int" >        2       54       59       89       90 </v>
   <v type="int" >        2       24       25       55       60 </v>
   <v type="int" >        2       24       54       55       60 </v>
   <v type="int" >        2       54       55       60       90 </v>
   <v type="int" >        2       25       55       60       61 </v>
   <v type="int" >        2       55       60       61       91 </v>
   <v type="int" >        2       55       60       90       91 </v>
   <v type="int" >        2       25       26       56       61 </v>
   <v type="int" >        2       25       55       56       61 </v>
   <v type="int" >        2       55       56       61       91 </v>
   <v type="int" >        2       26       56       61       62 </v>
   <v type="int" >        2       56       61       62       92 </v>
   <v type="int" >        2       56       61       91       92 </v>
   <v type="int" >        2       21       26       51       62 </v>
   <v type="int" >        2       26       51       56       62 </v>
   <v type="int" >        2       51       56       62       92 </v>
   <v type="int" >        2       21       51       57       62 </v>
   <v type="int" >        2       51       57       62       87 </v>
   <v type="int" >        2       51       62       87       92 </v>
   <v type="int" >        2       58       63       64       87 </v>
   <v type="int" >        2       57       58       63       87 </v>
   <v type="int" >        2       57       57       58       87 </v>
   <v type="int" >        2       58       64       87       92 </v>
   <v type="int" >        2       58       62       87       92 </v>
   <v type="int" >        2       57       58       62       87 </v>
   <v type="int" >        2       59       64       65       92 </v>
   <v type="int" >        2       58       59       64       92 </v>
   <v type="int" >        2       58       59       62       92 </v>
   <v type="int" >        2       59       65       91       92 </v>
   <v type="int" >        2       59       61       91       92 </v>
   <v type="int" >        2       59       61       62       92 </v>
   <v type="int" >        2       60       65       66       91 </v>
   <v type="int" >        2       59       60       65       91 </v>
   <v type="int" >        2       59       60       61       91 </v>
   <v type="int" >        2       60       66       90       91 </v>
   <v type="int" >        2       60       60       90       91 </v>
   <v type="int" >        2       60       60       61       91 </v>
   <v type="int" >        2       61       66       67       90 </v>
   <v type="int" >        2       60       61       66       90 </v>
   <v type="int" >        2       60       60       61       90 </v>
   <v type="int" >        2       61       67       89       90 </v>
   <v type="int" >        2       59       61       89       90 </v>
   <v type="int" >        2       59       60       61       90 </v>
   <v type="int" >        2       62       67       68       89 </v>
   <v type="int" >        2       61       62       67       89 </v>
   <v type="int" >        2       59       61       62       89 </v>
   <v type="int" >        2       62       68       88       89 </v>
   <v type="int" >        2       58       62       88       89 </v>
   <v type="int" >        2       58       59       62       89 </v>
   <v type="int" >        2       57       63       68       88 </v>
   <v type="int" >        2       57       62       68       88 </v>
   <v type="int" >        2       57       58       62       88 </v>
   <v type="int" >        2       57       63       87       88 </v>
   <v type="int" >        2       57       57       87       88 </v>
   <v type="int" >        2       57       57       58       88 </v>
   <v type="int" >        2       64       69       70       81 </v>
   <v type="int" >        2       63       64       69       81 </v>
   <v type="int" >        2       63       64       81       87 </v>
   <v type="int" >        2       64       70       81       86 </v>
   <v type="int" >        2       64       81       86       92 </v>
   <v type="int" >        2       64       81       87       92 </v>
   <v type="int" >        2       65       70       71       86 </v>
   <v type="int" >        2       64       65       70       86 </v>
   <v type="int" >        2       64       65       86       92 </v>
   <v type="int" >        2       65       71       85       86 </v>
   <v type="int" >        2       65       85       86       91 </v>
   <v type="int" >        2       65       86       91       92 </v>
   <v type="int" >        2       66       71       72       85 </v>
   <v type="int" >        2       65       66       71       85 </v>
   <v type="int" >        2       65       66       85       91 </v>
   <v type="int" >        2       66       72       84       85 </v>
   <v type="int" >        2       66       84       85       90 </v>
   <v type="int" >        2       66       85       90       91 </v>
   <v type="int" >        2       67       72       73       84 </v>
   <v type="int" >        2       66       67       72       84 </v>
   <v type="int" >        2       66       67       84       90 </v>
   <v type="int" >        2       67       73       83       84 </v>
   <v type="int" >        2       67       83       84       89 </v>
   <v type="int" >        2       67       84       89       90 </v>
   <v type="int" >        2       68       73       74       83 </v>
   <v type="int" >        2       67       68       73       83 </v>
   <v type="int" >        2       67       68       83       89 </v>
   <v type="int" >        2       68       74       82       83 </v>
   <v type="int" >        2       68       82       83       88 </v>
   <v type="int" >        2       68       83       88       89 </v>
   <v type="int" >        2       63       69       74       82 </v>
   <v type="int" >        2       63       68       74       82 </v>
   <v type="int" >        2       63       68       82       88 </v>
   <v type="int" >        2       63       69       81       82 </v>
   <v type="int" >        2       63       81       82       87 </v>
   <v type="int" >        2       63       82       87       88 </v>
   <v type="int" >        2       70       75       75       76 </v>
   <v type="int" >        2       69       70       75       75 </v>
   <v type="int" >        2       69       70       75       81 </v>
   <v type="int" >        2       70       75       76       80 </v>
   <v type="int" >        2       70       75       80       86 </v>
   <v type="int" >        2       70       75       81       86 </v>
   <v type="int" >        2       71       76       77       80 </v>
   <v type="int" >        2       70       71       76       80 </v>
   <v type="int" >        2       70       71       80       86 </v>
   <v type="int" >        2       71       77       79       80 </v>
   <v type="int" >        2       71       79       80       85 </v>
   <v type="int" >        2       71       80       85       86 </v>
   <v type="int" >        2       72       77       78       79 </v>
   <v type="int" >        2       71       72       77       79 </v>
   <v type="int" >        2       71       72       79       85 </v>
   <v type="int" >        2       72       78       78       79 </v>
   <v type="int" >        2       72       78       79       84 </v>
   <v type="int" >        2       72       79       84       85 </v>
   <v type="int" >        2       73       78       78       79 </v>
   <v type="int" >        2       72       73       78       78 </v>
   <v type="int" >        2       72       73       78       84 </v>
   <v type="int" >        2       73       77       78       79 </v>
   <v type="int" >        2       73       77       78       83 </v>
   <v type="int" >        2       73       78       83       84 </v>
   <v type="int" >        2       74       77       79       80 </v>
   <v type="int" >        2       73       74       77       79 </v>
   <v type="int" >        2       73       74       77       83 </v>
   <v type="int" >        2       74       76       77       80 </v>
   <v type="int" >        2       74       76       77       82 </v>
   <v type="int" >        2       74       77       82       83 </v>
   <v type="int" >        2       69       75       76       80 </v>
   <v type="int" >        2       69       74       76       80 </v>
   <v type="int" >        2       69       74       76       82 </v>
   <v type="int" >        2       69       75       75       76 </v>
   <v type="int" >        2       69       75       76       81 </v>
   <v type="int" >        2       69       76       81       82 </v>
  </varray>
  <i name="volumeweight">      0.00092593 </i>
 </kpoints>
 <parameters>
  <separator name="general" >
   <i type="string" name="SYSTEM">unknown system</i>
   <i type="logical" name="LCOMPAT"> F  </i>
  </separator>
  <separator name="electronic" >
   <i type="string" name="PREC">normal</i>
   <i name="ENMAX">    700.00000000</i>
   <i name="ENAUG">    605.39200000</i>
   <i name="EDIFF">      0.00001000</i>
   <i type="int" name="IALGO">    68</i>
   <i type="int" name="IWAVPR">    10</i>
   <i type="int" name="NBANDS">    29</i>
   <i name="NELECT">     48.00000000</i>
   <i type="int" name="TURBO">     0</i>
   <i type="int" name="IRESTART">     0</i>
   <i type="int" name="NREBOOT">     0</i>
   <i type="int" name="NMIN">     0</i>
   <i name="EREF">      0.00000000</i>
   <separator name="electronic smearing" >
    <i type="int" name="ISMEAR">    -5</i>
    <i name="SIGMA">      0.20000000</i>
    <i name="KSPACING">      0.50000000</i>
    <i type="logical" name="KGAMMA"> T  </i>
   </separator>
   <separator name="electronic projectors" >
    <i type="logical" name="LREAL"> T  </i>
    <v name="ROPT">     -0.00050000     -0.00050000</v>
    <i type="int" name="LMAXPAW">  -100</i>
    <i type="int" name="LMAXMIX">     2</i>
    <i type="logical" name="NLSPLINE"> F  </i>
   </separator>
   <separator name="electronic startup" >
    <i type="int" name="ISTART">     0</i>
    <i type="int" name="ICHARG">     2</i>
    <i type="int" name="INIWAV">     1</i>
   </separator>
   <separator name="electronic spin" >
    <i type="int" name="ISPIN">     1</i>
    <i type="logical" name="LNONCOLLINEAR"> F  </i>
    <v name="MAGMOM">      1.00000000      1.00000000      1.00000000      1.00000000      1.00000000      1.00000000      1.00000000      1.00000000      1.00000000</v>
    <i name="NUPDOWN">     -1.00000000</i>
    <i type="logical" name="LSORBIT"> F  </i>
    <v name="SAXIS">      0.00000000      0.00000000      1.00000000</v>
    <i type="logical" name="LSPIRAL"> F  </i>
    <v name="QSPIRAL">      0.00000000      0.00000000      0.00000000</v>
    <i type="logical" name="LZEROZ"> F  </i>
   </separator>
   <separator name="electronic exchange-correlation" >
    <i type="logical" name="LASPH"> F  </i>
    <i type="logical" name="LMETAGGA"> F  </i>
   </separator>
   <separator name="electronic convergence" >
    <i type="int" name="NELM">    60</i>
    <i type="int" name="NELMDL">    -5</i>
    <i type="int" name="NELMIN">     4</i>
    <i name="ENINI">    700.00000000</i>
    <separator name="electronic convergence detail" >
     <i type="logical" name="LDIAG"> T  </i>
     <i type="logical" name="LSUBROT"> F  </i>
     <i name="WEIMIN">      0.00000000</i>
     <i name="EBREAK">      0.00000009</i>
     <i name="DEPER">      0.30000000</i>
     <i type="int" name="NRMM">     4</i>
     <i name="TIME">      0.40000000</i>
    </separator>
   </separator>
   <separator name="electronic mixer" >
    <i name="AMIX">      0.40000000</i>
    <i name="BMIX">      1.00000000</i>
    <i name="AMIN">      0.10000000</i>
    <i name="AMIX_MAG">      1.60000000</i>
    <i name="BMIX_MAG">      1.00000000</i>
    <separator name="electronic mixer details" >
     <i type="int" name="IMIX">     4</i>
     <i type="logical" name="MIXFIRST"> F  </i>
     <i type="int" name="MAXMIX">   -45</i>
     <i name="WC">    100.00000000</i>
     <i type="int" name="INIMIX">     1</i>
     <i type="int" name="MIXPRE">     1</i>
     <i type="int" name="MREMOVE">     5</i>
    </separator>
   </separator>
   <separator name="electronic dipolcorrection" >
    <i type="logical" name="LDIPOL"> F  </i>
    <i type="logical" name="LMONO"> F  </i>
    <i type="int" name="IDIPOL">     0</i>
    <i name="EPSILON">      1.00000000</i>
    <v name="DIPOL">   -100.00000000   -100.00000000   -100.00000000</v>
    <i name="EFIELD">      0.00000000</i>
   </separator>
  </separator>
  <separator name="grids" >
   <i type="int" name="NGX">    32</i>
   <i type="int" name="NGY">    32</i>
   <i type="int" name="NGZ">    36</i>
   <i type="int" name="NGXF">    64</i>
   <i type="int" name="NGYF">    64</i>
   <i type="int" name="NGZF">    72</i>
   <i type="logical" name="ADDGRID"> F  </i>
  </separator>
  <separator name="ionic" >
   <i type="int" name="NSW">     0</i>
   <i type="int" name="IBRION">    -1</i>
   <i type="int" name="ISIF">     2</i>
   <i name="PSTRESS">      0.00000000</i>
   <i name="EDIFFG">      0.00010000</i>
   <i type="int" name="NFREE">     0</i>
   <i name="POTIM">      0.50000000</i>
   <i name="SMASS">     -3.00000000</i>
   <i name="SCALEE">      1.00000000</i>
  </separator>
  <separator name="ionic md" >
   <i name="TEBEG">      0.00010000</i>
   <i name="TEEND">      0.00010000</i>
   <i type="int" name="NBLOCK">     1</i>
   <i type="int" name="KBLOCK">     1</i>
   <i type="int" name="NPACO">   256</i>
   <i name="APACO">     16.00000000</i>
  </separator>
  <separator name="symmetry" >
   <i type="int" name="ISYM">     2</i>
   <i name="SYMPREC">      0.00001000</i>
  </separator>
  <separator name="dos" >
   <i type="logical" name="LORBIT"> F  </i>
   <v name="RWIGS">     -1.00000000     -1.00000000</v>
   <i type="int" name="NEDOS">   301</i>
   <i name="EMIN">     10.00000000</i>
   <i name="EMAX">    -10.00000000</i>
   <i name="EFERMI">      0.00000000</i>
  </separator>
  <separator name="writing" >
   <i type="int" name="NWRITE">     2</i>
   <i type="logical" name="LWAVE"> F  </i>
   <i type="logical" name="LCHARG"> T  </i>
   <i type="logical" name="LPARD"> F  </i>
   <i type="logical" name="LVTOT"> F  </i>
   <i type="logical" name="LVHAR"> F  </i>
   <i type="logical" name="LELF"> F  </i>
   <i type="logical" name="LOPTICS"> F  </i>
   <v name="STM">      0.00000000      0.00000000      0.00000000      0.00000000      0.00000000      0.00000000      0.00000000</v>
  </separator>
  <separator name="performance" >
   <i type="int" name="NPAR">     1</i>
   <i type="int" name="NSIM">     4</i>
   <i type="int" name="NBLK">    -1</i>
   <i type="logical" name="LPLANE"> T  </i>
   <i type="logical" name="LSCALAPACK"> F  </i>
   <i type="logical" name="LSCAAWARE"> F  </i>
   <i type="logical" name="LSCALU"> F  </i>
   <i type="logical" name="LASYNC"> F  </i>
   <i type="logical" name="LORBITALREAL"> F  </i>
  </separator>
  <separator name="miscellaneous" >
   <i type="int" name="IDIOT">     3</i>
   <i type="logical" name="LMUSIC"> F  </i>
   <v name="POMASS">     28.08500000     16.00000000</v>
   <v name="DARWINR">      0.00000000      0.00000000</v>
   <v name="DARWINV">      1.00000000      1.00000000</v>
   <i type="logical" name="LCORR"> T  </i>
  </separator>
  <i type="logical" name="GGA_COMPAT"> T  </i>
  <i type="logical" name="LBERRY"> F  </i>
  <i type="int" name="ICORELEVEL">     0</i>
  <i type="logical" name="LDAU"> F  </i>
  <i type="int" name="I_CONSTRAINED_M">     0</i>
  <separator name="electronic exchange-correlation" >
   <i type="string" name="GGA">--</i>
   <i type="int" name="VOSKOWN">     0</i>
   <i type="logical" name="LHFCALC"> F  </i>
   <i type="string" name="PRECFOCK"></i>
   <i type="logical" name="LSYMGRAD"> F  </i>
   <i type="logical" name="LHFONE"> F  </i>
   <i type="logical" name="LRHFCALC"> F  </i>
   <i type="logical" name="LTHOMAS"> F  </i>
   <i type="logical" name="LMODELHF"> F  </i>
   <i name="ENCUT4O">     -1.00000000</i>
   <i type="int" name="EXXOEP">     0</i>
   <i type="int" name="FOURORBIT">     0</i>
   <i name="AEXX">      0.00000000</i>
   <i name="HFALPHA">      0.00000000</i>
   <i name="MCALPHA">      0.00000000</i>
   <i name="ALDAX">      1.00000000</i>
   <i name="AGGAX">      1.00000000</i>
   <i name="ALDAC">      1.00000000</i>
   <i name="AGGAC">      1.00000000</i>
   <i type="int" name="NKREDX">     1</i>
   <i type="int" name="NKREDY">     1</i>
   <i type="int" name="NKREDZ">     1</i>
   <i type="logical" name="SHIFTRED"> F  </i>
   <i type="logical" name="ODDONLY"> F  </i>
   <i type="logical" name="EVENONLY"> F  </i>
   <i type="int" name="LMAXFOCK">     0</i>
   <i type="int" name="NMAXFOCKAE">     0</i>
   <i type="logical" name="LFOCKAEDFT"> F  </i>
   <i name="HFSCREEN">      0.00000000</i>
   <i name="HFSCREENC">      0.00000000</i>
   <i type="int" name="NBANDSGWLOW">     0</i>
  </separator>
  <separator name="vdW DFT" >
   <i type="logical" name="LUSE_VDW"> F  </i>
   <i name="Zab_VDW">     -0.84910000</i>
   <i name="PARAM1">      0.12340000</i>
   <i name="PARAM2">      1.00000000</i>
   <i name="PARAM3">      0.00000000</i>
  </separator>
  <separator name="model GW" >
   <i type="int" name="MODEL_GW">     0</i>
   <i name="MODEL_EPS0">      7.53464495</i>
   <i name="MODEL_ALPHA">      1.00000000</i>
  </separator>
  <separator name="linear response parameters" >
   <i type="logical" name="LEPSILON"> F  </i>
   <i type="logical" name="LRPA"> F  </i>
   <i type="logical" name="LNABLA"> F  </i>
   <i type="logical" name="LVEL"> F  </i>
   <i type="int" name="KINTER">     0</i>
   <i name="CSHIFT">      0.10000000</i>
   <i name="OMEGAMAX">     -1.00000000</i>
   <i name="DEG_THRESHOLD">      0.00200000</i>
  </separator>
  <separator name="orbital magnetization" >
   <i type="logical" name="NUCIND"> F  </i>
   <v name="MAGPOS">      0.00000000      0.00000000      0.00000000</v>
   <i type="logical" name="LNICSALL"> T  </i>
   <i type="logical" name="ORBITALMAG"> F  </i>
   <i type="logical" name="LMAGBLOCH"> F  </i>
   <i type="logical" name="LCHIMAG"> F  </i>
   <i type="logical" name="LGAUGE"> T  </i>
   <i type="int" name="MAGATOM">     0</i>
   <v name="MAGDIPOL">      0.00000000      0.00000000      0.00000000</v>
   <v name="AVECCONST">      0.00000000      0.00000000      0.00000000</v>
  </separator>
  <separator name="response functions" >
   <i type="logical" name="LADDER"> F  </i>
   <i type="logical" name="LFXC"> F  </i>
   <i type="logical" name="LHARTREE"> T  </i>
   <i type="int" name="IBSE">     0</i>
   <v type="int" name="KPOINT">    -1     0     0     0</v>
   <i type="logical" name="LTCTE"> F  </i>
   <i type="logical" name="LTETE"> F  </i>
   <i type="logical" name="LTRIPLET"> F  </i>
   <i type="logical" name="LFXCEPS"> F  </i>
   <i type="logical" name="LFXHEG"> F  </i>
   <i type="int" name="NATURALO">     0</i>
   <i type="logical" name="L2ORDER"> F  </i>
   <i type="logical" name="LUSEW"> F  </i>
   <i name="ENCUTGW">     -2.00000000</i>
   <i name="ENCUTGWSOFT">     -2.00000000</i>
   <i name="ENCUTLF">     -1.00000000</i>
   <i type="int" name="LMAXMP2">    -1</i>
   <i name="SCISSOR">      0.00000000</i>
   <i type="int" name="NOMEGA">     0</i>
   <i type="int" name="NOMEGAR">     0</i>
   <i type="int" name="NBANDSGW">    -1</i>
   <i type="int" name="NBANDSO">    -1</i>
   <i type="int" name="NBANDSV">    -1</i>
   <i type="int" name="NELM">     1</i>
   <i type="int" name="NELMHF">     1</i>
   <i type="int" name="DIM">     3</i>
   <i type="int" name="ANTIRES">     0</i>
   <i name="OMEGAMAX">    -30.00000000</i>
   <i name="OMEGAMIN">    -30.00000000</i>
   <i name="OMEGATL">   -200.00000000</i>
   <i type="int" name="OMEGAGRID">     0</i>
   <i name="CSHIFT">     -0.10000000</i>
   <i type="logical" name="SELFENERGY"> F  </i>
   <i type="logical" name="LSPECTRAL"> F  </i>
   <i type="logical" name="LSPECTRALGW"> F  </i>
   <i type="logical" name="LSINGLES"> F  </i>
   <i type="logical" name="LFERMIGW"> F  </i>
   <i type="logical" name="ODDONLYGW"> F  </i>
   <i type="logical" name="EVENONLYGW"> F  </i>
   <i type="int" name="NKREDLFX">     1</i>
   <i type="int" name="NKREDLFY">     1</i>
   <i type="int" name="NKREDLFZ">     1</i>
   <i type="int" name="MAXMEM">  1800</i>
   <i type="int" name="TELESCOPE">     0</i>
   <i type="int" name="TAUPAR">     1</i>
   <i type="int" name="OMEGAPAR">    -1</i>
   <i name="LAMBDA">      1.00000000</i>
  </separator>
  <separator name="External order field" >
   <i name="OFIELD_KAPPA">      0.00000000</i>
   <v name="OFIELD_K">      0.00000000      0.00000000      0.00000000</v>
   <i name="OFIELD_Q6_NEAR">      0.00000000</i>
   <i name="OFIELD_Q6_FAR">      0.00000000</i>
   <i name="OFIELD_A">      0.00000000</i>
  </separator>
 </parameters>
 <atominfo>
  <atoms>       9 </atoms>
  <types>       2 </types>
  <array name="atoms" >
   <dimension dim="1">ion</dimension>
   <field type="string">element</field>
   <field type="int">atomtype</field>
   <set>
    <rc><c>Si</c><c>   1</c></rc>
    <rc><c>Si</c><c>   1</c></rc>
    <rc><c>Si</c><c>   1</c></rc>
    <rc><c>O </c><c>   2</c></rc>
    <rc><c>O </c><c>   2</c></rc>
    <rc><c>O </c><c>   2</c></rc>
    <rc><c>O </c><c>   2</c></rc>
    <rc><c>O </c><c>   2</c></rc>
    <rc><c>O </c><c>   2</c></rc>
   </set>
  </array>
  <array name="atomtypes" >
   <dimension dim="1">type</dimension>
   <field type="int">atomspertype</field>
   <field type="string">element</field>
   <field>mass</field>
   <field>valence</field>
   <field type="string">pseudopotential</field>
   <set>
    <rc><c>   3</c><c>Si</c><c>     28.08500000</c><c>      4.00000000</c><c> PAW_PBE Si 05Jan2001                   </c></rc>
    <rc><c>   6</c><c>O </c><c>     16.00000000</c><c>      6.00000000</c><c> PAW_PBE O 08Apr2002                    </c></rc>
   </set>
  </array>
 </atominfo>
 <structure name="initialpos" >
  <crystal>
   <varray name="basis" >
    <v>       4.91370000       0.00000000       0.00000000 </v>
    <v>      -2.45685000       4.25538903       0.00000000 </v>
    <v>       0.00000000       0.00000000       5.40513000 </v>
   </varray>
   <i name="volume">    113.01967420 </i>
   <varray name="rec_basis" >
    <v>       0.20351263       0.11749807       0.00000000 </v>
    <v>       0.00000000       0.23499614       0.00000000 </v>
    <v>       0.00000000       0.00000000       0.18500943 </v>
   </varray>
  </crystal>
  <varray name="positions" >
   <v>       0.46980000       0.02000000       0.66667000 </v>
   <v>       0.00000000       0.46980000       0.33333000 </v>
   <v>       0.53020000       0.53020000       0.00000000 </v>
   <v>       0.41450000       0.26620000       0.78560000 </v>
   <v>       0.73380000       0.14830000       0.45227000 </v>
   <v>       0.85170000       0.58550000       0.11893000 </v>
   <v>       0.14830000       0.73380000       0.54773000 </v>
   <v>       0.26620000       0.41450000       0.21440000 </v>
   <v>       0.58550000       0.85170000       0.88107000 </v>
  </varray>
 </structure>
 <calculation>
  <scstep>
   <time name="dav">   15.57   15.57</time>
   <time name="total">   15.79   15.81</time>
   <energy>
    <i name="alphaZ">     69.72802778 </i>
    <i name="ewald">  -1886.62880430 </i>
    <i name="hartreedc">   -937.03789542 </i>
    <i name="XCdc">    142.00811422 </i>
    <i name="pawpsdc">   1574.92322788 </i>
    <i name="pawaedc">  -1533.24131965 </i>
    <i name="eentropy">      0.00000000 </i>
    <i name="bandstr">     34.26520690 </i>
    <i name="atom">   2903.41811360 </i>
    <i name="e_fr_energy">    367.43467102 </i>
    <i name="e_wo_entrp">    367.43467102 </i>
    <i name="e_0_energy">    367.43467102 </i>
   </energy>
  </scstep>
  <scstep>
   <time name="dav">   19.54   19.54</time>
   <time name="total">   19.55   19.55</time>
   <energy>
    <i name="e_fr_energy">    -56.59835663 </i>
    <i name="e_wo_entrp">    -56.59835663 </i>
    <i name="e_0_energy">    -56.59835663 </i>
   </energy>
  </scstep>
  <scstep>
   <time name="dav">   17.55   17.54</time>
   <time name="total">   17.55   17.57</time>
   <energy>
    <i name="e_fr_energy">    -80.13177982 </i>
    <i name="e_wo_entrp">    -80.13177982 </i>
    <i name="e_0_energy">    -80.13177982 </i>
   </energy>
  </scstep>
  <scstep>
   <time name="dav">   17.69   17.68</time>
   <time name="total">   17.69   17.69</time>
   <energy>
    <i name="e_fr_energy">    -80.45363251 </i>
    <i name="e_wo_entrp">    -80.45363251 </i>
    <i name="e_0_energy">    -80.45363251 </i>
   </energy>
  </scstep>
  <scstep>
   <time name="dav">   17.11   17.11</time>
   <time name="total">   18.21   18.21</time>
   <energy>
    <i name="e_fr_energy">    -80.45975978 </i>
    <i name="e_wo_entrp">    -80.45975978 </i>
    <i name="e_0_energy">    -80.45975978 </i>
   </energy>
  </scstep>
  <scstep>
   <time name="diag">    2.86    2.86</time>
   <time name="diis">   10.60   10.60</time>
   <time name="orth">    0.32    0.32</time>
   <time name="total">   15.04   15.05</time>
   <energy>
    <i name="e_fr_energy">    -70.78472837 </i>
    <i name="e_wo_entrp">    -70.78472837 </i>
    <i name="e_0_energy">    -70.78472837 </i>
   </energy>
  </scstep>
  <scstep>
   <time name="diag">    2.86    2.86</time>
   <time name="diis">   11.52   11.52</time>
   <time name="orth">    0.32    0.32</time>
   <time name="total">   15.96   15.96</time>
   <energy>
    <i name="e_fr_energy">    -70.76124288 </i>
    <i name="e_wo_entrp">    -70.76124288 </i>
    <i name="e_0_energy">    -70.76124288 </i>
   </energy>
  </scstep>
  <scstep>
   <time name="diag">    2.84    2.83</time>
   <time name="diis">   11.39   11.38</time>
   <time name="orth">    0.32    0.32</time>
   <time name="total">   15.81   15.81</time>
   <energy>
    <i name="e_fr_energy">    -70.77554097 </i>
    <i name="e_wo_entrp">    -70.77554097 </i>
    <i name="e_0_energy">    -70.77554097 </i>
   </energy>
  </scstep>
  <scstep>
   <time name="diag">    2.86    2.86</time>
   <time name="diis">   11.64   11.64</time>
   <time name="orth">    0.32    0.32</time>
   <time name="total">   16.10   16.10</time>
   <energy>
    <i name="e_fr_energy">    -70.76723054 </i>
    <i name="e_wo_entrp">    -70.76723054 </i>
    <i name="e_0_energy">    -70.76723054 </i>
   </energy>
  </scstep>
  <scstep>
   <time name="diag">    2.87    2.87</time>
   <time name="diis">   11.47   11.47</time>
   <time name="orth">    0.32    0.32</time>
   <time name="total">   15.93   15.93</time>
   <energy>
    <i name="e_fr_energy">    -70.77003867 </i>
    <i name="e_wo_entrp">    -70.77003867 </i>
    <i name="e_0_energy">    -70.77003867 </i>
   </energy>
  </scstep>
  <scstep>
   <time name="diag">    2.90    2.90</time>
   <time name="diis">   11.76   11.76</time>
   <time name="orth">    0.32    0.32</time>
   <time name="total">   16.27   16.27</time>
   <energy>
    <i name="e_fr_energy">    -70.76915622 </i>
    <i name="e_wo_entrp">    -70.76915622 </i>
    <i name="e_0_energy">    -70.76915622 </i>
   </energy>
  </scstep>
  <scstep>
   <time name="diag">    2.87    2.87</time>
   <time name="diis">   11.00   10.99</time>
   <time name="orth">    0.32    0.32</time>
   <time name="total">   15.47   15.47</time>
   <energy>
    <i name="e_fr_energy">    -70.76919819 </i>
    <i name="e_wo_entrp">    -70.76919819 </i>
    <i name="e_0_energy">    -70.76919819 </i>
   </energy>
  </scstep>
  <scstep>
   <time name="diag">    2.88    2.88</time>
   <time name="diis">    7.94    7.94</time>
   <time name="orth">    0.32    0.32</time>
   <time name="total">   11.33   11.35</time>
   <energy>
    <i name="alphaZ">     69.72802778 </i>
    <i name="ewald">  -1886.62880430 </i>
    <i name="hartreedc">  -1071.80042059 </i>
    <i name="XCdc">    151.15068406 </i>
    <i name="pawpsdc">   2053.42601894 </i>
    <i name="pawaedc">  -2014.11303654 </i>
    <i name="eentropy">      0.00000000 </i>
    <i name="bandstr">   -275.94978330 </i>
    <i name="atom">   2903.41811360 </i>
    <i name="e_fr_energy">    -70.76920035 </i>
    <i name="e_wo_entrp">    -70.76920035 </i>
    <i name="e_0_energy">    -70.76920035 </i>
   </energy>
  </scstep>
  <structure>
   <crystal>
    <varray name="basis" >
     <v>       4.91370000       0.00000000       0.00000000 </v>
     <v>      -2.45685000       4.25538903       0.00000000 </v>
     <v>       0.00000000       0.00000000       5.40513000 </v>
    </varray>
    <i name="volume">    113.01967420 </i>
    <varray name="rec_basis" >
     <v>       0.20351263       0.11749807       0.00000000 </v>
     <v>       0.00000000       0.23499614       0.00000000 </v>
     <v>       0.00000000       0.00000000       0.18500943 </v>
    </varray>
   </crystal>
   <varray name="positions" >
    <v>       0.46980000       0.02000000       0.66667000 </v>
    <v>       0.00000000       0.46980000       0.33333000 </v>
    <v>       0.53020000       0.53020000       0.00000000 </v>
    <v>       0.41450000       0.26620000       0.78560000 </v>
    <v>       0.73380000       0.14830000       0.45227000 </v>
    <v>       0.85170000       0.58550000       0.11893000 </v>
    <v>       0.14830000       0.73380000       0.54773000 </v>
    <v>       0.26620000       0.41450000       0.21440000 </v>
    <v>       0.58550000       0.85170000       0.88107000 </v>
   </varray>
  </structure>
  <varray name="forces" >
   <v>       3.06904637      -4.69682315      -1.00236780 </v>
   <v>      -0.08998377       0.69193922       0.09023005 </v>
   <v>      -0.56250272       0.55387288       0.19321347 </v>
   <v>      -2.43611714       2.54463175       1.41838455 </v>
   <v>      -0.08088679      -0.39527037       0.08845131 </v>
   <v>       0.41506979       0.18966092      -0.06818493 </v>
   <v>      -0.19205965       0.45192737       0.23577976 </v>
   <v>       0.57867797      -0.46829986      -0.11950185 </v>
   <v>      -0.70124405       1.12836124      -0.83600455 </v>
  </varray>
  <varray name="stress" >
   <v>      89.29209699     -27.61008184     -40.02990741 </v>
   <v>     -27.61008197      99.53712691      27.67588169 </v>
   <v>     -40.02990744      27.67588163      66.49472476 </v>
  </varray>
  <energy>
   <i name="e_fr_energy">    -70.76920035 </i>
   <i name="e_wo_entrp">    -70.76920035 </i>
   <i name="e_0_energy">      0.00000000 </i>
  </energy>
  <time name="totalsc">  230.15  230.58</time>
  <eigenvalues>
   <array>
    <dimension dim="1">band</dimension>
    <dimension dim="2">kpoint</dimension>
    <dimension dim="3">spin</dimension>
    <field>eigene</field>
    <field>occ</field>
    <set>
     <set comment="spin 1">
      <set comment="kpoint 1">
       <r>  -18.4516    1.0000 </r>
       <r>  -17.1489    1.0000 </r>
       <r>  -16.7883    1.0000 </r>
       <r>  -16.1739    1.0000 </r>
       <r>  -16.0429    1.0000 </r>
       <r>  -15.9631    1.0000 </r>
       <r>   -7.2710    1.0000 </r>
       <r>   -7.1116    1.0000 </r>
       <r>   -4.5376    1.0000 </r>
       <r>   -4.2291    1.0000 </r>
       <r>   -4.1326    1.0000 </r>
       <r>   -4.1144    1.0000 </r>
       <r>   -1.9471    1.0000 </r>
       <r>   -1.8410    1.0000 </r>
       <r>   -1.7538    1.0000 </r>
       <r>   -1.2639    1.0000 </r>
       <r>   -0.5535    1.0000 </r>
       <r>   -0.4388    1.0000 </r>
       <r>   -0.3930    1.0000 </r>
       <r>    0.1456    1.0000 </r>
       <r>    0.2282    1.0000 </r>
       <r>    0.4719    1.0000 </r>
       <r>    0.7508    1.0000 </r>
       <r>    0.8583    1.0000 </r>
       <r>    7.0984    0.0000 </r>
       <r>   10.3285    0.0000 </r>
       <r>   10.4301    0.0000 </r>
       <r>   10.8555    0.0000 </r>
       <r>   10.9553    0.0000 </r>
      </set>
      <set comment="kpoint 2">
       <r>  -18.3823    1.0000 </r>
       <r>  -17.1774    1.0000 </r>
       <r>  -16.7792    1.0000 </r>
       <r>  -16.2772    1.0000 </r>
       <r>  -16.0849    1.0000 </r>
       <r>  -15.9123    1.0000 </r>
       <r>   -7.3016    1.0000 </r>
       <r>   -6.9326    1.0000 </r>
       <r>   -4.5632    1.0000 </r>
       <r>   -4.2975    1.0000 </r>
       <r>   -4.1715    1.0000 </r>
       <r>   -3.9843    1.0000 </r>
       <r>   -2.0149    1.0000 </r>
       <r>   -1.8724    1.0000 </r>
       <r>   -1.6354    1.0000 </r>
       <r>   -1.1887    1.0000 </r>
       <r>   -0.7477    1.0000 </r>
       <r>   -0.4668    1.0000 </r>
       <r>   -0.3955    1.0000 </r>
       <r>    0.0912    1.0000 </r>
       <r>    0.1297    1.0000 </r>
       <r>    0.3842    1.0000 </r>
       <r>    0.8359    1.0000 </r>
       <r>    0.9343    1.0000 </r>
       <r>    7.5212    0.0000 </r>
       <r>   10.3504    0.0000 </r>
       <r>   10.4717    0.0000 </r>
       <r>   10.8720    0.0000 </r>
       <r>   11.0849    0.0000 </r>
      </set>
      <set comment="kpoint 3">
       <r>  -18.2109    1.0000 </r>
       <r>  -17.2735    1.0000 </r>
       <r>  -16.7610    1.0000 </r>
       <r>  -16.4579    1.0000 </r>
       <r>  -16.1173    1.0000 </r>
       <r>  -15.8789    1.0000 </r>
       <r>   -7.3665    1.0000 </r>
       <r>   -6.5120    1.0000 </r>
       <r>   -4.6227    1.0000 </r>
       <r>   -4.5387    1.0000 </r>
       <r>   -4.1866    1.0000 </r>
       <r>   -3.6801    1.0000 </r>
       <r>   -2.1332    1.0000 </r>
       <r>   -1.6950    1.0000 </r>
       <r>   -1.6152    1.0000 </r>
       <r>   -1.3028    1.0000 </r>
       <r>   -0.9880    1.0000 </r>
       <r>   -0.5550    1.0000 </r>
       <r>   -0.4507    1.0000 </r>
       <r>    0.0274    1.0000 </r>
       <r>    0.0692    1.0000 </r>
       <r>    0.2894    1.0000 </r>
       <r>    0.9114    1.0000 </r>
       <r>    1.0413    1.0000 </r>
       <r>    8.5190    0.0000 </r>
       <r>   10.3768    0.0000 </r>
       <r>   10.6001    0.0000 </r>
       <r>   11.0810    0.0000 </r>
       <r>   11.5037    0.0000 </r>
      </set>
      <set comment="kpoint 4">
       <r>  -18.0941    1.0000 </r>
       <r>  -17.3596    1.0000 </r>
       <r>  -16.7525    1.0000 </r>
       <r>  -16.5335    1.0000 </r>
       <r>  -16.1312    1.0000 </r>
       <r>  -15.8707    1.0000 </r>
       <r>   -7.3982    1.0000 </r>
       <r>   -6.2491    1.0000 </r>
       <r>   -4.7728    1.0000 </r>
       <r>   -4.5735    1.0000 </r>
       <r>   -4.1957    1.0000 </r>
       <r>   -3.5117    1.0000 </r>
       <r>   -2.1362    1.0000 </r>
       <r>   -1.7740    1.0000 </r>
       <r>   -1.6046    1.0000 </r>
       <r>   -1.3149    1.0000 </r>
       <r>   -1.0553    1.0000 </r>
       <r>   -0.6335    1.0000 </r>
       <r>   -0.5235    1.0000 </r>
       <r>    0.0450    1.0000 </r>
       <r>    0.0656    1.0000 </r>
       <r>    0.2688    1.0000 </r>
       <r>    0.9140    1.0000 </r>
       <r>    1.0905    1.0000 </r>
       <r>    9.3499    0.0000 </r>
       <r>   10.0881    0.0000 </r>
       <r>   10.7760    0.0000 </r>
       <r>   10.9335    0.0000 </r>
       <r>   11.5735    0.0000 </r>
      </set>
      <set comment="kpoint 5">
       <r>  -18.3765    1.0000 </r>
       <r>  -17.1883    1.0000 </r>
       <r>  -16.8123    1.0000 </r>
       <r>  -16.1812    1.0000 </r>
       <r>  -16.1105    1.0000 </r>
       <r>  -15.9436    1.0000 </r>
       <r>   -7.2572    1.0000 </r>
       <r>   -6.9881    1.0000 </r>
       <r>   -4.5465    1.0000 </r>
       <r>   -4.2932    1.0000 </r>
       <r>   -4.2052    1.0000 </r>
       <r>   -3.9534    1.0000 </r>
       <r>   -2.0650    1.0000 </r>
       <r>   -1.8122    1.0000 </r>
       <r>   -1.6901    1.0000 </r>
       <r>   -1.1553    1.0000 </r>
       <r>   -0.6901    1.0000 </r>
       <r>   -0.5043    1.0000 </r>
       <r>   -0.4555    1.0000 </r>
       <r>    0.1058    1.0000 </r>
       <r>    0.1740    1.0000 </r>
       <r>    0.3780    1.0000 </r>
       <r>    0.8385    1.0000 </r>
       <r>    0.9269    1.0000 </r>
       <r>    7.5186    0.0000 </r>
       <r>   10.3459    0.0000 </r>
       <r>   10.4373    0.0000 </r>
       <r>   10.9387    0.0000 </r>
       <r>   11.0561    0.0000 </r>
      </set>
      <set comment="kpoint 6">
       <r>  -18.2535    1.0000 </r>
       <r>  -17.2557    1.0000 </r>
       <r>  -16.8053    1.0000 </r>
       <r>  -16.3270    1.0000 </r>
       <r>  -16.1339    1.0000 </r>
       <r>  -15.9023    1.0000 </r>
       <r>   -7.3466    1.0000 </r>
       <r>   -6.6320    1.0000 </r>
       <r>   -4.6982    1.0000 </r>
       <r>   -4.4141    1.0000 </r>
       <r>   -4.1219    1.0000 </r>
       <r>   -3.7795    1.0000 </r>
       <r>   -2.0933    1.0000 </r>
       <r>   -1.7968    1.0000 </r>
       <r>   -1.6117    1.0000 </r>
       <r>   -1.1970    1.0000 </r>
       <r>   -1.0202    1.0000 </r>
       <r>   -0.5351    1.0000 </r>
       <r>   -0.3355    1.0000 </r>
       <r>   -0.0315    1.0000 </r>
       <r>    0.1403    1.0000 </r>
       <r>    0.2848    1.0000 </r>
       <r>    0.9364    1.0000 </r>
       <r>    0.9723    1.0000 </r>
       <r>    8.2238    0.0000 </r>
       <r>   10.4337    0.0000 </r>
       <r>   10.5479    0.0000 </r>
       <r>   11.0091    0.0000 </r>
       <r>   11.2750    0.0000 </r>
      </set>
      <set comment="kpoint 7">
       <r>  -18.0832    1.0000 </r>
       <r>  -17.3749    1.0000 </r>
       <r>  -16.8100    1.0000 </r>
       <r>  -16.4548    1.0000 </r>
       <r>  -16.1358    1.0000 </r>
       <r>  -15.8820    1.0000 </r>
       <r>   -7.4057    1.0000 </r>
       <r>   -6.1791    1.0000 </r>
       <r>   -5.0407    1.0000 </r>
       <r>   -4.4419    1.0000 </r>
       <r>   -4.1069    1.0000 </r>
       <r>   -3.5307    1.0000 </r>
       <r>   -2.1039    1.0000 </r>
       <r>   -1.7656    1.0000 </r>
       <r>   -1.6791    1.0000 </r>
       <r>   -1.2704    1.0000 </r>
       <r>   -1.0589    1.0000 </r>
       <r>   -0.6666    1.0000 </r>
       <r>   -0.3676    1.0000 </r>
       <r>   -0.1558    1.0000 </r>
       <r>    0.0234    1.0000 </r>
       <r>    0.3973    1.0000 </r>
       <r>    0.9070    1.0000 </r>
       <r>    1.0884    1.0000 </r>
       <r>    9.2311    0.0000 </r>
       <r>   10.3390    0.0000 </r>
       <r>   10.6851    0.0000 </r>
       <r>   11.1139    0.0000 </r>
       <r>   11.6512    0.0000 </r>
      </set>
      <set comment="kpoint 8">
       <r>  -18.0775    1.0000 </r>
       <r>  -17.3819    1.0000 </r>
       <r>  -16.8073    1.0000 </r>
       <r>  -16.4762    1.0000 </r>
       <r>  -16.1161    1.0000 </r>
       <r>  -15.8815    1.0000 </r>
       <r>   -7.3961    1.0000 </r>
       <r>   -6.1871    1.0000 </r>
       <r>   -5.0508    1.0000 </r>
       <r>   -4.4273    1.0000 </r>
       <r>   -4.1231    1.0000 </r>
       <r>   -3.5297    1.0000 </r>
       <r>   -2.0980    1.0000 </r>
       <r>   -1.7797    1.0000 </r>
       <r>   -1.6901    1.0000 </r>
       <r>   -1.2173    1.0000 </r>
       <r>   -0.9943    1.0000 </r>
       <r>   -0.6685    1.0000 </r>
       <r>   -0.4995    1.0000 </r>
       <r>   -0.1832    1.0000 </r>
       <r>    0.0572    1.0000 </r>
       <r>    0.4307    1.0000 </r>
       <r>    0.8784    1.0000 </r>
       <r>    1.1238    1.0000 </r>
       <r>    9.2407    0.0000 </r>
       <r>   10.3188    0.0000 </r>
       <r>   10.6671    0.0000 </r>
       <r>   11.1260    0.0000 </r>
       <r>   11.4712    0.0000 </r>
      </set>
      <set comment="kpoint 9">
       <r>  -18.2464    1.0000 </r>
       <r>  -17.2628    1.0000 </r>
       <r>  -16.8043    1.0000 </r>
       <r>  -16.3826    1.0000 </r>
       <r>  -16.0784    1.0000 </r>
       <r>  -15.9025    1.0000 </r>
       <r>   -7.3152    1.0000 </r>
       <r>   -6.6624    1.0000 </r>
       <r>   -4.7212    1.0000 </r>
       <r>   -4.3921    1.0000 </r>
       <r>   -4.1391    1.0000 </r>
       <r>   -3.7783    1.0000 </r>
       <r>   -2.0984    1.0000 </r>
       <r>   -1.8385    1.0000 </r>
       <r>   -1.5204    1.0000 </r>
       <r>   -1.1605    1.0000 </r>
       <r>   -0.9738    1.0000 </r>
       <r>   -0.6050    1.0000 </r>
       <r>   -0.3906    1.0000 </r>
       <r>   -0.1518    1.0000 </r>
       <r>    0.1885    1.0000 </r>
       <r>    0.3461    1.0000 </r>
       <r>    0.8675    1.0000 </r>
       <r>    1.0696    1.0000 </r>
       <r>    8.2262    0.0000 </r>
       <r>   10.3692    0.0000 </r>
       <r>   10.5805    0.0000 </r>
       <r>   11.0242    0.0000 </r>
       <r>   11.2334    0.0000 </r>
      </set>
      <set comment="kpoint 10">
       <r>  -18.3738    1.0000 </r>
       <r>  -17.1898    1.0000 </r>
       <r>  -16.8138    1.0000 </r>
       <r>  -16.2366    1.0000 </r>
       <r>  -16.0484    1.0000 </r>
       <r>  -15.9495    1.0000 </r>
       <r>   -7.2099    1.0000 </r>
       <r>   -7.0353    1.0000 </r>
       <r>   -4.5546    1.0000 </r>
       <r>   -4.3082    1.0000 </r>
       <r>   -4.1851    1.0000 </r>
       <r>   -3.9573    1.0000 </r>
       <r>   -2.0761    1.0000 </r>
       <r>   -1.8354    1.0000 </r>
       <r>   -1.6246    1.0000 </r>
       <r>   -1.1429    1.0000 </r>
[...]
       <r>    1.0194    1.0000 </r>
       <r>    9.1946    0.0000 </r>
       <r>   10.0780    0.0000 </r>
       <r>   10.4810    0.0000 </r>
       <r>   10.9981    0.0000 </r>
       <r>   11.2472    0.0000 </r>
      </set>
      <set comment="kpoint 90">
       <r>  -18.0246    1.0000 </r>
       <r>  -17.3906    1.0000 </r>
       <r>  -16.8551    1.0000 </r>
       <r>  -16.4574    1.0000 </r>
       <r>  -16.1723    1.0000 </r>
       <r>  -15.8650    1.0000 </r>
       <r>   -7.2398    1.0000 </r>
       <r>   -6.1596    1.0000 </r>
       <r>   -5.3245    1.0000 </r>
       <r>   -4.3699    1.0000 </r>
       <r>   -3.9271    1.0000 </r>
       <r>   -3.8071    1.0000 </r>
       <r>   -2.1799    1.0000 </r>
       <r>   -2.0149    1.0000 </r>
       <r>   -1.4262    1.0000 </r>
       <r>   -1.1888    1.0000 </r>
       <r>   -0.8983    1.0000 </r>
       <r>   -0.6369    1.0000 </r>
       <r>   -0.1831    1.0000 </r>
       <r>   -0.0053    1.0000 </r>
       <r>    0.2277    1.0000 </r>
       <r>    0.3262    1.0000 </r>
       <r>    0.6491    1.0000 </r>
       <r>    0.8877    1.0000 </r>
       <r>    9.8896    0.0000 </r>
       <r>   10.4004    0.0000 </r>
       <r>   10.7075    0.0000 </r>
       <r>   11.0806    0.0000 </r>
       <r>   11.4714    0.0000 </r>
      </set>
      <set comment="kpoint 91">
       <r>  -18.0179    1.0000 </r>
       <r>  -17.4375    1.0000 </r>
       <r>  -16.7569    1.0000 </r>
       <r>  -16.5002    1.0000 </r>
       <r>  -16.1851    1.0000 </r>
       <r>  -15.8676    1.0000 </r>
       <r>   -7.2636    1.0000 </r>
       <r>   -6.1172    1.0000 </r>
       <r>   -5.3393    1.0000 </r>
       <r>   -4.3720    1.0000 </r>
       <r>   -3.9146    1.0000 </r>
       <r>   -3.8133    1.0000 </r>
       <r>   -2.1656    1.0000 </r>
       <r>   -2.0165    1.0000 </r>
       <r>   -1.4512    1.0000 </r>
       <r>   -1.1973    1.0000 </r>
       <r>   -0.9452    1.0000 </r>
       <r>   -0.5907    1.0000 </r>
       <r>   -0.1534    1.0000 </r>
       <r>   -0.0099    1.0000 </r>
       <r>    0.2198    1.0000 </r>
       <r>    0.3757    1.0000 </r>
       <r>    0.5902    1.0000 </r>
       <r>    0.8919    1.0000 </r>
       <r>    9.8118    0.0000 </r>
       <r>   10.5499    0.0000 </r>
       <r>   10.7831    0.0000 </r>
       <r>   11.1363    0.0000 </r>
       <r>   11.3191    0.0000 </r>
      </set>
      <set comment="kpoint 92">
       <r>  -18.0771    1.0000 </r>
       <r>  -17.6146    1.0000 </r>
       <r>  -16.5784    1.0000 </r>
       <r>  -16.3951    1.0000 </r>
       <r>  -16.1540    1.0000 </r>
       <r>  -15.8588    1.0000 </r>
       <r>   -7.7098    1.0000 </r>
       <r>   -5.8826    1.0000 </r>
       <r>   -5.1818    1.0000 </r>
       <r>   -4.3522    1.0000 </r>
       <r>   -4.1345    1.0000 </r>
       <r>   -3.7314    1.0000 </r>
       <r>   -2.0709    1.0000 </r>
       <r>   -1.9111    1.0000 </r>
       <r>   -1.4265    1.0000 </r>
       <r>   -1.2945    1.0000 </r>
       <r>   -0.9441    1.0000 </r>
       <r>   -0.4959    1.0000 </r>
       <r>   -0.3565    1.0000 </r>
       <r>   -0.1792    1.0000 </r>
       <r>    0.1255    1.0000 </r>
       <r>    0.5847    1.0000 </r>
       <r>    0.7637    1.0000 </r>
       <r>    0.9422    1.0000 </r>
       <r>    9.1953    0.0000 </r>
       <r>   10.0702    0.0000 </r>
       <r>   10.6078    0.0000 </r>
       <r>   10.8914    0.0000 </r>
       <r>   11.2990    0.0000 </r>
      </set>
     </set>
    </set>
   </array>
  </eigenvalues>
  <separator name="orbital magnetization" >
   <v name="MAGDIPOLOUT">      0.00000000      0.00000000      0.00000000</v>
  </separator>
  <dos>
   <i name="efermi">      1.23557594 </i>
   <total>
    <array>
     <dimension dim="1">gridpoints</dimension>
     <dimension dim="2">spin</dimension>
     <field>energy</field>
     <field>total</field>
     <field>integrated</field>
     <set>
      <set comment="spin 1">
       <r>   -20.4516     0.0000     0.0000 </r>
       <r>   -20.3376     0.0000     0.0000 </r>
       <r>   -20.2236     0.0000     0.0000 </r>
       <r>   -20.1096     0.0000     0.0000 </r>
       <r>   -19.9957     0.0000     0.0000 </r>
       <r>   -19.8817     0.0000     0.0000 </r>
       <r>   -19.7677     0.0000     0.0000 </r>
       <r>   -19.6537     0.0000     0.0000 </r>
       <r>   -19.5397     0.0000     0.0000 </r>
       <r>   -19.4257     0.0000     0.0000 </r>
       <r>   -19.3117     0.0000     0.0000 </r>
       <r>   -19.1977     0.0000     0.0000 </r>
       <r>   -19.0837     0.0000     0.0000 </r>
       <r>   -18.9697     0.0000     0.0000 </r>
       <r>   -18.8557     0.0000     0.0000 </r>
       <r>   -18.7417     0.0000     0.0000 </r>
       <r>   -18.6277     0.0000     0.0000 </r>
       <r>   -18.5137     0.0000     0.0000 </r>
       <r>   -18.3997     0.4384     0.0076 </r>
       <r>   -18.2858     1.7639     0.1507 </r>
       <r>   -18.1718     3.9473     0.4389 </r>
       <r>   -18.0578     7.6594     1.0912 </r>
       <r>   -17.9438     3.5936     1.9080 </r>
       <r>   -17.8298     0.0000     2.0000 </r>
       <r>   -17.7158     1.4584     2.0584 </r>
       <r>   -17.6018     3.2144     2.2978 </r>
       <r>   -17.4878     6.0986     2.8021 </r>
       <r>   -17.3738     7.8026     3.5304 </r>
       <r>   -17.2598     1.0496     3.9514 </r>
       <r>   -17.1458     0.0000     4.0000 </r>
       <r>   -17.0318     0.4237     4.0073 </r>
       <r>   -16.9178     2.3852     4.1585 </r>
       <r>   -16.8038     7.4741     4.7952 </r>
       <r>   -16.6898     3.9397     5.4902 </r>
       <r>   -16.5759     2.6409     5.8492 </r>
       <r>   -16.4619     6.5791     6.1804 </r>
       <r>   -16.3479     7.0381     7.1636 </r>
       <r>   -16.2339     4.6602     7.7900 </r>
       <r>   -16.1199    13.3473     9.1729 </r>
       <r>   -16.0059     0.0000    10.0000 </r>
       <r>   -15.8919    29.9488    10.9991 </r>
       <r>   -15.7779     0.0000    12.0000 </r>
       <r>   -15.6639     0.0000    12.0000 </r>
       <r>   -15.5499     0.0000    12.0000 </r>
       <r>   -15.4359     0.0000    12.0000 </r>
       <r>   -15.3219     0.0000    12.0000 </r>
       <r>   -15.2079     0.0000    12.0000 </r>
       <r>   -15.0939     0.0000    12.0000 </r>
       <r>   -14.9800     0.0000    12.0000 </r>
       <r>   -14.8660     0.0000    12.0000 </r>
       <r>   -14.7520     0.0000    12.0000 </r>
       <r>   -14.6380     0.0000    12.0000 </r>
       <r>   -14.5240     0.0000    12.0000 </r>
       <r>   -14.4100     0.0000    12.0000 </r>
       <r>   -14.2960     0.0000    12.0000 </r>
       <r>   -14.1820     0.0000    12.0000 </r>
       <r>   -14.0680     0.0000    12.0000 </r>
       <r>   -13.9540     0.0000    12.0000 </r>
       <r>   -13.8400     0.0000    12.0000 </r>
       <r>   -13.7260     0.0000    12.0000 </r>
       <r>   -13.6120     0.0000    12.0000 </r>
       <r>   -13.4980     0.0000    12.0000 </r>
       <r>   -13.3840     0.0000    12.0000 </r>
       <r>   -13.2701     0.0000    12.0000 </r>
       <r>   -13.1561     0.0000    12.0000 </r>
       <r>   -13.0421     0.0000    12.0000 </r>
       <r>   -12.9281     0.0000    12.0000 </r>
       <r>   -12.8141     0.0000    12.0000 </r>
       <r>   -12.7001     0.0000    12.0000 </r>
       <r>   -12.5861     0.0000    12.0000 </r>
       <r>   -12.4721     0.0000    12.0000 </r>
       <r>   -12.3581     0.0000    12.0000 </r>
       <r>   -12.2441     0.0000    12.0000 </r>
       <r>   -12.1301     0.0000    12.0000 </r>
       <r>   -12.0161     0.0000    12.0000 </r>
       <r>   -11.9021     0.0000    12.0000 </r>
       <r>   -11.7881     0.0000    12.0000 </r>
       <r>   -11.6741     0.0000    12.0000 </r>
       <r>   -11.5602     0.0000    12.0000 </r>
       <r>   -11.4462     0.0000    12.0000 </r>
       <r>   -11.3322     0.0000    12.0000 </r>
       <r>   -11.2182     0.0000    12.0000 </r>
       <r>   -11.1042     0.0000    12.0000 </r>
       <r>   -10.9902     0.0000    12.0000 </r>
       <r>   -10.8762     0.0000    12.0000 </r>
       <r>   -10.7622     0.0000    12.0000 </r>
       <r>   -10.6482     0.0000    12.0000 </r>
       <r>   -10.5342     0.0000    12.0000 </r>
       <r>   -10.4202     0.0000    12.0000 </r>
       <r>   -10.3062     0.0000    12.0000 </r>
       <r>   -10.1922     0.0000    12.0000 </r>
       <r>   -10.0782     0.0000    12.0000 </r>
       <r>    -9.9643     0.0000    12.0000 </r>
       <r>    -9.8503     0.0000    12.0000 </r>
       <r>    -9.7363     0.0000    12.0000 </r>
       <r>    -9.6223     0.0000    12.0000 </r>
       <r>    -9.5083     0.0000    12.0000 </r>
       <r>    -9.3943     0.0000    12.0000 </r>
       <r>    -9.2803     0.0000    12.0000 </r>
       <r>    -9.1663     0.0000    12.0000 </r>
       <r>    -9.0523     0.0000    12.0000 </r>
       <r>    -8.9383     0.0000    12.0000 </r>
       <r>    -8.8243     0.0000    12.0000 </r>
       <r>    -8.7103     0.0000    12.0000 </r>
       <r>    -8.5963     0.0000    12.0000 </r>
       <r>    -8.4823     0.0000    12.0000 </r>
       <r>    -8.3683     0.0000    12.0000 </r>
       <r>    -8.2544     0.0000    12.0000 </r>
       <r>    -8.1404     0.2158    12.0098 </r>
       <r>    -8.0264     0.4081    12.0521 </r>
       <r>    -7.9124     0.6154    12.1102 </r>
       <r>    -7.7984     0.8368    12.1933 </r>
       <r>    -7.6844     1.1445    12.3032 </r>
       <r>    -7.5704     1.5713    12.4571 </r>
       <r>    -7.4564     2.6263    12.6812 </r>
       <r>    -7.3424     7.6224    13.2712 </r>
       <r>    -7.2284     2.1251    13.8055 </r>
       <r>    -7.1144     0.5584    13.9535 </r>
       <r>    -7.0004     0.2432    13.9953 </r>
       <r>    -6.8864     0.1932    14.0182 </r>
       <r>    -6.7724     0.3167    14.0467 </r>
       <r>    -6.6585     0.5157    14.0926 </r>
       <r>    -6.5445     1.0133    14.1771 </r>
       <r>    -6.4305     1.7509    14.3276 </r>
       <r>    -6.3165     3.0941    14.6047 </r>
       <r>    -6.2025     4.7106    15.0503 </r>
       <r>    -6.0885     2.3984    15.5136 </r>
       <r>    -5.9745     1.3908    15.7218 </r>
       <r>    -5.8605     0.8477    15.8457 </r>
       <r>    -5.7465     0.6150    15.9267 </r>
       <r>    -5.6325     0.3652    15.9877 </r>
       <r>    -5.5185     0.1112    16.0039 </r>
       <r>    -5.4045     1.6682    16.0912 </r>
       <r>    -5.2905     3.4080    16.3967 </r>
       <r>    -5.1765     3.1728    16.7728 </r>
       <r>    -5.0625     2.9599    17.1174 </r>
       <r>    -4.9486     2.4119    17.4357 </r>
       <r>    -4.8346     1.6837    17.6573 </r>
       <r>    -4.7206     1.3444    17.8286 </r>
       <r>    -4.6066     0.9017    17.9643 </r>
       <r>    -4.4926     1.7340    18.0233 </r>
       <r>    -4.3786    11.5726    18.9108 </r>
       <r>    -4.2646     5.2360    19.8269 </r>
       <r>    -4.1506     8.0172    20.4554 </r>
       <r>    -4.0366     7.1029    21.3968 </r>
       <r>    -3.9226     3.2701    22.0260 </r>
       <r>    -3.8086     5.6675    22.3421 </r>
       <r>    -3.6946     7.2098    23.2633 </r>
       <r>    -3.5806     2.8768    23.8059 </r>
       <r>    -3.4666     0.2540    23.9965 </r>
       <r>    -3.3526     0.0000    24.0000 </r>
       <r>    -3.2387     0.0000    24.0000 </r>
       <r>    -3.1247     0.0000    24.0000 </r>
       <r>    -3.0107     0.0000    24.0000 </r>
       <r>    -2.8967     0.0000    24.0000 </r>
       <r>    -2.7827     0.0000    24.0000 </r>
       <r>    -2.6687     0.0000    24.0000 </r>
       <r>    -2.5547     0.0000    24.0000 </r>
       <r>    -2.4407     0.0000    24.0000 </r>
       <r>    -2.3267     0.0000    24.0000 </r>
       <r>    -2.2127     7.7357    24.1088 </r>
       <r>    -2.0987    11.8594    25.4059 </r>
       <r>    -1.9847     8.1759    26.2920 </r>
       <r>    -1.8707     5.2895    27.0704 </r>
       <r>    -1.7567     4.1594    27.7569 </r>
       <r>    -1.6428     3.4478    28.0925 </r>
       <r>    -1.5288    10.9818    29.0547 </r>
       <r>    -1.4148     3.9606    29.8841 </r>
       <r>    -1.3008     3.2888    30.0750 </r>
       <r>    -1.1868    12.8292    31.1070 </r>
       <r>    -1.0728     1.0913    31.9637 </r>
       <r>    -0.9588    16.5677    32.4834 </r>
       <r>    -0.8448     1.3278    33.8675 </r>
       <r>    -0.7308     4.5849    34.0892 </r>
       <r>    -0.6168     7.6427    34.8248 </r>
       <r>    -0.5028     9.3622    35.9387 </r>
       <r>    -0.3888    12.5122    36.9956 </r>
       <r>    -0.2748     4.9861    37.7907 </r>
       <r>    -0.1608     9.4475    38.5008 </r>
       <r>    -0.0468     7.9574    39.5499 </r>
       <r>     0.0671     5.7854    40.1671 </r>
       <r>     0.1811    15.4322    41.2270 </r>
       <r>     0.2951     0.8521    41.9997 </r>
       <r>     0.4091    13.0445    42.5941 </r>
       <r>     0.5231     3.2695    43.7335 </r>
       <r>     0.6371     4.4840    44.0865 </r>
       <r>     0.7511     6.5682    44.6766 </r>
       <r>     0.8651     7.7101    45.9048 </r>
       <r>     0.9791     7.2039    46.5763 </r>
       <r>     1.0931     5.4075    47.7352 </r>
       <r>     1.2071     0.0000    48.0000 </r>
       <r>     1.3211     0.0000    48.0000 </r>
       <r>     1.4351     0.0000    48.0000 </r>
       <r>     1.5491     0.0000    48.0000 </r>
       <r>     1.6631     0.0000    48.0000 </r>
       <r>     1.7770     0.0000    48.0000 </r>
       <r>     1.8910     0.0000    48.0000 </r>
       <r>     2.0050     0.0000    48.0000 </r>
       <r>     2.1190     0.0000    48.0000 </r>
       <r>     2.2330     0.0000    48.0000 </r>
       <r>     2.3470     0.0000    48.0000 </r>
       <r>     2.4610     0.0000    48.0000 </r>
       <r>     2.5750     0.0000    48.0000 </r>
       <r>     2.6890     0.0000    48.0000 </r>
       <r>     2.8030     0.0000    48.0000 </r>
       <r>     2.9170     0.0000    48.0000 </r>
       <r>     3.0310     0.0000    48.0000 </r>
       <r>     3.1450     0.0000    48.0000 </r>
       <r>     3.2590     0.0000    48.0000 </r>
       <r>     3.3729     0.0000    48.0000 </r>
       <r>     3.4869     0.0000    48.0000 </r>
       <r>     3.6009     0.0000    48.0000 </r>
       <r>     3.7149     0.0000    48.0000 </r>
       <r>     3.8289     0.0000    48.0000 </r>
       <r>     3.9429     0.0000    48.0000 </r>
       <r>     4.0569     0.0000    48.0000 </r>
       <r>     4.1709     0.0000    48.0000 </r>
       <r>     4.2849     0.0000    48.0000 </r>
       <r>     4.3989     0.0000    48.0000 </r>
       <r>     4.5129     0.0000    48.0000 </r>
       <r>     4.6269     0.0000    48.0000 </r>
       <r>     4.7409     0.0000    48.0000 </r>
       <r>     4.8549     0.0000    48.0000 </r>
       <r>     4.9689     0.0000    48.0000 </r>
       <r>     5.0828     0.0000    48.0000 </r>
       <r>     5.1968     0.0000    48.0000 </r>
       <r>     5.3108     0.0000    48.0000 </r>
       <r>     5.4248     0.0000    48.0000 </r>
       <r>     5.5388     0.0000    48.0000 </r>
       <r>     5.6528     0.0000    48.0000 </r>
       <r>     5.7668     0.0000    48.0000 </r>
       <r>     5.8808     0.0000    48.0000 </r>
       <r>     5.9948     0.0000    48.0000 </r>
       <r>     6.1088     0.0000    48.0000 </r>
       <r>     6.2228     0.0000    48.0000 </r>
       <r>     6.3368     0.0000    48.0000 </r>
       <r>     6.4508     0.0000    48.0000 </r>
       <r>     6.5648     0.0000    48.0000 </r>
       <r>     6.6787     0.0000    48.0000 </r>
       <r>     6.7927     0.0000    48.0000 </r>
       <r>     6.9067     0.0000    48.0000 </r>
       <r>     7.0207     0.0000    48.0000 </r>
       <r>     7.1347     0.0013    48.0000 </r>
       <r>     7.2487     0.0228    48.0011 </r>
       <r>     7.3627     0.0705    48.0062 </r>
       <r>     7.4767     0.1445    48.0182 </r>
       <r>     7.5907     0.2216    48.0398 </r>
       <r>     7.7047     0.2629    48.0676 </r>
       <r>     7.8187     0.2862    48.0990 </r>
       <r>     7.9327     0.3184    48.1331 </r>
       <r>     8.0467     0.3652    48.1720 </r>
       <r>     8.1607     0.4146    48.2164 </r>
       <r>     8.2747     0.4666    48.2666 </r>
       <r>     8.3886     0.5210    48.3229 </r>
       <r>     8.5026     0.6061    48.3859 </r>
       <r>     8.6166     0.7640    48.4641 </r>
       <r>     8.7306     0.8645    48.5595 </r>
       <r>     8.8446     0.8616    48.6548 </r>
       <r>     8.9586     0.9247    48.7566 </r>
       <r>     9.0726     0.9899    48.8657 </r>
       <r>     9.1866     1.0573    48.9824 </r>
       <r>     9.3006     1.5077    49.1218 </r>
       <r>     9.4146     1.5522    49.3002 </r>
       <r>     9.5286     1.3009    49.4592 </r>
       <r>     9.6426     1.2935    49.6046 </r>
       <r>     9.7566     1.5092    49.7646 </r>
       <r>     9.8706     2.0574    49.9513 </r>
       <r>     9.9846     1.1552    50.1270 </r>
       <r>    10.0985     1.1438    50.2512 </r>
       <r>    10.2125     3.1813    50.4682 </r>
       <r>    10.3265    10.2495    51.2051 </r>
       <r>    10.4405     4.1455    52.0125 </r>
       <r>    10.5545     6.0889    52.5543 </r>
       <r>    10.6685     7.6839    53.4604 </r>
       <r>    10.7825     4.7403    54.1563 </r>
       <r>    10.8965     2.4037    54.4922 </r>
       <r>    11.0105     4.3685    54.8352 </r>
       <r>    11.1245     6.7786    55.5215 </r>
       <r>    11.2385     4.9287    56.1089 </r>
       <r>    11.3525     5.2905    56.6631 </r>
       <r>    11.4665     5.7584    57.3547 </r>
       <r>    11.5805     2.7869    57.8455 </r>
       <r>    11.6944     0.1646    57.9980 </r>
       <r>    11.8084     0.0000    58.0000 </r>
       <r>    11.9224     0.0000    58.0000 </r>
       <r>    12.0364     0.0000    58.0000 </r>
       <r>    12.1504     0.0000    58.0000 </r>
       <r>    12.2644     0.0000    58.0000 </r>
       <r>    12.3784     0.0000    58.0000 </r>
       <r>    12.4924     0.0000    58.0000 </r>
       <r>    12.6064     0.0000    58.0000 </r>
       <r>    12.7204     0.0000    58.0000 </r>
       <r>    12.8344     0.0000    58.0000 </r>
       <r>    12.9484     0.0000    58.0000 </r>
       <r>    13.0624     0.0000    58.0000 </r>
       <r>    13.1764     0.0000    58.0000 </r>
       <r>    13.2904     0.0000    58.0000 </r>
       <r>    13.4043     0.0000    58.0000 </r>
       <r>    13.5183     0.0000    58.0000 </r>
       <r>    13.6323     0.0000    58.0000 </r>
       <r>    13.7463     0.0000    58.0000 </r>
      </set>
     </set>
    </array>
   </total>
  </dos>
 </calculation>
 <structure name="finalpos" >
  <crystal>
   <varray name="basis" >
    <v>       4.91370000       0.00000000       0.00000000 </v>
    <v>      -2.45685000       4.25538903       0.00000000 </v>
    <v>       0.00000000       0.00000000       5.40513000 </v>
   </varray>
   <i name="volume">    113.01967420 </i>
   <varray name="rec_basis" >
    <v>       0.20351263       0.11749807       0.00000000 </v>
    <v>       0.00000000       0.23499614       0.00000000 </v>
    <v>       0.00000000       0.00000000       0.18500943 </v>
   </varray>
  </crystal>
  <varray name="positions" >
   <v>       0.46980000       0.02000000       0.66667000 </v>
   <v>       0.00000000       0.46980000       0.33333000 </v>
   <v>       0.53020000       0.53020000       0.00000000 </v>
   <v>       0.41450000       0.26620000       0.78560000 </v>
   <v>       0.73380000       0.14830000       0.45227000 </v>
   <v>       0.85170000       0.58550000       0.11893000 </v>
   <v>       0.14830000       0.73380000       0.54773000 </v>
   <v>       0.26620000       0.41450000       0.21440000 </v>
   <v>       0.58550000       0.85170000       0.88107000 </v>
  </varray>
 </structure>
</modeling>
