unknown system                          
   1.00000000000000     
     4.913700    0.000000    0.000000
    -2.456850    4.255389    0.000000
     0.000000    0.000000    5.405130
   Si   O 
     3     6
Direct
  0.469800  0.000000  0.666670
  0.000000  0.469800  0.333330
  0.530200  0.530200  0.000000
  0.414500  0.266200  0.785600
  0.733800  0.148300  0.452270
  0.851700  0.585500  0.118930
  0.148300  0.733800  0.547730
  0.266200  0.414500  0.214400
  0.585500  0.851700  0.881070
 
   48   48   56
  1.4533      1.3842      1.3881      1.4431      1.5327      1.6471      1.7814      1.9322      2.0967      2.2706    
  2.4471      2.6180      2.7763      2.9206      3.0589      3.2095      3.3971      3.6481      3.9951      4.4951    
  5.2487      6.4011      8.1157      10.535      13.750      17.792      22.628      28.120      33.960      39.587    
  44.212      46.995      47.330      45.110      40.773      35.125      29.029      23.162      17.927      13.505    
  9.9401      7.2048      5.2153      3.8399      2.9199      2.3066      1.8918      1.6164      1.3842      1.3093    
  1.3167      1.3870      1.5030      1.6537      1.8334      2.0380      2.2628      2.5020      2.7477      2.9877    
  3.2074      3.3945      3.5443      3.6648      3.7766      3.9082      4.0912      4.3622      4.7784      5.4312    
  6.4445      7.9464      10.034      12.747      16.060      19.871      23.972      28.025      31.566      34.071    
  35.094      34.414      32.133      28.637      24.458      20.111      15.986      12.329      9.2698      6.8521    
  5.0450      3.7583      2.8698      2.2605      1.8404      1.5566      1.3881      1.3167      1.3312      1.4165    
  1.5565      1.7395      1.9597      2.2137      2.4977      2.8057      3.1286      3.4512      3.7529      4.0106    
  4.2060      4.3325      4.4001      4.4347      4.4718      4.5496      4.7095      5.0072      5.5208      6.3461    
  7.5749      9.2679      11.432      14.005      16.845      19.730      22.366      24.424      25.597      25.682    
  24.640      22.621      19.913      16.856      13.765      10.885      8.3812      6.3405      4.7731      3.6259    
  2.8103      2.2357      1.8319      1.5563      1.4431      1.3870      1.4165      1.5197      1.6838      1.8980    
  2.1562      2.4568      2.7995      3.1811      3.5919      4.0144      4.4222      4.7824      5.0620      5.2367    
  5.3009      5.2708      5.1819      5.0801      5.0133      5.0278      5.1745      5.5157      6.1226      7.0572    
  8.3477      9.9702      11.842      13.825      15.730      17.336      18.426      18.829      18.472      17.391    
  15.725      13.678      11.476      9.3212      7.3725      5.7275      4.4224      3.4393      2.7238      2.2100    
  1.8439      1.5930      1.5327      1.5030      1.5565      1.6838      1.8747      2.1205      2.4165      2.7633    
  3.1653      3.6242      4.1336      4.6750      5.2164      5.7146      6.1208      6.3917      6.5016      6.4507    
  6.2672      6.0014      5.7141      5.4639      5.3023      5.2762      5.4330      5.8167      6.4568      7.3553    
  8.4772      9.7461      11.043      12.218      13.112      13.593      13.580      13.062      12.094      10.791    
  9.2987      7.7683      6.3270      5.0637      4.0248      3.2168      2.6143      2.1757      1.8625      1.6512    
  1.6471      1.6537      1.7395      1.8980      2.1205      2.4002      2.7351      3.1289      3.5904      4.1285    
  4.7439      5.4208      6.1233      6.7967      7.3757      7.7958      8.0075      7.9896      7.7564      7.3554    
  6.8574      6.3415      5.8798      5.5280      5.3238      5.2931      5.4553      5.8206      6.3791      7.0901    
  7.8808      8.6537      9.3016      9.7252      9.8509      9.6455      9.1225      8.3375      7.3768      6.3396    
  5.3211      4.3962      3.6101      2.9784      2.4933      2.1353      1.8834      1.7229      1.7814      1.8334    
  1.9597      2.1562      2.4165      2.7351      3.1115      3.5526      4.0727      4.6889      5.4120      6.2335    
  7.1178      8.0016      8.8016      9.4284      9.8049      9.8833      9.6575      9.1652      8.4813      7.7030    
  6.9301      6.2447      5.6999      5.3218      5.1202      5.0952      5.2363      5.5183      5.8993      6.3227    
  6.7200      7.0192      7.1580      7.0988      6.8344      6.3859      5.7961      5.1229      4.4314      3.7805    
  3.2101      2.7384      2.3675      2.0929      1.9078      1.8055      1.9322      2.0380      2.2137      2.4568    
  2.7633      3.1289      3.5526      4.0428      4.6194      5.3090      6.1341      7.0982      8.1729      9.2922    
  10.357      11.250      11.861      12.110      11.961      11.436      10.607      9.5834      8.4916      7.4485    
  6.5427      5.8241      5.3043      4.9683      4.7907      4.7465      4.8108      4.9513      5.1232      5.2744    
  5.3564      5.3349      5.1945      4.9379      4.5831      4.1604      3.7067      3.2604      2.8544      2.5115    
  2.2432      2.0524      1.9379      1.8984      2.0967      2.2628      2.4977      2.7995      3.1653      3.5904    
  4.0727      4.6194      5.2532      6.0093      6.9237      8.0165      9.2737      10.635      11.992      13.204    
  14.124      14.627      14.640      14.156      13.239      12.005      10.603      9.1865      7.8866      6.7906    
  5.9317      5.2974      4.8517      4.5571      4.3829      4.3007      4.2795      4.2838      4.2783      4.2327    
  4.1270      3.9554      3.7251      3.4510      3.1505      2.8442      2.5569      2.3135      2.1316      2.0185    
  1.9749      2.0007      2.2706      2.5020      2.8057      3.1811      3.6242      4.1285      4.6889      5.3090    
  6.0093      6.8292      7.8184      9.0166      10.430      12.015      13.665      15.227      16.517      17.362    
  17.635      17.288      16.361      14.972      13.290      11.504      9.7850      8.2624      7.0089      6.0395    
  5.3239      4.8085      4.4392      4.1753      3.9892      3.8580      3.7560      3.6557      3.5348      3.3816    
  3.1952      2.9824      2.7550      2.5286      2.3221      2.1549      2.0431      1.9965      2.0187      2.1099    
  2.4471      2.7477      3.1286      3.5919      4.1336      4.7439      5.4120      6.1341      6.9237      7.8184    
  8.8757      10.154      11.684      13.448      15.358      17.262      18.953      20.210      20.844      20.746    
  19.915      18.453      16.547      14.417      12.274      10.296      8.6004      7.2414      6.2085      5.4450    
  4.8782      4.4484      4.1176      3.8617      3.6591      3.4868      3.3233      3.1514      2.9612      2.7533    
  2.5394      2.3385      2.1696      2.0480      1.9855      1.9913      2.0701      2.2221      2.6180      2.9877    
  3.4512      4.0144      4.6750      5.4208      6.2335      7.0982      8.0165      9.0166      10.154      11.496    
  13.101      14.982      17.085      19.274      21.343      23.039      24.114      24.382      23.775      22.359    
  20.317      17.897      15.356      12.921      10.761      8.9665      7.5562      6.4890      5.6916      5.0876    
  4.6162      4.2375      3.9266      3.6649      3.4338      3.2145      2.9927      2.7632      2.5327      2.3178    
  2.1403      2.0213      1.9763      2.0132      2.1332      2.3347      2.7763      3.2074      3.7529      4.4222    
  5.2164      6.1233      7.1178      8.1729      9.2737      10.430      11.684      13.101      14.754      16.688    
  18.889      21.264      23.629      25.727      27.266      27.987      27.737      26.515      24.470      21.861    
  18.985      16.125      13.499      11.244      9.4182      8.0065      6.9447      6.1443      5.5202      5.0110    
  4.5806      4.2084      3.8783      3.5755      3.2889      3.0118      2.7424      2.4884      2.2702      2.1161    
  2.0508      2.0854      2.2193      2.4492      2.9206      3.3945      4.0106      4.7824      5.7146      6.7967    
  8.0016      9.2922      10.635      12.015      13.448      14.982      16.688      18.629      20.837      23.270    
  25.797      28.188      30.140      31.339      31.545      30.665      28.785      26.143      23.054      19.845    
  16.790      14.088      11.845      10.079      8.7353      7.7191      6.9287      6.2816      5.7226      5.2197    
  4.7559      4.3229      3.9172      3.5371      3.1822      2.8572      2.5766      2.3646      2.2465      2.2393    
  2.3488      2.5751      3.0589      3.5443      4.2060      5.0620      6.1208      7.3757      8.8016      10.357    
  11.992      13.665      15.358      17.085      18.889      20.837      22.987      25.357      27.882      30.398    
  32.632      34.250      34.940      34.512      32.962      30.472      27.348      23.941      20.574      17.505    
  14.894      12.796      11.177      9.9454      8.9903      8.2084      7.5193      6.8725      6.2440      5.6286    
  5.0314      4.4639      3.9412      3.4787      3.0895      2.7864      2.5848      2.5010      2.5473      2.7309    
  3.2095      3.6648      4.3325      5.2367      6.3917      7.7958      9.4284      11.250      13.204      15.227    
  17.262      19.274      21.264      23.270      25.357      27.580      29.951      32.393      34.705      36.581    
  37.685      37.750      36.661      34.506      31.552      28.161      24.689      21.427      18.576      16.231    
  14.392      12.983      11.889      10.989      10.179      9.3873      8.5728      7.7260      6.8611      6.0096    
  5.2103      4.4984      3.8987      3.4254      3.0867      2.8889      2.8379      2.9406      3.3971      3.7766    
  4.4001      5.3009      6.5016      8.0075      9.8049      11.861      14.124      16.517      18.953      21.343    
  23.629      25.797      27.882      29.951      32.066      34.212      36.271      38.060      39.324      39.789    
  39.257      37.688      35.225      32.154      28.842      25.644      22.785      20.385      18.468      16.980    
  15.809      14.830      13.926      13.002      11.997      10.885      9.6861      8.4514      7.2475      6.1381    
  5.1754      4.3960      3.8173      3.4372      3.2433      3.2275      3.6481      3.9082      4.4347      5.2708    
  6.4507      7.9896      9.8833      12.110      14.627      17.362      20.210      23.039      25.727      28.188    
  30.398      32.393      34.212      35.821      37.226      38.434      39.383      39.913      39.827      38.990    
  37.398      35.183      32.570      29.837      27.290      25.129      23.379      21.994      20.878      19.911    
  18.975      17.960      16.781      15.395      13.812      12.096      10.347      8.6714      7.1656      5.9021    
  4.9222      4.2318      3.8077      3.6186      3.9951      4.0912      4.4718      5.1819      6.2672      7.7564    
  9.6575      11.961      14.640      17.635      20.844      24.114      27.266      30.140      32.632      34.705    
  36.271      37.226      37.644      37.735      37.725      37.719      37.670      37.442      36.915      36.040    
  34.834      33.365      31.760      30.225      28.960      27.951      27.117      26.350      25.527      24.523    
  23.232      21.585      19.578      17.284      14.843      12.422      10.174      8.2164      6.6253      5.4331    
  4.6286      4.1664      4.4951      4.3622      4.5496      5.0801      6.0014      7.3554      9.1652      11.436    
  14.156      17.288      20.746      24.382      27.987      31.339      34.250      36.581      38.060      38.434    
  37.735      36.306      34.680      33.356      32.624      32.522      32.923      33.634      34.432      35.081    
  35.383      35.287      34.954      34.655      34.423      34.163      33.740      32.988      31.747      29.906    
  27.446      24.463      21.155      17.771      14.543      11.646      9.1978      7.2683      5.8738      4.9752    
  5.2487      4.7784      4.7095      5.0133      5.7141      6.8574      8.4813      10.607      13.239      16.361    
  19.915      23.775      27.737      31.545      34.940      37.685      39.324      39.383      37.725      34.680    
  31.002      27.620      25.314      24.512      25.278      27.401      30.465      33.888      37.028      39.409    
  40.913      41.818      42.557      43.214      43.641      43.593      42.783      40.984      38.120      34.320    
  29.889      25.217      20.668      16.514      12.925      9.9956      7.7633      6.2075      6.4011      5.4312    
  5.0072      5.0278      5.4639      6.3415      7.7030      9.5834      12.005      14.972      18.453      22.359    
  26.515      30.665      34.512      37.750      39.789      39.913      37.719      33.356      27.620      21.770    
  17.123      14.663      14.864      17.710      22.751      29.140      35.760      41.552      45.917      48.914    
  51.115      53.126      54.968      56.296      56.610      55.422      52.466      47.832      41.965      35.512    
  29.108      23.220      18.106      13.867      10.524      8.0578      8.1157      6.4445      5.5208      5.1745    
  5.3023      5.8798      6.9301      8.4916      10.603      13.290      16.547      20.317      24.470      28.785    
  32.962      36.661      39.257      39.827      37.670      32.624      25.314      17.123      9.7993      4.9234    
  3.5306      6.0173      12.149      21.033      31.186      40.922      48.971      54.960      59.399      63.215    
  67.007      70.477      72.866      73.277      71.020      65.933      58.511      49.740      40.732      32.366    
  25.122      19.131      14.353      10.710      10.535      7.9464      6.3461      5.5157      5.2762      5.5280    
  6.2447      7.4485      9.1865      11.504      14.417      17.897      21.861      26.143      30.472      34.506    
  37.688      38.990      37.442      32.522      24.512      14.663      4.9234     -2.6465     -6.4182     -5.4400    
 0.49394      10.733      23.704      37.231      49.308      58.910      66.270      72.453      78.553      84.769    
  90.185      93.430      93.178      88.690      80.210      68.945      56.612      44.804      34.522      26.097    
  19.434      14.309      13.750      10.034      7.5749      6.1226      5.4330      5.3238      5.6999      6.5427    
  7.8866      9.7850      12.274      15.356      18.985      23.054      27.348      31.552      35.225      37.398    
  36.915      32.923      25.278      14.864      3.5306     -6.4182     -12.862     -14.276     -9.8885     0.13752    
  14.497      30.857      46.606      59.941      70.557      79.458      88.067      97.208      106.22      113.38    
  116.63      114.40      106.24      93.178      77.378      61.334      46.966      35.171      25.968      18.964    
  17.792      12.747      9.2679      7.0572      5.8167      5.2931      5.3218      5.8241      6.7906      8.2624    
  10.296      12.921      16.125      19.845      23.941      28.161      32.154      35.183      36.040      33.634    
  27.401      17.710      6.0173     -5.4400     -14.276     -18.491     -16.745     -8.5620      5.3327      22.867    
  41.154      57.675      71.390      82.958      93.964      105.73      118.23      129.72      137.61      139.42    
  133.61      120.49      102.21      81.966      62.827      46.720      34.170      24.756      22.628      16.060    
  11.432      8.3477      6.4568      5.4553      5.1202      5.3043      5.9317      7.0089      8.6004      10.761    
  13.499      16.790      20.574      24.689      28.842      32.570      34.834      34.432      30.465      22.751    
  12.149     0.49394     -9.8885     -16.745     -18.246     -13.250     -1.7145      14.918      33.931      52.389    
  68.482      82.240      95.112      108.78      123.92      139.25      152.04      159.21      157.89      146.98    
  128.20      105.10      81.513      60.675      44.095      31.694      28.120      19.871      14.005      9.9702    
  7.3553      5.8206      5.0952      4.9683      5.2974      6.0395      7.2414      8.9665      11.244      14.088    
  17.505      21.427      25.644      29.837      33.365      35.081      33.888      29.140      21.033      10.733    
 0.13752     -8.5620     -13.250     -12.210     -4.5942      9.0303      26.572      45.135      62.336      77.404    
  91.312      105.85      122.27      140.07      156.81      169.34      173.90      167.73      151.05      127.30    
  100.95      76.032      55.333      39.588      33.960      23.972      16.845      11.842      8.4772      6.3791    
  5.2363      4.7907      4.8517      5.3239      6.2085      7.5562      9.4182      11.845      14.894      18.576    
  22.785      27.290      31.760      35.383      37.028      35.760      31.186      23.704      14.497      5.3327    
 -1.7145     -4.5942     -1.7677      7.1708      21.098      37.645      54.248      69.413      83.373      97.653    
  113.84      132.24      151.06      167.38      177.51      177.52      165.77      144.30      117.75      90.651    
  66.740      47.871      39.587      28.025      19.730      13.825      9.7461      7.0901      5.5183      4.7465    
  4.5571      4.8085      5.4450      6.4890      8.0065      10.079      12.796      16.231      20.385      25.129    
  30.225      35.287      39.409      41.552      40.922      37.231      30.857      22.867      14.918      9.0303    
  7.1708      10.618      19.348      31.907      46.043      59.875      72.858      85.901      100.54      117.68    
  136.43      154.27      168.01      173.69      168.31      151.99      128.23      101.67      76.471      55.511    
  44.212      31.566      22.366      15.730      11.043      7.8808      5.8993      4.8108      4.3829      4.4392    
  4.8782      5.6916      6.9447      8.7353      11.177      14.392      18.468      23.379      28.960      34.954    
  40.913      45.917      48.971      49.308      46.606      41.154      33.931      26.572      21.098      19.348    
  22.277      29.512      39.556      50.620      61.616      72.684      84.918      99.445      116.20      133.45    
  148.35      157.65      158.07      148.23      129.80      106.52      82.486      61.169      46.995      34.071    
  24.424      17.336      12.218      8.6537      6.3227      4.9513      4.3007      4.1753      4.4484      5.0876    
  6.1443      7.7191      9.9454      12.983      16.980      21.994      27.951      34.655      41.818      48.914    
  54.960      58.910      59.941      57.675      52.389      45.135      37.645      31.907      29.512      31.071    
  36.059      43.216      51.318      59.883      69.361      80.680      94.214      109.08      123.24      133.87    
  138.19      134.22      122.07      103.95      83.324      63.615      47.330      35.094      25.597      18.426    
  13.112      9.3016      6.7200      5.1232      4.2795      3.9892      4.1176      4.6162      5.5202      6.9287    
  8.9903      11.889      15.809      20.878      27.117      34.423      42.557      51.115      59.399      66.270    
  70.557      71.390      68.482      62.336      54.248      46.043      39.556      36.059      35.908      38.581    
  43.135      48.821      55.520      63.684      73.680      85.189      97.042      107.25      113.45      113.64    
  107.05      94.632      78.750      62.240      45.110      34.414      25.682      18.829      13.593      9.7252    
  7.0192      5.2744      4.2838      3.8580      3.8617      4.2375      5.0110      6.2816      8.2084      10.989    
  14.830      19.911      26.350      34.163      43.214      53.126      63.215      72.453      79.458      82.958    
  82.240      77.404      69.413      59.875      50.620      43.216      38.581      36.864      37.621      40.212    
  44.214      49.593      56.414      64.550      73.434      81.878      88.189      90.644      88.155      80.797    
  69.861      57.333      40.773      32.133      24.640      18.472      13.580      9.8509      7.1580      5.3564    
  4.2783      3.7560      3.6591      3.9266      4.5806      5.7226      7.5193      10.179      13.926      18.975    
  25.527      33.740      43.641      54.968      67.007      78.553      88.067      93.964      95.112      91.312    
  83.373      72.858      61.616      51.318      43.135      37.621      34.785      34.280      35.673      38.629    
  42.875      48.206      54.306      60.526      65.830      68.974      68.925      65.303      58.592      49.959    
  35.125      28.637      22.621      17.391      13.062      9.6455      7.0988      5.3349      4.2327      3.6557    
  3.4868      3.6649      4.2084      5.2197      6.8725      9.3873      13.002      17.960      24.523      32.988    
  43.593      56.296      70.477      84.769      97.208      105.73      108.78      105.85      97.653      85.901    
  72.684      59.883      48.821      40.212      34.280      30.917      29.827      30.577      32.724      35.907    
  39.808      44.027      47.971      50.856      51.893      50.579      46.932      41.499      29.029      24.458    
  19.913      15.725      12.094      9.1225      6.8344      5.1945      4.1270      3.5348      3.3233      3.4338    
  3.8783      4.7559      6.2440      8.5728      11.997      16.781      23.232      31.747      42.783      56.610    
  72.866      90.185      106.22      118.23      123.92      122.27      113.84      100.54      84.918      69.361    
  55.520      44.214      35.673      29.827      26.433      25.118      25.428      26.909      29.170      31.858    
  34.581      36.855      38.148      38.021      36.301      33.156      23.162      20.111      16.856      13.678    
  10.791      8.3375      6.3859      4.9379      3.9554      3.3816      3.1514      3.2145      3.5755      4.3229    
  5.6286      7.7260      10.885      15.395      21.585      29.906      40.984      55.422      73.277      93.430    
  113.38      129.72      139.25      140.07      132.24      117.68      99.445      80.680      63.684      49.593    
  38.629      30.577      25.118      21.906      20.534      20.550      21.518      23.058      24.823      26.469    
  27.638      28.005      27.358      25.681      17.927      15.986      13.765      11.476      9.2987      7.3768    
  5.7961      4.5831      3.7251      3.1952      2.9612      2.9927      3.2889      3.9172      5.0314      6.8611    
  9.6861      13.812      19.578      27.446      38.120      52.466      71.020      93.178      116.63      137.61    
  152.04      156.81      151.06      136.43      116.20      94.214      73.680      56.414      42.875      32.724    
  25.428      20.534      17.651      16.357      16.214      16.811      17.803      18.891      19.804      20.297    
  20.185      19.380      13.505      12.329      10.885      9.3212      7.7683      6.3396      5.1229      4.1604    
  3.4510      2.9824      2.7533      2.7632      3.0118      3.5371      4.4639      6.0096      8.4514      12.096    
  17.284      24.463      34.320      47.832      65.933      88.690      114.40      139.42      159.21      169.34    
  167.38      154.27      133.45      109.08      85.189      64.550      48.206      35.907      26.909      20.550    
  16.357      13.913      12.782      12.551      12.872      13.459      14.067      14.500      14.606      14.284    
  9.9401      9.2698      8.3812      7.3725      6.3270      5.3211      4.4314      3.7067      3.1505      2.7550    
  2.5394      2.5327      2.7424      3.1822      3.9412      5.2103      7.2475      10.347      14.843      21.155    
  29.889      41.965      58.511      80.210      106.24      133.61      157.89      173.90      177.51      168.01    
  148.35      123.24      97.042      73.434      54.306      39.808      29.170      21.518      16.214      12.782    
  10.791      9.8372      9.5732      9.7050      9.9934      10.266      10.405      10.319      7.2048      6.8521    
  6.3405      5.7275      5.0637      4.3962      3.7805      3.2604      2.8442      2.5286      2.3385      2.3178    
  2.4884      2.8572      3.4787      4.4984      6.1381      8.6714      12.422      17.771      25.217      35.512    
  49.740      68.945      93.178      120.49      146.98      167.73      177.52      173.69      157.65      133.87    
  107.25      81.878      60.526      44.027      31.858      23.058      16.811      12.551      9.8372      8.2784    
  7.5185      7.2506      7.2342      7.3101      7.3815      7.3704      5.2153      5.0450      4.7731      4.4224    
  4.0248      3.6101      3.2101      2.8544      2.5569      2.3221      2.1696      2.1403      2.2702      2.5766    
  3.0895      3.8987      5.1754      7.1656      10.174      14.543      20.668      29.108      40.732      56.612    
  77.378      102.21      128.20      151.05      165.77      168.31      158.07      138.19      113.45      88.189    
  65.830      47.971      34.581      24.823      17.803      12.872      9.5732      7.5185      6.3459      5.7411    
  5.4642      5.3556      5.3200      5.2926      3.8399      3.7583      3.6259      3.4393      3.2168      2.9784    
  2.7384      2.5115      2.3135      2.1549      2.0480      2.0213      2.1161      2.3646      2.7864      3.4254    
  4.3960      5.9021      8.2164      11.646      16.514      23.220      32.366      44.804      61.334      81.966    
  105.10      127.30      144.30      151.99      148.23      134.22      113.64      90.644      68.974      50.856    
  36.855      26.469      18.891      13.459      9.7050      7.2506      5.7411      4.8652      4.3815      4.1215    
  3.9808      3.9006      2.9199      2.8698      2.8103      2.7238      2.6143      2.4933      2.3675      2.2432    
  2.1316      2.0431      1.9855      1.9763      2.0508      2.2465      2.5848      3.0867      3.8173      4.9222    
  6.6253      9.1978      12.925      18.106      25.122      34.522      46.966      62.827      81.513      100.95    
  117.75      128.23      129.80      122.07      107.05      88.155      68.925      51.893      38.148      27.638    
  19.804      14.067      9.9934      7.2342      5.4642      4.3815      3.7386      3.3583      3.1300      2.9953    
  2.3066      2.2605      2.2357      2.2100      2.1757      2.1353      2.0929      2.0524      2.0185      1.9965    
  1.9913      2.0132      2.0854      2.2393      2.5010      2.8889      3.4372      4.2318      5.4331      7.2683    
  9.9956      13.867      19.131      26.097      35.171      46.720      60.675      76.032      90.651      101.67    
  106.52      103.95      94.632      80.797      65.303      50.579      38.021      28.005      20.297      14.500    
  10.266      7.3101      5.3556      4.1215      3.3583      2.8832      2.5850      2.4045      1.8918      1.8404    
  1.8319      1.8439      1.8625      1.8834      1.9078      1.9379      1.9749      2.0187      2.0701      2.1332    
  2.2193      2.3488      2.5473      2.8379      3.2433      3.8077      4.6286      5.8738      7.7633      10.524    
  14.353      19.434      25.968      34.170      44.095      55.333      66.740      76.471      82.486      83.324    
  78.750      69.861      58.592      46.932      36.301      27.358      20.185      14.606      10.405      7.3815    
  5.3200      3.9808      3.1300      2.5850      2.2327      2.0131      1.6164      1.5566      1.5563      1.5930    
  1.6512      1.7229      1.8055      1.8984      2.0007      2.1099      2.2221      2.3347      2.4492      2.5751    
  2.7309      2.9406      3.2275      3.6186      4.1664      4.9752      6.2075      8.0578      10.710      14.309    
  18.964      24.756      31.694      39.588      47.871      55.511      61.169      63.615      62.240      57.333    
  49.959      41.499      33.156      25.681      19.380      14.284      10.319      7.3704      5.2926      3.9006    
  2.9953      2.4045      2.0131      1.7606      1.4641      1.4163      1.4200      1.4548      1.5087      1.5768    
  1.6574      1.7484      1.8477      1.9525      2.0590      2.1624      2.2586      2.3472      2.4354      2.5398    
  2.6832      2.8884      3.1786      3.5885      4.1830      5.0642      6.3565      8.1741      10.586      13.596    
  17.133      21.045      25.077      28.852      31.886      33.684      33.901      32.476      29.659      25.912    
  21.752      17.623      13.839      10.583      7.9303      5.8799      4.3745      3.3201      2.6050      2.1236    
  1.7981      1.5854      1.3794      1.3265      1.3333      1.3821      1.4594      1.5589      1.6784      1.8154    
  1.9648      2.1215      2.2804      2.4347      2.5754      2.6943      2.7894      2.8686      2.9501      3.0579    
  3.2172      3.4537      3.8030      4.3237      5.1022      6.2372      7.8096      9.8528      12.334      15.150    
  18.121      20.994      23.457      25.177      25.877      25.423      23.875      21.467      18.533      15.413    
  12.393      9.6768      7.3915      5.5829      4.2259      3.2463      2.5535      2.0676      1.7311      1.5088    
  1.3893      1.3414      1.3558      1.4183      1.5171      1.6447      1.7979      1.9739      2.1678      2.3732    
  2.5835      2.7902      2.9813      3.1432      3.2650      3.3440      3.3888      3.4203      3.4666      3.5562    
  3.7164      3.9808      4.3998      5.0410      5.9757      7.2556      8.8897      10.827      12.949      15.080    