unknown system                          
   1.00000000000000     
     4.913700    0.000000    0.000000
    -2.456850    4.255389    0.000000
     0.000000    0.000000    5.405130
   Si   O 
     3     6
Direct
  0.469800  0.000000  0.666670
  0.000000  0.469800  0.333330
  0.530200  0.530200  0.000000
  0.414500  0.266200  0.785600
  0.733800  0.148300  0.452270
  0.851700  0.585500  0.118930
  0.148300  0.733800  0.547730
  0.266200  0.414500  0.214400
  0.585500  0.851700  0.881070
 
   48   48   56
 0.14532621641E+01 0.13841960998E+01 0.13880952920E+01 0.14431012984E+01 0.15326604042E+01
 0.16471391518E+01 0.17813991210E+01 0.19322324545E+01 0.20967099615E+01 0.22705642460E+01
 0.24471038822E+01 0.26180271891E+01 0.27763499176E+01 0.29206151155E+01 0.30588556791E+01
 0.32094619466E+01 0.33971033546E+01 0.36481069006E+01 0.39951406263E+01 0.44951324133E+01
 0.52487044499E+01 0.64010515316E+01 0.81157307128E+01 0.10534933894E+02 0.13750018058E+02
 0.17792384932E+02 0.22627576576E+02 0.28120434470E+02 0.33959913740E+02 0.39586681679E+02
 0.44212210831E+02 0.46994555409E+02 0.47330374771E+02 0.45110127344E+02 0.40773492208E+02
 0.35125010932E+02 0.29028821868E+02 0.23161745955E+02 0.17927262994E+02 0.13504793420E+02
 0.99400743819E+01 0.72047702815E+01 0.52152926064E+01 0.38398656779E+01 0.29199455677E+01
 0.23065553997E+01 0.18917781069E+01 0.16163895309E+01 0.13841960998E+01 0.13093454702E+01
 0.13166729809E+01 0.13870227617E+01 0.15030291201E+01 0.16537097183E+01 0.18334018745E+01
 0.20379815084E+01 0.22627759768E+01 0.25020406393E+01 0.27476597080E+01 0.29876634888E+01
 0.32074420659E+01 0.33944626283E+01 0.35442627803E+01 0.36647762331E+01 0.37765693687E+01
 0.39082403459E+01 0.40911576241E+01 0.43622420272E+01 0.47783511678E+01 0.54312474715E+01
 0.64445255003E+01 0.79464067859E+01 0.10033631181E+02 0.12746838745E+02 0.16060390368E+02
 0.19870865611E+02 0.23971661885E+02 0.28025105576E+02 0.31566223866E+02 0.34071488246E+02
 0.35093673296E+02 0.34414281771E+02 0.32133137970E+02 0.28636521874E+02 0.24457545343E+02
 0.20110572562E+02 0.15985639542E+02 0.12328631557E+02 0.92697960822E+01 0.68521324071E+01
 0.50450098489E+01 0.37582678564E+01 0.28698182539E+01 0.22605125046E+01 0.18404077758E+01
 0.15566218912E+01 0.13880952920E+01 0.13166729809E+01 0.13311812523E+01 0.14164656492E+01
 0.15564594342E+01 0.17395239405E+01 0.19597057575E+01 0.22137052937E+01 0.24976735253E+01
 0.28057415516E+01 0.31285717146E+01 0.34512403374E+01 0.37529307356E+01 0.40106454586E+01
 0.42060182066E+01 0.43325002510E+01 0.44000759663E+01 0.44346895840E+01 0.44718252993E+01
 0.45495630518E+01 0.47095408621E+01 0.50072145117E+01 0.55208353251E+01 0.63461277205E+01
 0.75749033878E+01 0.92678518633E+01 0.11431924259E+02 0.14004826459E+02 0.16845141238E+02
 0.19729873297E+02 0.22365954670E+02 0.24423836732E+02 0.25597478667E+02 0.25681983263E+02
 0.24640218935E+02 0.22621035960E+02 0.19912736826E+02 0.16856222296E+02 0.13765385616E+02
 0.10885132009E+02 0.83812338840E+01 0.63404615985E+01 0.47730676875E+01 0.36258575569E+01
 0.28103392021E+01 0.22357286763E+01 0.18319202968E+01 0.15563179990E+01 0.14431012984E+01
 0.13870227617E+01 0.14164656492E+01 0.15197166548E+01 0.16837981466E+01 0.18979725370E+01
 0.21561845003E+01 0.24568069805E+01 0.27995216637E+01 0.31810693461E+01 0.35919118758E+01
 0.40143703417E+01 0.44221544938E+01 0.47824213562E+01 0.50619627335E+01 0.52367482071E+01
 0.53009248136E+01 0.52708205017E+01 0.51818864870E+01 0.50801479907E+01 0.50132842563E+01
 0.50277943071E+01 0.51744963127E+01 0.55157293236E+01 0.61226011839E+01 0.70571853106E+01
 0.83477038695E+01 0.99701796895E+01 0.11842257452E+02 0.13825075909E+02 0.15730103107E+02
 0.17336447876E+02 0.18425592176E+02 0.18829090032E+02 0.18471641461E+02 0.17390659518E+02
 0.15724835547E+02 0.13678373255E+02 0.11475686924E+02 0.93211852706E+01 0.73724631946E+01
 0.57274542514E+01 0.44223919995E+01 0.34392986888E+01 0.27237534420E+01 0.22100081003E+01
 0.18438527488E+01 0.15929971285E+01 0.15326604042E+01 0.15030291201E+01 0.15564594342E+01
 0.16837981466E+01 0.18747324045E+01 0.21205005079E+01 0.24164502054E+01 0.27633450216E+01
 0.31652835309E+01 0.36241567336E+01 0.41335706943E+01 0.46749593544E+01 0.52164241210E+01
 0.57145779941E+01 0.61207524727E+01 0.63916972067E+01 0.65015965086E+01 0.64506881895E+01
 0.62671754438E+01 0.60014076937E+01 0.57140563526E+01 0.54638800026E+01 0.53022511292E+01
 0.52762165874E+01 0.54329649240E+01 0.58166696510E+01 0.64568443346E+01 0.73552925653E+01
 0.84771823402E+01 0.97460531576E+01 0.11043327689E+02 0.12218245279E+02 0.13112442856E+02
 0.13592890728E+02 0.13579904178E+02 0.13061550326E+02 0.12094180934E+02 0.10790925910E+02
 0.92987393219E+01 0.77682967890E+01 0.63270083457E+01 0.50637292531E+01 0.40248445884E+01
 0.32168124566E+01 0.26142849812E+01 0.21757164554E+01 0.18624982106E+01 0.16511962763E+01
 0.16471391518E+01 0.16537097183E+01 0.17395239405E+01 0.18979725370E+01 0.21205005079E+01
 0.24002447902E+01 0.27350781971E+01 0.31288939023E+01 0.35904349723E+01 0.41285168281E+01
 0.47438666083E+01 0.54208342250E+01 0.61232884890E+01 0.67966953946E+01 0.73756844526E+01
 0.77957531882E+01 0.80074607399E+01 0.79895972976E+01 0.77563577423E+01 0.73553669046E+01
 0.68573995421E+01 0.63414522998E+01 0.58797917459E+01 0.55280149872E+01 0.53238449269E+01
 0.52931357767E+01 0.54553307866E+01 0.58206174168E+01 0.63790634902E+01 0.70901325016E+01
 0.78807919174E+01 0.86536517115E+01 0.93015575823E+01 0.97251539626E+01 0.98508869601E+01
 0.96455357032E+01 0.91224648007E+01 0.83375320311E+01 0.73767680719E+01 0.63396328156E+01
 0.53211286459E+01 0.43961571869E+01 0.36101343142E+01 0.29784013997E+01 0.24933295504E+01
 0.21352846117E+01 0.18833976629E+01 0.17229376087E+01 0.17813991210E+01 0.18334018745E+01
 0.19597057575E+01 0.21561845003E+01 0.24164502054E+01 0.27350781971E+01 0.31115123505E+01
 0.35526140665E+01 0.40726589221E+01 0.46889435999E+01 0.54120129988E+01 0.62335278264E+01
 0.71178484368E+01 0.80016258313E+01 0.88015580645E+01 0.94284076601E+01 0.98048794504E+01
 0.98832874933E+01 0.96574546343E+01 0.91651667642E+01 0.84812509024E+01 0.77029952107E+01
 0.69301257950E+01 0.62447285365E+01 0.56998686438E+01 0.53218011374E+01 0.51201895989E+01
 0.50951604611E+01 0.52362886663E+01 0.55182812581E+01 0.58993392506E+01 0.63226727916E+01
 0.67199787238E+01 0.70191640797E+01 0.71580440113E+01 0.70987535070E+01 0.68343614799E+01
 0.63859404526E+01 0.57960829454E+01 0.51228771672E+01 0.44314139549E+01 0.37804851710E+01
 0.32101321254E+01 0.27383639479E+01 0.23675347415E+01 0.20929289425E+01 0.19077757160E+01
 0.18054760193E+01 0.19322324545E+01 0.20379815084E+01 0.22137052937E+01 0.24568069805E+01
 0.27633450216E+01 0.31288939023E+01 0.35526140665E+01 0.40428309172E+01 0.46193845164E+01
 0.53090317398E+01 0.61341430476E+01 0.70982021924E+01 0.81729334393E+01 0.92921768934E+01
 0.10356601083E+02 0.11249767530E+02 0.11861239214E+02 0.12109851569E+02 0.11961243239E+02
 0.11436031427E+02 0.10606713415E+02 0.95833910820E+01 0.84916344465E+01 0.74484759481E+01
 0.65427123927E+01 0.58241336404E+01 0.53043294061E+01 0.49683122006E+01 0.47906756437E+01
 0.47464559053E+01 0.48107887228E+01 0.49512652547E+01 0.51232116331E+01 0.52743953405E+01
 0.53563941755E+01 0.53349462452E+01 0.51945280680E+01 0.49378627483E+01 0.45831463368E+01
 0.41603930600E+01 0.37067248991E+01 0.32603996441E+01 0.28543986200E+01 0.25115345624E+01
 0.22432241889E+01 0.20523509121E+01 0.19379264487E+01 0.18983585693E+01 0.20967099615E+01
 0.22627759768E+01 0.24976735253E+01 0.27995216637E+01 0.31652835309E+01 0.35904349723E+01
 0.40726589221E+01 0.46193845164E+01 0.52532093172E+01 0.60092669728E+01 0.69236950967E+01
 0.80165085889E+01 0.92737066257E+01 0.10634712296E+02 0.11991693210E+02 0.13203867150E+02
 0.14123592338E+02 0.14626790057E+02 0.14639869752E+02 0.14156427611E+02 0.13238883545E+02
 0.12004767250E+02 0.10602938707E+02 0.91865218083E+01 0.78866403557E+01 0.67905938471E+01
 0.59317006421E+01 0.52974037042E+01 0.48517366097E+01 0.45571480959E+01 0.43828531669E+01
 0.43007449483E+01 0.42794677245E+01 0.42837833461E+01 0.42783234309E+01 0.42327184356E+01
 0.41269950140E+01 0.39553717175E+01 0.37251433552E+01 0.34510090308E+01 0.31504985751E+01
 0.28442187077E+01 0.25569216248E+01 0.23135035313E+01 0.21316103021E+01 0.20184706591E+01
 0.19748624646E+01 0.20007229109E+01 0.22705642460E+01 0.25020406393E+01 0.28057415516E+01
 0.31810693461E+01 0.36241567336E+01 0.41285168281E+01 0.46889435999E+01 0.53090317398E+01
 0.60092669728E+01 0.68292155684E+01 0.78184065418E+01 0.90166037833E+01 0.10430385649E+02
 0.12014629916E+02 0.13665290719E+02 0.15227131649E+02 0.16517439592E+02 0.17362205391E+02
 0.17635316738E+02 0.17288268071E+02 0.16360968986E+02 0.14971562975E+02 0.13290046406E+02
 0.11504001224E+02 0.97849965850E+01 0.82624164558E+01 0.70089243387E+01 0.60395190948E+01
 0.53239340583E+01 0.48085383823E+01 0.44392391750E+01 0.41752777992E+01 0.39892018268E+01
 0.38580113604E+01 0.37559803206E+01 0.36556782252E+01 0.35347791772E+01 0.33815728998E+01
 0.31951982620E+01 0.29824449586E+01 0.27550166213E+01 0.25286058515E+01 0.23220800986E+01
 0.21548939059E+01 0.20431214045E+01 0.19965155862E+01 0.20186641038E+01 0.21099120574E+01
 0.24471038822E+01 0.27476597080E+01 0.31285717146E+01 0.35919118758E+01 0.41335706943E+01
 0.47438666083E+01 0.54120129988E+01 0.61341430476E+01 0.69236950967E+01 0.78184065418E+01
 0.88756880941E+01 0.10153645531E+02 0.11684112975E+02 0.13447742011E+02 0.15358483171E+02
 0.17262104058E+02 0.18952896206E+02 0.20209644221E+02 0.20843960662E+02 0.20746420910E+02
 0.19914659755E+02 0.18453476231E+02 0.16547331847E+02 0.14416611418E+02 0.12274482088E+02
 0.10296056606E+02 0.86004193936E+01 0.72413651951E+01 0.62085463234E+01 0.54450067365E+01
 0.48782452470E+01 0.44483752398E+01 0.41175536897E+01 0.38616843869E+01 0.36590669621E+01
 0.34867825544E+01 0.33232625053E+01 0.31513937859E+01 0.29612321023E+01 0.27532536408E+01
 0.25393640599E+01 0.23385087914E+01 0.21696401598E+01 0.20479736758E+01 0.19854831801E+01
 0.19912848266E+01 0.20700781041E+01 0.22221433124E+01 0.26180271891E+01 0.29876634888E+01
 0.34512403374E+01 0.40143703417E+01 0.46749593544E+01 0.54208342250E+01 0.62335278264E+01
 0.70982021924E+01 0.80165085889E+01 0.90166037833E+01 0.10153645531E+02 0.11496403427E+02
 0.13101395901E+02 0.14982254318E+02 0.17084522651E+02 0.19273944537E+02 0.21343061415E+02
 0.23039196101E+02 0.24113500700E+02 0.24381525333E+02 0.23774567492E+02 0.22359346860E+02
 0.20317453875E+02 0.17896507551E+02 0.15355543273E+02 0.12921456932E+02 0.10760978743E+02
 0.89665478155E+01 0.75562234303E+01 0.64889502587E+01 0.56916060788E+01 0.50876329175E+01
 0.46162389964E+01 0.42374885003E+01 0.39266027186E+01 0.36648873286E+01 0.34337531611E+01
 0.32145228032E+01 0.29927297279E+01 0.27632488401E+01 0.25327168142E+01 0.23178059931E+01
 0.21403205468E+01 0.20213096982E+01 0.19763106520E+01 0.20131830046E+01 0.21331775333E+01
 0.23347262860E+01 0.27763499176E+01 0.32074420659E+01 0.37529307356E+01 0.44221544938E+01
 0.52164241210E+01 0.61232884890E+01 0.71178484368E+01 0.81729334393E+01 0.92737066257E+01
 0.10430385649E+02 0.11684112975E+02 0.13101395901E+02 0.14753997306E+02 0.16687507189E+02
 0.18888893458E+02 0.21263675772E+02 0.23628868058E+02 0.25726755428E+02 0.27265781111E+02
 0.27987129076E+02 0.27737307719E+02 0.26514984308E+02 0.24470340060E+02 0.21860685723E+02
 0.18985423937E+02 0.16125007296E+02 0.13498596526E+02 0.11244271442E+02 0.94182269972E+01
 0.80064903376E+01 0.69447047549E+01 0.61442529100E+01 0.55202297915E+01 0.50109554357E+01
 0.45805748251E+01 0.42084308686E+01 0.38782680323E+01 0.35754555560E+01 0.32888882590E+01
 0.30117722507E+01 0.27424295542E+01 0.24884271766E+01 0.22701534334E+01 0.21161477975E+01
 0.20508499825E+01 0.20853831127E+01 0.22192574689E+01 0.24492323669E+01 0.29206151155E+01
 0.33944626283E+01 0.40106454586E+01 0.47824213562E+01 0.57145779941E+01 0.67966953946E+01
 0.80016258313E+01 0.92921768934E+01 0.10634712296E+02 0.12014629916E+02 0.13447742011E+02
 0.14982254318E+02 0.16687507189E+02 0.18629280220E+02 0.20836828830E+02 0.23270271982E+02
 0.25797184381E+02 0.28187797362E+02 0.30139870250E+02 0.31339372577E+02 0.31545225706E+02
 0.30665062682E+02 0.28785402633E+02 0.26142701949E+02 0.23054411449E+02 0.19844776111E+02
 0.16790088423E+02 0.14088034996E+02 0.11845182389E+02 0.10079014822E+02 0.87353402586E+01
 0.77190746099E+01 0.69287361915E+01 0.62816292318E+01 0.57226009456E+01 0.52197183625E+01
 0.47559362931E+01 0.43229239611E+01 0.39171816665E+01 0.35370579482E+01 0.31821785291E+01
 0.28571679233E+01 0.25766117682E+01 0.23645882021E+01 0.22464905010E+01 0.22393177833E+01
 0.23488199635E+01 0.25750848427E+01 0.30588556791E+01 0.35442627803E+01 0.42060182066E+01
 0.50619627335E+01 0.61207524727E+01 0.73756844526E+01 0.88015580645E+01 0.10356601083E+02
 0.11991693210E+02 0.13665290719E+02 0.15358483171E+02 0.17084522651E+02 0.18888893458E+02
 0.20836828830E+02 0.22987181089E+02 0.25356528732E+02 0.27882444575E+02 0.30397874610E+02
 0.32631578358E+02 0.34249748374E+02 0.34940276420E+02 0.34512232182E+02 0.32962070198E+02
 0.30471988541E+02 0.27348446968E+02 0.23940755647E+02 0.20574077438E+02 0.17504871257E+02
 0.14893601673E+02 0.12795814690E+02 0.11176843579E+02 0.99453794084E+01 0.89903499600E+01
 0.82083650406E+01 0.75193446580E+01 0.68725315114E+01 0.62440383446E+01 0.56285935475E+01
 0.50314083354E+01 0.44639159300E+01 0.39412482379E+01 0.34787232276E+01 0.30895174128E+01
 0.27864385914E+01 0.25848172006E+01 0.25009924708E+01 0.25473376861E+01 0.27309293860E+01
 0.32094619466E+01 0.36647762331E+01 0.43325002510E+01 0.52367482071E+01 0.63916972067E+01
 0.77957531882E+01 0.94284076601E+01 0.11249767530E+02 0.13203867150E+02 0.15227131649E+02
 0.17262104058E+02 0.19273944537E+02 0.21263675772E+02 0.23270271982E+02 0.25356528732E+02
 0.27579528226E+02 0.29950585429E+02 0.32392541985E+02 0.34705327186E+02 0.36580991502E+02
 0.37685298562E+02 0.37749631733E+02 0.36660937436E+02 0.34506016686E+02 0.31551526230E+02
 0.28160983830E+02 0.24688643604E+02 0.21426873956E+02 0.18575743808E+02 0.16231390557E+02
 0.14392325828E+02 0.12983209848E+02 0.11889128273E+02 0.10988948835E+02 0.10179356759E+02
 0.93873031904E+01 0.85728283096E+01 0.77259704715E+01 0.68611013168E+01 0.60096295481E+01
 0.52103019892E+01 0.44984220780E+01 0.38987226635E+01 0.34253678502E+01 0.30866532541E+01
 0.28889075265E+01 0.28378826843E+01 0.29406259251E+01 0.33971033546E+01 0.37765693687E+01
 0.44000759663E+01 0.53009248136E+01 0.65015965086E+01 0.80074607399E+01 0.98048794504E+01
 0.11861239214E+02 0.14123592338E+02 0.16517439592E+02 0.18952896206E+02 0.21343061415E+02
 0.23628868058E+02 0.25797184381E+02 0.27882444575E+02 0.29950585429E+02 0.32065858653E+02
 0.34211544936E+02 0.36271072702E+02 0.38060016660E+02 0.39323728087E+02 0.39788663422E+02
 0.39256585303E+02 0.37687770045E+02 0.35224845031E+02 0.32154304833E+02 0.28842089451E+02
 0.25643989261E+02 0.22785188539E+02 0.20384709538E+02 0.18468184668E+02 0.16979603566E+02
 0.15809273301E+02 0.14830156683E+02 0.13925561667E+02 0.13002096577E+02 0.11996747364E+02
 0.10885263966E+02 0.96861202140E+01 0.84513753198E+01 0.72474733326E+01 0.61380785788E+01
 0.51753967875E+01 0.43960448556E+01 0.38173090528E+01 0.34372040381E+01 0.32433068275E+01
 0.32274749735E+01 0.36481069006E+01 0.39082403459E+01 0.44346895840E+01 0.52708205017E+01
 0.64506881895E+01 0.79895972976E+01 0.98832874933E+01 0.12109851569E+02 0.14626790057E+02
 0.17362205391E+02 0.20209644221E+02 0.23039196101E+02 0.25726755428E+02 0.28187797362E+02
 0.30397874610E+02 0.32392541985E+02 0.34211544936E+02 0.35821350112E+02 0.37226133066E+02
 0.38434264978E+02 0.39382812759E+02 0.39912997564E+02 0.39827292530E+02 0.38989965352E+02
 0.37397985437E+02 0.35183237857E+02 0.32570296710E+02 0.29837429520E+02 0.27290395996E+02
 0.25128596828E+02 0.23378974518E+02 0.21994129302E+02 0.20877926608E+02 0.19911392820E+02
 0.18974631234E+02 0.17959610612E+02 0.16781433660E+02 0.15395293498E+02 0.13811759306E+02
 0.12095791787E+02 0.10346621830E+02 0.86713619167E+01 0.71655955405E+01 0.59020562315E+01
 0.49222042300E+01 0.42317749926E+01 0.38077284690E+01 0.36185760200E+01 0.39951406263E+01
 0.40911576241E+01 0.44718252993E+01 0.51818864870E+01 0.62671754438E+01 0.77563577423E+01
 0.96574546343E+01 0.11961243239E+02 0.14639869752E+02 0.17635316738E+02 0.20843960662E+02
 0.24113500700E+02 0.27265781111E+02 0.30139870250E+02 0.32631578358E+02 0.34705327185E+02
 0.36271072701E+02 0.37226133065E+02 0.37643511096E+02 0.37735154224E+02 0.37724541705E+02
 0.37718692644E+02 0.37669773005E+02 0.37442188719E+02 0.36915229049E+02 0.36039843074E+02
 0.34834111419E+02 0.33365353611E+02 0.31760169402E+02 0.30225372909E+02 0.28960325531E+02
 0.27951418253E+02 0.27116910400E+02 0.26349861120E+02 0.25526901526E+02 0.24523475318E+02
 0.23232176913E+02 0.21584974073E+02 0.19577706447E+02 0.17284016780E+02 0.14843011050E+02
 0.12421671803E+02 0.10173740120E+02 0.82164267352E+01 0.66252636360E+01 0.54330792348E+01
 0.46286149510E+01 0.41663720225E+01 0.44951324133E+01 0.43622420272E+01 0.45495630518E+01
 0.50801479907E+01 0.60014076937E+01 0.73553669046E+01 0.91651667642E+01 0.11436031427E+02
 0.14156427611E+02 0.17288268071E+02 0.20746420910E+02 0.24381525333E+02 0.27987129076E+02
 0.31339372577E+02 0.34249748374E+02 0.36580991502E+02 0.38060016658E+02 0.38434264975E+02
 0.37735154222E+02 0.36306233950E+02 0.34679625518E+02 0.33356030219E+02 0.32623823839E+02
 0.32521522899E+02 0.32922647416E+02 0.33633554052E+02 0.34432352389E+02 0.35081152712E+02
 0.35383097757E+02 0.35286828935E+02 0.34953610368E+02 0.34655254026E+02 0.34422957006E+02
 0.34163493319E+02 0.33740110824E+02 0.32987608527E+02 0.31746606651E+02 0.29906158007E+02
 0.27446190378E+02 0.24462863349E+02 0.21155299481E+02 0.17771462696E+02 0.14542800578E+02
 0.11645548890E+02 0.91978304022E+01 0.72682970021E+01 0.58738387933E+01 0.49751603728E+01
 0.52487044499E+01 0.47783511678E+01 0.47095408621E+01 0.50132842563E+01 0.57140563526E+01
 0.68573995421E+01 0.84812509024E+01 0.10606713415E+02 0.13238883545E+02 0.16360968986E+02
 0.19914659755E+02 0.23774567492E+02 0.27737307719E+02 0.31545225706E+02 0.34940276420E+02
 0.37685298561E+02 0.39323728084E+02 0.39382812753E+02 0.37724541700E+02 0.34679625514E+02
 0.31001948648E+02 0.27620081495E+02 0.25314441031E+02 0.24512307366E+02 0.25277509766E+02
 0.27400756559E+02 0.30465369058E+02 0.33887549884E+02 0.37028400795E+02 0.39409108079E+02
 0.40913411481E+02 0.41817895802E+02 0.42556887297E+02 0.43214074463E+02 0.43641399543E+02
 0.43592555801E+02 0.42782590591E+02 0.40983505977E+02 0.38119984308E+02 0.34320098843E+02
 0.29889212254E+02 0.25216883483E+02 0.20667944733E+02 0.16513979131E+02 0.12925042894E+02
 0.99955581069E+01 0.77633101506E+01 0.62074696829E+01 0.64010515316E+01 0.54312474715E+01
 0.50072145117E+01 0.50277943071E+01 0.54638800026E+01 0.63414522998E+01 0.77029952107E+01
 0.95833910820E+01 0.12004767250E+02 0.14971562975E+02 0.18453476231E+02 0.22359346860E+02
 0.26514984308E+02 0.30665062682E+02 0.34512232182E+02 0.37749631732E+02 0.39788663418E+02
 0.39912997557E+02 0.37718692635E+02 0.33356030212E+02 0.27620081491E+02 0.21769624162E+02
 0.17122693403E+02 0.14663142597E+02 0.14864083211E+02 0.17709557985E+02 0.22751033503E+02
 0.29140180592E+02 0.35759862707E+02 0.41551983257E+02 0.45916897450E+02 0.48914460893E+02
 0.51114602945E+02 0.53126045678E+02 0.54968201142E+02 0.56296260476E+02 0.56609553845E+02
 0.55422263116E+02 0.52466350326E+02 0.47832357324E+02 0.41965257074E+02 0.35511824136E+02
 0.29107876467E+02 0.23220416315E+02 0.18106344134E+02 0.13866676494E+02 0.10523601789E+02
 0.80577655648E+01 0.81157307128E+01 0.64445255003E+01 0.55208353251E+01 0.51744963127E+01
 0.53022511292E+01 0.58797917459E+01 0.69301257950E+01 0.84916344465E+01 0.10602938707E+02
 0.13290046406E+02 0.16547331847E+02 0.20317453875E+02 0.24470340060E+02 0.28785402633E+02
 0.32962070198E+02 0.36660937435E+02 0.39256585299E+02 0.39827292521E+02 0.37669772994E+02
 0.32623823828E+02 0.25314441023E+02 0.17122693399E+02 0.97993317294E+01 0.49234397587E+01
 0.35306097752E+01 0.60172577509E+01 0.12148904515E+02 0.21032564257E+02 0.31186359167E+02
 0.40922302504E+02 0.48971183562E+02 0.54959555179E+02 0.59399111687E+02 0.63215136097E+02
 0.67007415894E+02 0.70477169990E+02 0.72865975450E+02 0.73277022305E+02 0.71019826687E+02
 0.65933192939E+02 0.58511277562E+02 0.49740276332E+02 0.40732081341E+02 0.32366350131E+02
 0.25121780216E+02 0.19131259919E+02 0.14353266960E+02 0.10709739917E+02 0.10534933894E+02
 0.79464067859E+01 0.63461277205E+01 0.55157293236E+01 0.52762165874E+01 0.55280149872E+01
 0.62447285365E+01 0.74484759481E+01 0.91865218083E+01 0.11504001224E+02 0.14416611418E+02
 0.17896507551E+02 0.21860685723E+02 0.26142701949E+02 0.30471988541E+02 0.34506016686E+02
 0.37687770042E+02 0.38989965344E+02 0.37442188707E+02 0.32521522886E+02 0.24512307355E+02
 0.14663142590E+02 0.49234397554E+01 -.26465231402E+01 -.64181736705E+01 -.54399927392E+01
 0.49393941010E+00 0.10732587051E+02 0.23703916943E+02 0.37231043833E+02 0.49307998351E+02
 0.58909983246E+02 0.66270128215E+02 0.72453443038E+02 0.78553116762E+02 0.84768588826E+02
 0.90184862692E+02 0.93430488833E+02 0.93177535480E+02 0.88689927208E+02 0.80210454310E+02
 0.68945133431E+02 0.56612230380E+02 0.44803887740E+02 0.34521521991E+02 0.26097233559E+02
 0.19433514529E+02 0.14308742579E+02 0.13750018058E+02 0.10033631181E+02 0.75749033878E+01
 0.61226011839E+01 0.54329649241E+01 0.53238449269E+01 0.56998686438E+01 0.65427123927E+01
 0.78866403557E+01 0.97849965850E+01 0.12274482088E+02 0.15355543273E+02 0.18985423937E+02
 0.23054411449E+02 0.27348446968E+02 0.31551526230E+02 0.35224845030E+02 0.37397985431E+02
 0.36915229038E+02 0.32922647402E+02 0.25277509753E+02 0.14864083202E+02 0.35306097696E+01
 -.64181736728E+01 -.12862385027E+02 -.14275577550E+02 -.98884571413E+01 0.13752140704E+00
 0.14496837014E+02 0.30856880946E+02 0.46606028381E+02 0.59940782378E+02 0.70556906992E+02
 0.79457800142E+02 0.88067231939E+02 0.97208423060E+02 0.10622453692E+03 0.11337502412E+03
 0.11663093465E+03 0.11440277029E+03 0.10624463626E+03 0.93178108587E+02 0.77377902718E+02
 0.61334373183E+02 0.46965765778E+02 0.35170861055E+02 0.25968360111E+02 0.18963992811E+02
 0.17792384932E+02 0.12746838745E+02 0.92678518633E+01 0.70571853106E+01 0.58166696510E+01
 0.52931357767E+01 0.53218011374E+01 0.58241336404E+01 0.67905938471E+01 0.82624164558E+01
 0.10296056606E+02 0.12921456932E+02 0.16125007296E+02 0.19844776111E+02 0.23940755647E+02
 0.28160983830E+02 0.32154304832E+02 0.35183237853E+02 0.36039843065E+02 0.33633554040E+02
 0.27400756546E+02 0.17709557974E+02 0.60172577441E+01 -.54399927426E+01 -.14275577551E+02
 -.18491321477E+02 -.16744910883E+02 -.85620304811E+01 0.53327282679E+01 0.22867444839E+02
 0.41153821748E+02 0.57674696731E+02 0.71389735111E+02 0.82958276761E+02 0.93963904343E+02
 0.10572586910E+03 0.11823110662E+03 0.12971749740E+03 0.13760877098E+03 0.13942103630E+03
 0.13361227606E+03 0.12049031557E+03 0.10221154625E+03 0.81966424648E+02 0.62826587307E+02
 0.46719820849E+02 0.34170233052E+02 0.24755907351E+02 0.22627576576E+02 0.16060390368E+02
 0.11431924259E+02 0.83477038695E+01 0.64568443346E+01 0.54553307866E+01 0.51201895989E+01
 0.53043294062E+01 0.59317006421E+01 0.70089243387E+01 0.86004193936E+01 0.10760978743E+02
 0.13498596526E+02 0.16790088423E+02 0.20574077438E+02 0.24688643604E+02 0.28842089451E+02
 0.32570296709E+02 0.34834111413E+02 0.34432352380E+02 0.30465369047E+02 0.22751033493E+02
 0.12148904509E+02 0.49393940659E+00 -.98884571425E+01 -.16744910883E+02 -.18246425115E+02
 -.13250354573E+02 -.17145490498E+01 0.14918236275E+02 0.33931418774E+02 0.52388610261E+02
 0.68482310694E+02 0.82240096826E+02 0.95111852072E+02 0.10878003483E+03 0.12392021496E+03
 0.13925113159E+03 0.15203532289E+03 0.15921298030E+03 0.15788937946E+03 0.14697852711E+03
 0.12820379401E+03 0.10509670713E+03 0.81513016893E+02 0.60674683607E+02 0.44095051724E+02
 0.31694084503E+02 0.28120434470E+02 0.19870865611E+02 0.14004826459E+02 0.99701796895E+01
 0.73552925653E+01 0.58206174168E+01 0.50951604612E+01 0.49683122006E+01 0.52974037042E+01
 0.60395190948E+01 0.72413651951E+01 0.89665478155E+01 0.11244271442E+02 0.14088034996E+02
 0.17504871257E+02 0.21426873956E+02 0.25643989261E+02 0.29837429520E+02 0.33365353609E+02
 0.35081152706E+02 0.33887549876E+02 0.29140180584E+02 0.21032564252E+02 0.10732587048E+02
 0.13752140702E+00 -.85620304800E+01 -.13250354572E+02 -.12209684865E+02 -.45941948974E+01
 0.90303115612E+01 0.26572374208E+02 0.45134987655E+02 0.62335577045E+02 0.77404436450E+02
 0.91311618422E+02 0.10584803335E+03 0.12226596169E+03 0.14007456490E+03 0.15681138253E+03
 0.16934028425E+03 0.17390421389E+03 0.16772736754E+03 0.15105488391E+03 0.12730120504E+03
 0.10095019176E+03 0.76032212760E+02 0.55333449124E+02 0.39588104271E+02 0.33959913740E+02
 0.23971661885E+02 0.16845141238E+02 0.11842257452E+02 0.84771823402E+01 0.63790634902E+01
 0.52362886663E+01 0.47906756437E+01 0.48517366097E+01 0.53239340583E+01 0.62085463234E+01
 0.75562234303E+01 0.94182269972E+01 0.11845182389E+02 0.14893601673E+02 0.18575743808E+02
 0.22785188539E+02 0.27290395996E+02 0.31760169402E+02 0.35383097755E+02 0.37028400791E+02
 0.35759862702E+02 0.31186359165E+02 0.23703916943E+02 0.14496837017E+02 0.53327282714E+01
 -.17145490464E+01 -.45941948951E+01 -.17677017544E+01 0.71708250858E+01 0.21097636738E+02
 0.37644873323E+02 0.54247870330E+02 0.69413231860E+02 0.83372907927E+02 0.97652749066E+02
 0.11383651196E+03 0.13224000538E+03 0.15105643824E+03 0.16738390796E+03 0.17751020050E+03
 0.17752269322E+03 0.16577082658E+03 0.14430108351E+03 0.11774629322E+03 0.90651268242E+02
 0.66739556569E+02 0.47870997361E+02 0.39586681679E+02 0.28025105576E+02 0.19729873297E+02
 0.13825075909E+02 0.97460531576E+01 0.70901325016E+01 0.55182812581E+01 0.47464559053E+01
 0.45571480959E+01 0.48085383823E+01 0.54450067365E+01 0.64889502587E+01 0.80064903376E+01
 0.10079014822E+02 0.12795814690E+02 0.16231390557E+02 0.20384709538E+02 0.25128596828E+02
 0.30225372909E+02 0.35286828934E+02 0.39409108077E+02 0.41551983255E+02 0.40922302504E+02
 0.37231043836E+02 0.30856880951E+02 0.22867444846E+02 0.14918236282E+02 0.90303115670E+01
 0.71708250892E+01 0.10617631218E+02 0.19348189804E+02 0.31907037426E+02 0.46043350819E+02
 0.59874570916E+02 0.72857553187E+02 0.85900822357E+02 0.10053698704E+03 0.11767572387E+03
 0.13642995155E+03 0.15426606848E+03 0.16800523286E+03 0.17368873448E+03 0.16830854340E+03
 0.15199292620E+03 0.12822788879E+03 0.10167379516E+03 0.76471277482E+02 0.55511445633E+02
 0.44212210831E+02 0.31566223866E+02 0.22365954670E+02 0.15730103107E+02 0.11043327689E+02
 0.78807919174E+01 0.58993392506E+01 0.48107887228E+01 0.43828531669E+01 0.44392391750E+01
 0.48782452470E+01 0.56916060788E+01 0.69447047549E+01 0.87353402586E+01 0.11176843579E+02
 0.14392325828E+02 0.18468184668E+02 0.23378974518E+02 0.28960325531E+02 0.34953610368E+02
 0.40913411481E+02 0.45916897450E+02 0.48971183564E+02 0.49307998356E+02 0.46606028388E+02
 0.41153821758E+02 0.33931418785E+02 0.26572374218E+02 0.21097636745E+02 0.19348189808E+02
 0.22277305511E+02 0.29511956671E+02 0.39555788567E+02 0.50620255512E+02 0.61616193001E+02
 0.72683714142E+02 0.84917521795E+02 0.99445178867E+02 0.11619878751E+03 0.13344807320E+03
 0.14835163464E+03 0.15764644039E+03 0.15807010353E+03 0.14823257341E+03 0.12979862637E+03
 0.10651767232E+03 0.82486110119E+02 0.61168624452E+02 0.46994555409E+02 0.34071488246E+02
 0.24423836732E+02 0.17336447876E+02 0.12218245279E+02 0.86536517116E+01 0.63226727916E+01
 0.49512652547E+01 0.43007449483E+01 0.41752777992E+01 0.44483752398E+01 0.50876329175E+01
 0.61442529100E+01 0.77190746099E+01 0.99453794084E+01 0.12983209848E+02 0.16979603566E+02
 0.21994129302E+02 0.27951418253E+02 0.34655254026E+02 0.41817895802E+02 0.48914460893E+02
 0.54959555181E+02 0.58909983251E+02 0.59940782386E+02 0.57674696742E+02 0.52388610274E+02
 0.45134987668E+02 0.37644873335E+02 0.31907037435E+02 0.29511956676E+02 0.31071096714E+02
 0.36059056160E+02 0.43215926154E+02 0.51318452083E+02 0.59882642655E+02 0.69361063106E+02
 0.80680261566E+02 0.94214139134E+02 0.10908007423E+03 0.12323753077E+03 0.13387367109E+03
 0.13818647214E+03 0.13422313683E+03 0.12206681677E+03 0.10395122622E+03 0.83324048163E+02
 0.63614926236E+02 0.47330374771E+02 0.35093673296E+02 0.25597478667E+02 0.18425592176E+02
 0.13112442856E+02 0.93015575823E+01 0.67199787238E+01 0.51232116331E+01 0.42794677245E+01
 0.39892018268E+01 0.41175536897E+01 0.46162389964E+01 0.55202297915E+01 0.69287361915E+01
 0.89903499600E+01 0.11889128273E+02 0.15809273301E+02 0.20877926608E+02 0.27116910400E+02
 0.34422957006E+02 0.42556887297E+02 0.51114602945E+02 0.59399111687E+02 0.66270128217E+02
 0.70556906998E+02 0.71389735121E+02 0.68482310706E+02 0.62335577059E+02 0.54247870343E+02
 0.46043350830E+02 0.39555788575E+02 0.36059056164E+02 0.35907628940E+02 0.38581166092E+02
 0.43134637959E+02 0.48821290950E+02 0.55519948953E+02 0.63683550515E+02 0.73679883449E+02
 0.85188797375E+02 0.97042258506E+02 0.10725413318E+03 0.11345014676E+03 0.11363700105E+03
 0.10705066449E+03 0.94632155899E+02 0.78750131650E+02 0.62239877828E+02 0.45110127344E+02
 0.34414281771E+02 0.25681983263E+02 0.18829090032E+02 0.13592890728E+02 0.97251539626E+01
 0.70191640797E+01 0.52743953405E+01 0.42837833461E+01 0.38580113604E+01 0.38616843869E+01
 0.42374885003E+01 0.50109554357E+01 0.62816292318E+01 0.82083650406E+01 0.10988948835E+02
 0.14830156683E+02 0.19911392820E+02 0.26349861120E+02 0.34163493319E+02 0.43214074463E+02
 0.53126045678E+02 0.63215136097E+02 0.72453443039E+02 0.79457800145E+02 0.82958276767E+02
 0.82240096835E+02 0.77404436461E+02 0.69413231872E+02 0.59874570927E+02 0.50620255520E+02
 0.43215926160E+02 0.38581166094E+02 0.36864260009E+02 0.37621059265E+02 0.40212470605E+02