   9   9   0   0
  0.1255774E+02  0.4913700E-09  0.4913700E-09  0.5405130E-09  0.5000000E-15
  1.000000000000000E-004
  CAR 
 unknown system                          
     13.70583074    -20.37706076  301      1.12356329      1.00000000
    -20.377  0.0000E+00  0.0000E+00
    -20.263  0.0000E+00  0.0000E+00
    -20.150  0.0000E+00  0.0000E+00
    -20.036  0.0000E+00  0.0000E+00
    -19.923  0.0000E+00  0.0000E+00
    -19.809  0.0000E+00  0.0000E+00
    -19.695  0.0000E+00  0.0000E+00
    -19.582  0.0000E+00  0.0000E+00
    -19.468  0.0000E+00  0.0000E+00
    -19.355  0.0000E+00  0.0000E+00
    -19.241  0.0000E+00  0.0000E+00
    -19.127  0.0000E+00  0.0000E+00
    -19.014  0.0000E+00  0.0000E+00
    -18.900  0.0000E+00  0.0000E+00
    -18.787  0.0000E+00  0.0000E+00
    -18.673  0.0000E+00  0.0000E+00
    -18.559  0.0000E+00  0.0000E+00
    -18.446  0.0000E+00  0.0000E+00
    -18.332  0.6594E+00  0.9932E-02
    -18.218  0.1520E+01  0.1319E+00
    -18.105  0.2235E+01  0.3420E+00
    -17.991  0.3785E+01  0.6713E+00
    -17.878  0.7208E+01  0.1263E+01
    -17.764  0.1477E+01  0.1989E+01
    -17.650  0.1013E+01  0.2098E+01
    -17.537  0.1993E+01  0.2253E+01
    -17.423  0.5940E+01  0.2661E+01
    -17.310  0.3323E+01  0.3565E+01
    -17.196  0.1512E+01  0.3810E+01
    -17.082  0.7253E+00  0.3930E+01
    -16.969  0.1166E+01  0.4024E+01
    -16.855  0.5158E+01  0.4360E+01
    -16.742  0.3906E+01  0.5286E+01
    -16.628  0.2019E+01  0.5593E+01
    -16.514  0.1331E+01  0.5781E+01
    -16.401  0.8600E+00  0.5906E+01
    -16.287  0.5389E+00  0.5982E+01
    -16.174  0.3716E+02  0.1139E+02
    -16.060  0.0000E+00  0.1200E+02
    -15.946  0.0000E+00  0.1200E+02
    -15.833  0.0000E+00  0.1200E+02
    -15.719  0.0000E+00  0.1200E+02
    -15.605  0.0000E+00  0.1200E+02
    -15.492  0.0000E+00  0.1200E+02
    -15.378  0.0000E+00  0.1200E+02
    -15.265  0.0000E+00  0.1200E+02
    -15.151  0.0000E+00  0.1200E+02
    -15.037  0.0000E+00  0.1200E+02
    -14.924  0.0000E+00  0.1200E+02
    -14.810  0.0000E+00  0.1200E+02
    -14.697  0.0000E+00  0.1200E+02
    -14.583  0.0000E+00  0.1200E+02
    -14.469  0.0000E+00  0.1200E+02
    -14.356  0.0000E+00  0.1200E+02
    -14.242  0.0000E+00  0.1200E+02
    -14.129  0.0000E+00  0.1200E+02
    -14.015  0.0000E+00  0.1200E+02
    -13.901  0.0000E+00  0.1200E+02
    -13.788  0.0000E+00  0.1200E+02
    -13.674  0.0000E+00  0.1200E+02
    -13.560  0.0000E+00  0.1200E+02
    -13.447  0.0000E+00  0.1200E+02
    -13.333  0.0000E+00  0.1200E+02
    -13.220  0.0000E+00  0.1200E+02
    -13.106  0.0000E+00  0.1200E+02
    -12.992  0.0000E+00  0.1200E+02
    -12.879  0.0000E+00  0.1200E+02
    -12.765  0.0000E+00  0.1200E+02
    -12.652  0.0000E+00  0.1200E+02
    -12.538  0.0000E+00  0.1200E+02
    -12.424  0.0000E+00  0.1200E+02
    -12.311  0.0000E+00  0.1200E+02
    -12.197  0.0000E+00  0.1200E+02
    -12.084  0.0000E+00  0.1200E+02
    -11.970  0.0000E+00  0.1200E+02
    -11.856  0.0000E+00  0.1200E+02
    -11.743  0.0000E+00  0.1200E+02
    -11.629  0.0000E+00  0.1200E+02
    -11.516  0.0000E+00  0.1200E+02
    -11.402  0.0000E+00  0.1200E+02
    -11.288  0.0000E+00  0.1200E+02
    -11.175  0.0000E+00  0.1200E+02
    -11.061  0.0000E+00  0.1200E+02
    -10.947  0.0000E+00  0.1200E+02
    -10.834  0.0000E+00  0.1200E+02
    -10.720  0.0000E+00  0.1200E+02
    -10.607  0.0000E+00  0.1200E+02
    -10.493  0.0000E+00  0.1200E+02
    -10.379  0.0000E+00  0.1200E+02
    -10.266  0.0000E+00  0.1200E+02
    -10.152  0.0000E+00  0.1200E+02
    -10.039  0.0000E+00  0.1200E+02
     -9.925  0.0000E+00  0.1200E+02
     -9.811  0.0000E+00  0.1200E+02
     -9.698  0.0000E+00  0.1200E+02
     -9.584  0.0000E+00  0.1200E+02
     -9.471  0.0000E+00  0.1200E+02
     -9.357  0.0000E+00  0.1200E+02
     -9.243  0.0000E+00  0.1200E+02
     -9.130  0.0000E+00  0.1200E+02
     -9.016  0.0000E+00  0.1200E+02
     -8.902  0.0000E+00  0.1200E+02
     -8.789  0.0000E+00  0.1200E+02
     -8.675  0.0000E+00  0.1200E+02
     -8.562  0.0000E+00  0.1200E+02
     -8.448  0.0000E+00  0.1200E+02
     -8.334  0.0000E+00  0.1200E+02
     -8.221  0.9632E-01  0.1200E+02
     -8.107  0.3285E+00  0.1203E+02
     -7.994  0.5148E+00  0.1208E+02
     -7.880  0.6823E+00  0.1215E+02
     -7.766  0.8483E+00  0.1223E+02
     -7.653  0.1118E+01  0.1234E+02
     -7.539  0.1455E+01  0.1249E+02
     -7.426  0.2429E+01  0.1270E+02
     -7.312  0.9140E+01  0.1340E+02
     -7.198  0.2159E+01  0.1381E+02
     -7.085  0.6449E+00  0.1394E+02
     -6.971  0.3946E+00  0.1399E+02
     -6.858  0.2406E+00  0.1403E+02
     -6.744  0.4054E+00  0.1407E+02
     -6.630  0.6282E+00  0.1413E+02
     -6.517  0.9883E+00  0.1421E+02
     -6.403  0.1375E+01  0.1435E+02
     -6.289  0.3192E+01  0.1460E+02
     -6.176  0.5657E+01  0.1514E+02
     -6.062  0.2205E+01  0.1552E+02
     -5.949  0.1336E+01  0.1572E+02
     -5.835  0.7335E+00  0.1583E+02
     -5.721  0.5366E+00  0.1590E+02
     -5.608  0.4020E+00  0.1595E+02
     -5.494  0.3878E+00  0.1599E+02
     -5.381  0.2350E+01  0.1618E+02
     -5.267  0.3210E+01  0.1655E+02
     -5.153  0.2729E+01  0.1689E+02
     -5.040  0.2453E+01  0.1718E+02
     -4.926  0.2017E+01  0.1743E+02
     -4.813  0.1497E+01  0.1763E+02
     -4.699  0.1077E+01  0.1778E+02
     -4.585  0.7834E+00  0.1788E+02
     -4.472  0.1784E+01  0.1800E+02
     -4.358  0.2133E+02  0.1874E+02
     -4.244  0.8697E+01  0.2019E+02
     -4.131  0.5180E+01  0.2104E+02
     -4.017  0.6789E+01  0.2164E+02
     -3.904  0.3276E+01  0.2218E+02
     -3.790  0.7171E+01  0.2308E+02
     -3.676  0.3594E+01  0.2363E+02
     -3.563  0.1895E+01  0.2395E+02
     -3.449  0.0000E+00  0.2400E+02
     -3.336  0.0000E+00  0.2400E+02
     -3.222  0.0000E+00  0.2400E+02
     -3.108  0.0000E+00  0.2400E+02
     -2.995  0.0000E+00  0.2400E+02
     -2.881  0.0000E+00  0.2400E+02
     -2.768  0.0000E+00  0.2400E+02
     -2.654  0.0000E+00  0.2400E+02
     -2.540  0.0000E+00  0.2400E+02
     -2.427  0.0000E+00  0.2400E+02
     -2.313  0.0000E+00  0.2400E+02
     -2.200  0.0000E+00  0.2400E+02
     -2.086  0.1113E+02  0.2481E+02
     -1.972  0.6463E+01  0.2598E+02
     -1.859  0.5757E+01  0.2662E+02
     -1.745  0.7791E+01  0.2744E+02
     -1.631  0.5258E+01  0.2811E+02
     -1.518  0.1684E+02  0.2913E+02
     -1.404  0.4303E+01  0.2979E+02
     -1.291  0.2330E+01  0.3008E+02
     -1.177  0.1212E+02  0.3111E+02
     -1.063  0.3133E+01  0.3183E+02
     -0.950  0.1975E+02  0.3271E+02
     -0.836  0.9103E+00  0.3387E+02
     -0.723  0.4321E+01  0.3416E+02
     -0.609  0.6051E+01  0.3483E+02
     -0.495  0.1137E+02  0.3589E+02
     -0.382  0.8570E+01  0.3717E+02
     -0.268  0.4323E+01  0.3780E+02
     -0.155  0.8576E+01  0.3855E+02
     -0.041  0.7178E+01  0.3980E+02
      0.073  0.9122E+01  0.4053E+02
      0.186  0.7288E+01  0.4192E+02
      0.300  0.8320E+01  0.4220E+02
      0.414  0.7217E+01  0.4338E+02
      0.527  0.4716E+01  0.4396E+02
      0.641  0.4668E+01  0.4448E+02
      0.754  0.1161E+02  0.4534E+02
      0.868  0.5491E+01  0.4627E+02
      0.982  0.1064E+02  0.4710E+02
      1.095  0.0000E+00  0.4800E+02
      1.209  0.0000E+00  0.4800E+02
      1.322  0.0000E+00  0.4800E+02
      1.436  0.0000E+00  0.4800E+02
      1.550  0.0000E+00  0.4800E+02
      1.663  0.0000E+00  0.4800E+02
      1.777  0.0000E+00  0.4800E+02
      1.890  0.0000E+00  0.4800E+02
      2.004  0.0000E+00  0.4800E+02
      2.118  0.0000E+00  0.4800E+02
      2.231  0.0000E+00  0.4800E+02
      2.345  0.0000E+00  0.4800E+02
      2.458  0.0000E+00  0.4800E+02
      2.572  0.0000E+00  0.4800E+02
      2.686  0.0000E+00  0.4800E+02
      2.799  0.0000E+00  0.4800E+02
      2.913  0.0000E+00  0.4800E+02
      3.027  0.0000E+00  0.4800E+02
      3.140  0.0000E+00  0.4800E+02
      3.254  0.0000E+00  0.4800E+02
      3.367  0.0000E+00  0.4800E+02
      3.481  0.0000E+00  0.4800E+02
      3.595  0.0000E+00  0.4800E+02
      3.708  0.0000E+00  0.4800E+02
      3.822  0.0000E+00  0.4800E+02
      3.935  0.0000E+00  0.4800E+02
      4.049  0.0000E+00  0.4800E+02
      4.163  0.0000E+00  0.4800E+02
      4.276  0.0000E+00  0.4800E+02
      4.390  0.0000E+00  0.4800E+02
      4.503  0.0000E+00  0.4800E+02
      4.617  0.0000E+00  0.4800E+02
      4.731  0.0000E+00  0.4800E+02
      4.844  0.0000E+00  0.4800E+02
      4.958  0.0000E+00  0.4800E+02
      5.071  0.0000E+00  0.4800E+02
      5.185  0.0000E+00  0.4800E+02
      5.299  0.0000E+00  0.4800E+02
      5.412  0.0000E+00  0.4800E+02
      5.526  0.0000E+00  0.4800E+02
      5.640  0.0000E+00  0.4800E+02
      5.753  0.0000E+00  0.4800E+02
      5.867  0.0000E+00  0.4800E+02
      5.980  0.0000E+00  0.4800E+02
      6.094  0.0000E+00  0.4800E+02
      6.208  0.0000E+00  0.4800E+02
      6.321  0.0000E+00  0.4800E+02
      6.435  0.0000E+00  0.4800E+02
      6.548  0.0000E+00  0.4800E+02
      6.662  0.0000E+00  0.4800E+02
      6.776  0.0000E+00  0.4800E+02
      6.889  0.0000E+00  0.4800E+02
      7.003  0.0000E+00  0.4800E+02
      7.116  0.6788E-05  0.4800E+02
      7.230  0.2985E-01  0.4800E+02
      7.344  0.1181E+00  0.4801E+02
      7.457  0.1739E+00  0.4803E+02
      7.571  0.1932E+00  0.4805E+02
      7.685  0.2379E+00  0.4807E+02
      7.798  0.2859E+00  0.4810E+02
      7.912  0.3324E+00  0.4814E+02
      8.025  0.3681E+00  0.4818E+02
      8.139  0.4093E+00  0.4822E+02
      8.253  0.4538E+00  0.4827E+02
      8.366  0.4991E+00  0.4832E+02
      8.480  0.5467E+00  0.4838E+02
      8.593  0.6057E+00  0.4845E+02
      8.707  0.7335E+00  0.4852E+02
      8.821  0.8015E+00  0.4861E+02
      8.934  0.8599E+00  0.4871E+02
      9.048  0.9286E+00  0.4881E+02
      9.161  0.9881E+00  0.4892E+02
      9.275  0.1072E+01  0.4904E+02
      9.389  0.1466E+01  0.4918E+02
      9.502  0.1271E+01  0.4933E+02
      9.616  0.1433E+01  0.4949E+02
      9.729  0.1483E+01  0.4966E+02
      9.843  0.1567E+01  0.4983E+02
      9.957  0.1662E+01  0.5000E+02
     10.070  0.1147E+01  0.5018E+02
     10.184  0.1266E+01  0.5030E+02
     10.298  0.6866E+01  0.5073E+02
     10.411  0.7648E+01  0.5175E+02
     10.525  0.4357E+01  0.5233E+02
     10.638  0.7161E+01  0.5299E+02
     10.752  0.6977E+01  0.5379E+02
     10.866  0.2736E+01  0.5438E+02
     10.979  0.3130E+01  0.5468E+02
     11.093  0.6540E+01  0.5528E+02
     11.206  0.5083E+01  0.5602E+02
     11.320  0.3197E+01  0.5642E+02
     11.434  0.6897E+01  0.5701E+02
     11.547  0.4465E+01  0.5771E+02
     11.661  0.5790E-01  0.5800E+02
     11.774  0.0000E+00  0.5800E+02
     11.888  0.0000E+00  0.5800E+02
     12.002  0.0000E+00  0.5800E+02
     12.115  0.0000E+00  0.5800E+02
     12.229  0.0000E+00  0.5800E+02
     12.343  0.0000E+00  0.5800E+02
     12.456  0.0000E+00  0.5800E+02
     12.570  0.0000E+00  0.5800E+02
     12.683  0.0000E+00  0.5800E+02
     12.797  0.0000E+00  0.5800E+02
     12.911  0.0000E+00  0.5800E+02
     13.024  0.0000E+00  0.5800E+02
     13.138  0.0000E+00  0.5800E+02
     13.251  0.0000E+00  0.5800E+02
     13.365  0.0000E+00  0.5800E+02
     13.479  0.0000E+00  0.5800E+02
     13.592  0.0000E+00  0.5800E+02
     13.706  0.0000E+00  0.5800E+02
