Automatically generated mesh
     129
Reciprocal lattice
    0.00000000000000    0.00000000000000    0.00000000000000             1
    0.12500000000000    0.00000000000000    0.00000000000000             4
    0.25000000000000    0.00000000000000    0.00000000000000             4
    0.37500000000000    0.00000000000000    0.00000000000000             4
    0.50000000000000    0.00000000000000    0.00000000000000             2
    0.12500000000000    0.12500000000000    0.00000000000000             2
    0.25000000000000    0.12500000000000    0.00000000000000             4
    0.37500000000000    0.12500000000000    0.00000000000000             4
    0.50000000000000    0.12500000000000    0.00000000000000             4
   -0.37500000000000    0.12500000000000    0.00000000000000             4
   -0.25000000000000    0.12500000000000    0.00000000000000             4
   -0.12500000000000    0.12500000000000    0.00000000000000             2
    0.25000000000000    0.25000000000000    0.00000000000000             2
    0.37500000000000    0.25000000000000    0.00000000000000             4
    0.50000000000000    0.25000000000000    0.00000000000000             4
   -0.37500000000000    0.25000000000000    0.00000000000000             4
   -0.25000000000000    0.25000000000000    0.00000000000000             2
    0.37500000000000    0.37500000000000    0.00000000000000             2
    0.50000000000000    0.37500000000000    0.00000000000000             4
   -0.37500000000000    0.37500000000000    0.00000000000000             2
    0.50000000000000    0.50000000000000    0.00000000000000             1
    0.00000000000000    0.00000000000000    0.14285714285714             2
    0.12500000000000    0.00000000000000    0.14285714285714             4
    0.25000000000000    0.00000000000000    0.14285714285714             4
    0.37500000000000    0.00000000000000    0.14285714285714             4
    0.50000000000000    0.00000000000000    0.14285714285714             4
   -0.37500000000000   -0.00000000000000    0.14285714285714             4
   -0.25000000000000   -0.00000000000000    0.14285714285714             4
   -0.12500000000000   -0.00000000000000    0.14285714285714             4
    0.12500000000000    0.12500000000000    0.14285714285714             4
    0.25000000000000    0.12500000000000    0.14285714285714             4
    0.37500000000000    0.12500000000000    0.14285714285714             4
    0.50000000000000    0.12500000000000    0.14285714285714             4
   -0.37500000000000    0.12500000000000    0.14285714285714             4
   -0.25000000000000    0.12500000000000    0.14285714285714             4
   -0.12500000000000    0.12500000000000    0.14285714285714             2
    0.12500000000000    0.25000000000000    0.14285714285714             4
    0.25000000000000    0.25000000000000    0.14285714285714             4
    0.37500000000000    0.25000000000000    0.14285714285714             4
    0.50000000000000    0.25000000000000    0.14285714285714             4
   -0.37500000000000    0.25000000000000    0.14285714285714             4
   -0.25000000000000    0.25000000000000    0.14285714285714             2
    0.12500000000000    0.37500000000000    0.14285714285714             4
    0.25000000000000    0.37500000000000    0.14285714285714             4
    0.37500000000000    0.37500000000000    0.14285714285714             4
    0.50000000000000    0.37500000000000    0.14285714285714             4
   -0.37500000000000    0.37500000000000    0.14285714285714             2
    0.12500000000000    0.50000000000000    0.14285714285714             4
    0.25000000000000    0.50000000000000    0.14285714285714             4
    0.37500000000000    0.50000000000000    0.14285714285714             4
    0.50000000000000    0.50000000000000    0.14285714285714             2
    0.12500000000000   -0.37500000000000    0.14285714285714             4
    0.25000000000000   -0.37500000000000    0.14285714285714             4
    0.37500000000000   -0.37500000000000    0.14285714285714             2
    0.12500000000000   -0.25000000000000    0.14285714285714             4
    0.25000000000000   -0.25000000000000    0.14285714285714             2
    0.12500000000000   -0.12500000000000    0.14285714285714             2
    0.00000000000000    0.00000000000000    0.28571428571429             2
    0.12500000000000    0.00000000000000    0.28571428571429             4
    0.25000000000000    0.00000000000000    0.28571428571429             4
    0.37500000000000    0.00000000000000    0.28571428571429             4
    0.50000000000000    0.00000000000000    0.28571428571429             4
   -0.37500000000000   -0.00000000000000    0.28571428571429             4
   -0.25000000000000   -0.00000000000000    0.28571428571429             4
   -0.12500000000000   -0.00000000000000    0.28571428571429             4
    0.12500000000000    0.12500000000000    0.28571428571429             4
    0.25000000000000    0.12500000000000    0.28571428571429             4
    0.37500000000000    0.12500000000000    0.28571428571429             4
    0.50000000000000    0.12500000000000    0.28571428571429             4
   -0.37500000000000    0.12500000000000    0.28571428571429             4
   -0.25000000000000    0.12500000000000    0.28571428571429             4
   -0.12500000000000    0.12500000000000    0.28571428571429             2
    0.12500000000000    0.25000000000000    0.28571428571429             4
    0.25000000000000    0.25000000000000    0.28571428571429             4
    0.37500000000000    0.25000000000000    0.28571428571429             4
    0.50000000000000    0.25000000000000    0.28571428571429             4
   -0.37500000000000    0.25000000000000    0.28571428571429             4
   -0.25000000000000    0.25000000000000    0.28571428571429             2
    0.12500000000000    0.37500000000000    0.28571428571429             4
    0.25000000000000    0.37500000000000    0.28571428571429             4
    0.37500000000000    0.37500000000000    0.28571428571429             4
    0.50000000000000    0.37500000000000    0.28571428571429             4
   -0.37500000000000    0.37500000000000    0.28571428571429             2
    0.12500000000000    0.50000000000000    0.28571428571429             4
    0.25000000000000    0.50000000000000    0.28571428571429             4
    0.37500000000000    0.50000000000000    0.28571428571429             4
    0.50000000000000    0.50000000000000    0.28571428571429             2
    0.12500000000000   -0.37500000000000    0.28571428571429             4
    0.25000000000000   -0.37500000000000    0.28571428571429             4
    0.37500000000000   -0.37500000000000    0.28571428571429             2
    0.12500000000000   -0.25000000000000    0.28571428571429             4
    0.25000000000000   -0.25000000000000    0.28571428571429             2
    0.12500000000000   -0.12500000000000    0.28571428571429             2
    0.00000000000000    0.00000000000000    0.42857142857143             2
    0.12500000000000    0.00000000000000    0.42857142857143             4
    0.25000000000000    0.00000000000000    0.42857142857143             4
    0.37500000000000    0.00000000000000    0.42857142857143             4
    0.50000000000000    0.00000000000000    0.42857142857143             4
   -0.37500000000000   -0.00000000000000    0.42857142857143             4
   -0.25000000000000   -0.00000000000000    0.42857142857143             4
   -0.12500000000000   -0.00000000000000    0.42857142857143             4
    0.12500000000000    0.12500000000000    0.42857142857143             4
    0.25000000000000    0.12500000000000    0.42857142857143             4
    0.37500000000000    0.12500000000000    0.42857142857143             4
    0.50000000000000    0.12500000000000    0.42857142857143             4
   -0.37500000000000    0.12500000000000    0.42857142857143             4
   -0.25000000000000    0.12500000000000    0.42857142857143             4
   -0.12500000000000    0.12500000000000    0.42857142857143             2
    0.12500000000000    0.25000000000000    0.42857142857143             4
    0.25000000000000    0.25000000000000    0.42857142857143             4
    0.37500000000000    0.25000000000000    0.42857142857143             4
    0.50000000000000    0.25000000000000    0.42857142857143             4
   -0.37500000000000    0.25000000000000    0.42857142857143             4
   -0.25000000000000    0.25000000000000    0.42857142857143             2
    0.12500000000000    0.37500000000000    0.42857142857143             4
    0.25000000000000    0.37500000000000    0.42857142857143             4
    0.37500000000000    0.37500000000000    0.42857142857143             4
    0.50000000000000    0.37500000000000    0.42857142857143             4
   -0.37500000000000    0.37500000000000    0.42857142857143             2
    0.12500000000000    0.50000000000000    0.42857142857143             4
    0.25000000000000    0.50000000000000    0.42857142857143             4
    0.37500000000000    0.50000000000000    0.42857142857143             4
    0.50000000000000    0.50000000000000    0.42857142857143             2
    0.12500000000000   -0.37500000000000    0.42857142857143             4
    0.25000000000000   -0.37500000000000    0.42857142857143             4
    0.37500000000000   -0.37500000000000    0.42857142857143             2
    0.12500000000000   -0.25000000000000    0.42857142857143             4
    0.25000000000000   -0.25000000000000    0.42857142857143             2
    0.12500000000000   -0.12500000000000    0.42857142857143             2
Tetrahedra
       676    0.00037202380952
         4         2         2         6        29
         4         1         2         2        29
         4         1         2        22        29
         4         2         6        29        30
         4         2        23        29        30
         4         2        22        23        29
         4         3         6         7        30
         4         2         3         6        30
         4         2         3        23        30
         4         3         7        30        31
         4         3        24        30        31
         4         3        23        24        30
         4         4         7         8        31
         4         3         4         7        31
         4         3         4        24        31
         4         4         8        31        32
         4         4        25        31        32
         4         4        24        25        31
         4         5         8         9        32
         4         4         5         8        32
         4         4         5        25        32
         4         5         9        32        33
         4         5        26        32        33
         4         5        25        26        32
         4         4         9        10        33
         4         4         5         9        33
         4         4         5        26        33
         4         4        10        33        34
         4         4        27        33        34
         4         4        26        27        33
         4         3        10        11        34
         4         3         4        10        34
         4         3         4        27        34
         4         3        11        34        35
         4         3        28        34        35
         4         3        27        28        34
         4         2        11        12        35
         4         2         3        11        35
         4         2         3        28        35
         4         2        12        35        36
         4         2        29        35        36
         4         2        28        29        35
         4         1         2        12        36
         4         1         2        29        36
         4         1        22        29        36
         4         3         6         7        28
         4         2         3         6        28
         4         2         6        28        29
         4         6         7        28        37
         4         6        28        30        37
         4         6        28        29        30
         4         7         7        13        37
         4         6         7         7        37
         4         6         7        30        37
         4         7        13        37        38
         4         7        31        37        38
         4         7        30        31        37
         4         8        13        14        38
         4         7         8        13        38
         4         7         8        31        38
         4         8        14        38        39
         4         8        32        38        39
         4         8        31        32        38
         4         9        14        15        39
         4         8         9        14        39
         4         8         9        32        39
         4         9        15        39        40
         4         9        33        39        40
         4         9        32        33        39
         4        10        15        16        40
         4         9        10        15        40
         4         9        10        33        40
         4        10        16        40        41
         4        10        34        40        41
         4        10        33        34        40
         4        11        16        17        41
         4        10        11        16        41
         4        10        11        34        41
         4        11        17        41        42
         4        11        35        41        42
         4        11        34        35        41
         4        11        12        17        42
         4        11        12        35        42
         4        12        35        36        42
         4         4         7         8        27
         4         3         4         7        27
         4         3         7        27        28
         4         7         8        27        43
         4         7        27        37        43
         4         7        27        28        37
         4         8        13        14        43
         4         7         8        13        43
         4         7        13        37        43
         4        13        14        43        44
         4        13        38        43        44
         4        13        37        38        43
         4        14        14        18        44
         4        13        14        14        44
         4        13        14        38        44
         4        14        18        44        45
         4        14        39        44        45
         4        14        38        39        44
         4        15        18        19        45
         4        14        15        18        45
         4        14        15        39        45
         4        15        19        45        46
         4        15        40        45        46
         4        15        39        40        45
         4        16        19        20        46
         4        15        16        19        46
         4        15        16        40        46
         4        16        20        46        47
         4        16        41        46        47
         4        16        40        41        46
         4        16        17        20        47
         4        16        17        41        47
         4        17        41        42        47
         4         5         8         9        26
         4         4         5         8        26
         4         4         8        26        27
         4         8         9        26        48
         4         8        26        43        48
         4         8        26        27        43
         4         9        14        15        48
         4         8         9        14        48
         4         8        14        43        48
         4        14        15        48        49
         4        14        44        48        49
         4        14        43        44        48
         4        15        18        19        49
         4        14        15        18        49
         4        14        18        44        49
         4        18        19        49        50
         4        18        45        49        50
         4        18        44        45        49
         4        19        19        21        50
         4        18        19        19        50
         4        18        19        45        50
         4        19        21        50        51
         4        19        46        50        51
         4        19        45        46        50
         4        19        20        21        51
         4        19        20        46        51
         4        20        46        47        51
         4         4         9        10        25
         4         4         5         9        25
         4         5         9        25        26
         4         9        10        25        52
         4         9        25        48        52
         4         9        25        26        48
         4        10        15        16        52
         4         9        10        15        52
         4         9        15        48        52
         4        15        16        52        53
         4        15        49        52        53
         4        15        48        49        52
         4        16        19        20        53
         4        15        16        19        53
         4        15        19        49        53
         4        19        20        53        54
         4        19        50        53        54
         4        19        49        50        53
         4        19        20        21        54
         4        19        21        50        54
         4        21        50        51        54
         4         3        10        11        24
         4         3         4        10        24
         4         4        10        24        25
         4        10        11        24        55
         4        10        24        52        55
         4        10        24        25        52
         4        11        16        17        55
         4        10        11        16        55
         4        10        16        52        55
         4        16        17        55        56
         4        16        53        55        56
         4        16        52        53        55
         4        16        17        20        56
         4        16        20        53        56
         4        20        53        54        56
         4         2        11        12        23
         4         2         3        11        23
         4         3        11        23        24
         4        11        12        23        57
         4        11        23        55        57
         4        11        23        24        55
         4        11        12        17        57
         4        11        17        55        57
         4        17        55        56        57
         4         1         2        12        22
         4         2        12        22        23
         4        12        22        23        57
         4        23        29        30        65
         4        22        23        29        65
         4        22        23        58        65
         4        23        30        65        66
         4        23        59        65        66
         4        23        58        59        65
         4        24        30        31        66
         4        23        24        30        66
         4        23        24        59        66
         4        24        31        66        67
         4        24        60        66        67
         4        24        59        60        66
         4        25        31        32        67
         4        24        25        31        67
         4        24        25        60        67
         4        25        32        67        68
         4        25        61        67        68
         4        25        60        61        67
         4        26        32        33        68
         4        25        26        32        68
         4        25        26        61        68
         4        26        33        68        69
         4        26        62        68        69
         4        26        61        62        68
         4        27        33        34        69
         4        26        27        33        69
         4        26        27        62        69
         4        27        34        69        70
         4        27        63        69        70
         4        27        62        63        69
         4        28        34        35        70
         4        27        28        34        70
         4        27        28        63        70
         4        28        35        70        71
         4        28        64        70        71
         4        28        63        64        70
         4        29        35        36        71
         4        28        29        35        71
         4        28        29        64        71
         4        29        36        71        72
         4        29        65        71        72
         4        29        64        65        71
         4        22        29        36        72
         4        22        29        65        72
         4        22        58        65        72
         4        28        30        37        64
         4        28        29        30        64
         4        29        30        64        65
         4        30        37        64        73
         4        30        64        66        73
         4        30        64        65        66
         4        31        37        38        73
         4        30        31        37        73
         4        30        31        66        73
         4        31        38        73        74
         4        31        67        73        74
         4        31        66        67        73
         4        32        38        39        74
         4        31        32        38        74
         4        31        32        67        74
         4        32        39        74        75
         4        32        68        74        75
         4        32        67        68        74
         4        33        39        40        75
         4        32        33        39        75
         4        32        33        68        75
         4        33        40        75        76
         4        33        69        75        76
         4        33        68        69        75
         4        34        40        41        76
         4        33        34        40        76
         4        33        34        69        76
         4        34        41        76        77
         4        34        70        76        77
         4        34        69        70        76
         4        35        41        42        77
         4        34        35        41        77
         4        34        35        70        77
         4        35        42        77        78
         4        35        71        77        78
         4        35        70        71        77
         4        35        36        42        78
         4        35        36        71        78
         4        36        71        72        78
         4        27        37        43        63
         4        27        28        37        63
         4        28        37        63        64
         4        37        43        63        79
         4        37        63        73        79
         4        37        63        64        73
         4        38        43        44        79
         4        37        38        43        79
         4        37        38        73        79
         4        38        44        79        80
         4        38        74        79        80
         4        38        73        74        79
         4        39        44        45        80
         4        38        39        44        80
         4        38        39        74        80
         4        39        45        80        81
         4        39        75        80        81
         4        39        74        75        80
         4        40        45        46        81
         4        39        40        45        81
         4        39        40        75        81
         4        40        46        81        82
         4        40        76        81        82
         4        40        75        76        81
         4        41        46        47        82
         4        40        41        46        82
         4        40        41        76        82
         4        41        47        82        83
         4        41        77        82        83
         4        41        76        77        82
         4        41        42        47        83
         4        41        42        77        83
         4        42        77        78        83
         4        26        43        48        62
         4        26        27        43        62
         4        27        43        62        63
         4        43        48        62        84
         4        43        62        79        84
         4        43        62        63        79
         4        44        48        49        84
         4        43        44        48        84
         4        43        44        79        84
         4        44        49        84        85
         4        44        80        84        85
         4        44        79        80        84
         4        45        49        50        85
         4        44        45        49        85
         4        44        45        80        85
         4        45        50        85        86
         4        45        81        85        86
         4        45        80        81        85
         4        46        50        51        86
         4        45        46        50        86
         4        45        46        81        86
         4        46        51        86        87
         4        46        82        86        87
         4        46        81        82        86
         4        46        47        51        87
         4        46        47        82        87
         4        47        82        83        87
         4        25        48        52        61
         4        25        26        48        61
         4        26        48        61        62
         4        48        52        61        88
         4        48        61        84        88
         4        48        61        62        84
         4        49        52        53        88
         4        48        49        52        88
         4        48        49        84        88
         4        49        53        88        89
         4        49        85        88        89
         4        49        84        85        88
         4        50        53        54        89
         4        49        50        53        89
         4        49        50        85        89
         4        50        54        89        90
         4        50        86        89        90
         4        50        85        86        89
         4        50        51        54        90
         4        50        51        86        90
         4        51        86        87        90
         4        24        52        55        60
         4        24        25        52        60
         4        25        52        60        61
         4        52        55        60        91
         4        52        60        88        91
         4        52        60        61        88
         4        53        55        56        91
         4        52        53        55        91
         4        52        53        88        91
         4        53        56        91        92
         4        53        89        91        92
         4        53        88        89        91
         4        53        54        56        92
         4        53        54        89        92
         4        54        89        90        92
         4        23        55        57        59
         4        23        24        55        59
         4        24        55        59        60
         4        55        57        59        93
         4        55        59        91        93
         4        55        59        60        91
         4        55        56        57        93
         4        55        56        91        93
         4        56        91        92        93
         4        22        23        57        58
         4        23        57        58        59
         4        57        58        59        93
         4        59        65        66       101
         4        58        59        65       101
         4        58        59        94       101
         4        59        66       101       102
         4        59        95       101       102
         4        59        94        95       101
         4        60        66        67       102
         4        59        60        66       102
         4        59        60        95       102
         4        60        67       102       103
         4        60        96       102       103
         4        60        95        96       102