       N       E                     dE             d eps       ncg     rms          rms(c)
DAV:   1     0.272433252264E+03    0.27243E+03   -0.22618E+04  7586   0.125E+03
DAV:   2    -0.631798185267E+02   -0.33561E+03   -0.32847E+03  9831   0.316E+02
DAV:   3    -0.803425036142E+02   -0.17163E+02   -0.17117E+02  8767   0.818E+01
DAV:   4    -0.805533892488E+02   -0.21089E+00   -0.21059E+00  8847   0.978E+00
DAV:   5    -0.805575152728E+02   -0.41260E-02   -0.41245E-02  8682   0.133E+00    0.184E+01
RMM:   6    -0.711584372061E+02    0.93991E+01   -0.40066E+01  7980   0.331E+01    0.516E+00
RMM:   7    -0.711358049364E+02    0.22632E-01   -0.17742E+00  8619   0.609E+00    0.339E+00
RMM:   8    -0.711513459655E+02   -0.15541E-01   -0.26630E-01  8455   0.402E+00    0.629E-01
RMM:   9    -0.711434198467E+02    0.79261E-02   -0.51646E-02  8765   0.119E+00    0.134E-01
RMM:  10    -0.711468083409E+02   -0.33885E-02   -0.19705E-02  8629   0.723E-01    0.246E-01
RMM:  11    -0.711452795572E+02    0.15288E-02   -0.31509E-03  8750   0.321E-01    0.727E-02
RMM:  12    -0.711452080690E+02    0.71488E-04   -0.10305E-03  8737   0.167E-01    0.675E-03
RMM:  13    -0.711452115380E+02   -0.34690E-05   -0.30211E-05  6519   0.314E-02
   1 F= -.71145212E+02 E0= -.71145212E+02  d E =0.000000E+00
