 vasp.5.4.1 05Feb16 (build Mar 02 2016 14:09:44) complex                        
  
 executed on   Abel-impi-ifc-cuda date 2019.09.13  12:01:30
 running on    1 total cores
 distrk:  each k-point on    1 cores,    1 groups
 distr:  one band on NCORES_PER_BAND=   1 cores,    1 groups


--------------------------------------------------------------------------------------------------------


 INCAR:
 POTCAR:   PAW_PBE Si 05Jan2001                   
 POTCAR:   PAW_PBE O 08Apr2002                    
 POTCAR:   PAW_PBE Si 05Jan2001                   
   VRHFIN =Si: s2p2                                                             
   LEXCH  = PE                                                                  
   EATOM  =   103.0669 eV,    7.5752 Ry                                         
                                                                                
   TITEL  = PAW_PBE Si 05Jan2001                                                
   LULTRA =        F    use ultrasoft PP ?                                      
   IUNSCR =        1    unscreen: 0-lin 1-nonlin 2-no                           
   RPACOR =    1.500    partial core radius                                     
   POMASS =   28.085; ZVAL   =    4.000    mass and valenz                      
   RCORE  =    1.900    outmost cutoff radius                                   
   RWIGS  =    2.480; RWIGS  =    1.312    wigner-seitz radius (au A)           
   ENMAX  =  245.345; ENMIN  =  184.009 eV                                      
   ICORE  =        2    local potential                                         
   LCOR   =        T    correct aug charges                                     
   LPAW   =        T    paw PP                                                  
   EAUG   =  322.069                                                            
   DEXC   =    -.007                                                            
   RMAX   =    2.944    core radius for proj-oper                               
   RAUG   =    1.300    factor for augmentation sphere                          
   RDEP   =    1.993    radius for radial grids                                 
   QCUT   =   -4.246; QGAM   =    8.493    optimization parameters              
                                                                                
   Description                                                                  
     l     E      TYP  RCUT    TYP  RCUT                                        
     0   .000     23  1.900                                                     
     0   .000     23  1.900                                                     
     1   .000     23  1.900                                                     
     1   .000     23  1.900                                                     
     2   .000      7  1.900                                                     
  local pseudopotential read in
  partial core-charges read in
  atomic valenz-charges read in
  non local Contribution for L=           0  read in
    real space projection operators read in
  non local Contribution for L=           0  read in
    real space projection operators read in
  non local Contribution for L=           1  read in
    real space projection operators read in
  non local Contribution for L=           1  read in
    real space projection operators read in
    PAW grid and wavefunctions read in
 
   number of l-projection  operators is LMAX  =           4
   number of lm-projection operators is LMMAX =           8
 
 POTCAR:   PAW_PBE O 08Apr2002                    
   VRHFIN =O: s2p4                                                              
   LEXCH  = PE                                                                  
   EATOM  =   432.3788 eV,   31.7789 Ry                                         
                                                                                
   TITEL  = PAW_PBE O 08Apr2002                                                 
   LULTRA =        F    use ultrasoft PP ?                                      
   IUNSCR =        0    unscreen: 0-lin 1-nonlin 2-no                           
   RPACOR =     .000    partial core radius                                     
   POMASS =   16.000; ZVAL   =    6.000    mass and valenz                      
   RCORE  =    1.520    outmost cutoff radius                                   
   RWIGS  =    1.550; RWIGS  =     .820    wigner-seitz radius (au A)           
   ENMAX  =  400.000; ENMIN  =  300.000 eV                                      
   ICORE  =        2    local potential                                         
   LCOR   =        T    correct aug charges                                     
   LPAW   =        T    paw PP                                                  
   EAUG   =  605.392                                                            
   DEXC   =     .000                                                            
   RMAX   =    2.264    core radius for proj-oper                               
   RAUG   =    1.300    factor for augmentation sphere                          
   RDEP   =    1.550    radius for radial grids                                 
   QCUT   =   -5.520; QGAM   =   11.041    optimization parameters              
                                                                                
   Description                                                                  
     l     E      TYP  RCUT    TYP  RCUT                                        
     0   .000     23  1.200                                                     
     0  -.700     23  1.200                                                     
     1   .000     23  1.520                                                     
     1   .600     23  1.520                                                     
     2   .000      7  1.500                                                     
  local pseudopotential read in
  atomic valenz-charges read in
  non local Contribution for L=           0  read in
    real space projection operators read in
  non local Contribution for L=           0  read in
    real space projection operators read in
  non local Contribution for L=           1  read in
    real space projection operators read in
  non local Contribution for L=           1  read in
    real space projection operators read in
    PAW grid and wavefunctions read in
 
   number of l-projection  operators is LMAX  =           4
   number of lm-projection operators is LMMAX =           8
 
 Optimization of the real space projectors (new method)

 maximal supplied QI-value         = 19.84
 optimisation between [QCUT,QGAM] = [ 10.12, 20.44] = [ 28.68,116.96] Ry 
 Optimized for a Real-space Cutoff    1.23 Angstroem

   l    n(q)    QCUT    max X(q) W(low)/X(q) W(high)/X(q)  e(spline) 
   0      7    10.119     8.708    0.24E-04    0.14E-04    0.43E-08
   0      7    10.119   106.241    0.56E-04    0.21E-03    0.45E-07
   1      7    10.119     5.901    0.36E-04    0.73E-05    0.14E-07
   1      7    10.119    73.241    0.33E-03    0.48E-03    0.11E-06
 Optimization of the real space projectors (new method)

 maximal supplied QI-value         = 24.76
 optimisation between [QCUT,QGAM] = [ 10.15, 20.30] = [ 28.85,115.39] Ry 
 Optimized for a Real-space Cutoff    1.30 Angstroem

   l    n(q)    QCUT    max X(q) W(low)/X(q) W(high)/X(q)  e(spline) 
   0      8    10.150     4.192    0.55E-04    0.58E-04    0.78E-07
   0      8    10.150     8.473    0.46E-03    0.68E-03    0.23E-06
   1      7    10.150     2.474    0.11E-03    0.93E-04    0.33E-07
   1      7    10.150     3.912    0.46E-03    0.50E-03    0.15E-06
 PAW_PBE Si 05Jan2001                   :
 energy of atom  1       EATOM= -103.0669
 kinetic energy error for atom=    0.0012 (will be added to EATOM!!)
 PAW_PBE O 08Apr2002                    :
 energy of atom  2       EATOM= -432.3788
 kinetic energy error for atom=    0.1156 (will be added to EATOM!!)
 
 
 POSCAR: SiO2_P3221_icsd_34644                   
  positions in direct lattice
  No initial velocities read in
 exchange correlation table for  LEXCH =        8
   RHO(1)=    0.500       N(1)  =     2000
   RHO(2)=  100.500       N(2)  =     4000
 


--------------------------------------------------------------------------------------------------------


 ion  position               nearest neighbor table
   1  0.470  0.000  0.667-   4 1.60   7 1.60   9 1.62   5 1.62   3 3.06   3 3.06   2 3.06   2 3.06

   2  0.000  0.470  0.333-   8 1.60   5 1.60   6 1.62   7 1.62   3 3.06   3 3.06   1 3.06   1 3.06

   3  0.530  0.530  0.000-   6 1.60   9 1.60   8 1.62   4 1.62   2 3.06   2 3.06   1 3.06   1 3.06

   4  0.414  0.266  0.786-   1 1.60   3 1.62
   5  0.734  0.148  0.452-   2 1.60   1 1.62
   6  0.852  0.586  0.119-   3 1.60   2 1.62
   7  0.148  0.734  0.548-   1 1.60   2 1.62
   8  0.266  0.414  0.214-   2 1.60   3 1.62
   9  0.586  0.852  0.881-   3 1.60   1 1.62
 
  LATTYP: Found a hexagonal cell.
 ALAT       =     4.9137000030
 C/A-ratio  =     1.1000122101
  
  Lattice vectors:
  
 A1 = (   4.9137000000,   0.0000000000,   0.0000000000)
 A2 = (  -2.4568500000,   4.2553890300,   0.0000000000)
 A3 = (   0.0000000000,   0.0000000000,   5.4051300000)


Analysis of symmetry for initial positions (statically):
=====================================================================
 Subroutine PRICEL returns:
 Original cell was already a primitive cell.
 

 Routine SETGRP: Setting up the symmetry group for a 
 hexagonal supercell.


 Subroutine GETGRP returns: Found  2 space group operations
 (whereof  2 operations were pure point group operations)
 out of a pool of 24 trial point group operations.


The static configuration has the point symmetry C_2 .


Analysis of symmetry for dynamics (positions and initial velocities):
=====================================================================
 Subroutine PRICEL returns:
 Original cell was already a primitive cell.
 

 Routine SETGRP: Setting up the symmetry group for a 
 hexagonal supercell.


 Subroutine GETGRP returns: Found  2 space group operations
 (whereof  2 operations were pure point group operations)
 out of a pool of 24 trial point group operations.


The dynamic configuration has the point symmetry C_2 .


 Subroutine INISYM returns: Found  2 space group operations
 (whereof  2 operations are pure point group operations),
 and found     1 'primitive' translations

 
 
 KPOINTS: k-density: 6.0                          

Automatic generation of k-mesh.
Space group operators:
 irot       det(A)        alpha          n_x          n_y          n_z        tau_x        tau_y        tau_z
    1     1.000000     0.000001     1.000000     0.000000     0.000000     0.000000     0.000000     0.000000
    2     1.000000   180.000000    -0.500000    -0.866025     0.000000     0.000000     0.000000     0.000000
 
 Subroutine IBZKPT returns following result:
 ===========================================
 
 Found    129 irreducible k-points:
 
 Following reciprocal coordinates:
            Coordinates               Weight
  0.000000  0.000000  0.000000      1.000000
  0.125000  0.000000  0.000000      4.000000
  0.250000  0.000000  0.000000      4.000000
  0.375000  0.000000  0.000000      4.000000
  0.500000  0.000000  0.000000      2.000000
  0.125000  0.125000  0.000000      2.000000
  0.250000  0.125000  0.000000      4.000000
  0.375000  0.125000  0.000000      4.000000
  0.500000  0.125000  0.000000      4.000000
 -0.375000  0.125000  0.000000      4.000000
 -0.250000  0.125000  0.000000      4.000000
 -0.125000  0.125000  0.000000      2.000000
  0.250000  0.250000  0.000000      2.000000
  0.375000  0.250000  0.000000      4.000000
  0.500000  0.250000  0.000000      4.000000
 -0.375000  0.250000  0.000000      4.000000
 -0.250000  0.250000  0.000000      2.000000
  0.375000  0.375000  0.000000      2.000000
  0.500000  0.375000  0.000000      4.000000
 -0.375000  0.375000  0.000000      2.000000
  0.500000  0.500000  0.000000      1.000000
  0.000000  0.000000  0.142857      2.000000
  0.125000  0.000000  0.142857      4.000000
  0.250000  0.000000  0.142857      4.000000
  0.375000  0.000000  0.142857      4.000000
  0.500000  0.000000  0.142857      4.000000
 -0.375000 -0.000000  0.142857      4.000000
 -0.250000 -0.000000  0.142857      4.000000
 -0.125000 -0.000000  0.142857      4.000000
  0.125000  0.125000  0.142857      4.000000
  0.250000  0.125000  0.142857      4.000000
  0.375000  0.125000  0.142857      4.000000
  0.500000  0.125000  0.142857      4.000000
 -0.375000  0.125000  0.142857      4.000000
 -0.250000  0.125000  0.142857      4.000000
 -0.125000  0.125000  0.142857      2.000000
  0.125000  0.250000  0.142857      4.000000
  0.250000  0.250000  0.142857      4.000000
  0.375000  0.250000  0.142857      4.000000
  0.500000  0.250000  0.142857      4.000000
 -0.375000  0.250000  0.142857      4.000000
 -0.250000  0.250000  0.142857      2.000000
  0.125000  0.375000  0.142857      4.000000
  0.250000  0.375000  0.142857      4.000000
  0.375000  0.375000  0.142857      4.000000
  0.500000  0.375000  0.142857      4.000000
 -0.375000  0.375000  0.142857      2.000000
  0.125000  0.500000  0.142857      4.000000
  0.250000  0.500000  0.142857      4.000000
  0.375000  0.500000  0.142857      4.000000
  0.500000  0.500000  0.142857      2.000000
  0.125000 -0.375000  0.142857      4.000000
  0.250000 -0.375000  0.142857      4.000000
  0.375000 -0.375000  0.142857      2.000000
  0.125000 -0.250000  0.142857      4.000000
  0.250000 -0.250000  0.142857      2.000000
  0.125000 -0.125000  0.142857      2.000000
  0.000000  0.000000  0.285714      2.000000
  0.125000  0.000000  0.285714      4.000000
  0.250000  0.000000  0.285714      4.000000
  0.375000  0.000000  0.285714      4.000000
  0.500000  0.000000  0.285714      4.000000
 -0.375000 -0.000000  0.285714      4.000000
 -0.250000 -0.000000  0.285714      4.000000
 -0.125000 -0.000000  0.285714      4.000000
  0.125000  0.125000  0.285714      4.000000
  0.250000  0.125000  0.285714      4.000000
  0.375000  0.125000  0.285714      4.000000
  0.500000  0.125000  0.285714      4.000000
 -0.375000  0.125000  0.285714      4.000000
 -0.250000  0.125000  0.285714      4.000000
 -0.125000  0.125000  0.285714      2.000000
  0.125000  0.250000  0.285714      4.000000
  0.250000  0.250000  0.285714      4.000000
  0.375000  0.250000  0.285714      4.000000
  0.500000  0.250000  0.285714      4.000000
 -0.375000  0.250000  0.285714      4.000000
 -0.250000  0.250000  0.285714      2.000000
  0.125000  0.375000  0.285714      4.000000
  0.250000  0.375000  0.285714      4.000000
  0.375000  0.375000  0.285714      4.000000
  0.500000  0.375000  0.285714      4.000000
 -0.375000  0.375000  0.285714      2.000000
  0.125000  0.500000  0.285714      4.000000
  0.250000  0.500000  0.285714      4.000000
  0.375000  0.500000  0.285714      4.000000
  0.500000  0.500000  0.285714      2.000000
  0.125000 -0.375000  0.285714      4.000000
  0.250000 -0.375000  0.285714      4.000000
  0.375000 -0.375000  0.285714      2.000000
  0.125000 -0.250000  0.285714      4.000000
  0.250000 -0.250000  0.285714      2.000000
  0.125000 -0.125000  0.285714      2.000000
  0.000000  0.000000  0.428571      2.000000
  0.125000  0.000000  0.428571      4.000000
  0.250000  0.000000  0.428571      4.000000
  0.375000  0.000000  0.428571      4.000000
  0.500000  0.000000  0.428571      4.000000
 -0.375000 -0.000000  0.428571      4.000000
 -0.250000 -0.000000  0.428571      4.000000
 -0.125000 -0.000000  0.428571      4.000000
  0.125000  0.125000  0.428571      4.000000
  0.250000  0.125000  0.428571      4.000000
  0.375000  0.125000  0.428571      4.000000
  0.500000  0.125000  0.428571      4.000000
 -0.375000  0.125000  0.428571      4.000000
 -0.250000  0.125000  0.428571      4.000000
 -0.125000  0.125000  0.428571      2.000000
  0.125000  0.250000  0.428571      4.000000
  0.250000  0.250000  0.428571      4.000000
  0.375000  0.250000  0.428571      4.000000
  0.500000  0.250000  0.428571      4.000000
 -0.375000  0.250000  0.428571      4.000000
 -0.250000  0.250000  0.428571      2.000000
  0.125000  0.375000  0.428571      4.000000
  0.250000  0.375000  0.428571      4.000000
  0.375000  0.375000  0.428571      4.000000
  0.500000  0.375000  0.428571      4.000000
 -0.375000  0.375000  0.428571      2.000000
  0.125000  0.500000  0.428571      4.000000
  0.250000  0.500000  0.428571      4.000000
  0.375000  0.500000  0.428571      4.000000
  0.500000  0.500000  0.428571      2.000000
  0.125000 -0.375000  0.428571      4.000000
  0.250000 -0.375000  0.428571      4.000000
  0.375000 -0.375000  0.428571      2.000000
  0.125000 -0.250000  0.428571      4.000000
  0.250000 -0.250000  0.428571      2.000000
  0.125000 -0.125000  0.428571      2.000000
 
 Following cartesian coordinates:
            Coordinates               Weight
  0.000000  0.000000  0.000000      1.000000
  0.025439  0.014687  0.000000      4.000000
  0.050878  0.029375  0.000000      4.000000
  0.076317  0.044062  0.000000      4.000000
  0.101756  0.058749  0.000000      2.000000
  0.025439  0.044062  0.000000      2.000000
  0.050878  0.058749  0.000000      4.000000
  0.076317  0.073436  0.000000      4.000000
  0.101756  0.088124  0.000000      4.000000
 -0.076317 -0.014687  0.000000      4.000000
 -0.050878  0.000000  0.000000      4.000000
 -0.025439  0.014687  0.000000      2.000000
  0.050878  0.088124  0.000000      2.000000
  0.076317  0.102811  0.000000      4.000000
  0.101756  0.117498  0.000000      4.000000
 -0.076317  0.014687  0.000000      4.000000
 -0.050878  0.029375  0.000000      2.000000
  0.076317  0.132185  0.000000      2.000000
  0.101756  0.146873  0.000000      4.000000
 -0.076317  0.044062  0.000000      2.000000
  0.101756  0.176247  0.000000      1.000000
  0.000000  0.000000  0.026430      2.000000
  0.025439  0.014687  0.026430      4.000000
  0.050878  0.029375  0.026430      4.000000
  0.076317  0.044062  0.026430      4.000000
  0.101756  0.058749  0.026430      4.000000
 -0.076317 -0.044062  0.026430      4.000000
 -0.050878 -0.029375  0.026430      4.000000
 -0.025439 -0.014687  0.026430      4.000000
  0.025439  0.044062  0.026430      4.000000
  0.050878  0.058749  0.026430      4.000000
  0.076317  0.073436  0.026430      4.000000
  0.101756  0.088124  0.026430      4.000000
 -0.076317 -0.014687  0.026430      4.000000
 -0.050878  0.000000  0.026430      4.000000
 -0.025439  0.014687  0.026430      2.000000
  0.025439  0.073436  0.026430      4.000000
  0.050878  0.088124  0.026430      4.000000
  0.076317  0.102811  0.026430      4.000000
  0.101756  0.117498  0.026430      4.000000
 -0.076317  0.014687  0.026430      4.000000
 -0.050878  0.029375  0.026430      2.000000
  0.025439  0.102811  0.026430      4.000000
  0.050878  0.117498  0.026430      4.000000
  0.076317  0.132185  0.026430      4.000000
  0.101756  0.146873  0.026430      4.000000
 -0.076317  0.044062  0.026430      2.000000
  0.025439  0.132185  0.026430      4.000000
  0.050878  0.146873  0.026430      4.000000
  0.076317  0.161560  0.026430      4.000000
  0.101756  0.176247  0.026430      2.000000
  0.025439 -0.073436  0.026430      4.000000
  0.050878 -0.058749  0.026430      4.000000
  0.076317 -0.044062  0.026430      2.000000
  0.025439 -0.044062  0.026430      4.000000
  0.050878 -0.029375  0.026430      2.000000
  0.025439 -0.014687  0.026430      2.000000
  0.000000  0.000000  0.052860      2.000000
  0.025439  0.014687  0.052860      4.000000
  0.050878  0.029375  0.052860      4.000000
  0.076317  0.044062  0.052860      4.000000
  0.101756  0.058749  0.052860      4.000000
 -0.076317 -0.044062  0.052860      4.000000
 -0.050878 -0.029375  0.052860      4.000000
 -0.025439 -0.014687  0.052860      4.000000
  0.025439  0.044062  0.052860      4.000000
  0.050878  0.058749  0.052860      4.000000
  0.076317  0.073436  0.052860      4.000000
  0.101756  0.088124  0.052860      4.000000
 -0.076317 -0.014687  0.052860      4.000000
 -0.050878  0.000000  0.052860      4.000000
 -0.025439  0.014687  0.052860      2.000000
  0.025439  0.073436  0.052860      4.000000
  0.050878  0.088124  0.052860      4.000000
  0.076317  0.102811  0.052860      4.000000
  0.101756  0.117498  0.052860      4.000000
 -0.076317  0.014687  0.052860      4.000000
 -0.050878  0.029375  0.052860      2.000000
  0.025439  0.102811  0.052860      4.000000
  0.050878  0.117498  0.052860      4.000000
  0.076317  0.132185  0.052860      4.000000
  0.101756  0.146873  0.052860      4.000000
 -0.076317  0.044062  0.052860      2.000000
  0.025439  0.132185  0.052860      4.000000
  0.050878  0.146873  0.052860      4.000000
  0.076317  0.161560  0.052860      4.000000
  0.101756  0.176247  0.052860      2.000000
  0.025439 -0.073436  0.052860      4.000000
  0.050878 -0.058749  0.052860      4.000000
  0.076317 -0.044062  0.052860      2.000000
  0.025439 -0.044062  0.052860      4.000000
  0.050878 -0.029375  0.052860      2.000000
  0.025439 -0.014687  0.052860      2.000000
  0.000000  0.000000  0.079290      2.000000
  0.025439  0.014687  0.079290      4.000000
  0.050878  0.029375  0.079290      4.000000
  0.076317  0.044062  0.079290      4.000000
  0.101756  0.058749  0.079290      4.000000
 -0.076317 -0.044062  0.079290      4.000000
 -0.050878 -0.029375  0.079290      4.000000
 -0.025439 -0.014687  0.079290      4.000000
  0.025439  0.044062  0.079290      4.000000
  0.050878  0.058749  0.079290      4.000000
  0.076317  0.073436  0.079290      4.000000
  0.101756  0.088124  0.079290      4.000000
 -0.076317 -0.014687  0.079290      4.000000
 -0.050878  0.000000  0.079290      4.000000
 -0.025439  0.014687  0.079290      2.000000
  0.025439  0.073436  0.079290      4.000000
  0.050878  0.088124  0.079290      4.000000
  0.076317  0.102811  0.079290      4.000000
  0.101756  0.117498  0.079290      4.000000
 -0.076317  0.014687  0.079290      4.000000
 -0.050878  0.029375  0.079290      2.000000
  0.025439  0.102811  0.079290      4.000000
  0.050878  0.117498  0.079290      4.000000
  0.076317  0.132185  0.079290      4.000000
  0.101756  0.146873  0.079290      4.000000
 -0.076317  0.044062  0.079290      2.000000
  0.025439  0.132185  0.079290      4.000000
  0.050878  0.146873  0.079290      4.000000
  0.076317  0.161560  0.079290      4.000000
  0.101756  0.176247  0.079290      2.000000
  0.025439 -0.073436  0.079290      4.000000
  0.050878 -0.058749  0.079290      4.000000
  0.076317 -0.044062  0.079290      2.000000
  0.025439 -0.044062  0.079290      4.000000
  0.050878 -0.029375  0.079290      2.000000
  0.025439 -0.014687  0.079290      2.000000
 
 TETIRR: Found    676 inequivalent tetrahedra from     2688


--------------------------------------------------------------------------------------------------------




 Dimension of arrays:
   k-points           NKPTS =    129   k-points in BZ     NKDIM =    129   number of bands    NBANDS=     29
   number of dos      NEDOS =    301   number of ions     NIONS =      9
   non local maximal  LDIM  =      4   non local SUM 2l+1 LMDIM =      8
   total plane-waves  NPLWV =  16128
   max r-space proj   IRMAX =   1367   max aug-charges    IRDMAX=   4970
   dimension x,y,z NGX =    24 NGY =   24 NGZ =   28
   dimension x,y,z NGXF=    48 NGYF=   48 NGZF=   56
   support grid    NGXF=    48 NGYF=   48 NGZF=   56
   ions per type =               3   6
 NGX,Y,Z   is equivalent  to a cutoff of   8.12,  8.12,  8.61 a.u.
 NGXF,Y,Z  is equivalent  to a cutoff of  16.24, 16.24, 17.22 a.u.


 I would recommend the setting:
   dimension x,y,z NGX =    24 NGY =   24 NGZ =   26
 SYSTEM =  unknown system                          
 POSCAR =  SiO2_P3221_icsd_34644                   

 Startparameter for this run:
   NWRITE =      2    write-flag & timer
   PREC   = normal    normal or accurate (medium, high low for compatibility)
   ISTART =      0    job   : 0-new  1-cont  2-samecut
   ICHARG =      2    charge: 1-file 2-atom 10-const
   ISPIN  =      1    spin polarized calculation?
   LNONCOLLINEAR =      F non collinear calculations
   LSORBIT =      F    spin-orbit coupling
   INIWAV =      1    electr: 0-lowe 1-rand  2-diag
   LASPH  =      F    aspherical Exc in radial PAW
   METAGGA=      F    non-selfconsistent MetaGGA calc.

 Electronic Relaxation 1
   ENCUT  =  400.0 eV  29.40 Ry    5.42 a.u.   8.01  8.01  8.81*2*pi/ulx,y,z
   ENINI  =  400.0     initial cutoff
   ENAUG  =  605.4 eV  augmentation charge cutoff
   NELM   =     60;   NELMIN=  4; NELMDL= -5     # of ELM steps 
   EDIFF  = 0.1E-04   stopping-criterion for ELM
   LREAL  =      T    real-space projection
   NLSPLINE    = F    spline interpolate recip. space projectors
   LCOMPAT=      F    compatible to vasp.4.4
   GGA_COMPAT  = T    GGA compatible to vasp.4.4-vasp.4.6
   LMAXPAW     = -100 max onsite density
   LMAXMIX     =    2 max onsite mixed and CHGCAR
   VOSKOWN=      0    Vosko Wilk Nusair interpolation
   ROPT   =   -0.00050  -0.00050
 Ionic relaxation
   EDIFFG = 0.1E-03   stopping-criterion for IOM
   NSW    =      0    number of steps for IOM
   NBLOCK =      1;   KBLOCK =      1    inner block; outer block 
   IBRION =     -1    ionic relax: 0-MD 1-quasi-New 2-CG
   NFREE  =      0    steps in history (QN), initial steepest desc. (CG)
   ISIF   =      2    stress and relaxation
   IWAVPR =     10    prediction:  0-non 1-charg 2-wave 3-comb
   ISYM   =      2    0-nonsym 1-usesym 2-fastsym
   LCORR  =      T    Harris-Foulkes like correction to forces

   POTIM  = 0.5000    time-step for ionic-motion
   TEIN   =    0.0    initial temperature
   TEBEG  =    0.0;   TEEND  =   0.0 temperature during run
   SMASS  =  -3.00    Nose mass-parameter (am)
   estimated Nose-frequenzy (Omega)   =  0.10E-29 period in steps =****** mass=  -0.552E-27a.u.
   SCALEE = 1.0000    scale energy and forces
   NPACO  =    256;   APACO  = 16.0  distance and # of slots for P.C.
   PSTRESS=    0.0 pullay stress

  Mass of Ions in am
   POMASS =  28.09 16.00
  Ionic Valenz
   ZVAL   =   4.00  6.00
  Atomic Wigner-Seitz radii
   RWIGS  =  -1.00 -1.00
  virtual crystal weights 
   VCA    =   1.00  1.00
   NELECT =      48.0000    total number of electrons
   NUPDOWN=      -1.0000    fix difference up-down

 DOS related values:
   EMIN   =  10.00;   EMAX   =-10.00  energy-range for DOS
   EFERMI =   0.00
   ISMEAR =    -5;   SIGMA  =   0.20  broadening in eV -4-tet -1-fermi 0-gaus

 Electronic relaxation 2 (details)
   IALGO  =     68    algorithm
   LDIAG  =      T    sub-space diagonalisation (order eigenvalues)
   LSUBROT=      F    optimize rotation matrix (better conditioning)
   TURBO    =      0    0=normal 1=particle mesh
   IRESTART =      0    0=no restart 2=restart with 2 vectors
   NREBOOT  =      0    no. of reboots
   NMIN     =      0    reboot dimension
   EREF     =   0.00    reference energy to select bands
   IMIX   =      4    mixing-type and parameters
     AMIX     =   0.40;   BMIX     =  1.00
     AMIX_MAG =   1.60;   BMIX_MAG =  1.00
     AMIN     =   0.10
     WC   =   100.;   INIMIX=   1;  MIXPRE=   1;  MAXMIX= -45

 Intra band minimization:
   WEIMIN = 0.0000     energy-eigenvalue tresh-hold
   EBREAK =  0.86E-07  absolut break condition
   DEPER  =   0.30     relativ break condition  

   TIME   =   0.40     timestep for ELM

  volume/ion in A,a.u.               =      12.56        84.74
  Fermi-wavevector in a.u.,A,eV,Ry     =   1.230563  2.325427 20.603106  1.514286
  Thomas-Fermi vector in A             =   2.365407
 
 Write flags
   LWAVE  =      F    write WAVECAR
   LCHARG =      T    write CHGCAR
   LVTOT  =      F    write LOCPOT, total local potential
   LVHAR  =      F    write LOCPOT, Hartree potential only
   LELF   =      F    write electronic localiz. function (ELF)
   LORBIT =      0    0 simple, 1 ext, 2 COOP (PROOUT)


 Dipole corrections
   LMONO  =      F    monopole corrections only (constant potential shift)
   LDIPOL =      F    correct potential (dipole corrections)
   IDIPOL =      0    1-x, 2-y, 3-z, 4-all directions 
   EPSILON=  1.0000000 bulk dielectric constant

 Exchange correlation treatment:
   GGA     =    --    GGA type
   LEXCH   =     8    internal setting for exchange type
   VOSKOWN=      0    Vosko Wilk Nusair interpolation
   LHFCALC =     F    Hartree Fock is set to
   LHFONE  =     F    Hartree Fock one center treatment
   AEXX    =    0.0000 exact exchange contribution

 Linear response parameters
   LEPSILON=     F    determine dielectric tensor
   LRPA    =     F    only Hartree local field effects (RPA)
   LNABLA  =     F    use nabla operator in PAW spheres
   LVEL    =     F    velocity operator in full k-point grid
   LINTERFAST=   F  fast interpolation
   KINTER  =     0    interpolate to denser k-point grid
   CSHIFT  =0.1000    complex shift for real part using Kramers Kronig
   OMEGAMAX=  -1.0    maximum frequency
   DEG_THRESHOLD= 0.2000000E-02 threshold for treating states as degnerate
   RTIME   =    0.100 relaxation time in fs

 Orbital magnetization related:
   ORBITALMAG=     F  switch on orbital magnetization
   LCHIMAG   =     F  perturbation theory with respect to B field
   DQ        =  0.001000  dq finite difference perturbation B field



--------------------------------------------------------------------------------------------------------


 Static calculation
 charge density and potential will be updated during run
 non-spin polarized calculation
 RMM-DIIS sequential band-by-band and
  variant of blocked Davidson during initial phase
 perform sub-space diagonalisation
    before iterative eigenvector-optimisation
 modified Broyden-mixing scheme, WC =      100.0
 initial mixing is a Kerker type mixing with AMIX =  0.4000 and BMIX =      1.0000
 Hartree-type preconditioning will be used
 using additional bands            5
 real space projection scheme for non local part
 use partial core corrections
 calculate Harris-corrections to forces 
   (improved forces if not selfconsistent)
 use gradient corrections 
 use of overlap-Matrix (Vanderbilt PP)
 Fermi weights with tetrahedron method with Bloechl corrections


--------------------------------------------------------------------------------------------------------


  energy-cutoff  :      400.00
  volume of cell :      113.02
      direct lattice vectors                 reciprocal lattice vectors
     4.913700000  0.000000000  0.000000000     0.203512628  0.117498070  0.000000000
    -2.456850000  4.255389030  0.000000000     0.000000000  0.234996141  0.000000000
     0.000000000  0.000000000  5.405130000     0.000000000  0.000000000  0.185009426

  length of vectors
     4.913700000  4.913700003  5.405130000     0.234996141  0.234996141  0.185009426


 
 k-points in units of 2pi/SCALE and weight: k-density: 6.0                          
   0.00000000  0.00000000  0.00000000       0.002
   0.02543908  0.01468726  0.00000000       0.009
   0.05087816  0.02937452  0.00000000       0.009
   0.07631724  0.04406178  0.00000000       0.009
   0.10175631  0.05874904  0.00000000       0.004
   0.02543908  0.04406178  0.00000000       0.004
   0.05087816  0.05874904  0.00000000       0.009
   0.07631724  0.07343629  0.00000000       0.009
   0.10175631  0.08812355  0.00000000       0.009
  -0.07631724 -0.01468726  0.00000000       0.009
  -0.05087816  0.00000000  0.00000000       0.009
  -0.02543908  0.01468726  0.00000000       0.004
   0.05087816  0.08812355  0.00000000       0.004
   0.07631724  0.10281081  0.00000000       0.009
   0.10175631  0.11749807  0.00000000       0.009
  -0.07631724  0.01468726  0.00000000       0.009
  -0.05087816  0.02937452  0.00000000       0.004
   0.07631724  0.13218533  0.00000000       0.004
   0.10175631  0.14687259  0.00000000       0.009
  -0.07631724  0.04406178  0.00000000       0.004
   0.10175631  0.17624711  0.00000000       0.002
   0.00000000  0.00000000  0.02642992       0.004
   0.02543908  0.01468726  0.02642992       0.009
   0.05087816  0.02937452  0.02642992       0.009
   0.07631724  0.04406178  0.02642992       0.009
   0.10175631  0.05874904  0.02642992       0.009
  -0.07631724 -0.04406178  0.02642992       0.009
  -0.05087816 -0.02937452  0.02642992       0.009
  -0.02543908 -0.01468726  0.02642992       0.009
   0.02543908  0.04406178  0.02642992       0.009
   0.05087816  0.05874904  0.02642992       0.009
   0.07631724  0.07343629  0.02642992       0.009
   0.10175631  0.08812355  0.02642992       0.009
  -0.07631724 -0.01468726  0.02642992       0.009
  -0.05087816  0.00000000  0.02642992       0.009
  -0.02543908  0.01468726  0.02642992       0.004
   0.02543908  0.07343629  0.02642992       0.009
   0.05087816  0.08812355  0.02642992       0.009
   0.07631724  0.10281081  0.02642992       0.009
   0.10175631  0.11749807  0.02642992       0.009
  -0.07631724  0.01468726  0.02642992       0.009
  -0.05087816  0.02937452  0.02642992       0.004
   0.02543908  0.10281081  0.02642992       0.009
   0.05087816  0.11749807  0.02642992       0.009
   0.07631724  0.13218533  0.02642992       0.009
   0.10175631  0.14687259  0.02642992       0.009
  -0.07631724  0.04406178  0.02642992       0.004
   0.02543908  0.13218533  0.02642992       0.009
   0.05087816  0.14687259  0.02642992       0.009
   0.07631724  0.16155985  0.02642992       0.009
   0.10175631  0.17624711  0.02642992       0.004
   0.02543908 -0.07343629  0.02642992       0.009
   0.05087816 -0.05874904  0.02642992       0.009
   0.07631724 -0.04406178  0.02642992       0.004
   0.02543908 -0.04406178  0.02642992       0.009
   0.05087816 -0.02937452  0.02642992       0.004
   0.02543908 -0.01468726  0.02642992       0.004
   0.00000000  0.00000000  0.05285984       0.004
   0.02543908  0.01468726  0.05285984       0.009
   0.05087816  0.02937452  0.05285984       0.009
   0.07631724  0.04406178  0.05285984       0.009
   0.10175631  0.05874904  0.05285984       0.009
  -0.07631724 -0.04406178  0.05285984       0.009
  -0.05087816 -0.02937452  0.05285984       0.009
  -0.02543908 -0.01468726  0.05285984       0.009
   0.02543908  0.04406178  0.05285984       0.009
   0.05087816  0.05874904  0.05285984       0.009
   0.07631724  0.07343629  0.05285984       0.009
   0.10175631  0.08812355  0.05285984       0.009
  -0.07631724 -0.01468726  0.05285984       0.009
  -0.05087816  0.00000000  0.05285984       0.009
  -0.02543908  0.01468726  0.05285984       0.004
   0.02543908  0.07343629  0.05285984       0.009
   0.05087816  0.08812355  0.05285984       0.009
   0.07631724  0.10281081  0.05285984       0.009
   0.10175631  0.11749807  0.05285984       0.009
  -0.07631724  0.01468726  0.05285984       0.009
  -0.05087816  0.02937452  0.05285984       0.004
   0.02543908  0.10281081  0.05285984       0.009
   0.05087816  0.11749807  0.05285984       0.009
   0.07631724  0.13218533  0.05285984       0.009
   0.10175631  0.14687259  0.05285984       0.009
  -0.07631724  0.04406178  0.05285984       0.004
   0.02543908  0.13218533  0.05285984       0.009
   0.05087816  0.14687259  0.05285984       0.009
   0.07631724  0.16155985  0.05285984       0.009
   0.10175631  0.17624711  0.05285984       0.004
   0.02543908 -0.07343629  0.05285984       0.009
   0.05087816 -0.05874904  0.05285984       0.009
   0.07631724 -0.04406178  0.05285984       0.004
   0.02543908 -0.04406178  0.05285984       0.009
   0.05087816 -0.02937452  0.05285984       0.004
   0.02543908 -0.01468726  0.05285984       0.004
   0.00000000  0.00000000  0.07928975       0.004
   0.02543908  0.01468726  0.07928975       0.009
   0.05087816  0.02937452  0.07928975       0.009
   0.07631724  0.04406178  0.07928975       0.009
   0.10175631  0.05874904  0.07928975       0.009
  -0.07631724 -0.04406178  0.07928975       0.009
  -0.05087816 -0.02937452  0.07928975       0.009
  -0.02543908 -0.01468726  0.07928975       0.009
   0.02543908  0.04406178  0.07928975       0.009
   0.05087816  0.05874904  0.07928975       0.009
   0.07631724  0.07343629  0.07928975       0.009
   0.10175631  0.08812355  0.07928975       0.009
  -0.07631724 -0.01468726  0.07928975       0.009
  -0.05087816  0.00000000  0.07928975       0.009
  -0.02543908  0.01468726  0.07928975       0.004
   0.02543908  0.07343629  0.07928975       0.009
   0.05087816  0.08812355  0.07928975       0.009
   0.07631724  0.10281081  0.07928975       0.009
   0.10175631  0.11749807  0.07928975       0.009
  -0.07631724  0.01468726  0.07928975       0.009
  -0.05087816  0.02937452  0.07928975       0.004
   0.02543908  0.10281081  0.07928975       0.009
   0.05087816  0.11749807  0.07928975       0.009
   0.07631724  0.13218533  0.07928975       0.009
   0.10175631  0.14687259  0.07928975       0.009
  -0.07631724  0.04406178  0.07928975       0.004
   0.02543908  0.13218533  0.07928975       0.009
   0.05087816  0.14687259  0.07928975       0.009
   0.07631724  0.16155985  0.07928975       0.009
   0.10175631  0.17624711  0.07928975       0.004
   0.02543908 -0.07343629  0.07928975       0.009
   0.05087816 -0.05874904  0.07928975       0.009
   0.07631724 -0.04406178  0.07928975       0.004
   0.02543908 -0.04406178  0.07928975       0.009
   0.05087816 -0.02937452  0.07928975       0.004
   0.02543908 -0.01468726  0.07928975       0.004
 
 k-points in reciprocal lattice and weights: k-density: 6.0                          
   0.00000000  0.00000000  0.00000000       0.002
   0.12500000  0.00000000  0.00000000       0.009
   0.25000000  0.00000000  0.00000000       0.009
   0.37500000  0.00000000  0.00000000       0.009
   0.50000000  0.00000000  0.00000000       0.004
   0.12500000  0.12500000  0.00000000       0.004
   0.25000000  0.12500000  0.00000000       0.009
   0.37500000  0.12500000  0.00000000       0.009
   0.50000000  0.12500000  0.00000000       0.009
  -0.37500000  0.12500000  0.00000000       0.009
  -0.25000000  0.12500000  0.00000000       0.009
  -0.12500000  0.12500000  0.00000000       0.004
   0.25000000  0.25000000  0.00000000       0.004
   0.37500000  0.25000000  0.00000000       0.009
   0.50000000  0.25000000  0.00000000       0.009
  -0.37500000  0.25000000  0.00000000       0.009
  -0.25000000  0.25000000  0.00000000       0.004
   0.37500000  0.37500000  0.00000000       0.004
   0.50000000  0.37500000  0.00000000       0.009
  -0.37500000  0.37500000  0.00000000       0.004
   0.50000000  0.50000000  0.00000000       0.002
   0.00000000  0.00000000  0.14285714       0.004
   0.12500000  0.00000000  0.14285714       0.009
   0.25000000  0.00000000  0.14285714       0.009
   0.37500000  0.00000000  0.14285714       0.009
   0.50000000  0.00000000  0.14285714       0.009
  -0.37500000 -0.00000000  0.14285714       0.009
  -0.25000000 -0.00000000  0.14285714       0.009
  -0.12500000 -0.00000000  0.14285714       0.009
   0.12500000  0.12500000  0.14285714       0.009
   0.25000000  0.12500000  0.14285714       0.009
   0.37500000  0.12500000  0.14285714       0.009
   0.50000000  0.12500000  0.14285714       0.009
  -0.37500000  0.12500000  0.14285714       0.009
  -0.25000000  0.12500000  0.14285714       0.009
  -0.12500000  0.12500000  0.14285714       0.004
   0.12500000  0.25000000  0.14285714       0.009
   0.25000000  0.25000000  0.14285714       0.009
   0.37500000  0.25000000  0.14285714       0.009
   0.50000000  0.25000000  0.14285714       0.009
  -0.37500000  0.25000000  0.14285714       0.009
  -0.25000000  0.25000000  0.14285714       0.004
   0.12500000  0.37500000  0.14285714       0.009
   0.25000000  0.37500000  0.14285714       0.009
   0.37500000  0.37500000  0.14285714       0.009
   0.50000000  0.37500000  0.14285714       0.009
  -0.37500000  0.37500000  0.14285714       0.004
   0.12500000  0.50000000  0.14285714       0.009
   0.25000000  0.50000000  0.14285714       0.009
   0.37500000  0.50000000  0.14285714       0.009
   0.50000000  0.50000000  0.14285714       0.004
   0.12500000 -0.37500000  0.14285714       0.009
   0.25000000 -0.37500000  0.14285714       0.009
   0.37500000 -0.37500000  0.14285714       0.004
   0.12500000 -0.25000000  0.14285714       0.009
   0.25000000 -0.25000000  0.14285714       0.004
   0.12500000 -0.12500000  0.14285714       0.004
   0.00000000  0.00000000  0.28571429       0.004
   0.12500000  0.00000000  0.28571429       0.009
   0.25000000  0.00000000  0.28571429       0.009
   0.37500000  0.00000000  0.28571429       0.009
   0.50000000  0.00000000  0.28571429       0.009
  -0.37500000 -0.00000000  0.28571429       0.009
  -0.25000000 -0.00000000  0.28571429       0.009
  -0.12500000 -0.00000000  0.28571429       0.009
   0.12500000  0.12500000  0.28571429       0.009
   0.25000000  0.12500000  0.28571429       0.009
   0.37500000  0.12500000  0.28571429       0.009
   0.50000000  0.12500000  0.28571429       0.009
  -0.37500000  0.12500000  0.28571429       0.009
  -0.25000000  0.12500000  0.28571429       0.009
  -0.12500000  0.12500000  0.28571429       0.004
   0.12500000  0.25000000  0.28571429       0.009
   0.25000000  0.25000000  0.28571429       0.009
   0.37500000  0.25000000  0.28571429       0.009
   0.50000000  0.25000000  0.28571429       0.009
  -0.37500000  0.25000000  0.28571429       0.009
  -0.25000000  0.25000000  0.28571429       0.004
   0.12500000  0.37500000  0.28571429       0.009
   0.25000000  0.37500000  0.28571429       0.009
   0.37500000  0.37500000  0.28571429       0.009
   0.50000000  0.37500000  0.28571429       0.009
  -0.37500000  0.37500000  0.28571429       0.004
   0.12500000  0.50000000  0.28571429       0.009
   0.25000000  0.50000000  0.28571429       0.009
   0.37500000  0.50000000  0.28571429       0.009
   0.50000000  0.50000000  0.28571429       0.004
   0.12500000 -0.37500000  0.28571429       0.009
   0.25000000 -0.37500000  0.28571429       0.009
   0.37500000 -0.37500000  0.28571429       0.004
   0.12500000 -0.25000000  0.28571429       0.009
   0.25000000 -0.25000000  0.28571429       0.004
   0.12500000 -0.12500000  0.28571429       0.004
   0.00000000  0.00000000  0.42857143       0.004
   0.12500000  0.00000000  0.42857143       0.009
   0.25000000  0.00000000  0.42857143       0.009
   0.37500000  0.00000000  0.42857143       0.009
   0.50000000  0.00000000  0.42857143       0.009
  -0.37500000 -0.00000000  0.42857143       0.009
  -0.25000000 -0.00000000  0.42857143       0.009
  -0.12500000 -0.00000000  0.42857143       0.009
   0.12500000  0.12500000  0.42857143       0.009
   0.25000000  0.12500000  0.42857143       0.009
   0.37500000  0.12500000  0.42857143       0.009
   0.50000000  0.12500000  0.42857143       0.009
  -0.37500000  0.12500000  0.42857143       0.009
  -0.25000000  0.12500000  0.42857143       0.009
  -0.12500000  0.12500000  0.42857143       0.004
   0.12500000  0.25000000  0.42857143       0.009
   0.25000000  0.25000000  0.42857143       0.009
   0.37500000  0.25000000  0.42857143       0.009
   0.50000000  0.25000000  0.42857143       0.009
  -0.37500000  0.25000000  0.42857143       0.009
  -0.25000000  0.25000000  0.42857143       0.004
   0.12500000  0.37500000  0.42857143       0.009
   0.25000000  0.37500000  0.42857143       0.009
   0.37500000  0.37500000  0.42857143       0.009
   0.50000000  0.37500000  0.42857143       0.009
  -0.37500000  0.37500000  0.42857143       0.004
   0.12500000  0.50000000  0.42857143       0.009
   0.25000000  0.50000000  0.42857143       0.009
   0.37500000  0.50000000  0.42857143       0.009
   0.50000000  0.50000000  0.42857143       0.004
   0.12500000 -0.37500000  0.42857143       0.009
   0.25000000 -0.37500000  0.42857143       0.009
   0.37500000 -0.37500000  0.42857143       0.004
   0.12500000 -0.25000000  0.42857143       0.009
   0.25000000 -0.25000000  0.42857143       0.004
   0.12500000 -0.12500000  0.42857143       0.004
 
 position of ions in fractional coordinates (direct lattice) 
   0.46980000  0.00000000  0.66667000
   0.00000000  0.46980000  0.33333000
   0.53020000  0.53020000  0.00000000
   0.41450000  0.26620000  0.78560000
   0.73380000  0.14830000  0.45227000
   0.85170000  0.58550000  0.11893000
   0.14830000  0.73380000  0.54773000
   0.26620000  0.41450000  0.21440000
   0.58550000  0.85170000  0.88107000
 
 position of ions in cartesian coordinates  (Angst):
   2.30845626  0.00000000  3.60343802
  -1.15422813  1.99918177  1.80169198
   1.30262187  2.25620726  0.00000000
   1.38271518  1.13278456  4.24627013
   3.24132221  0.63107419  2.44457815
   2.74651261  2.49153028  0.64283211
  -1.07413482  3.12260447  2.96055185
   0.28966261  1.76385875  1.15885987
   0.78447221  3.62431484  4.76229789
 


--------------------------------------------------------------------------------------------------------


 k-point  1 :   0.0000 0.0000 0.0000  plane waves:    2009
 k-point  2 :   0.1250 0.0000 0.0000  plane waves:    2036
 k-point  3 :   0.2500 0.0000 0.0000  plane waves:    2050
 k-point  4 :   0.3750 0.0000 0.0000  plane waves:    2054
 k-point  5 :   0.5000 0.0000 0.0000  plane waves:    2058
 k-point  6 :   0.1250 0.1250 0.0000  plane waves:    2040
 k-point  7 :   0.2500 0.1250 0.0000  plane waves:    2050
 k-point  8 :   0.3750 0.1250 0.0000  plane waves:    2059
 k-point  9 :   0.5000 0.1250 0.0000  plane waves:    2059
 k-point 10 :  -0.3750 0.1250 0.0000  plane waves:    2050
 k-point 11 :  -0.2500 0.1250 0.0000  plane waves:    2040
 k-point 12 :  -0.1250 0.1250 0.0000  plane waves:    2036
 k-point 13 :   0.2500 0.2500 0.0000  plane waves:    2064
 k-point 14 :   0.3750 0.2500 0.0000  plane waves:    2070
 k-point 15 :   0.5000 0.2500 0.0000  plane waves:    2064
 k-point 16 :  -0.3750 0.2500 0.0000  plane waves:    2050
 k-point 17 :  -0.2500 0.2500 0.0000  plane waves:    2050
 k-point 18 :   0.3750 0.3750 0.0000  plane waves:    2070
 k-point 19 :   0.5000 0.3750 0.0000  plane waves:    2059
 k-point 20 :  -0.3750 0.3750 0.0000  plane waves:    2054
 k-point 21 :   0.5000 0.5000 0.0000  plane waves:    2058
 k-point 22 :   0.0000 0.0000 0.1429  plane waves:    2033
 k-point 23 :   0.1250 0.0000 0.1429  plane waves:    2040
 k-point 24 :   0.2500 0.0000 0.1429  plane waves:    2042
 k-point 25 :   0.3750 0.0000 0.1429  plane waves:    2054
 k-point 26 :   0.5000 0.0000 0.1429  plane waves:    2062
 k-point 27 :  -0.3750-0.0000 0.1429  plane waves:    2054
 k-point 28 :  -0.2500-0.0000 0.1429  plane waves:    2042
 k-point 29 :  -0.1250-0.0000 0.1429  plane waves:    2040
 k-point 30 :   0.1250 0.1250 0.1429  plane waves:    2041
 k-point 31 :   0.2500 0.1250 0.1429  plane waves:    2054
 k-point 32 :   0.3750 0.1250 0.1429  plane waves:    2054
 k-point 33 :   0.5000 0.1250 0.1429  plane waves:    2054
 k-point 34 :  -0.3750 0.1250 0.1429  plane waves:    2054
 k-point 35 :  -0.2500 0.1250 0.1429  plane waves:    2041
 k-point 36 :  -0.1250 0.1250 0.1429  plane waves:    2040
 k-point 37 :   0.1250 0.2500 0.1429  plane waves:    2054
 k-point 38 :   0.2500 0.2500 0.1429  plane waves:    2056
 k-point 39 :   0.3750 0.2500 0.1429  plane waves:    2066
 k-point 40 :   0.5000 0.2500 0.1429  plane waves:    2056
 k-point 41 :  -0.3750 0.2500 0.1429  plane waves:    2054
 k-point 42 :  -0.2500 0.2500 0.1429  plane waves:    2042
 k-point 43 :   0.1250 0.3750 0.1429  plane waves:    2054
 k-point 44 :   0.2500 0.3750 0.1429  plane waves:    2066
 k-point 45 :   0.3750 0.3750 0.1429  plane waves:    2066
 k-point 46 :   0.5000 0.3750 0.1429  plane waves:    2054
 k-point 47 :  -0.3750 0.3750 0.1429  plane waves:    2054
 k-point 48 :   0.1250 0.5000 0.1429  plane waves:    2054
 k-point 49 :   0.2500 0.5000 0.1429  plane waves:    2056
 k-point 50 :   0.3750 0.5000 0.1429  plane waves:    2054
 k-point 51 :   0.5000 0.5000 0.1429  plane waves:    2062
 k-point 52 :   0.1250-0.3750 0.1429  plane waves:    2054
 k-point 53 :   0.2500-0.3750 0.1429  plane waves:    2054
 k-point 54 :   0.3750-0.3750 0.1429  plane waves:    2054
 k-point 55 :   0.1250-0.2500 0.1429  plane waves:    2041
 k-point 56 :   0.2500-0.2500 0.1429  plane waves:    2042
 k-point 57 :   0.1250-0.1250 0.1429  plane waves:    2040
 k-point 58 :   0.0000 0.0000 0.2857  plane waves:    2016
 k-point 59 :   0.1250 0.0000 0.2857  plane waves:    2035
 k-point 60 :   0.2500 0.0000 0.2857  plane waves:    2047
 k-point 61 :   0.3750 0.0000 0.2857  plane waves:    2054
 k-point 62 :   0.5000 0.0000 0.2857  plane waves:    2062
 k-point 63 :  -0.3750-0.0000 0.2857  plane waves:    2054
 k-point 64 :  -0.2500-0.0000 0.2857  plane waves:    2047
 k-point 65 :  -0.1250-0.0000 0.2857  plane waves:    2035
 k-point 66 :   0.1250 0.1250 0.2857  plane waves:    2048
 k-point 67 :   0.2500 0.1250 0.2857  plane waves:    2056
 k-point 68 :   0.3750 0.1250 0.2857  plane waves:    2058
 k-point 69 :   0.5000 0.1250 0.2857  plane waves:    2058
 k-point 70 :  -0.3750 0.1250 0.2857  plane waves:    2056
 k-point 71 :  -0.2500 0.1250 0.2857  plane waves:    2048
 k-point 72 :  -0.1250 0.1250 0.2857  plane waves:    2035
 k-point 73 :   0.1250 0.2500 0.2857  plane waves:    2056
 k-point 74 :   0.2500 0.2500 0.2857  plane waves:    2052
 k-point 75 :   0.3750 0.2500 0.2857  plane waves:    2052
 k-point 76 :   0.5000 0.2500 0.2857  plane waves:    2052
 k-point 77 :  -0.3750 0.2500 0.2857  plane waves:    2056
 k-point 78 :  -0.2500 0.2500 0.2857  plane waves:    2047
 k-point 79 :   0.1250 0.3750 0.2857  plane waves:    2058
 k-point 80 :   0.2500 0.3750 0.2857  plane waves:    2052
 k-point 81 :   0.3750 0.3750 0.2857  plane waves:    2052
 k-point 82 :   0.5000 0.3750 0.2857  plane waves:    2058
 k-point 83 :  -0.3750 0.3750 0.2857  plane waves:    2054
 k-point 84 :   0.1250 0.5000 0.2857  plane waves:    2058
 k-point 85 :   0.2500 0.5000 0.2857  plane waves:    2052
 k-point 86 :   0.3750 0.5000 0.2857  plane waves:    2058
 k-point 87 :   0.5000 0.5000 0.2857  plane waves:    2062
 k-point 88 :   0.1250-0.3750 0.2857  plane waves:    2056
 k-point 89 :   0.2500-0.3750 0.2857  plane waves:    2056
 k-point 90 :   0.3750-0.3750 0.2857  plane waves:    2054
 k-point 91 :   0.1250-0.2500 0.2857  plane waves:    2048
 k-point 92 :   0.2500-0.2500 0.2857  plane waves:    2047
 k-point 93 :   0.1250-0.1250 0.2857  plane waves:    2035
 k-point 94 :   0.0000 0.0000 0.4286  plane waves:    2046
 k-point 95 :   0.1250 0.0000 0.4286  plane waves:    2047
 k-point 96 :   0.2500 0.0000 0.4286  plane waves:    2051
 k-point 97 :   0.3750 0.0000 0.4286  plane waves:    2054
 k-point 98 :   0.5000 0.0000 0.4286  plane waves:    2048
 k-point 99 :  -0.3750-0.0000 0.4286  plane waves:    2054
 k-point ** :  -0.2500-0.0000 0.4286  plane waves:    2051
 k-point ** :  -0.1250-0.0000 0.4286  plane waves:    2047
 k-point ** :   0.1250 0.1250 0.4286  plane waves:    2055
 k-point ** :   0.2500 0.1250 0.4286  plane waves:    2060
 k-point ** :   0.3750 0.1250 0.4286  plane waves:    2053
 k-point ** :   0.5000 0.1250 0.4286  plane waves:    2053
 k-point ** :  -0.3750 0.1250 0.4286  plane waves:    2060
 k-point ** :  -0.2500 0.1250 0.4286  plane waves:    2055
 k-point ** :  -0.1250 0.1250 0.4286  plane waves:    2047
 k-point ** :   0.1250 0.2500 0.4286  plane waves:    2060
 k-point ** :   0.2500 0.2500 0.4286  plane waves:    2062
 k-point ** :   0.3750 0.2500 0.4286  plane waves:    2050
 k-point ** :   0.5000 0.2500 0.4286  plane waves:    2062
 k-point ** :  -0.3750 0.2500 0.4286  plane waves:    2060
 k-point ** :  -0.2500 0.2500 0.4286  plane waves:    2051
 k-point ** :   0.1250 0.3750 0.4286  plane waves:    2053
 k-point ** :   0.2500 0.3750 0.4286  plane waves:    2050
 k-point ** :   0.3750 0.3750 0.4286  plane waves:    2050
 k-point ** :   0.5000 0.3750 0.4286  plane waves:    2053
 k-point ** :  -0.3750 0.3750 0.4286  plane waves:    2054
 k-point ** :   0.1250 0.5000 0.4286  plane waves:    2053
 k-point ** :   0.2500 0.5000 0.4286  plane waves:    2062
 k-point ** :   0.3750 0.5000 0.4286  plane waves:    2053
 k-point ** :   0.5000 0.5000 0.4286  plane waves:    2048
 k-point ** :   0.1250-0.3750 0.4286  plane waves:    2060
 k-point ** :   0.2500-0.3750 0.4286  plane waves:    2060
 k-point ** :   0.3750-0.3750 0.4286  plane waves:    2054
 k-point ** :   0.1250-0.2500 0.4286  plane waves:    2055
 k-point ** :   0.2500-0.2500 0.4286  plane waves:    2051
 k-point ** :   0.1250-0.1250 0.4286  plane waves:    2047

 maximum and minimum number of plane-waves per node :      2070     2009

 maximum number of plane-waves:      2070
 maximum index in each direction: 
   IXMAX=    8   IYMAX=    8   IZMAX=    8
   IXMIN=   -8   IYMIN=   -8   IZMIN=   -9

 WARNING: aliasing errors must be expected set NGX to  34 to avoid them
 WARNING: aliasing errors must be expected set NGY to  34 to avoid them
 WARNING: aliasing errors must be expected set NGZ to  36 to avoid them
 aliasing errors are usually negligible using standard VASP settings
 and one can safely disregard these warnings

 serial   3D FFT for wavefunctions
 parallel 3D FFT for charge:
    minimum data exchange during FFTs selected (reduces bandwidth)


 total amount of memory used by VASP on root node   171818. kBytes
========================================================================

   base      :      30000. kBytes
   nonlr-proj:        968. kBytes
   fftplans  :       4548. kBytes
   grid      :       8064. kBytes
   one-center:         27. kBytes
   wavefun   :     128211. kBytes
 
     INWAV:  cpu time    0.0010: real time    0.0002
 Broyden mixing: mesh for mixing (old mesh)
   NGX = 17   NGY = 17   NGZ = 17
  (NGX  = 48   NGY  = 48   NGZ  = 56)
  gives a total of   4913 points

 initial charge density was supplied:
 charge density of overlapping atoms calculated
 number of electron      48.0000000 magnetization 
 keeping initial charge density in first step


--------------------------------------------------------------------------------------------------------


 Maximum index for non-local projection operator         1282
 Maximum index for augmentation-charges         4640 (set IRDMAX)


--------------------------------------------------------------------------------------------------------


 First call to EWALD:  gamma=   0.367
 Maximum number of real-space cells 3x 3x 3
 Maximum number of reciprocal cells 3x 3x 3

 FEWALD executed in parallel
    FEWALD:  cpu time    0.0020: real time    0.0018


----------------------------------------- Iteration    1(   1)  ---------------------------------------


    POTLOK:  cpu time    0.0690: real time    0.0690
    SETDIJ:  cpu time    0.0130: real time    0.0123
     EDDAV:  cpu time   10.3304: real time   10.3284
 BZINTS: Fermi energy: 16.147617; 48.000000 electrons
         Band energy: -59.414990;  BLOECHL correction: -0.163427
       DOS:  cpu time    0.0440: real time    0.0442
    --------------------------------------------
      LOOP:  cpu time   10.4594: real time   10.4867

 eigenvalue-minimisations  :  7586
 total energy-change (2. order) : 0.2724333E+03  (-0.2261754E+04)
 number of electron      48.0000000 magnetization 
 augmentation part       48.0000000 magnetization 

 Free energy of the ion-electron system (eV)
  ---------------------------------------------------
  alpha Z        PSCENC =        69.72802778
  Ewald energy   TEWEN  =     -1887.20590689
  -Hartree energ DENC   =      -937.14514242
  -exchange      EXHF   =         0.00000000
  -V(xc)+E(xc)   XCENC  =       142.01294050
  PAW double counting   =      1574.92322788    -1533.24131965
  entropy T*S    EENTRO =         0.00000000
  eigenvalues    EBANDS =       -59.41498984
  atomic energy  EATOM  =      2902.77641490
  Solvation  Ediel_sol  =         0.00000000
  ---------------------------------------------------
  free energy    TOTEN  =       272.43325226 eV

  energy without entropy =      272.43325226  energy(sigma->0) =      272.43325226


--------------------------------------------------------------------------------------------------------




----------------------------------------- Iteration    1(   2)  ---------------------------------------


     EDDAV:  cpu time   12.4131: real time   12.4099
 BZINTS: Fermi energy: -0.434555; 48.000000 electrons
         Band energy:-395.028061;  BLOECHL correction:  0.000000
       DOS:  cpu time    0.0110: real time    0.0112
    --------------------------------------------
      LOOP:  cpu time   12.4251: real time   12.4258

 eigenvalue-minimisations  :  9831
 total energy-change (2. order) :-0.3356131E+03  (-0.3284732E+03)
 number of electron      48.0000000 magnetization 
 augmentation part       48.0000000 magnetization 

 Free energy of the ion-electron system (eV)
  ---------------------------------------------------
  alpha Z        PSCENC =        69.72802778
  Ewald energy   TEWEN  =     -1887.20590689
  -Hartree energ DENC   =      -937.14514242
  -exchange      EXHF   =         0.00000000
  -V(xc)+E(xc)   XCENC  =       142.01294050
  PAW double counting   =      1574.92322788    -1533.24131965
  entropy T*S    EENTRO =         0.00000000
  eigenvalues    EBANDS =      -395.02806063
  atomic energy  EATOM  =      2902.77641490
  Solvation  Ediel_sol  =         0.00000000
  ---------------------------------------------------
  free energy    TOTEN  =       -63.17981853 eV

  energy without entropy =      -63.17981853  energy(sigma->0) =      -63.17981853


--------------------------------------------------------------------------------------------------------




----------------------------------------- Iteration    1(   3)  ---------------------------------------


     EDDAV:  cpu time   11.2373: real time   11.2359
 BZINTS: Fermi energy: -2.100101; 48.000000 electrons
         Band energy:-412.190746;  BLOECHL correction:  0.000000
       DOS:  cpu time    0.0070: real time    0.0070
    --------------------------------------------
      LOOP:  cpu time   11.2463: real time   11.2490

 eigenvalue-minimisations  :  8767
 total energy-change (2. order) :-0.1716269E+02  (-0.1711735E+02)
 number of electron      48.0000000 magnetization 
 augmentation part       48.0000000 magnetization 

 Free energy of the ion-electron system (eV)
  ---------------------------------------------------
  alpha Z        PSCENC =        69.72802778
  Ewald energy   TEWEN  =     -1887.20590689
  -Hartree energ DENC   =      -937.14514242
  -exchange      EXHF   =         0.00000000
  -V(xc)+E(xc)   XCENC  =       142.01294050
  PAW double counting   =      1574.92322788    -1533.24131965
  entropy T*S    EENTRO =         0.00000000
  eigenvalues    EBANDS =      -412.19074572
  atomic energy  EATOM  =      2902.77641490
  Solvation  Ediel_sol  =         0.00000000
  ---------------------------------------------------
  free energy    TOTEN  =       -80.34250361 eV

  energy without entropy =      -80.34250361  energy(sigma->0) =      -80.34250361


--------------------------------------------------------------------------------------------------------




----------------------------------------- Iteration    1(   4)  ---------------------------------------


     EDDAV:  cpu time   11.3173: real time   11.3143
 BZINTS: Fermi energy: -2.154583; 48.000000 electrons
         Band energy:-412.401631;  BLOECHL correction:  0.000000
       DOS:  cpu time    0.0060: real time    0.0057
    --------------------------------------------
      LOOP:  cpu time   11.3243: real time   11.3257

 eigenvalue-minimisations  :  8847
 total energy-change (2. order) :-0.2108856E+00  (-0.2105929E+00)
 number of electron      48.0000000 magnetization 
 augmentation part       48.0000000 magnetization 

 Free energy of the ion-electron system (eV)
  ---------------------------------------------------
  alpha Z        PSCENC =        69.72802778
  Ewald energy   TEWEN  =     -1887.20590689
  -Hartree energ DENC   =      -937.14514242
  -exchange      EXHF   =         0.00000000
  -V(xc)+E(xc)   XCENC  =       142.01294050
  PAW double counting   =      1574.92322788    -1533.24131965
  entropy T*S    EENTRO =         0.00000000
  eigenvalues    EBANDS =      -412.40163136
  atomic energy  EATOM  =      2902.77641490
  Solvation  Ediel_sol  =         0.00000000
  ---------------------------------------------------
  free energy    TOTEN  =       -80.55338925 eV

  energy without entropy =      -80.55338925  energy(sigma->0) =      -80.55338925


--------------------------------------------------------------------------------------------------------




----------------------------------------- Iteration    1(   5)  ---------------------------------------


     EDDAV:  cpu time   11.1463: real time   11.1440
 BZINTS: Fermi energy: -2.116184; 48.000000 electrons
         Band energy:-412.405757;  BLOECHL correction:  0.000000
       DOS:  cpu time    0.0050: real time    0.0057
    CHARGE:  cpu time    0.6949: real time    0.6934
    MIXING:  cpu time    0.0020: real time    0.0019
    --------------------------------------------
      LOOP:  cpu time   11.8492: real time   11.8539

 eigenvalue-minimisations  :  8682
 total energy-change (2. order) :-0.4126024E-02  (-0.4124489E-02)
 number of electron      48.0000146 magnetization 
 augmentation part        4.4339150 magnetization 

 Broyden mixing:
  rms(total) = 0.18436E+01    rms(broyden)= 0.18425E+01
  rms(prec ) = 0.34492E+01
  weight for this iteration     100.00

 Free energy of the ion-electron system (eV)
  ---------------------------------------------------
  alpha Z        PSCENC =        69.72802778
  Ewald energy   TEWEN  =     -1887.20590689
  -Hartree energ DENC   =      -937.14514242
  -exchange      EXHF   =         0.00000000
  -V(xc)+E(xc)   XCENC  =       142.01294050
  PAW double counting   =      1574.92322788    -1533.24131965
  entropy T*S    EENTRO =         0.00000000
  eigenvalues    EBANDS =      -412.40575738
  atomic energy  EATOM  =      2902.77641490
  Solvation  Ediel_sol  =         0.00000000
  ---------------------------------------------------
  free energy    TOTEN  =       -80.55751527 eV

  energy without entropy =      -80.55751527  energy(sigma->0) =      -80.55751527


--------------------------------------------------------------------------------------------------------




----------------------------------------- Iteration    1(   6)  ---------------------------------------


    POTLOK:  cpu time    0.0670: real time    0.0671
    SETDIJ:  cpu time    0.0130: real time    0.0127
    EDDIAG:  cpu time    1.8197: real time    1.8195
  RMM-DIIS:  cpu time    6.8670: real time    6.8648
    ORTHCH:  cpu time    0.1940: real time    0.1941
 BZINTS: Fermi energy:  0.676667; 48.000000 electrons
         Band energy:-300.815252;  BLOECHL correction:  0.000000
       DOS:  cpu time    0.0070: real time    0.0068
    CHARGE:  cpu time    0.6769: real time    0.6764
    MIXING:  cpu time    0.0020: real time    0.0020
    --------------------------------------------
      LOOP:  cpu time    9.6465: real time    9.6489

 eigenvalue-minimisations  :  7980
 total energy-change (2. order) : 0.9399078E+01  (-0.4006575E+01)
 number of electron      48.0000126 magnetization 
 augmentation part        3.6524928 magnetization 

 Broyden mixing:
  rms(total) = 0.51572E+00    rms(broyden)= 0.51486E+00
  rms(prec ) = 0.83004E+00
  weight for this iteration     100.00

 eigenvalues of (default mixing * dielectric matrix)
  average eigenvalue GAMMA=   1.0107
  1.0107

 Free energy of the ion-electron system (eV)
  ---------------------------------------------------
  alpha Z        PSCENC =        69.72802778
  Ewald energy   TEWEN  =     -1887.20590689
  -Hartree energ DENC   =     -1044.47136905
  -exchange      EXHF   =         0.00000000
  -V(xc)+E(xc)   XCENC  =       149.21978741
  PAW double counting   =      1891.57644888    -1851.96658829
  entropy T*S    EENTRO =         0.00000000
  eigenvalues    EBANDS =      -300.81525196
  atomic energy  EATOM  =      2902.77641490
  Solvation  Ediel_sol  =         0.00000000
  ---------------------------------------------------
  free energy    TOTEN  =       -71.15843721 eV

  energy without entropy =      -71.15843721  energy(sigma->0) =      -71.15843721


--------------------------------------------------------------------------------------------------------




----------------------------------------- Iteration    1(   7)  ---------------------------------------


    POTLOK:  cpu time    0.0640: real time    0.0649
    SETDIJ:  cpu time    0.0120: real time    0.0123
    EDDIAG:  cpu time    1.7707: real time    1.7694
  RMM-DIIS:  cpu time    7.2669: real time    7.2655
    ORTHCH:  cpu time    0.1930: real time    0.1929
 BZINTS: Fermi energy:  1.046910; 48.000000 electrons
         Band energy:-283.550007;  BLOECHL correction:  0.000000
       DOS:  cpu time    0.0070: real time    0.0068
    CHARGE:  cpu time    0.6729: real time    0.6733
    MIXING:  cpu time    0.0020: real time    0.0021
    --------------------------------------------
      LOOP:  cpu time    9.9895: real time    9.9918

 eigenvalue-minimisations  :  8619
 total energy-change (2. order) : 0.2263227E-01  (-0.1774163E+00)
 number of electron      48.0000123 magnetization 
 augmentation part        3.5357571 magnetization 

 Broyden mixing:
  rms(total) = 0.33890E+00    rms(broyden)= 0.33875E+00
  rms(prec ) = 0.48063E+00
  weight for this iteration     100.00

 eigenvalues of (default mixing * dielectric matrix)
  average eigenvalue GAMMA=   1.7553
  1.1685  2.3421

 Free energy of the ion-electron system (eV)
  ---------------------------------------------------
  alpha Z        PSCENC =        69.72802778
  Ewald energy   TEWEN  =     -1887.20590689
  -Hartree energ DENC   =     -1062.74907847
  -exchange      EXHF   =         0.00000000
  -V(xc)+E(xc)   XCENC  =       150.46256266
  PAW double counting   =      1992.17037303    -1952.76819069
  entropy T*S    EENTRO =         0.00000000
  eigenvalues    EBANDS =      -283.55000726
  atomic energy  EATOM  =      2902.77641490
  Solvation  Ediel_sol  =         0.00000000
  ---------------------------------------------------
  free energy    TOTEN  =       -71.13580494 eV

  energy without entropy =      -71.13580494  energy(sigma->0) =      -71.13580494


--------------------------------------------------------------------------------------------------------




----------------------------------------- Iteration    1(   8)  ---------------------------------------


    POTLOK:  cpu time    0.0650: real time    0.0651
    SETDIJ:  cpu time    0.0120: real time    0.0122
    EDDIAG:  cpu time    1.7697: real time    1.7697
  RMM-DIIS:  cpu time    7.1579: real time    7.1551
    ORTHCH:  cpu time    0.1930: real time    0.1930
 BZINTS: Fermi energy:  0.986987; 48.000000 electrons
         Band energy:-281.016340;  BLOECHL correction:  0.000000
       DOS:  cpu time    0.0050: real time    0.0055
    CHARGE:  cpu time    0.6749: real time    0.6753
    MIXING:  cpu time    0.0030: real time    0.0022
    --------------------------------------------
      LOOP:  cpu time    9.8825: real time    9.8843

 eigenvalue-minimisations  :  8455
 total energy-change (2. order) :-0.1554103E-01  (-0.2663041E-01)
 number of electron      48.0000124 magnetization 
 augmentation part        3.5750349 magnetization 

 Broyden mixing:
  rms(total) = 0.62854E-01    rms(broyden)= 0.62850E-01
  rms(prec ) = 0.11814E+00
  weight for this iteration     100.00

 eigenvalues of (default mixing * dielectric matrix)
  average eigenvalue GAMMA=   1.5757
  2.5575  1.0848  1.0848

 Free energy of the ion-electron system (eV)
  ---------------------------------------------------
  alpha Z        PSCENC =        69.72802778
  Ewald energy   TEWEN  =     -1887.20590689
  -Hartree energ DENC   =     -1065.68772923
  -exchange      EXHF   =         0.00000000
  -V(xc)+E(xc)   XCENC  =       150.74969475
  PAW double counting   =      2069.20640294    -2029.70191058
  entropy T*S    EENTRO =         0.00000000
  eigenvalues    EBANDS =      -281.01633964
  atomic energy  EATOM  =      2902.77641490
  Solvation  Ediel_sol  =         0.00000000
  ---------------------------------------------------
  free energy    TOTEN  =       -71.15134597 eV

  energy without entropy =      -71.15134597  energy(sigma->0) =      -71.15134597


--------------------------------------------------------------------------------------------------------




----------------------------------------- Iteration    1(   9)  ---------------------------------------


    POTLOK:  cpu time    0.0640: real time    0.0653
    SETDIJ:  cpu time    0.0120: real time    0.0123
    EDDIAG:  cpu time    1.7707: real time    1.7694
  RMM-DIIS:  cpu time    7.5728: real time    7.5714
    ORTHCH:  cpu time    0.1980: real time    0.1983
 BZINTS: Fermi energy:  1.132060; 48.000000 electrons
         Band energy:-276.292577;  BLOECHL correction:  0.000000
       DOS:  cpu time    0.0070: real time    0.0070
    CHARGE:  cpu time    0.6919: real time    0.6911
    MIXING:  cpu time    0.0020: real time    0.0024
    --------------------------------------------
      LOOP:  cpu time   10.3204: real time   10.3223

 eigenvalue-minimisations  :  8765
 total energy-change (2. order) : 0.7926119E-02  (-0.5164615E-02)
 number of electron      48.0000123 magnetization 
 augmentation part        3.5518457 magnetization 

 Broyden mixing:
  rms(total) = 0.13417E-01    rms(broyden)= 0.13375E-01
  rms(prec ) = 0.20732E-01
  weight for this iteration     100.00

 eigenvalues of (default mixing * dielectric matrix)
  average eigenvalue GAMMA=   1.8859
  2.9668  2.4900  1.0433  1.0433

 Free energy of the ion-electron system (eV)
  ---------------------------------------------------
  alpha Z        PSCENC =        69.72802778
  Ewald energy   TEWEN  =     -1887.20590689
  -Hartree energ DENC   =     -1070.67248452
  -exchange      EXHF   =         0.00000000
  -V(xc)+E(xc)   XCENC  =       151.09333954
  PAW double counting   =      2082.26201993    -2042.83225391
  entropy T*S    EENTRO =         0.00000000
  eigenvalues    EBANDS =      -276.29257668
  atomic energy  EATOM  =      2902.77641490
  Solvation  Ediel_sol  =         0.00000000
  ---------------------------------------------------
  free energy    TOTEN  =       -71.14341985 eV

  energy without entropy =      -71.14341985  energy(sigma->0) =      -71.14341985


--------------------------------------------------------------------------------------------------------




----------------------------------------- Iteration    1(  10)  ---------------------------------------


    POTLOK:  cpu time    0.0660: real time    0.0666
    SETDIJ:  cpu time    0.0120: real time    0.0125
    EDDIAG:  cpu time    1.8097: real time    1.8082
  RMM-DIIS:  cpu time    7.5289: real time    7.5311
    ORTHCH:  cpu time    0.2000: real time    0.2003
 BZINTS: Fermi energy:  1.151027; 48.000000 electrons
         Band energy:-274.859098;  BLOECHL correction:  0.000000
       DOS:  cpu time    0.0070: real time    0.0071
    CHARGE:  cpu time    0.6959: real time    0.6954
    MIXING:  cpu time    0.0030: real time    0.0030
    --------------------------------------------
      LOOP:  cpu time   10.3234: real time   10.3295

 eigenvalue-minimisations  :  8629
 total energy-change (2. order) :-0.3388494E-02  (-0.1970450E-02)
 number of electron      48.0000123 magnetization 
 augmentation part        3.5380827 magnetization 

 Broyden mixing:
  rms(total) = 0.24643E-01    rms(broyden)= 0.24630E-01
  rms(prec ) = 0.42096E-01
  weight for this iteration     100.00

 eigenvalues of (default mixing * dielectric matrix)
  average eigenvalue GAMMA=   1.6716
  2.7795  2.4752  1.0626  1.0626  0.9782

 Free energy of the ion-electron system (eV)
  ---------------------------------------------------
  alpha Z        PSCENC =        69.72802778
  Ewald energy   TEWEN  =     -1887.20590689
  -Hartree energ DENC   =     -1072.19080501
  -exchange      EXHF   =         0.00000000
  -V(xc)+E(xc)   XCENC  =       151.19252966
  PAW double counting   =      2077.46836600    -2038.05633679
  entropy T*S    EENTRO =         0.00000000
  eigenvalues    EBANDS =      -274.85909799
  atomic energy  EATOM  =      2902.77641490
  Solvation  Ediel_sol  =         0.00000000
  ---------------------------------------------------
  free energy    TOTEN  =       -71.14680834 eV

  energy without entropy =      -71.14680834  energy(sigma->0) =      -71.14680834


--------------------------------------------------------------------------------------------------------




----------------------------------------- Iteration    1(  11)  ---------------------------------------


    POTLOK:  cpu time    0.0670: real time    0.0681
    SETDIJ:  cpu time    0.0130: real time    0.0128
    EDDIAG:  cpu time    1.8257: real time    1.8251
  RMM-DIIS:  cpu time    7.6968: real time    7.6950
    ORTHCH:  cpu time    0.2000: real time    0.1993
 BZINTS: Fermi energy:  1.133053; 48.000000 electrons
         Band energy:-275.913797;  BLOECHL correction:  0.000000
       DOS:  cpu time    0.0070: real time    0.0070
    CHARGE:  cpu time    0.6969: real time    0.6975
    MIXING:  cpu time    0.0030: real time    0.0027
    --------------------------------------------
      LOOP:  cpu time   10.5104: real time   10.5123

 eigenvalue-minimisations  :  8750
 total energy-change (2. order) : 0.1528784E-02  (-0.3150925E-03)
 number of electron      48.0000123 magnetization 
 augmentation part        3.5440535 magnetization 

 Broyden mixing:
  rms(total) = 0.72650E-02    rms(broyden)= 0.72634E-02
  rms(prec ) = 0.12749E-01
  weight for this iteration     100.00

 eigenvalues of (default mixing * dielectric matrix)
  average eigenvalue GAMMA=   1.7121
  2.9592  2.4691  1.5183  0.9459  1.1899  1.1899

 Free energy of the ion-electron system (eV)
  ---------------------------------------------------
  alpha Z        PSCENC =        69.72802778
  Ewald energy   TEWEN  =     -1887.20590689
  -Hartree energ DENC   =     -1071.07986003
  -exchange      EXHF   =         0.00000000
  -V(xc)+E(xc)   XCENC  =       151.11729533
  PAW double counting   =      2075.14273237    -2035.71018609
  entropy T*S    EENTRO =         0.00000000
  eigenvalues    EBANDS =      -275.91379693
  atomic energy  EATOM  =      2902.77641490
  Solvation  Ediel_sol  =         0.00000000
  ---------------------------------------------------
  free energy    TOTEN  =       -71.14527956 eV

  energy without entropy =      -71.14527956  energy(sigma->0) =      -71.14527956


--------------------------------------------------------------------------------------------------------




----------------------------------------- Iteration    1(  12)  ---------------------------------------


    POTLOK:  cpu time    0.0690: real time    0.0681
    SETDIJ:  cpu time    0.0120: real time    0.0127
    EDDIAG:  cpu time    1.8237: real time    1.8233
  RMM-DIIS:  cpu time    7.8038: real time    7.8019
    ORTHCH:  cpu time    0.2000: real time    0.1989
 BZINTS: Fermi energy:  1.125794; 48.000000 electrons
         Band energy:-276.264753;  BLOECHL correction:  0.000000
       DOS:  cpu time    0.0070: real time    0.0070
    CHARGE:  cpu time    0.6949: real time    0.6958
    MIXING:  cpu time    0.0030: real time    0.0028
    --------------------------------------------
      LOOP:  cpu time   10.6144: real time   10.6173

 eigenvalue-minimisations  :  8737
 total energy-change (2. order) : 0.7148821E-04  (-0.1030480E-03)
 number of electron      48.0000123 magnetization 
 augmentation part        3.5476593 magnetization 

 Broyden mixing:
  rms(total) = 0.67473E-03    rms(broyden)= 0.64861E-03
  rms(prec ) = 0.99895E-03
  weight for this iteration     100.00

 eigenvalues of (default mixing * dielectric matrix)
  average eigenvalue GAMMA=   1.6904
  2.8921  2.3004  2.2403  1.0329  1.0436  1.1617  1.1617

 Free energy of the ion-electron system (eV)
  ---------------------------------------------------
  alpha Z        PSCENC =        69.72802778
  Ewald energy   TEWEN  =     -1887.20590689
  -Hartree energ DENC   =     -1070.70858688
  -exchange      EXHF   =         0.00000000
  -V(xc)+E(xc)   XCENC  =       151.09047593
  PAW double counting   =      2074.30903637    -2034.86991644
  entropy T*S    EENTRO =         0.00000000
  eigenvalues    EBANDS =      -276.26475284
  atomic energy  EATOM  =      2902.77641490
  Solvation  Ediel_sol  =         0.00000000
  ---------------------------------------------------
  free energy    TOTEN  =       -71.14520807 eV

  energy without entropy =      -71.14520807  energy(sigma->0) =      -71.14520807


--------------------------------------------------------------------------------------------------------




----------------------------------------- Iteration    1(  13)  ---------------------------------------


    POTLOK:  cpu time    0.0670: real time    0.0675
    SETDIJ:  cpu time    0.0130: real time    0.0127
    EDDIAG:  cpu time    1.8237: real time    1.8228
  RMM-DIIS:  cpu time    5.9931: real time    5.9918
    ORTHCH:  cpu time    0.1990: real time    0.1993
 BZINTS: Fermi energy:  1.123563; 48.000000 electrons
         Band energy:-276.230182;  BLOECHL correction:  0.000000
       DOS:  cpu time    0.0070: real time    0.0070
    --------------------------------------------
      LOOP:  cpu time    8.1038: real time    8.1090

 eigenvalue-minimisations  :  6519
 total energy-change (2. order) :-0.3469026E-05  (-0.3021150E-05)
 number of electron      48.0000123 magnetization 
 augmentation part        3.5476593 magnetization 

 Free energy of the ion-electron system (eV)
  ---------------------------------------------------
  alpha Z        PSCENC =        69.72802778
  Ewald energy   TEWEN  =     -1887.20590689
  -Hartree energ DENC   =     -1070.74459358
  -exchange      EXHF   =         0.00000000
  -V(xc)+E(xc)   XCENC  =       151.09266438
  PAW double counting   =      2074.48503758    -2035.04667343
  entropy T*S    EENTRO =         0.00000000
  eigenvalues    EBANDS =      -276.23018228
  atomic energy  EATOM  =      2902.77641490
  Solvation  Ediel_sol  =         0.00000000
  ---------------------------------------------------
  free energy    TOTEN  =       -71.14521154 eV

  energy without entropy =      -71.14521154  energy(sigma->0) =      -71.14521154


--------------------------------------------------------------------------------------------------------




 average (electrostatic) potential at core
  the test charge radii are     0.9892  0.7215
  (the norm of the test charge is              1.0000)
       1 -86.3874       2 -86.3874       3 -86.3872       4 -72.4545       5 -72.4536
       6 -72.4546       7 -72.4536       8 -72.4545       9 -72.4546
 
 
 
 E-fermi :   1.1236     XC(G=0):  -9.2039     alpha+bet :-10.3421


 k-point     1 :       0.0000    0.0000    0.0000
  band No.  band energies     occupation 
      1     -18.3771      2.00000
      2     -16.8411      2.00000
      3     -16.8407      2.00000
      4     -16.2068      2.00000
      5     -16.1591      2.00000
      6     -16.1587      2.00000
      7      -7.1839      2.00000
      8      -7.1836      2.00000
      9      -4.3430      2.00000
     10      -4.3373      2.00000
     11      -4.1844      2.00000
     12      -4.1843      2.00000
     13      -1.8638      2.00000
     14      -1.8635      2.00000
     15      -1.6259      2.00000
     16      -1.3658      2.00000
     17      -0.4150      2.00000
     18      -0.4138      2.00000
     19      -0.3969      2.00000
     20       0.1080      2.00000
     21       0.1082      2.00000
     22       0.4173      2.00000
     23       0.7581      2.00000
     24       0.7583      2.00000
     25       7.1147      0.00000
[...]
      8      -6.0104      2.00000
      9      -5.2907      2.00000
     10      -4.2972      2.00000
     11      -4.0354      2.00000
     12      -3.8462      2.00000
     13      -2.1193      2.00000
     14      -2.0121      2.00000
     15      -1.3317      2.00000
     16      -1.1653      2.00000
     17      -0.9640      2.00000
     18      -0.4704      2.00000
     19      -0.3097      2.00000
     20      -0.1184      2.00000
     21       0.1267      2.00000
     22       0.4601      2.00000
     23       0.5571      2.00000
     24       0.8825      2.00000
     25       9.8087      0.00000
     26      10.1035      0.00000
     27      10.6766      0.00000
     28      10.9269      0.00000
     29      11.6968      0.00000

 k-point   120 :       0.1250    0.5000    0.4286
  band No.  band energies     occupation 
      1     -17.8172      2.00000
      2     -17.3979      2.00000
      3     -16.8952      2.00000
      4     -16.2797      2.00000
      5     -16.2079      2.00000
      6     -16.1889      2.00000
      7      -7.1845      2.00000
      8      -6.1838      2.00000
      9      -5.3664      2.00000
     10      -4.2413      2.00000
     11      -3.9840      2.00000
     12      -3.8867      2.00000
     13      -2.1579      2.00000
     14      -2.0092      2.00000
     15      -1.4252      2.00000
     16      -1.0869      2.00000
     17      -0.9248      2.00000
     18      -0.5927      2.00000
     19      -0.1458      2.00000
     20      -0.0529      2.00000
     21       0.1622      2.00000
     22       0.4044      2.00000
     23       0.4815      2.00000
     24       0.8144      2.00000
     25      10.0144      0.00000
     26      10.4010      0.00000
     27      10.7498      0.00000
     28      11.0751      0.00000
     29      11.4945      0.00000

 k-point   121 :       0.2500    0.5000    0.4286
  band No.  band energies     occupation 
      1     -17.8141      2.00000
      2     -17.4111      2.00000
      3     -16.8794      2.00000
      4     -16.2757      2.00000
      5     -16.2130      2.00000
      6     -16.1953      2.00000
      7      -7.1794      2.00000
      8      -6.1550      2.00000
      9      -5.4240      2.00000
     10      -4.2038      2.00000
     11      -4.0208      2.00000
     12      -3.8771      2.00000
     13      -2.1619      2.00000
     14      -1.9358      2.00000
     15      -1.4994      2.00000
     16      -1.1043      2.00000
     17      -0.8820      2.00000
     18      -0.6488      2.00000
     19      -0.1230      2.00000
     20       0.0224      2.00000
     21       0.1958      2.00000
     22       0.3172      2.00000
     23       0.5666      2.00000
     24       0.7260      2.00000
     25       9.9222      0.00000
     26      10.4800      0.00000
     27      10.7771      0.00000
     28      11.1626      0.00000
     29      11.5378      0.00000

 k-point   122 :       0.3750    0.5000    0.4286
  band No.  band energies     occupation 
      1     -17.8189      2.00000
      2     -17.3919      2.00000
      3     -16.9023      2.00000
      4     -16.2775      2.00000
      5     -16.2069      2.00000
      6     -16.1892      2.00000
      7      -7.1848      2.00000
      8      -6.1854      2.00000
      9      -5.3649      2.00000
     10      -4.2494      2.00000
     11      -3.9829      2.00000
     12      -3.8743      2.00000
     13      -2.1535      2.00000
     14      -2.0142      2.00000
     15      -1.4304      2.00000
     16      -1.0793      2.00000
     17      -0.9648      2.00000
     18      -0.5586      2.00000
     19      -0.1513      2.00000
     20      -0.0007      2.00000
     21       0.1796      2.00000
     22       0.2814      2.00000
     23       0.5094      2.00000
     24       0.8447      2.00000
     25       9.9401      0.00000
     26      10.5522      0.00000
     27      10.7770      0.00000
     28      11.0508      0.00000
     29      11.3263      0.00000

 k-point   123 :       0.5000    0.5000    0.4286
  band No.  band energies     occupation 
      1     -17.8217      2.00000
      2     -17.3781      2.00000
      3     -16.9192      2.00000
      4     -16.2812      2.00000
      5     -16.2033      2.00000
      6     -16.1820      2.00000
      7      -7.1898      2.00000
      8      -6.2109      2.00000
      9      -5.3100      2.00000
     10      -4.2803      2.00000
     11      -3.9533      2.00000
     12      -3.8851      2.00000
     13      -2.1244      2.00000
     14      -2.1019      2.00000
     15      -1.3595      2.00000
     16      -1.0855      2.00000
     17      -0.9770      2.00000
     18      -0.5005      2.00000
     19      -0.1995      2.00000
     20      -0.0695      2.00000
     21       0.1420      2.00000
     22       0.3576      2.00000
     23       0.4753      2.00000
     24       0.8982      2.00000
     25      10.0361      0.00000
     26      10.4359      0.00000
     27      10.7667      0.00000
     28      11.0199      0.00000
     29      11.4334      0.00000

 k-point   124 :       0.1250   -0.3750    0.4286
  band No.  band energies     occupation 
      1     -17.8628      2.00000
      2     -17.5693      2.00000
      3     -16.6580      2.00000
      4     -16.2594      2.00000
      5     -16.2013      2.00000
      6     -16.1788      2.00000
      7      -7.5585      2.00000
      8      -5.8838      2.00000
      9      -5.3110      2.00000
     10      -4.2851      2.00000
     11      -4.1161      2.00000
     12      -3.8081      2.00000
     13      -2.0926      2.00000
     14      -1.9339      2.00000
     15      -1.3586      2.00000
     16      -1.2326      2.00000
     17      -0.9279      2.00000
     18      -0.5200      2.00000
     19      -0.3067      2.00000
     20      -0.1140      2.00000
     21       0.0953      2.00000
     22       0.4586      2.00000
     23       0.6830      2.00000
     24       0.8394      2.00000
     25       9.5641      0.00000
     26      10.0604      0.00000
     27      10.6109      0.00000
     28      10.9451      0.00000
     29      11.7058      0.00000

 k-point   125 :       0.2500   -0.3750    0.4286
  band No.  band energies     occupation 
      1     -17.8656      2.00000
      2     -17.5639      2.00000
      3     -16.6652      2.00000
      4     -16.2562      2.00000
      5     -16.1977      2.00000
      6     -16.1809      2.00000
      7      -7.5592      2.00000
      8      -5.8863      2.00000
      9      -5.3083      2.00000
     10      -4.2949      2.00000
     11      -4.1134      2.00000
     12      -3.7935      2.00000
     13      -2.0832      2.00000
     14      -1.9437      2.00000
     15      -1.3509      2.00000
     16      -1.2526      2.00000
     17      -0.9600      2.00000
     18      -0.4800      2.00000
     19      -0.3017      2.00000
     20      -0.0915      2.00000
     21       0.0997      2.00000
     22       0.3983      2.00000
     23       0.6504      2.00000
     24       0.8983      2.00000
     25       9.4959      0.00000
     26      10.1833      0.00000
     27      10.5997      0.00000
     28      11.0851      0.00000
     29      11.2918      0.00000

 k-point   126 :       0.3750   -0.3750    0.4286
  band No.  band energies     occupation 
      1     -17.8493      2.00000
      2     -17.4973      2.00000
      3     -16.7631      2.00000
      4     -16.2663      2.00000
      5     -16.1974      2.00000
      6     -16.1788      2.00000
      7      -7.4279      2.00000
      8      -6.0138      2.00000
      9      -5.2860      2.00000
     10      -4.3140      2.00000
     11      -4.0327      2.00000
     12      -3.8199      2.00000
     13      -2.0990      2.00000
     14      -2.0341      2.00000
     15      -1.3263      2.00000
     16      -1.1872      2.00000
     17      -1.0164      2.00000
     18      -0.4204      2.00000
     19      -0.2685      2.00000
     20      -0.0850      2.00000
     21       0.1453      2.00000
     22       0.2980      2.00000
     23       0.5748      2.00000
     24       0.9429      2.00000
     25       9.6531      0.00000
     26      10.4024      0.00000
     27      10.6350      0.00000
     28      10.9927      0.00000
     29      11.3280      0.00000

 k-point   127 :       0.1250   -0.2500    0.4286
  band No.  band energies     occupation 
      1     -17.9386      2.00000
      2     -17.6936      2.00000
      3     -16.4280      2.00000
      4     -16.2318      2.00000
      5     -16.1920      2.00000
      6     -16.1605      2.00000
      7      -7.9285      2.00000
      8      -5.6325      2.00000
      9      -5.1896      2.00000
     10      -4.3800      2.00000
     11      -4.2980      2.00000
     12      -3.7086      2.00000
     13      -1.9621      2.00000
     14      -1.7708      2.00000
     15      -1.4415      2.00000
     16      -1.1835      2.00000
     17      -0.9693      2.00000
     18      -0.5276      2.00000
     19      -0.4595      2.00000
     20      -0.2564      2.00000
     21      -0.0033      2.00000
     22       0.6104      2.00000
     23       0.8020      2.00000
     24       0.9408      2.00000
     25       9.0693      0.00000
     26       9.7850      0.00000
     27      10.4209      0.00000
     28      10.7872      0.00000
     29      11.2447      0.00000

 k-point   128 :       0.2500   -0.2500    0.4286
  band No.  band energies     occupation 
      1     -17.9183      2.00000
      2     -17.6593      2.00000
      3     -16.4988      2.00000
      4     -16.2379      2.00000
      5     -16.1892      2.00000
      6     -16.1651      2.00000
      7      -7.8313      2.00000
      8      -5.7077      2.00000
      9      -5.2088      2.00000
     10      -4.3791      2.00000
     11      -4.2246      2.00000
     12      -3.7241      2.00000
     13      -1.9973      2.00000
     14      -1.8426      2.00000
     15      -1.3984      2.00000
     16      -1.1999      2.00000
     17      -1.0172      2.00000
     18      -0.4880      2.00000
     19      -0.3715      2.00000
     20      -0.2291      2.00000
     21       0.0254      2.00000
     22       0.5419      2.00000
     23       0.7093      2.00000
     24       0.9864      2.00000
     25       9.1573      0.00000
     26       9.9453      0.00000
     27      10.4573      0.00000
     28      11.0003      0.00000
     29      11.0757      0.00000

 k-point   129 :       0.1250   -0.1250    0.4286
  band No.  band energies     occupation 
      1     -17.9956      2.00000
      2     -17.7504      2.00000
      3     -16.2911      2.00000
      4     -16.2116      2.00000
      5     -16.1888      2.00000
      6     -16.1448      2.00000
      7      -8.1447      2.00000
      8      -5.5017      2.00000
      9      -5.0672      2.00000
     10      -4.4705      2.00000
     11      -4.4351      2.00000
     12      -3.6506      2.00000
     13      -1.8374      2.00000
     14      -1.6259      2.00000
     15      -1.5172      2.00000
     16      -1.0932      2.00000
     17      -0.9615      2.00000
     18      -0.6411      2.00000
     19      -0.5429      2.00000
     20      -0.3966      2.00000
     21      -0.0660      2.00000
     22       0.7426      2.00000
     23       0.8568      2.00000
     24       1.0049      2.00000
     25       8.7933      0.00000
     26       9.6045      0.00000
     27      10.2706      0.00000
     28      10.6834      0.00000
     29      11.1244      0.00000


--------------------------------------------------------------------------------------------------------


 soft charge-density along one line, spin component           1
         0         1         2         3         4         5         6         7         8         9
 total charge-density along one line
 
 pseudopotential strength for first ion, spin component:           1
 18.757   0.002   0.000   0.000  -0.000   0.000  -0.000   0.000
  0.002   0.006   0.000  -0.000   0.000  -0.000   0.000  -0.000
  0.000   0.000   4.218   0.001  -0.000  -0.003  -0.000   0.000
  0.000  -0.000   0.001   4.218   0.000  -0.000  -0.003  -0.000
 -0.000   0.000  -0.000   0.000   4.219   0.000  -0.000  -0.003
  0.000  -0.000  -0.003  -0.000   0.000   0.005   0.000  -0.000
 -0.000   0.000  -0.000  -0.003  -0.000   0.000   0.005   0.000
  0.000  -0.000   0.000  -0.000  -0.003  -0.000   0.000   0.005
 total augmentation occupancy for first ion, spin component:           1
  1.166  -1.629  -0.000  -0.000  -0.005   0.000  -0.000   0.025
 -1.629   3.553   0.000  -0.000   0.040  -0.000   0.001  -0.080
 -0.000   0.000   1.030   0.016   0.000  -1.190  -0.026   0.000
 -0.000  -0.000   0.016   1.001   0.000  -0.025  -1.180  -0.001
 -0.005   0.040   0.000   0.000   0.973   0.000  -0.001  -1.178
  0.000  -0.000  -1.190  -0.025   0.000   1.698   0.053  -0.000
 -0.000   0.001  -0.026  -1.180  -0.001   0.053   1.688   0.002
  0.025  -0.080   0.000  -0.001  -1.178  -0.000   0.002   1.694


------------------------ aborting loop because EDIFF is reached ----------------------------------------


    CHARGE:  cpu time    0.6959: real time    0.6958
    FORLOC:  cpu time    0.0090: real time    0.0093
    FORNL :  cpu time    3.2635: real time    3.2626
    STRESS:  cpu time    9.6455: real time    9.6423
    FORCOR:  cpu time    0.0650: real time    0.0648
    FORHAR:  cpu time    0.0160: real time    0.0162
    MIXING:  cpu time    0.0030: real time    0.0028
    OFIELD:  cpu time    0.0000: real time    0.0000

  FORCE on cell =-STRESS in cart. coord.  units (eV):
  Direction    XX          YY          ZZ          XY          YZ          ZX
  --------------------------------------------------------------------------------------
  Alpha Z    69.72803    69.72803    69.72803
  Ewald    -646.24789  -646.25516  -594.70673    -0.00630     0.00069    -0.00119
  Hartree   346.93548   346.94116   376.91044     0.00492     0.00185    -0.00320
  E(xc)    -225.62928  -225.62848  -225.56355     0.00069     0.00005    -0.00008
  Local    -420.26378  -420.27967  -501.11238    -0.01376    -0.00326     0.00564
  n-local   -52.41308   -52.54339   -52.33440     0.01452    -0.04066    -0.00716
  augment    27.10913    27.10840    27.01643    -0.00063    -0.00084     0.00146
  Kinetic   903.36748   903.75387   901.71379    -0.13406     0.02327     0.01421
  Fock        0.00000     0.00000     0.00000     0.00000     0.00000     0.00000
  -------------------------------------------------------------------------------------
  Total       2.73375     2.67709     1.65161    -0.04907    -0.00909     0.01574
  in kB      38.75389    37.95061    23.41340    -0.69565    -0.12883     0.22314
  external pressure =       33.37 kB  Pullay stress =        0.00 kB


 VOLUME and BASIS-vectors are now :
 -----------------------------------------------------------------------------
  energy-cutoff  :      400.00
  volume of cell :      113.02
      direct lattice vectors                 reciprocal lattice vectors
     4.913700000  0.000000000  0.000000000     0.203512628  0.117498070  0.000000000
    -2.456850000  4.255389030  0.000000000     0.000000000  0.234996141  0.000000000
     0.000000000  0.000000000  5.405130000     0.000000000  0.000000000  0.185009426

  length of vectors
     4.913700000  4.913700003  5.405130000     0.234996141  0.234996141  0.185009426


 FORCES acting on ions
    electron-ion (+dipol)            ewald-force                    non-local-force                 convergence-correction
 -----------------------------------------------------------------------------------------------
   -.120E+01 0.414E-02 -.221E-02   0.812E+00 -.379E-02 0.176E-03   0.779E+00 -.188E-02 -.514E-02   0.230E-03 -.650E-05 0.230E-05
   0.601E+00 -.103E+01 0.221E-02   -.410E+00 0.702E+00 -.176E-03   -.391E+00 0.674E+00 0.514E-02   -.121E-03 0.196E-03 -.230E-05
   0.599E+00 0.104E+01 -.126E-05   -.408E+00 -.706E+00 -.197E-06   -.399E+00 -.690E+00 0.000E+00   -.107E-03 -.185E-03 0.181E-11
   0.722E+02 0.724E+01 0.302E+02   -.907E+02 -.616E+01 -.401E+02   0.179E+02 -.790E+00 0.997E+01   0.299E-02 0.645E-03 0.127E-02
   -.424E+02 0.589E+02 0.302E+02   0.507E+02 -.755E+02 -.401E+02   -.828E+01 0.159E+02 0.997E+01   -.209E-02 0.223E-02 0.127E-02
   -.298E+02 -.662E+02 0.302E+02   0.400E+02 0.816E+02 -.401E+02   -.965E+01 -.151E+02 0.997E+01   -.814E-03 -.291E-02 0.126E-02
   0.722E+02 -.724E+01 -.302E+02   -.907E+02 0.616E+01 0.401E+02   0.179E+02 0.792E+00 -.997E+01   0.297E-02 -.693E-03 -.127E-02
   -.298E+02 0.662E+02 -.302E+02   0.400E+02 -.816E+02 0.401E+02   -.966E+01 0.151E+02 -.997E+01   -.938E-03 0.291E-02 -.127E-02
   -.424E+02 -.589E+02 -.302E+02   0.507E+02 0.755E+02 0.401E+02   -.828E+01 -.159E+02 -.997E+01   -.212E-02 -.216E-02 -.126E-02
 -----------------------------------------------------------------------------------------------
   0.155E-02 0.268E-02 -.694E-05   -.711E-14 -.142E-13 0.000E+00   -.565E-02 -.979E-02 -.178E-14   0.154E-04 0.266E-04 -.779E-13
 
 
 POSITION                                       TOTAL-FORCE (eV/Angst)
 -----------------------------------------------------------------------------------
      2.30846      0.00000      3.60344         0.396975     -0.000751     -0.007168
     -1.15423      1.99918      1.80169        -0.199137      0.343415      0.007168
      1.30262      2.25621      0.00000        -0.207313     -0.359076      0.000000
      1.38272      1.13278      4.24627        -0.521432      0.292223      0.067478
      3.24132      0.63107      2.44458         0.013116     -0.599582      0.065361
      2.74651      2.49153      0.64283         0.515669      0.314055      0.067115
     -1.07413      3.12260      2.96055        -0.525811     -0.288432     -0.065361
      0.28966      1.76386      1.15886         0.513789     -0.305461     -0.067478
      0.78447      3.62431      4.76230         0.014145      0.603610     -0.067115
 -----------------------------------------------------------------------------------
    total drift:                               -0.004084     -0.007075     -0.000007


--------------------------------------------------------------------------------------------------------



  FREE ENERGIE OF THE ION-ELECTRON SYSTEM (eV)
  ---------------------------------------------------
  free  energy   TOTEN  =       -71.14521154 eV

  energy  without entropy=      -71.14521154  energy(sigma->0) =      -71.14521154
 


--------------------------------------------------------------------------------------------------------


    POTLOK:  cpu time    0.0750: real time    0.0757


--------------------------------------------------------------------------------------------------------


     LOOP+:  cpu time  150.6111: real time  150.7317
    4ORBIT:  cpu time    0.0000: real time    0.0000
 BZINTS: Fermi energy:  1.123563; 48.000000 electrons
         Band energy:-276.230182;  BLOECHL correction:  0.000000

 total amount of memory used by VASP on root node   171818. kBytes
========================================================================

   base      :      30000. kBytes
   nonlr-proj:        968. kBytes
   fftplans  :       4548. kBytes
   grid      :       8064. kBytes
   one-center:         27. kBytes
   wavefun   :     128211. kBytes
 
  
  
 General timing and accounting informations for this job:
 ========================================================
  
                  Total CPU time used (sec):      153.144
                            User time (sec):      152.990
                          System time (sec):        0.154
                         Elapsed time (sec):      153.880
  
                   Maximum memory used (kb):      177684.
                   Average memory used (kb):           0.
  
                          Minor page faults:        60684
                          Major page faults:           53
                 Voluntary context switches:         1745
