<?xml version="1.0" encoding="ISO-8859-1"?>
<modeling>
 <generator>
  <i name="program" type="string">vasp </i>
  <i name="version" type="string">5.4.1  </i>
  <i name="subversion" type="string">05Feb16 (build Mar 02 2016 14:09:44) complex                          parallel </i>
  <i name="platform" type="string">Abel-impi-ifc-cuda </i>
  <i name="date" type="string">2019 09 13 </i>
  <i name="time" type="string">12:01:30 </i>
 </generator>
 <incar>
  <i type="string" name="PREC">normal    ! low/normal/accurate</i>
  <i type="string" name="ALGO"> Fast      ! Algorithm for electronic re</i>
  <i type="int" name="ISPIN">     1</i>
  <i type="int" name="NELMIN">     4</i>
  <i name="EDIFF">      0.00001000</i>
  <i type="int" name="NSW">     0</i>
  <i name="ENCUT">    400.00000000</i>
  <i type="string" name="LREAL"> Auto      ! Projection in reciprocal sp</i>
  <i type="int" name="ISMEAR">    -5</i>
  <i name="SIGMA">      0.20000000</i>
  <i type="logical" name="LWAVE"> F  </i>
  <v type="int" name="KPOINT_BSE">    -1     0     0     0</v>
 </incar>
 <kpoints>
  <generation param="Gamma">
   <v type="int" name="divisions">       8        8        7 </v>
   <v name="usershift">      0.00000000       0.00000000       0.00000000 </v>
   <v name="genvec1">      0.12500000      -0.00000000       0.00000000 </v>
   <v name="genvec2">      0.00000000       0.12500000       0.00000000 </v>
   <v name="genvec3">      0.00000000       0.00000000       0.14285714 </v>
   <v name="shift">      0.00000000       0.00000000       0.00000000 </v>
  </generation>
  <varray name="kpointlist" >
   <v>       0.00000000       0.00000000       0.00000000 </v>
   <v>       0.12500000       0.00000000       0.00000000 </v>
   <v>       0.25000000       0.00000000       0.00000000 </v>
   <v>       0.37500000       0.00000000       0.00000000 </v>
   <v>       0.50000000       0.00000000       0.00000000 </v>
   <v>       0.12500000       0.12500000       0.00000000 </v>
   <v>       0.25000000       0.12500000       0.00000000 </v>
   <v>       0.37500000       0.12500000       0.00000000 </v>
   <v>       0.50000000       0.12500000       0.00000000 </v>
   <v>      -0.37500000       0.12500000       0.00000000 </v>
   <v>      -0.25000000       0.12500000       0.00000000 </v>
   <v>      -0.12500000       0.12500000       0.00000000 </v>
   <v>       0.25000000       0.25000000       0.00000000 </v>
   <v>       0.37500000       0.25000000       0.00000000 </v>
   <v>       0.50000000       0.25000000       0.00000000 </v>
   <v>      -0.37500000       0.25000000       0.00000000 </v>
   <v>      -0.25000000       0.25000000       0.00000000 </v>
   <v>       0.37500000       0.37500000       0.00000000 </v>
   <v>       0.50000000       0.37500000       0.00000000 </v>
   <v>      -0.37500000       0.37500000       0.00000000 </v>
   <v>       0.50000000       0.50000000       0.00000000 </v>
   <v>       0.00000000       0.00000000       0.14285714 </v>
   <v>       0.12500000       0.00000000       0.14285714 </v>
   <v>       0.25000000       0.00000000       0.14285714 </v>
   <v>       0.37500000       0.00000000       0.14285714 </v>
   <v>       0.50000000       0.00000000       0.14285714 </v>
   <v>      -0.37500000      -0.00000000       0.14285714 </v>
   <v>      -0.25000000      -0.00000000       0.14285714 </v>
   <v>      -0.12500000      -0.00000000       0.14285714 </v>
   <v>       0.12500000       0.12500000       0.14285714 </v>
   <v>       0.25000000       0.12500000       0.14285714 </v>
   <v>       0.37500000       0.12500000       0.14285714 </v>
   <v>       0.50000000       0.12500000       0.14285714 </v>
   <v>      -0.37500000       0.12500000       0.14285714 </v>
   <v>      -0.25000000       0.12500000       0.14285714 </v>
   <v>      -0.12500000       0.12500000       0.14285714 </v>
   <v>       0.12500000       0.25000000       0.14285714 </v>
   <v>       0.25000000       0.25000000       0.14285714 </v>
   <v>       0.37500000       0.25000000       0.14285714 </v>
   <v>       0.50000000       0.25000000       0.14285714 </v>
   <v>      -0.37500000       0.25000000       0.14285714 </v>
   <v>      -0.25000000       0.25000000       0.14285714 </v>
   <v>       0.12500000       0.37500000       0.14285714 </v>
   <v>       0.25000000       0.37500000       0.14285714 </v>
   <v>       0.37500000       0.37500000       0.14285714 </v>
   <v>       0.50000000       0.37500000       0.14285714 </v>
   <v>      -0.37500000       0.37500000       0.14285714 </v>
   <v>       0.12500000       0.50000000       0.14285714 </v>
   <v>       0.25000000       0.50000000       0.14285714 </v>
   <v>       0.37500000       0.50000000       0.14285714 </v>
   <v>       0.50000000       0.50000000       0.14285714 </v>
   <v>       0.12500000      -0.37500000       0.14285714 </v>
   <v>       0.25000000      -0.37500000       0.14285714 </v>
   <v>       0.37500000      -0.37500000       0.14285714 </v>
   <v>       0.12500000      -0.25000000       0.14285714 </v>
   <v>       0.25000000      -0.25000000       0.14285714 </v>
   <v>       0.12500000      -0.12500000       0.14285714 </v>
   <v>       0.00000000       0.00000000       0.28571429 </v>
   <v>       0.12500000       0.00000000       0.28571429 </v>
   <v>       0.25000000       0.00000000       0.28571429 </v>
   <v>       0.37500000       0.00000000       0.28571429 </v>
   <v>       0.50000000       0.00000000       0.28571429 </v>
   <v>      -0.37500000      -0.00000000       0.28571429 </v>
   <v>      -0.25000000      -0.00000000       0.28571429 </v>
   <v>      -0.12500000      -0.00000000       0.28571429 </v>
   <v>       0.12500000       0.12500000       0.28571429 </v>
   <v>       0.25000000       0.12500000       0.28571429 </v>
   <v>       0.37500000       0.12500000       0.28571429 </v>
   <v>       0.50000000       0.12500000       0.28571429 </v>
   <v>      -0.37500000       0.12500000       0.28571429 </v>
   <v>      -0.25000000       0.12500000       0.28571429 </v>
   <v>      -0.12500000       0.12500000       0.28571429 </v>
   <v>       0.12500000       0.25000000       0.28571429 </v>
   <v>       0.25000000       0.25000000       0.28571429 </v>
   <v>       0.37500000       0.25000000       0.28571429 </v>
   <v>       0.50000000       0.25000000       0.28571429 </v>
   <v>      -0.37500000       0.25000000       0.28571429 </v>
   <v>      -0.25000000       0.25000000       0.28571429 </v>
   <v>       0.12500000       0.37500000       0.28571429 </v>
   <v>       0.25000000       0.37500000       0.28571429 </v>
   <v>       0.37500000       0.37500000       0.28571429 </v>
   <v>       0.50000000       0.37500000       0.28571429 </v>
   <v>      -0.37500000       0.37500000       0.28571429 </v>
   <v>       0.12500000       0.50000000       0.28571429 </v>
   <v>       0.25000000       0.50000000       0.28571429 </v>
   <v>       0.37500000       0.50000000       0.28571429 </v>
   <v>       0.50000000       0.50000000       0.28571429 </v>
   <v>       0.12500000      -0.37500000       0.28571429 </v>
   <v>       0.25000000      -0.37500000       0.28571429 </v>
   <v>       0.37500000      -0.37500000       0.28571429 </v>
   <v>       0.12500000      -0.25000000       0.28571429 </v>
   <v>       0.25000000      -0.25000000       0.28571429 </v>
   <v>       0.12500000      -0.12500000       0.28571429 </v>
   <v>       0.00000000       0.00000000       0.42857143 </v>
   <v>       0.12500000       0.00000000       0.42857143 </v>
   <v>       0.25000000       0.00000000       0.42857143 </v>
   <v>       0.37500000       0.00000000       0.42857143 </v>
   <v>       0.50000000       0.00000000       0.42857143 </v>
   <v>      -0.37500000      -0.00000000       0.42857143 </v>
   <v>      -0.25000000      -0.00000000       0.42857143 </v>
   <v>      -0.12500000      -0.00000000       0.42857143 </v>
   <v>       0.12500000       0.12500000       0.42857143 </v>
   <v>       0.25000000       0.12500000       0.42857143 </v>
   <v>       0.37500000       0.12500000       0.42857143 </v>
   <v>       0.50000000       0.12500000       0.42857143 </v>
   <v>      -0.37500000       0.12500000       0.42857143 </v>
   <v>      -0.25000000       0.12500000       0.42857143 </v>
   <v>      -0.12500000       0.12500000       0.42857143 </v>
   <v>       0.12500000       0.25000000       0.42857143 </v>
   <v>       0.25000000       0.25000000       0.42857143 </v>
   <v>       0.37500000       0.25000000       0.42857143 </v>
   <v>       0.50000000       0.25000000       0.42857143 </v>
   <v>      -0.37500000       0.25000000       0.42857143 </v>
   <v>      -0.25000000       0.25000000       0.42857143 </v>
   <v>       0.12500000       0.37500000       0.42857143 </v>
   <v>       0.25000000       0.37500000       0.42857143 </v>
   <v>       0.37500000       0.37500000       0.42857143 </v>
   <v>       0.50000000       0.37500000       0.42857143 </v>
   <v>      -0.37500000       0.37500000       0.42857143 </v>
   <v>       0.12500000       0.50000000       0.42857143 </v>
   <v>       0.25000000       0.50000000       0.42857143 </v>
   <v>       0.37500000       0.50000000       0.42857143 </v>
   <v>       0.50000000       0.50000000       0.42857143 </v>
   <v>       0.12500000      -0.37500000       0.42857143 </v>
   <v>       0.25000000      -0.37500000       0.42857143 </v>
   <v>       0.37500000      -0.37500000       0.42857143 </v>
   <v>       0.12500000      -0.25000000       0.42857143 </v>
   <v>       0.25000000      -0.25000000       0.42857143 </v>
   <v>       0.12500000      -0.12500000       0.42857143 </v>
  </varray>
  <varray name="weights" >
   <v>       0.00223214 </v>
   <v>       0.00892857 </v>
   <v>       0.00892857 </v>
   <v>       0.00892857 </v>
   <v>       0.00446429 </v>
   <v>       0.00446429 </v>
   <v>       0.00892857 </v>
   <v>       0.00892857 </v>
   <v>       0.00892857 </v>
   <v>       0.00892857 </v>
   <v>       0.00892857 </v>
   <v>       0.00446429 </v>
   <v>       0.00446429 </v>
   <v>       0.00892857 </v>
   <v>       0.00892857 </v>
   <v>       0.00892857 </v>
   <v>       0.00446429 </v>
   <v>       0.00446429 </v>
   <v>       0.00892857 </v>
   <v>       0.00446429 </v>
   <v>       0.00223214 </v>
   <v>       0.00446429 </v>
   <v>       0.00892857 </v>
   <v>       0.00892857 </v>
   <v>       0.00892857 </v>
   <v>       0.00892857 </v>
   <v>       0.00892857 </v>
   <v>       0.00892857 </v>
   <v>       0.00892857 </v>
   <v>       0.00892857 </v>
   <v>       0.00892857 </v>
   <v>       0.00892857 </v>
   <v>       0.00892857 </v>
   <v>       0.00892857 </v>
   <v>       0.00892857 </v>
   <v>       0.00446429 </v>
   <v>       0.00892857 </v>
   <v>       0.00892857 </v>
   <v>       0.00892857 </v>
   <v>       0.00892857 </v>
   <v>       0.00892857 </v>
   <v>       0.00446429 </v>
   <v>       0.00892857 </v>
   <v>       0.00892857 </v>
   <v>       0.00892857 </v>
   <v>       0.00892857 </v>
   <v>       0.00446429 </v>
   <v>       0.00892857 </v>
   <v>       0.00892857 </v>
   <v>       0.00892857 </v>
   <v>       0.00446429 </v>
   <v>       0.00892857 </v>
   <v>       0.00892857 </v>
   <v>       0.00446429 </v>
   <v>       0.00892857 </v>
   <v>       0.00446429 </v>
   <v>       0.00446429 </v>
   <v>       0.00446429 </v>
   <v>       0.00892857 </v>
   <v>       0.00892857 </v>
   <v>       0.00892857 </v>
   <v>       0.00892857 </v>
   <v>       0.00892857 </v>
   <v>       0.00892857 </v>
   <v>       0.00892857 </v>
   <v>       0.00892857 </v>
   <v>       0.00892857 </v>
   <v>       0.00892857 </v>
   <v>       0.00892857 </v>
   <v>       0.00892857 </v>
   <v>       0.00892857 </v>
   <v>       0.00446429 </v>
   <v>       0.00892857 </v>
   <v>       0.00892857 </v>
   <v>       0.00892857 </v>
   <v>       0.00892857 </v>
   <v>       0.00892857 </v>
   <v>       0.00446429 </v>
   <v>       0.00892857 </v>
   <v>       0.00892857 </v>
   <v>       0.00892857 </v>
   <v>       0.00892857 </v>
   <v>       0.00446429 </v>
   <v>       0.00892857 </v>
   <v>       0.00892857 </v>
   <v>       0.00892857 </v>
   <v>       0.00446429 </v>
   <v>       0.00892857 </v>
   <v>       0.00892857 </v>
   <v>       0.00446429 </v>
   <v>       0.00892857 </v>
   <v>       0.00446429 </v>
   <v>       0.00446429 </v>
   <v>       0.00446429 </v>
   <v>       0.00892857 </v>
   <v>       0.00892857 </v>
   <v>       0.00892857 </v>
   <v>       0.00892857 </v>
   <v>       0.00892857 </v>
   <v>       0.00892857 </v>
   <v>       0.00892857 </v>
   <v>       0.00892857 </v>
   <v>       0.00892857 </v>
   <v>       0.00892857 </v>
   <v>       0.00892857 </v>
   <v>       0.00892857 </v>
   <v>       0.00892857 </v>
   <v>       0.00446429 </v>
   <v>       0.00892857 </v>
   <v>       0.00892857 </v>
   <v>       0.00892857 </v>
   <v>       0.00892857 </v>
   <v>       0.00892857 </v>
   <v>       0.00446429 </v>
   <v>       0.00892857 </v>
   <v>       0.00892857 </v>
   <v>       0.00892857 </v>
   <v>       0.00892857 </v>
   <v>       0.00446429 </v>
   <v>       0.00892857 </v>
   <v>       0.00892857 </v>
   <v>       0.00892857 </v>
   <v>       0.00446429 </v>
   <v>       0.00892857 </v>
   <v>       0.00892857 </v>
   <v>       0.00446429 </v>
   <v>       0.00892857 </v>
   <v>       0.00446429 </v>
   <v>       0.00446429 </v>
  </varray>
  <varray name="tetrahedronlist"  type="int" >
   <v type="int" >        4        2        2        6       29 </v>
   <v type="int" >        4        1        2        2       29 </v>
   <v type="int" >        4        1        2       22       29 </v>
   <v type="int" >        4        2        6       29       30 </v>
   <v type="int" >        4        2       23       29       30 </v>
   <v type="int" >        4        2       22       23       29 </v>
   <v type="int" >        4        3        6        7       30 </v>
   <v type="int" >        4        2        3        6       30 </v>
   <v type="int" >        4        2        3       23       30 </v>
   <v type="int" >        4        3        7       30       31 </v>
   <v type="int" >        4        3       24       30       31 </v>
   <v type="int" >        4        3       23       24       30 </v>
   <v type="int" >        4        4        7        8       31 </v>
   <v type="int" >        4        3        4        7       31 </v>
   <v type="int" >        4        3        4       24       31 </v>
   <v type="int" >        4        4        8       31       32 </v>
   <v type="int" >        4        4       25       31       32 </v>
   <v type="int" >        4        4       24       25       31 </v>
   <v type="int" >        4        5        8        9       32 </v>
   <v type="int" >        4        4        5        8       32 </v>
   <v type="int" >        4        4        5       25       32 </v>
   <v type="int" >        4        5        9       32       33 </v>
   <v type="int" >        4        5       26       32       33 </v>
   <v type="int" >        4        5       25       26       32 </v>
   <v type="int" >        4        4        9       10       33 </v>
   <v type="int" >        4        4        5        9       33 </v>
   <v type="int" >        4        4        5       26       33 </v>
   <v type="int" >        4        4       10       33       34 </v>
   <v type="int" >        4        4       27       33       34 </v>
   <v type="int" >        4        4       26       27       33 </v>
   <v type="int" >        4        3       10       11       34 </v>
   <v type="int" >        4        3        4       10       34 </v>
   <v type="int" >        4        3        4       27       34 </v>
   <v type="int" >        4        3       11       34       35 </v>
   <v type="int" >        4        3       28       34       35 </v>
   <v type="int" >        4        3       27       28       34 </v>
   <v type="int" >        4        2       11       12       35 </v>
   <v type="int" >        4        2        3       11       35 </v>
   <v type="int" >        4        2        3       28       35 </v>
   <v type="int" >        4        2       12       35       36 </v>
   <v type="int" >        4        2       29       35       36 </v>
   <v type="int" >        4        2       28       29       35 </v>
   <v type="int" >        4        1        2       12       36 </v>
   <v type="int" >        4        1        2       29       36 </v>
   <v type="int" >        4        1       22       29       36 </v>
   <v type="int" >        4        3        6        7       28 </v>
   <v type="int" >        4        2        3        6       28 </v>
   <v type="int" >        4        2        6       28       29 </v>
   <v type="int" >        4        6        7       28       37 </v>
   <v type="int" >        4        6       28       30       37 </v>
   <v type="int" >        4        6       28       29       30 </v>
   <v type="int" >        4        7        7       13       37 </v>
   <v type="int" >        4        6        7        7       37 </v>
   <v type="int" >        4        6        7       30       37 </v>
   <v type="int" >        4        7       13       37       38 </v>
   <v type="int" >        4        7       31       37       38 </v>
   <v type="int" >        4        7       30       31       37 </v>
   <v type="int" >        4        8       13       14       38 </v>
   <v type="int" >        4        7        8       13       38 </v>
   <v type="int" >        4        7        8       31       38 </v>
   <v type="int" >        4        8       14       38       39 </v>
   <v type="int" >        4        8       32       38       39 </v>
   <v type="int" >        4        8       31       32       38 </v>
   <v type="int" >        4        9       14       15       39 </v>
   <v type="int" >        4        8        9       14       39 </v>
   <v type="int" >        4        8        9       32       39 </v>
   <v type="int" >        4        9       15       39       40 </v>
   <v type="int" >        4        9       33       39       40 </v>
   <v type="int" >        4        9       32       33       39 </v>
   <v type="int" >        4       10       15       16       40 </v>
   <v type="int" >        4        9       10       15       40 </v>
   <v type="int" >        4        9       10       33       40 </v>
   <v type="int" >        4       10       16       40       41 </v>
   <v type="int" >        4       10       34       40       41 </v>
   <v type="int" >        4       10       33       34       40 </v>
   <v type="int" >        4       11       16       17       41 </v>
   <v type="int" >        4       10       11       16       41 </v>
   <v type="int" >        4       10       11       34       41 </v>
   <v type="int" >        4       11       17       41       42 </v>
   <v type="int" >        4       11       35       41       42 </v>
   <v type="int" >        4       11       34       35       41 </v>
   <v type="int" >        4       11       12       17       42 </v>
   <v type="int" >        4       11       12       35       42 </v>
   <v type="int" >        4       12       35       36       42 </v>
   <v type="int" >        4        4        7        8       27 </v>
   <v type="int" >        4        3        4        7       27 </v>
   <v type="int" >        4        3        7       27       28 </v>
   <v type="int" >        4        7        8       27       43 </v>
   <v type="int" >        4        7       27       37       43 </v>
   <v type="int" >        4        7       27       28       37 </v>
   <v type="int" >        4        8       13       14       43 </v>
   <v type="int" >        4        7        8       13       43 </v>
   <v type="int" >        4        7       13       37       43 </v>
   <v type="int" >        4       13       14       43       44 </v>
   <v type="int" >        4       13       38       43       44 </v>
   <v type="int" >        4       13       37       38       43 </v>
   <v type="int" >        4       14       14       18       44 </v>
   <v type="int" >        4       13       14       14       44 </v>
   <v type="int" >        4       13       14       38       44 </v>
   <v type="int" >        4       14       18       44       45 </v>
   <v type="int" >        4       14       39       44       45 </v>
   <v type="int" >        4       14       38       39       44 </v>
   <v type="int" >        4       15       18       19       45 </v>
   <v type="int" >        4       14       15       18       45 </v>
   <v type="int" >        4       14       15       39       45 </v>
   <v type="int" >        4       15       19       45       46 </v>
   <v type="int" >        4       15       40       45       46 </v>
   <v type="int" >        4       15       39       40       45 </v>
   <v type="int" >        4       16       19       20       46 </v>
   <v type="int" >        4       15       16       19       46 </v>
   <v type="int" >        4       15       16       40       46 </v>
   <v type="int" >        4       16       20       46       47 </v>
   <v type="int" >        4       16       41       46       47 </v>
   <v type="int" >        4       16       40       41       46 </v>
   <v type="int" >        4       16       17       20       47 </v>
   <v type="int" >        4       16       17       41       47 </v>
   <v type="int" >        4       17       41       42       47 </v>
   <v type="int" >        4        5        8        9       26 </v>
   <v type="int" >        4        4        5        8       26 </v>
   <v type="int" >        4        4        8       26       27 </v>
   <v type="int" >        4        8        9       26       48 </v>
   <v type="int" >        4        8       26       43       48 </v>
   <v type="int" >        4        8       26       27       43 </v>
   <v type="int" >        4        9       14       15       48 </v>
   <v type="int" >        4        8        9       14       48 </v>
   <v type="int" >        4        8       14       43       48 </v>
   <v type="int" >        4       14       15       48       49 </v>
   <v type="int" >        4       14       44       48       49 </v>
   <v type="int" >        4       14       43       44       48 </v>
   <v type="int" >        4       15       18       19       49 </v>
   <v type="int" >        4       14       15       18       49 </v>
   <v type="int" >        4       14       18       44       49 </v>
   <v type="int" >        4       18       19       49       50 </v>
   <v type="int" >        4       18       45       49       50 </v>
   <v type="int" >        4       18       44       45       49 </v>
   <v type="int" >        4       19       19       21       50 </v>
   <v type="int" >        4       18       19       19       50 </v>
   <v type="int" >        4       18       19       45       50 </v>
   <v type="int" >        4       19       21       50       51 </v>
   <v type="int" >        4       19       46       50       51 </v>
   <v type="int" >        4       19       45       46       50 </v>
   <v type="int" >        4       19       20       21       51 </v>
   <v type="int" >        4       19       20       46       51 </v>
   <v type="int" >        4       20       46       47       51 </v>
   <v type="int" >        4        4        9       10       25 </v>
   <v type="int" >        4        4        5        9       25 </v>
   <v type="int" >        4        5        9       25       26 </v>
   <v type="int" >        4        9       10       25       52 </v>
   <v type="int" >        4        9       25       48       52 </v>
   <v type="int" >        4        9       25       26       48 </v>
   <v type="int" >        4       10       15       16       52 </v>
   <v type="int" >        4        9       10       15       52 </v>
   <v type="int" >        4        9       15       48       52 </v>
   <v type="int" >        4       15       16       52       53 </v>
   <v type="int" >        4       15       49       52       53 </v>
   <v type="int" >        4       15       48       49       52 </v>
   <v type="int" >        4       16       19       20       53 </v>
   <v type="int" >        4       15       16       19       53 </v>
   <v type="int" >        4       15       19       49       53 </v>
   <v type="int" >        4       19       20       53       54 </v>
   <v type="int" >        4       19       50       53       54 </v>
   <v type="int" >        4       19       49       50       53 </v>
   <v type="int" >        4       19       20       21       54 </v>
   <v type="int" >        4       19       21       50       54 </v>
   <v type="int" >        4       21       50       51       54 </v>
   <v type="int" >        4        3       10       11       24 </v>
   <v type="int" >        4        3        4       10       24 </v>
   <v type="int" >        4        4       10       24       25 </v>
   <v type="int" >        4       10       11       24       55 </v>
   <v type="int" >        4       10       24       52       55 </v>
   <v type="int" >        4       10       24       25       52 </v>
   <v type="int" >        4       11       16       17       55 </v>
   <v type="int" >        4       10       11       16       55 </v>
   <v type="int" >        4       10       16       52       55 </v>
   <v type="int" >        4       16       17       55       56 </v>
   <v type="int" >        4       16       53       55       56 </v>
   <v type="int" >        4       16       52       53       55 </v>
   <v type="int" >        4       16       17       20       56 </v>
   <v type="int" >        4       16       20       53       56 </v>
   <v type="int" >        4       20       53       54       56 </v>
   <v type="int" >        4        2       11       12       23 </v>
   <v type="int" >        4        2        3       11       23 </v>
   <v type="int" >        4        3       11       23       24 </v>
   <v type="int" >        4       11       12       23       57 </v>
   <v type="int" >        4       11       23       55       57 </v>
   <v type="int" >        4       11       23       24       55 </v>
   <v type="int" >        4       11       12       17       57 </v>
   <v type="int" >        4       11       17       55       57 </v>
   <v type="int" >        4       17       55       56       57 </v>
   <v type="int" >        4        1        2       12       22 </v>
   <v type="int" >        4        2       12       22       23 </v>
   <v type="int" >        4       12       22       23       57 </v>
   <v type="int" >        4       23       29       30       65 </v>
   <v type="int" >        4       22       23       29       65 </v>
   <v type="int" >        4       22       23       58       65 </v>
   <v type="int" >        4       23       30       65       66 </v>
   <v type="int" >        4       23       59       65       66 </v>
   <v type="int" >        4       23       58       59       65 </v>
   <v type="int" >        4       24       30       31       66 </v>
   <v type="int" >        4       23       24       30       66 </v>
   <v type="int" >        4       23       24       59       66 </v>
   <v type="int" >        4       24       31       66       67 </v>
   <v type="int" >        4       24       60       66       67 </v>
   <v type="int" >        4       24       59       60       66 </v>
   <v type="int" >        4       25       31       32       67 </v>
   <v type="int" >        4       24       25       31       67 </v>
   <v type="int" >        4       24       25       60       67 </v>
   <v type="int" >        4       25       32       67       68 </v>
   <v type="int" >        4       25       61       67       68 </v>
   <v type="int" >        4       25       60       61       67 </v>
   <v type="int" >        4       26       32       33       68 </v>
   <v type="int" >        4       25       26       32       68 </v>
   <v type="int" >        4       25       26       61       68 </v>
   <v type="int" >        4       26       33       68       69 </v>
   <v type="int" >        4       26       62       68       69 </v>
   <v type="int" >        4       26       61       62       68 </v>
   <v type="int" >        4       27       33       34       69 </v>
   <v type="int" >        4       26       27       33       69 </v>
   <v type="int" >        4       26       27       62       69 </v>
   <v type="int" >        4       27       34       69       70 </v>
   <v type="int" >        4       27       63       69       70 </v>
   <v type="int" >        4       27       62       63       69 </v>
   <v type="int" >        4       28       34       35       70 </v>
   <v type="int" >        4       27       28       34       70 </v>
   <v type="int" >        4       27       28       63       70 </v>
   <v type="int" >        4       28       35       70       71 </v>
   <v type="int" >        4       28       64       70       71 </v>
   <v type="int" >        4       28       63       64       70 </v>
   <v type="int" >        4       29       35       36       71 </v>
   <v type="int" >        4       28       29       35       71 </v>
   <v type="int" >        4       28       29       64       71 </v>
   <v type="int" >        4       29       36       71       72 </v>
   <v type="int" >        4       29       65       71       72 </v>
   <v type="int" >        4       29       64       65       71 </v>
   <v type="int" >        4       22       29       36       72 </v>
   <v type="int" >        4       22       29       65       72 </v>
   <v type="int" >        4       22       58       65       72 </v>
   <v type="int" >        4       28       30       37       64 </v>
   <v type="int" >        4       28       29       30       64 </v>
   <v type="int" >        4       29       30       64       65 </v>
   <v type="int" >        4       30       37       64       73 </v>
   <v type="int" >        4       30       64       66       73 </v>
   <v type="int" >        4       30       64       65       66 </v>
   <v type="int" >        4       31       37       38       73 </v>
   <v type="int" >        4       30       31       37       73 </v>
   <v type="int" >        4       30       31       66       73 </v>
   <v type="int" >        4       31       38       73       74 </v>
   <v type="int" >        4       31       67       73       74 </v>
   <v type="int" >        4       31       66       67       73 </v>
   <v type="int" >        4       32       38       39       74 </v>
   <v type="int" >        4       31       32       38       74 </v>
   <v type="int" >        4       31       32       67       74 </v>
   <v type="int" >        4       32       39       74       75 </v>
   <v type="int" >        4       32       68       74       75 </v>
   <v type="int" >        4       32       67       68       74 </v>
   <v type="int" >        4       33       39       40       75 </v>
   <v type="int" >        4       32       33       39       75 </v>
   <v type="int" >        4       32       33       68       75 </v>
   <v type="int" >        4       33       40       75       76 </v>
   <v type="int" >        4       33       69       75       76 </v>
   <v type="int" >        4       33       68       69       75 </v>
   <v type="int" >        4       34       40       41       76 </v>
   <v type="int" >        4       33       34       40       76 </v>
   <v type="int" >        4       33       34       69       76 </v>
   <v type="int" >        4       34       41       76       77 </v>
   <v type="int" >        4       34       70       76       77 </v>
   <v type="int" >        4       34       69       70       76 </v>
   <v type="int" >        4       35       41       42       77 </v>
   <v type="int" >        4       34       35       41       77 </v>
   <v type="int" >        4       34       35       70       77 </v>
   <v type="int" >        4       35       42       77       78 </v>
   <v type="int" >        4       35       71       77       78 </v>
   <v type="int" >        4       35       70       71       77 </v>
   <v type="int" >        4       35       36       42       78 </v>
   <v type="int" >        4       35       36       71       78 </v>
   <v type="int" >        4       36       71       72       78 </v>
   <v type="int" >        4       27       37       43       63 </v>
   <v type="int" >        4       27       28       37       63 </v>
   <v type="int" >        4       28       37       63       64 </v>
   <v type="int" >        4       37       43       63       79 </v>
   <v type="int" >        4       37       63       73       79 </v>
   <v type="int" >        4       37       63       64       73 </v>
   <v type="int" >        4       38       43       44       79 </v>
   <v type="int" >        4       37       38       43       79 </v>
   <v type="int" >        4       37       38       73       79 </v>
   <v type="int" >        4       38       44       79       80 </v>
   <v type="int" >        4       38       74       79       80 </v>
   <v type="int" >        4       38       73       74       79 </v>
   <v type="int" >        4       39       44       45       80 </v>
   <v type="int" >        4       38       39       44       80 </v>
   <v type="int" >        4       38       39       74       80 </v>
   <v type="int" >        4       39       45       80       81 </v>
   <v type="int" >        4       39       75       80       81 </v>
   <v type="int" >        4       39       74       75       80 </v>
   <v type="int" >        4       40       45       46       81 </v>
   <v type="int" >        4       39       40       45       81 </v>
   <v type="int" >        4       39       40       75       81 </v>
   <v type="int" >        4       40       46       81       82 </v>
   <v type="int" >        4       40       76       81       82 </v>
   <v type="int" >        4       40       75       76       81 </v>
   <v type="int" >        4       41       46       47       82 </v>
   <v type="int" >        4       40       41       46       82 </v>
   <v type="int" >        4       40       41       76       82 </v>
   <v type="int" >        4       41       47       82       83 </v>
   <v type="int" >        4       41       77       82       83 </v>
   <v type="int" >        4       41       76       77       82 </v>
   <v type="int" >        4       41       42       47       83 </v>
   <v type="int" >        4       41       42       77       83 </v>
   <v type="int" >        4       42       77       78       83 </v>
   <v type="int" >        4       26       43       48       62 </v>
   <v type="int" >        4       26       27       43       62 </v>
   <v type="int" >        4       27       43       62       63 </v>
   <v type="int" >        4       43       48       62       84 </v>
   <v type="int" >        4       43       62       79       84 </v>
   <v type="int" >        4       43       62       63       79 </v>
   <v type="int" >        4       44       48       49       84 </v>
   <v type="int" >        4       43       44       48       84 </v>
   <v type="int" >        4       43       44       79       84 </v>
   <v type="int" >        4       44       49       84       85 </v>
   <v type="int" >        4       44       80       84       85 </v>
   <v type="int" >        4       44       79       80       84 </v>
   <v type="int" >        4       45       49       50       85 </v>
   <v type="int" >        4       44       45       49       85 </v>
   <v type="int" >        4       44       45       80       85 </v>
   <v type="int" >        4       45       50       85       86 </v>
   <v type="int" >        4       45       81       85       86 </v>
   <v type="int" >        4       45       80       81       85 </v>
   <v type="int" >        4       46       50       51       86 </v>
   <v type="int" >        4       45       46       50       86 </v>
   <v type="int" >        4       45       46       81       86 </v>
   <v type="int" >        4       46       51       86       87 </v>
   <v type="int" >        4       46       82       86       87 </v>
   <v type="int" >        4       46       81       82       86 </v>
   <v type="int" >        4       46       47       51       87 </v>
   <v type="int" >        4       46       47       82       87 </v>
   <v type="int" >        4       47       82       83       87 </v>
   <v type="int" >        4       25       48       52       61 </v>
   <v type="int" >        4       25       26       48       61 </v>
   <v type="int" >        4       26       48       61       62 </v>
   <v type="int" >        4       48       52       61       88 </v>
   <v type="int" >        4       48       61       84       88 </v>
   <v type="int" >        4       48       61       62       84 </v>
   <v type="int" >        4       49       52       53       88 </v>
   <v type="int" >        4       48       49       52       88 </v>
   <v type="int" >        4       48       49       84       88 </v>
   <v type="int" >        4       49       53       88       89 </v>
   <v type="int" >        4       49       85       88       89 </v>
   <v type="int" >        4       49       84       85       88 </v>
   <v type="int" >        4       50       53       54       89 </v>
   <v type="int" >        4       49       50       53       89 </v>
   <v type="int" >        4       49       50       85       89 </v>
   <v type="int" >        4       50       54       89       90 </v>
   <v type="int" >        4       50       86       89       90 </v>
   <v type="int" >        4       50       85       86       89 </v>
   <v type="int" >        4       50       51       54       90 </v>
   <v type="int" >        4       50       51       86       90 </v>
   <v type="int" >        4       51       86       87       90 </v>
   <v type="int" >        4       24       52       55       60 </v>
   <v type="int" >        4       24       25       52       60 </v>
   <v type="int" >        4       25       52       60       61 </v>
   <v type="int" >        4       52       55       60       91 </v>
   <v type="int" >        4       52       60       88       91 </v>
   <v type="int" >        4       52       60       61       88 </v>
   <v type="int" >        4       53       55       56       91 </v>
   <v type="int" >        4       52       53       55       91 </v>
   <v type="int" >        4       52       53       88       91 </v>
   <v type="int" >        4       53       56       91       92 </v>
   <v type="int" >        4       53       89       91       92 </v>
   <v type="int" >        4       53       88       89       91 </v>
   <v type="int" >        4       53       54       56       92 </v>
   <v type="int" >        4       53       54       89       92 </v>
   <v type="int" >        4       54       89       90       92 </v>
   <v type="int" >        4       23       55       57       59 </v>
   <v type="int" >        4       23       24       55       59 </v>
   <v type="int" >        4       24       55       59       60 </v>
   <v type="int" >        4       55       57       59       93 </v>
   <v type="int" >        4       55       59       91       93 </v>
   <v type="int" >        4       55       59       60       91 </v>
   <v type="int" >        4       55       56       57       93 </v>
   <v type="int" >        4       55       56       91       93 </v>
   <v type="int" >        4       56       91       92       93 </v>
   <v type="int" >        4       22       23       57       58 </v>
   <v type="int" >        4       23       57       58       59 </v>
   <v type="int" >        4       57       58       59       93 </v>
   <v type="int" >        4       59       65       66      101 </v>
   <v type="int" >        4       58       59       65      101 </v>
   <v type="int" >        4       58       59       94      101 </v>
   <v type="int" >        4       59       66      101      102 </v>
   <v type="int" >        4       59       95      101      102 </v>
   <v type="int" >        4       59       94       95      101 </v>
   <v type="int" >        4       60       66       67      102 </v>
   <v type="int" >        4       59       60       66      102 </v>
   <v type="int" >        4       59       60       95      102 </v>
   <v type="int" >        4       60       67      102      103 </v>
   <v type="int" >        4       60       96      102      103 </v>
   <v type="int" >        4       60       95       96      102 </v>
   <v type="int" >        4       61       67       68      103 </v>
   <v type="int" >        4       60       61       67      103 </v>
   <v type="int" >        4       60       61       96      103 </v>
   <v type="int" >        4       61       68      103      104 </v>
   <v type="int" >        4       61       97      103      104 </v>
   <v type="int" >        4       61       96       97      103 </v>
   <v type="int" >        4       62       68       69      104 </v>
   <v type="int" >        4       61       62       68      104 </v>
   <v type="int" >        4       61       62       97      104 </v>
   <v type="int" >        4       62       69      104      105 </v>
   <v type="int" >        4       62       98      104      105 </v>
   <v type="int" >        4       62       97       98      104 </v>
   <v type="int" >        4       63       69       70      105 </v>
   <v type="int" >        4       62       63       69      105 </v>
   <v type="int" >        4       62       63       98      105 </v>
   <v type="int" >        4       63       70      105      106 </v>
   <v type="int" >        4       63       99      105      106 </v>
   <v type="int" >        4       63       98       99      105 </v>
   <v type="int" >        4       64       70       71      106 </v>
   <v type="int" >        4       63       64       70      106 </v>
   <v type="int" >        4       63       64       99      106 </v>
   <v type="int" >        4       64       71      106      107 </v>
   <v type="int" >        4       64      100      106      107 </v>
   <v type="int" >        4       64       99      100      106 </v>
   <v type="int" >        4       65       71       72      107 </v>
   <v type="int" >        4       64       65       71      107 </v>
   <v type="int" >        4       64       65      100      107 </v>
   <v type="int" >        4       65       72      107      108 </v>
   <v type="int" >        4       65      101      107      108 </v>
   <v type="int" >        4       65      100      101      107 </v>
   <v type="int" >        4       58       65       72      108 </v>
   <v type="int" >        4       58       65      101      108 </v>
   <v type="int" >        4       58       94      101      108 </v>
   <v type="int" >        4       64       66       73      100 </v>
   <v type="int" >        4       64       65       66      100 </v>
   <v type="int" >        4       65       66      100      101 </v>
   <v type="int" >        4       66       73      100      109 </v>
   <v type="int" >        4       66      100      102      109 </v>
   <v type="int" >        4       66      100      101      102 </v>
   <v type="int" >        4       67       73       74      109 </v>
   <v type="int" >        4       66       67       73      109 </v>
   <v type="int" >        4       66       67      102      109 </v>
   <v type="int" >        4       67       74      109      110 </v>
   <v type="int" >        4       67      103      109      110 </v>
   <v type="int" >        4       67      102      103      109 </v>
   <v type="int" >        4       68       74       75      110 </v>
   <v type="int" >        4       67       68       74      110 </v>
   <v type="int" >        4       67       68      103      110 </v>
   <v type="int" >        4       68       75      110      111 </v>
   <v type="int" >        4       68      104      110      111 </v>
   <v type="int" >        4       68      103      104      110 </v>
   <v type="int" >        4       69       75       76      111 </v>
   <v type="int" >        4       68       69       75      111 </v>
   <v type="int" >        4       68       69      104      111 </v>
   <v type="int" >        4       69       76      111      112 </v>
   <v type="int" >        4       69      105      111      112 </v>
   <v type="int" >        4       69      104      105      111 </v>
   <v type="int" >        4       70       76       77      112 </v>
   <v type="int" >        4       69       70       76      112 </v>
   <v type="int" >        4       69       70      105      112 </v>
   <v type="int" >        4       70       77      112      113 </v>
   <v type="int" >        4       70      106      112      113 </v>
   <v type="int" >        4       70      105      106      112 </v>
   <v type="int" >        4       71       77       78      113 </v>
   <v type="int" >        4       70       71       77      113 </v>
   <v type="int" >        4       70       71      106      113 </v>
   <v type="int" >        4       71       78      113      114 </v>
   <v type="int" >        4       71      107      113      114 </v>
   <v type="int" >        4       71      106      107      113 </v>
   <v type="int" >        4       71       72       78      114 </v>
   <v type="int" >        4       71       72      107      114 </v>
   <v type="int" >        4       72      107      108      114 </v>
   <v type="int" >        4       63       73       79       99 </v>
   <v type="int" >        4       63       64       73       99 </v>
   <v type="int" >        4       64       73       99      100 </v>
   <v type="int" >        4       73       79       99      115 </v>
   <v type="int" >        4       73       99      109      115 </v>
   <v type="int" >        4       73       99      100      109 </v>
   <v type="int" >        4       74       79       80      115 </v>
   <v type="int" >        4       73       74       79      115 </v>
   <v type="int" >        4       73       74      109      115 </v>
   <v type="int" >        4       74       80      115      116 </v>
   <v type="int" >        4       74      110      115      116 </v>
   <v type="int" >        4       74      109      110      115 </v>
   <v type="int" >        4       75       80       81      116 </v>
   <v type="int" >        4       74       75       80      116 </v>
   <v type="int" >        4       74       75      110      116 </v>
   <v type="int" >        4       75       81      116      117 </v>
   <v type="int" >        4       75      111      116      117 </v>
   <v type="int" >        4       75      110      111      116 </v>
   <v type="int" >        4       76       81       82      117 </v>
   <v type="int" >        4       75       76       81      117 </v>
   <v type="int" >        4       75       76      111      117 </v>
   <v type="int" >        4       76       82      117      118 </v>
   <v type="int" >        4       76      112      117      118 </v>
   <v type="int" >        4       76      111      112      117 </v>
   <v type="int" >        4       77       82       83      118 </v>
   <v type="int" >        4       76       77       82      118 </v>
   <v type="int" >        4       76       77      112      118 </v>
   <v type="int" >        4       77       83      118      119 </v>
   <v type="int" >        4       77      113      118      119 </v>
   <v type="int" >        4       77      112      113      118 </v>
   <v type="int" >        4       77       78       83      119 </v>
   <v type="int" >        4       77       78      113      119 </v>
   <v type="int" >        4       78      113      114      119 </v>
   <v type="int" >        4       62       79       84       98 </v>
   <v type="int" >        4       62       63       79       98 </v>
   <v type="int" >        4       63       79       98       99 </v>
   <v type="int" >        4       79       84       98      120 </v>
   <v type="int" >        4       79       98      115      120 </v>
   <v type="int" >        4       79       98       99      115 </v>
   <v type="int" >        4       80       84       85      120 </v>
   <v type="int" >        4       79       80       84      120 </v>
   <v type="int" >        4       79       80      115      120 </v>
   <v type="int" >        4       80       85      120      121 </v>
   <v type="int" >        4       80      116      120      121 </v>
   <v type="int" >        4       80      115      116      120 </v>
   <v type="int" >        4       81       85       86      121 </v>
   <v type="int" >        4       80       81       85      121 </v>
   <v type="int" >        4       80       81      116      121 </v>
   <v type="int" >        4       81       86      121      122 </v>
   <v type="int" >        4       81      117      121      122 </v>
   <v type="int" >        4       81      116      117      121 </v>
   <v type="int" >        4       82       86       87      122 </v>
   <v type="int" >        4       81       82       86      122 </v>
   <v type="int" >        4       81       82      117      122 </v>
   <v type="int" >        4       82       87      122      123 </v>
   <v type="int" >        4       82      118      122      123 </v>
   <v type="int" >        4       82      117      118      122 </v>
   <v type="int" >        4       82       83       87      123 </v>
   <v type="int" >        4       82       83      118      123 </v>
   <v type="int" >        4       83      118      119      123 </v>
   <v type="int" >        4       61       84       88       97 </v>
   <v type="int" >        4       61       62       84       97 </v>
   <v type="int" >        4       62       84       97       98 </v>
   <v type="int" >        4       84       88       97      124 </v>
   <v type="int" >        4       84       97      120      124 </v>
   <v type="int" >        4       84       97       98      120 </v>
   <v type="int" >        4       85       88       89      124 </v>
   <v type="int" >        4       84       85       88      124 </v>
   <v type="int" >        4       84       85      120      124 </v>
   <v type="int" >        4       85       89      124      125 </v>
   <v type="int" >        4       85      121      124      125 </v>
   <v type="int" >        4       85      120      121      124 </v>
   <v type="int" >        4       86       89       90      125 </v>
   <v type="int" >        4       85       86       89      125 </v>
   <v type="int" >        4       85       86      121      125 </v>
   <v type="int" >        4       86       90      125      126 </v>
   <v type="int" >        4       86      122      125      126 </v>
   <v type="int" >        4       86      121      122      125 </v>
   <v type="int" >        4       86       87       90      126 </v>
   <v type="int" >        4       86       87      122      126 </v>
   <v type="int" >        4       87      122      123      126 </v>
   <v type="int" >        4       60       88       91       96 </v>
   <v type="int" >        4       60       61       88       96 </v>
   <v type="int" >        4       61       88       96       97 </v>
   <v type="int" >        4       88       91       96      127 </v>
   <v type="int" >        4       88       96      124      127 </v>
   <v type="int" >        4       88       96       97      124 </v>
   <v type="int" >        4       89       91       92      127 </v>
   <v type="int" >        4       88       89       91      127 </v>
   <v type="int" >        4       88       89      124      127 </v>
   <v type="int" >        4       89       92      127      128 </v>
   <v type="int" >        4       89      125      127      128 </v>
   <v type="int" >        4       89      124      125      127 </v>
   <v type="int" >        4       89       90       92      128 </v>
   <v type="int" >        4       89       90      125      128 </v>
   <v type="int" >        4       90      125      126      128 </v>
   <v type="int" >        4       59       91       93       95 </v>
   <v type="int" >        4       59       60       91       95 </v>
   <v type="int" >        4       60       91       95       96 </v>
   <v type="int" >        4       91       93       95      129 </v>
   <v type="int" >        4       91       95      127      129 </v>
   <v type="int" >        4       91       95       96      127 </v>
   <v type="int" >        4       91       92       93      129 </v>
   <v type="int" >        4       91       92      127      129 </v>
   <v type="int" >        4       92      127      128      129 </v>
   <v type="int" >        4       58       59       93       94 </v>
   <v type="int" >        4       59       93       94       95 </v>
   <v type="int" >        4       93       94       95      129 </v>
   <v type="int" >        4       95       95      101      102 </v>
   <v type="int" >        4       94       95       95      101 </v>
   <v type="int" >        2       94       94       95       95 </v>
   <v type="int" >        2       95       95      102      102 </v>
   <v type="int" >        4       96      102      102      103 </v>
   <v type="int" >        4       95       96      102      102 </v>
   <v type="int" >        4       95       96      101      102 </v>
   <v type="int" >        4       96      102      103      109 </v>
   <v type="int" >        4       96      100      102      109 </v>
   <v type="int" >        4       96      100      101      102 </v>
   <v type="int" >        4       97      103      104      109 </v>
   <v type="int" >        4       96       97      103      109 </v>
   <v type="int" >        4       96       97      100      109 </v>
   <v type="int" >        4       97      104      109      115 </v>
   <v type="int" >        4       97       99      109      115 </v>
   <v type="int" >        4       97       99      100      109 </v>
   <v type="int" >        4       98      104      105      115 </v>
   <v type="int" >        4       97       98      104      115 </v>
   <v type="int" >        4       97       98       99      115 </v>
   <v type="int" >        4       98      105      115      120 </v>
   <v type="int" >        4       98       98      115      120 </v>
   <v type="int" >        4       98       98       99      115 </v>
   <v type="int" >        4       99      105      106      120 </v>
   <v type="int" >        4       98       99      105      120 </v>
   <v type="int" >        4       98       98       99      120 </v>
   <v type="int" >        4       99      106      120      124 </v>
   <v type="int" >        4       97       99      120      124 </v>
   <v type="int" >        4       97       98       99      120 </v>
   <v type="int" >        4      100      106      107      124 </v>
   <v type="int" >        4       99      100      106      124 </v>
   <v type="int" >        4       97       99      100      124 </v>
   <v type="int" >        4      100      107      124      127 </v>
   <v type="int" >        4       96      100      124      127 </v>
   <v type="int" >        4       96       97      100      124 </v>
   <v type="int" >        4      101      107      108      127 </v>
   <v type="int" >        4      100      101      107      127 </v>
   <v type="int" >        4       96      100      101      127 </v>
   <v type="int" >        4      101      108      127      129 </v>
   <v type="int" >        4       95      101      127      129 </v>
   <v type="int" >        4       95       96      101      127 </v>
   <v type="int" >        4       94      101      108      129 </v>
   <v type="int" >        4       94       95      101      129 </v>
   <v type="int" >        4       94       94       95      129 </v>
   <v type="int" >        4      103      103      109      110 </v>
   <v type="int" >        4      102      103      103      109 </v>
   <v type="int" >        2      102      102      103      103 </v>
   <v type="int" >        2      103      103      110      110 </v>
   <v type="int" >        4      104      110      110      111 </v>
   <v type="int" >        4      103      104      110      110 </v>
   <v type="int" >        4      103      104      109      110 </v>
   <v type="int" >        4      104      110      111      116 </v>
   <v type="int" >        4      104      110      115      116 </v>
   <v type="int" >        4      104      109      110      115 </v>
   <v type="int" >        4      105      111      112      116 </v>
   <v type="int" >        4      104      105      111      116 </v>
   <v type="int" >        4      104      105      115      116 </v>
   <v type="int" >        4      105      112      116      121 </v>
   <v type="int" >        4      105      116      120      121 </v>
   <v type="int" >        4      105      115      116      120 </v>
   <v type="int" >        4      106      112      113      121 </v>
   <v type="int" >        4      105      106      112      121 </v>
   <v type="int" >        4      105      106      120      121 </v>
   <v type="int" >        4      106      113      121      125 </v>
   <v type="int" >        4      106      121      124      125 </v>
   <v type="int" >        4      106      120      121      124 </v>
   <v type="int" >        4      107      113      114      125 </v>
   <v type="int" >        4      106      107      113      125 </v>
   <v type="int" >        4      106      107      124      125 </v>
   <v type="int" >        4      107      114      125      128 </v>
   <v type="int" >        4      107      125      127      128 </v>
   <v type="int" >        4      107      124      125      127 </v>
   <v type="int" >        4      107      108      114      128 </v>
   <v type="int" >        4      107      108      127      128 </v>
   <v type="int" >        4      108      127      128      129 </v>
   <v type="int" >        4      111      111      116      117 </v>
   <v type="int" >        4      110      111      111      116 </v>
   <v type="int" >        2      110      110      111      111 </v>
   <v type="int" >        2      111      111      117      117 </v>
   <v type="int" >        4      112      117      117      118 </v>
   <v type="int" >        4      111      112      117      117 </v>
   <v type="int" >        4      111      112      116      117 </v>
   <v type="int" >        4      112      117      118      122 </v>
   <v type="int" >        4      112      117      121      122 </v>
   <v type="int" >        4      112      116      117      121 </v>
   <v type="int" >        4      113      118      119      122 </v>
   <v type="int" >        4      112      113      118      122 </v>
   <v type="int" >        4      112      113      121      122 </v>
   <v type="int" >        4      113      119      122      126 </v>
   <v type="int" >        4      113      122      125      126 </v>
   <v type="int" >        4      113      121      122      125 </v>
   <v type="int" >        4      113      114      119      126 </v>
   <v type="int" >        4      113      114      125      126 </v>
   <v type="int" >        4      114      125      126      128 </v>
   <v type="int" >        4      118      118      122      123 </v>
   <v type="int" >        4      117      118      118      122 </v>
   <v type="int" >        2      117      117      118      118 </v>
   <v type="int" >        2      118      118      123      123 </v>
   <v type="int" >        4      118      119      123      123 </v>
   <v type="int" >        4      118      119      122      123 </v>
   <v type="int" >        4      119      122      123      126 </v>
  </varray>
  <i name="volumeweight">      0.00037202 </i>
 </kpoints>
 <parameters>
  <separator name="general" >
   <i type="string" name="SYSTEM">unknown system</i>
   <i type="logical" name="LCOMPAT"> F  </i>
  </separator>
  <separator name="electronic" >
   <i type="string" name="PREC">normal</i>
   <i name="ENMAX">    400.00000000</i>
   <i name="ENAUG">    605.39200000</i>
   <i name="EDIFF">      0.00001000</i>
   <i type="int" name="IALGO">    68</i>
   <i type="int" name="IWAVPR">    10</i>
   <i type="int" name="NBANDS">    29</i>
   <i name="NELECT">     48.00000000</i>
   <i type="int" name="TURBO">     0</i>
   <i type="int" name="IRESTART">     0</i>
   <i type="int" name="NREBOOT">     0</i>
   <i type="int" name="NMIN">     0</i>
   <i name="EREF">      0.00000000</i>
   <separator name="electronic smearing" >
    <i type="int" name="ISMEAR">    -5</i>
    <i name="SIGMA">      0.20000000</i>
    <i name="KSPACING">      0.50000000</i>
    <i type="logical" name="KGAMMA"> T  </i>
   </separator>
   <separator name="electronic projectors" >
    <i type="logical" name="LREAL"> T  </i>
    <v name="ROPT">     -0.00050000     -0.00050000</v>
    <i type="int" name="LMAXPAW">  -100</i>
    <i type="int" name="LMAXMIX">     2</i>
    <i type="logical" name="NLSPLINE"> F  </i>
   </separator>
   <separator name="electronic startup" >
    <i type="int" name="ISTART">     0</i>
    <i type="int" name="ICHARG">     2</i>
    <i type="int" name="INIWAV">     1</i>
   </separator>
   <separator name="electronic spin" >
    <i type="int" name="ISPIN">     1</i>
    <i type="logical" name="LNONCOLLINEAR"> F  </i>
    <v name="MAGMOM">      1.00000000      1.00000000      1.00000000      1.00000000      1.00000000      1.00000000      1.00000000      1.00000000      1.00000000</v>
    <i name="NUPDOWN">     -1.00000000</i>
    <i type="logical" name="LSORBIT"> F  </i>
    <v name="SAXIS">      0.00000000      0.00000000      1.00000000</v>
    <i type="logical" name="LSPIRAL"> F  </i>
    <v name="QSPIRAL">      0.00000000      0.00000000      0.00000000</v>
    <i type="logical" name="LZEROZ"> F  </i>
   </separator>
   <separator name="electronic exchange-correlation" >
    <i type="logical" name="LASPH"> F  </i>
    <i type="logical" name="LMETAGGA"> F  </i>
   </separator>
   <separator name="electronic convergence" >
    <i type="int" name="NELM">    60</i>
    <i type="int" name="NELMDL">    -5</i>
    <i type="int" name="NELMIN">     4</i>
    <i name="ENINI">    400.00000000</i>
    <separator name="electronic convergence detail" >
     <i type="logical" name="LDIAG"> T  </i>
     <i type="logical" name="LSUBROT"> F  </i>
     <i name="WEIMIN">      0.00000000</i>
     <i name="EBREAK">      0.00000009</i>
     <i name="DEPER">      0.30000000</i>
     <i type="int" name="NRMM">     4</i>
     <i name="TIME">      0.40000000</i>
    </separator>
   </separator>
   <separator name="electronic mixer" >
    <i name="AMIX">      0.40000000</i>
    <i name="BMIX">      1.00000000</i>
    <i name="AMIN">      0.10000000</i>
    <i name="AMIX_MAG">      1.60000000</i>
    <i name="BMIX_MAG">      1.00000000</i>
    <separator name="electronic mixer details" >
     <i type="int" name="IMIX">     4</i>
     <i type="logical" name="MIXFIRST"> F  </i>
     <i type="int" name="MAXMIX">   -45</i>
     <i name="WC">    100.00000000</i>
     <i type="int" name="INIMIX">     1</i>
     <i type="int" name="MIXPRE">     1</i>
     <i type="int" name="MREMOVE">     5</i>
    </separator>
   </separator>
   <separator name="electronic dipolcorrection" >
    <i type="logical" name="LDIPOL"> F  </i>
    <i type="logical" name="LMONO"> F  </i>
    <i type="int" name="IDIPOL">     0</i>
    <i name="EPSILON">      1.00000000</i>
    <v name="DIPOL">   -100.00000000   -100.00000000   -100.00000000</v>
    <i name="EFIELD">      0.00000000</i>
   </separator>
  </separator>
  <separator name="grids" >
   <i type="int" name="NGX">    24</i>
   <i type="int" name="NGY">    24</i>
   <i type="int" name="NGZ">    28</i>
   <i type="int" name="NGXF">    48</i>
   <i type="int" name="NGYF">    48</i>
   <i type="int" name="NGZF">    56</i>
   <i type="logical" name="ADDGRID"> F  </i>
  </separator>
  <separator name="ionic" >
   <i type="int" name="NSW">     0</i>
   <i type="int" name="IBRION">    -1</i>
   <i type="int" name="ISIF">     2</i>
   <i name="PSTRESS">      0.00000000</i>
   <i name="EDIFFG">      0.00010000</i>
   <i type="int" name="NFREE">     0</i>
   <i name="POTIM">      0.50000000</i>
   <i name="SMASS">     -3.00000000</i>
   <i name="SCALEE">      1.00000000</i>
  </separator>
  <separator name="ionic md" >
   <i name="TEBEG">      0.00010000</i>
   <i name="TEEND">      0.00010000</i>
   <i type="int" name="NBLOCK">     1</i>
   <i type="int" name="KBLOCK">     1</i>
   <i type="int" name="NPACO">   256</i>
   <i name="APACO">     16.00000000</i>
  </separator>
  <separator name="symmetry" >
   <i type="int" name="ISYM">     2</i>
   <i name="SYMPREC">      0.00001000</i>
  </separator>
  <separator name="dos" >
   <i type="logical" name="LORBIT"> F  </i>
   <v name="RWIGS">     -1.00000000     -1.00000000</v>
   <i type="int" name="NEDOS">   301</i>
   <i name="EMIN">     10.00000000</i>
   <i name="EMAX">    -10.00000000</i>
   <i name="EFERMI">      0.00000000</i>
  </separator>
  <separator name="writing" >
   <i type="int" name="NWRITE">     2</i>
   <i type="logical" name="LWAVE"> F  </i>
   <i type="logical" name="LCHARG"> T  </i>
   <i type="logical" name="LPARD"> F  </i>
   <i type="logical" name="LVTOT"> F  </i>
   <i type="logical" name="LVHAR"> F  </i>
   <i type="logical" name="LELF"> F  </i>
   <i type="logical" name="LOPTICS"> F  </i>
   <v name="STM">      0.00000000      0.00000000      0.00000000      0.00000000      0.00000000      0.00000000      0.00000000</v>
  </separator>
  <separator name="performance" >
   <i type="int" name="NPAR">     1</i>
   <i type="int" name="NSIM">     4</i>
   <i type="int" name="NBLK">    -1</i>
   <i type="logical" name="LPLANE"> T  </i>
   <i type="logical" name="LSCALAPACK"> F  </i>
   <i type="logical" name="LSCAAWARE"> F  </i>
   <i type="logical" name="LSCALU"> F  </i>
   <i type="logical" name="LASYNC"> F  </i>
   <i type="logical" name="LORBITALREAL"> F  </i>
  </separator>
  <separator name="miscellaneous" >
   <i type="int" name="IDIOT">     3</i>
   <i type="logical" name="LMUSIC"> F  </i>
   <v name="POMASS">     28.08500000     16.00000000</v>
   <v name="DARWINR">      0.00000000      0.00000000</v>
   <v name="DARWINV">      1.00000000      1.00000000</v>
   <i type="logical" name="LCORR"> T  </i>
  </separator>
  <i type="logical" name="GGA_COMPAT"> T  </i>
  <i type="logical" name="LBERRY"> F  </i>
  <i type="int" name="ICORELEVEL">     0</i>
  <i type="logical" name="LDAU"> F  </i>
  <i type="int" name="I_CONSTRAINED_M">     0</i>
  <separator name="electronic exchange-correlation" >
   <i type="string" name="GGA">--</i>
   <i type="int" name="VOSKOWN">     0</i>
   <i type="logical" name="LHFCALC"> F  </i>
   <i type="string" name="PRECFOCK"></i>
   <i type="logical" name="LSYMGRAD"> F  </i>
   <i type="logical" name="LHFONE"> F  </i>
   <i type="logical" name="LRHFCALC"> F  </i>
   <i type="logical" name="LTHOMAS"> F  </i>
   <i type="logical" name="LMODELHF"> F  </i>
   <i name="ENCUT4O">     -1.00000000</i>
   <i type="int" name="EXXOEP">     0</i>
   <i type="int" name="FOURORBIT">     0</i>
   <i name="AEXX">      0.00000000</i>
   <i name="HFALPHA">      0.00000000</i>
   <i name="MCALPHA">      0.00000000</i>
   <i name="ALDAX">      1.00000000</i>
   <i name="AGGAX">      1.00000000</i>
   <i name="ALDAC">      1.00000000</i>
   <i name="AGGAC">      1.00000000</i>
   <i type="int" name="NKREDX">     1</i>
   <i type="int" name="NKREDY">     1</i>
   <i type="int" name="NKREDZ">     1</i>
   <i type="logical" name="SHIFTRED"> F  </i>
   <i type="logical" name="ODDONLY"> F  </i>
   <i type="logical" name="EVENONLY"> F  </i>
   <i type="int" name="LMAXFOCK">     0</i>
   <i type="int" name="NMAXFOCKAE">     0</i>
   <i type="logical" name="LFOCKAEDFT"> F  </i>
   <i name="HFSCREEN">      0.00000000</i>
   <i name="HFSCREENC">      0.00000000</i>
   <i type="int" name="NBANDSGWLOW">     0</i>
  </separator>
  <separator name="vdW DFT" >
   <i type="logical" name="LUSE_VDW"> F  </i>
   <i name="Zab_VDW">     -0.84910000</i>
   <i name="PARAM1">      0.12340000</i>
   <i name="PARAM2">      1.00000000</i>
   <i name="PARAM3">      0.00000000</i>
  </separator>
  <separator name="model GW" >
   <i type="int" name="MODEL_GW">     0</i>
   <i name="MODEL_EPS0">      7.53464495</i>
   <i name="MODEL_ALPHA">      1.00000000</i>
  </separator>
  <separator name="linear response parameters" >
   <i type="logical" name="LEPSILON"> F  </i>
   <i type="logical" name="LRPA"> F  </i>
   <i type="logical" name="LNABLA"> F  </i>
   <i type="logical" name="LVEL"> F  </i>
   <i type="int" name="KINTER">     0</i>
   <i name="CSHIFT">      0.10000000</i>
   <i name="OMEGAMAX">     -1.00000000</i>
   <i name="DEG_THRESHOLD">      0.00200000</i>
  </separator>
  <separator name="orbital magnetization" >
   <i type="logical" name="NUCIND"> F  </i>
   <v name="MAGPOS">      0.00000000      0.00000000      0.00000000</v>
   <i type="logical" name="LNICSALL"> T  </i>
   <i type="logical" name="ORBITALMAG"> F  </i>
   <i type="logical" name="LMAGBLOCH"> F  </i>
   <i type="logical" name="LCHIMAG"> F  </i>
   <i type="logical" name="LGAUGE"> T  </i>
   <i type="int" name="MAGATOM">     0</i>
   <v name="MAGDIPOL">      0.00000000      0.00000000      0.00000000</v>
   <v name="AVECCONST">      0.00000000      0.00000000      0.00000000</v>
  </separator>
  <separator name="response functions" >
   <i type="logical" name="LADDER"> F  </i>
   <i type="logical" name="LFXC"> F  </i>
   <i type="logical" name="LHARTREE"> T  </i>
   <i type="int" name="IBSE">     0</i>
   <v type="int" name="KPOINT">    -1     0     0     0</v>
   <i type="logical" name="LTCTE"> F  </i>
   <i type="logical" name="LTETE"> F  </i>
   <i type="logical" name="LTRIPLET"> F  </i>
   <i type="logical" name="LFXCEPS"> F  </i>
   <i type="logical" name="LFXHEG"> F  </i>
   <i type="int" name="NATURALO">     0</i>
   <i type="logical" name="L2ORDER"> F  </i>
   <i type="logical" name="LUSEW"> F  </i>
   <i name="ENCUTGW">     -2.00000000</i>
   <i name="ENCUTGWSOFT">     -2.00000000</i>
   <i name="ENCUTLF">     -1.00000000</i>
   <i type="int" name="LMAXMP2">    -1</i>
   <i name="SCISSOR">      0.00000000</i>
   <i type="int" name="NOMEGA">     0</i>
   <i type="int" name="NOMEGAR">     0</i>
   <i type="int" name="NBANDSGW">    -1</i>
   <i type="int" name="NBANDSO">    -1</i>
   <i type="int" name="NBANDSV">    -1</i>
   <i type="int" name="NELM">     1</i>
   <i type="int" name="NELMHF">     1</i>
   <i type="int" name="DIM">     3</i>
   <i type="int" name="ANTIRES">     0</i>
   <i name="OMEGAMAX">    -30.00000000</i>
   <i name="OMEGAMIN">    -30.00000000</i>
   <i name="OMEGATL">   -200.00000000</i>
   <i type="int" name="OMEGAGRID">     0</i>
   <i name="CSHIFT">     -0.10000000</i>
   <i type="logical" name="SELFENERGY"> F  </i>
   <i type="logical" name="LSPECTRAL"> F  </i>
   <i type="logical" name="LSPECTRALGW"> F  </i>
   <i type="logical" name="LSINGLES"> F  </i>
   <i type="logical" name="LFERMIGW"> F  </i>
   <i type="logical" name="ODDONLYGW"> F  </i>
   <i type="logical" name="EVENONLYGW"> F  </i>
   <i type="int" name="NKREDLFX">     1</i>
   <i type="int" name="NKREDLFY">     1</i>
   <i type="int" name="NKREDLFZ">     1</i>
   <i type="int" name="MAXMEM">  1800</i>
   <i type="int" name="TELESCOPE">     0</i>
   <i type="int" name="TAUPAR">     1</i>
   <i type="int" name="OMEGAPAR">    -1</i>
   <i name="LAMBDA">      1.00000000</i>
  </separator>
  <separator name="External order field" >
   <i name="OFIELD_KAPPA">      0.00000000</i>
   <v name="OFIELD_K">      0.00000000      0.00000000      0.00000000</v>
   <i name="OFIELD_Q6_NEAR">      0.00000000</i>
   <i name="OFIELD_Q6_FAR">      0.00000000</i>
   <i name="OFIELD_A">      0.00000000</i>
  </separator>
 </parameters>
 <atominfo>
  <atoms>       9 </atoms>
  <types>       2 </types>
  <array name="atoms" >
   <dimension dim="1">ion</dimension>
   <field type="string">element</field>
   <field type="int">atomtype</field>
   <set>
    <rc><c>Si</c><c>   1</c></rc>
    <rc><c>Si</c><c>   1</c></rc>
    <rc><c>Si</c><c>   1</c></rc>
    <rc><c>O </c><c>   2</c></rc>
    <rc><c>O </c><c>   2</c></rc>
    <rc><c>O </c><c>   2</c></rc>
    <rc><c>O </c><c>   2</c></rc>
    <rc><c>O </c><c>   2</c></rc>
    <rc><c>O </c><c>   2</c></rc>
   </set>
  </array>
  <array name="atomtypes" >
   <dimension dim="1">type</dimension>
   <field type="int">atomspertype</field>
   <field type="string">element</field>
   <field>mass</field>
   <field>valence</field>
   <field type="string">pseudopotential</field>
   <set>
    <rc><c>   3</c><c>Si</c><c>     28.08500000</c><c>      4.00000000</c><c> PAW_PBE Si 05Jan2001                   </c></rc>
    <rc><c>   6</c><c>O </c><c>     16.00000000</c><c>      6.00000000</c><c> PAW_PBE O 08Apr2002                    </c></rc>
   </set>
  </array>
 </atominfo>
 <structure name="initialpos" >
  <crystal>
   <varray name="basis" >
    <v>       4.91370000       0.00000000       0.00000000 </v>
    <v>      -2.45685000       4.25538903       0.00000000 </v>
    <v>       0.00000000       0.00000000       5.40513000 </v>
   </varray>
   <i name="volume">    113.01967420 </i>
   <varray name="rec_basis" >
    <v>       0.20351263       0.11749807       0.00000000 </v>
    <v>       0.00000000       0.23499614       0.00000000 </v>
    <v>       0.00000000       0.00000000       0.18500943 </v>
   </varray>
  </crystal>
  <varray name="positions" >
   <v>       0.46980000       0.00000000       0.66667000 </v>
   <v>       0.00000000       0.46980000       0.33333000 </v>
   <v>       0.53020000       0.53020000       0.00000000 </v>
   <v>       0.41450000       0.26620000       0.78560000 </v>
   <v>       0.73380000       0.14830000       0.45227000 </v>
   <v>       0.85170000       0.58550000       0.11893000 </v>
   <v>       0.14830000       0.73380000       0.54773000 </v>
   <v>       0.26620000       0.41450000       0.21440000 </v>
   <v>       0.58550000       0.85170000       0.88107000 </v>
  </varray>
 </structure>
 <calculation>
  <scstep>
   <time name="dav">   10.33   10.33</time>
   <time name="total">   10.46   10.49</time>
   <energy>
    <i name="alphaZ">     69.72802778 </i>
    <i name="ewald">  -1887.20590689 </i>
    <i name="hartreedc">   -937.14514242 </i>
    <i name="XCdc">    142.01294050 </i>
    <i name="pawpsdc">   1574.92322788 </i>
    <i name="pawaedc">  -1533.24131965 </i>
    <i name="eentropy">      0.00000000 </i>
    <i name="bandstr">    -59.41498984 </i>
    <i name="atom">   2902.77641490 </i>
    <i name="e_fr_energy">    272.43325226 </i>
    <i name="e_wo_entrp">    272.43325226 </i>
    <i name="e_0_energy">    272.43325226 </i>
   </energy>
  </scstep>
  <scstep>
   <time name="dav">   12.41   12.41</time>
   <time name="total">   12.43   12.43</time>
   <energy>
    <i name="e_fr_energy">    -63.17981853 </i>
    <i name="e_wo_entrp">    -63.17981853 </i>
    <i name="e_0_energy">    -63.17981853 </i>
   </energy>
  </scstep>
  <scstep>
   <time name="dav">   11.24   11.24</time>
   <time name="total">   11.25   11.25</time>
   <energy>
    <i name="e_fr_energy">    -80.34250361 </i>
    <i name="e_wo_entrp">    -80.34250361 </i>
    <i name="e_0_energy">    -80.34250361 </i>
   </energy>
  </scstep>
  <scstep>
   <time name="dav">   11.32   11.31</time>
   <time name="total">   11.32   11.33</time>
   <energy>
    <i name="e_fr_energy">    -80.55338925 </i>
    <i name="e_wo_entrp">    -80.55338925 </i>
    <i name="e_0_energy">    -80.55338925 </i>
   </energy>
  </scstep>
  <scstep>
   <time name="dav">   11.15   11.14</time>
   <time name="total">   11.85   11.85</time>
   <energy>
    <i name="e_fr_energy">    -80.55751527 </i>
    <i name="e_wo_entrp">    -80.55751527 </i>
    <i name="e_0_energy">    -80.55751527 </i>
   </energy>
  </scstep>
  <scstep>
   <time name="diag">    1.82    1.82</time>
   <time name="diis">    6.87    6.86</time>
   <time name="orth">    0.19    0.19</time>
   <time name="total">    9.65    9.65</time>
   <energy>
    <i name="e_fr_energy">    -71.15843721 </i>
    <i name="e_wo_entrp">    -71.15843721 </i>
    <i name="e_0_energy">    -71.15843721 </i>
   </energy>
  </scstep>
  <scstep>
   <time name="diag">    1.77    1.77</time>
   <time name="diis">    7.27    7.27</time>
   <time name="orth">    0.19    0.19</time>
   <time name="total">    9.99    9.99</time>
   <energy>
    <i name="e_fr_energy">    -71.13580494 </i>
    <i name="e_wo_entrp">    -71.13580494 </i>
    <i name="e_0_energy">    -71.13580494 </i>
   </energy>
  </scstep>
  <scstep>
   <time name="diag">    1.77    1.77</time>
   <time name="diis">    7.16    7.16</time>
   <time name="orth">    0.19    0.19</time>
   <time name="total">    9.88    9.88</time>
   <energy>
    <i name="e_fr_energy">    -71.15134597 </i>
    <i name="e_wo_entrp">    -71.15134597 </i>
    <i name="e_0_energy">    -71.15134597 </i>
   </energy>
  </scstep>
  <scstep>
   <time name="diag">    1.77    1.77</time>
   <time name="diis">    7.57    7.57</time>
   <time name="orth">    0.20    0.20</time>
   <time name="total">   10.32   10.32</time>
   <energy>
    <i name="e_fr_energy">    -71.14341985 </i>
    <i name="e_wo_entrp">    -71.14341985 </i>
    <i name="e_0_energy">    -71.14341985 </i>
   </energy>
  </scstep>
  <scstep>
   <time name="diag">    1.81    1.81</time>
   <time name="diis">    7.53    7.53</time>
   <time name="orth">    0.20    0.20</time>
   <time name="total">   10.32   10.33</time>
   <energy>
    <i name="e_fr_energy">    -71.14680834 </i>
    <i name="e_wo_entrp">    -71.14680834 </i>
    <i name="e_0_energy">    -71.14680834 </i>
   </energy>
  </scstep>
  <scstep>
   <time name="diag">    1.83    1.83</time>
   <time name="diis">    7.70    7.69</time>
   <time name="orth">    0.20    0.20</time>
   <time name="total">   10.51   10.51</time>
   <energy>
    <i name="e_fr_energy">    -71.14527956 </i>
    <i name="e_wo_entrp">    -71.14527956 </i>
    <i name="e_0_energy">    -71.14527956 </i>
   </energy>
  </scstep>
  <scstep>
   <time name="diag">    1.82    1.82</time>
   <time name="diis">    7.80    7.80</time>
   <time name="orth">    0.20    0.20</time>
   <time name="total">   10.61   10.62</time>
   <energy>
    <i name="e_fr_energy">    -71.14520807 </i>
    <i name="e_wo_entrp">    -71.14520807 </i>
    <i name="e_0_energy">    -71.14520807 </i>
   </energy>
  </scstep>
  <scstep>
   <time name="diag">    1.82    1.82</time>
   <time name="diis">    5.99    5.99</time>
   <time name="orth">    0.20    0.20</time>
   <time name="total">    8.10    8.11</time>
   <energy>
    <i name="alphaZ">     69.72802778 </i>
    <i name="ewald">  -1887.20590689 </i>
    <i name="hartreedc">  -1070.74459358 </i>
    <i name="XCdc">    151.09266438 </i>
    <i name="pawpsdc">   2074.48503758 </i>
    <i name="pawaedc">  -2035.04667343 </i>
    <i name="eentropy">      0.00000000 </i>
    <i name="bandstr">   -276.23018228 </i>
    <i name="atom">   2902.77641490 </i>
    <i name="e_fr_energy">    -71.14521154 </i>
    <i name="e_wo_entrp">    -71.14521154 </i>
    <i name="e_0_energy">    -71.14521154 </i>
   </energy>
  </scstep>
  <structure>
   <crystal>
    <varray name="basis" >
[...]
       <r>    0.9429    1.0000 </r>
       <r>    9.6531    0.0000 </r>
       <r>   10.4024    0.0000 </r>
       <r>   10.6350    0.0000 </r>
       <r>   10.9927    0.0000 </r>
       <r>   11.3280    0.0000 </r>
      </set>
      <set comment="kpoint 127">
       <r>  -17.9386    1.0000 </r>
       <r>  -17.6936    1.0000 </r>
       <r>  -16.4280    1.0000 </r>
       <r>  -16.2318    1.0000 </r>
       <r>  -16.1920    1.0000 </r>
       <r>  -16.1605    1.0000 </r>
       <r>   -7.9285    1.0000 </r>
       <r>   -5.6325    1.0000 </r>
       <r>   -5.1896    1.0000 </r>
       <r>   -4.3800    1.0000 </r>
       <r>   -4.2980    1.0000 </r>
       <r>   -3.7086    1.0000 </r>
       <r>   -1.9621    1.0000 </r>
       <r>   -1.7708    1.0000 </r>
       <r>   -1.4415    1.0000 </r>
       <r>   -1.1835    1.0000 </r>
       <r>   -0.9693    1.0000 </r>
       <r>   -0.5276    1.0000 </r>
       <r>   -0.4595    1.0000 </r>
       <r>   -0.2564    1.0000 </r>
       <r>   -0.0033    1.0000 </r>
       <r>    0.6104    1.0000 </r>
       <r>    0.8020    1.0000 </r>
       <r>    0.9408    1.0000 </r>
       <r>    9.0693    0.0000 </r>
       <r>    9.7850    0.0000 </r>
       <r>   10.4209    0.0000 </r>
       <r>   10.7872    0.0000 </r>
       <r>   11.2447    0.0000 </r>
      </set>
      <set comment="kpoint 128">
       <r>  -17.9183    1.0000 </r>
       <r>  -17.6593    1.0000 </r>
       <r>  -16.4988    1.0000 </r>
       <r>  -16.2379    1.0000 </r>
       <r>  -16.1892    1.0000 </r>
       <r>  -16.1651    1.0000 </r>
       <r>   -7.8313    1.0000 </r>
       <r>   -5.7077    1.0000 </r>
       <r>   -5.2088    1.0000 </r>
       <r>   -4.3791    1.0000 </r>
       <r>   -4.2246    1.0000 </r>
       <r>   -3.7241    1.0000 </r>
       <r>   -1.9973    1.0000 </r>
       <r>   -1.8426    1.0000 </r>
       <r>   -1.3984    1.0000 </r>
       <r>   -1.1999    1.0000 </r>
       <r>   -1.0172    1.0000 </r>
       <r>   -0.4880    1.0000 </r>
       <r>   -0.3715    1.0000 </r>
       <r>   -0.2291    1.0000 </r>
       <r>    0.0254    1.0000 </r>
       <r>    0.5419    1.0000 </r>
       <r>    0.7093    1.0000 </r>
       <r>    0.9864    1.0000 </r>
       <r>    9.1573    0.0000 </r>
       <r>    9.9453    0.0000 </r>
       <r>   10.4573    0.0000 </r>
       <r>   11.0003    0.0000 </r>
       <r>   11.0757    0.0000 </r>
      </set>
      <set comment="kpoint 129">
       <r>  -17.9956    1.0000 </r>
       <r>  -17.7504    1.0000 </r>
       <r>  -16.2911    1.0000 </r>
       <r>  -16.2116    1.0000 </r>
       <r>  -16.1888    1.0000 </r>
       <r>  -16.1448    1.0000 </r>
       <r>   -8.1447    1.0000 </r>
       <r>   -5.5017    1.0000 </r>
       <r>   -5.0672    1.0000 </r>
       <r>   -4.4705    1.0000 </r>
       <r>   -4.4351    1.0000 </r>
       <r>   -3.6506    1.0000 </r>
       <r>   -1.8374    1.0000 </r>
       <r>   -1.6259    1.0000 </r>
       <r>   -1.5172    1.0000 </r>
       <r>   -1.0932    1.0000 </r>
       <r>   -0.9615    1.0000 </r>
       <r>   -0.6411    1.0000 </r>
       <r>   -0.5429    1.0000 </r>
       <r>   -0.3966    1.0000 </r>
       <r>   -0.0660    1.0000 </r>
       <r>    0.7426    1.0000 </r>
       <r>    0.8568    1.0000 </r>
       <r>    1.0049    1.0000 </r>
       <r>    8.7933    0.0000 </r>
       <r>    9.6045    0.0000 </r>
       <r>   10.2706    0.0000 </r>
       <r>   10.6834    0.0000 </r>
       <r>   11.1244    0.0000 </r>
      </set>
     </set>
    </set>
   </array>
  </eigenvalues>
  <separator name="orbital magnetization" >
   <v name="MAGDIPOLOUT">      0.00000000      0.00000000      0.00000000</v>
  </separator>
  <dos>
   <i name="efermi">      1.12356329 </i>
   <total>
    <array>
     <dimension dim="1">gridpoints</dimension>
     <dimension dim="2">spin</dimension>
     <field>energy</field>
     <field>total</field>
     <field>integrated</field>
     <set>
      <set comment="spin 1">
       <r>   -20.3771     0.0000     0.0000 </r>
       <r>   -20.2635     0.0000     0.0000 </r>
       <r>   -20.1498     0.0000     0.0000 </r>
       <r>   -20.0362     0.0000     0.0000 </r>
       <r>   -19.9226     0.0000     0.0000 </r>
       <r>   -19.8090     0.0000     0.0000 </r>
       <r>   -19.6954     0.0000     0.0000 </r>
       <r>   -19.5818     0.0000     0.0000 </r>
       <r>   -19.4682     0.0000     0.0000 </r>
       <r>   -19.3546     0.0000     0.0000 </r>
       <r>   -19.2410     0.0000     0.0000 </r>
       <r>   -19.1274     0.0000     0.0000 </r>
       <r>   -19.0137     0.0000     0.0000 </r>
       <r>   -18.9001     0.0000     0.0000 </r>
       <r>   -18.7865     0.0000     0.0000 </r>
       <r>   -18.6729     0.0000     0.0000 </r>
       <r>   -18.5593     0.0000     0.0000 </r>
       <r>   -18.4457     0.0000     0.0000 </r>
       <r>   -18.3321     0.6594     0.0099 </r>
       <r>   -18.2185     1.5203     0.1319 </r>
       <r>   -18.1049     2.2349     0.3420 </r>
       <r>   -17.9913     3.7849     0.6713 </r>
       <r>   -17.8776     7.2075     1.2635 </r>
       <r>   -17.7640     1.4769     1.9893 </r>
       <r>   -17.6504     1.0134     2.0977 </r>
       <r>   -17.5368     1.9933     2.2525 </r>
       <r>   -17.4232     5.9403     2.6614 </r>
       <r>   -17.3096     3.3234     3.5651 </r>
       <r>   -17.1960     1.5123     3.8103 </r>
       <r>   -17.0824     0.7253     3.9304 </r>
       <r>   -16.9688     1.1660     4.0239 </r>
       <r>   -16.8552     5.1582     4.3598 </r>
       <r>   -16.7416     3.9064     5.2856 </r>
       <r>   -16.6279     2.0185     5.5934 </r>
       <r>   -16.5143     1.3314     5.7808 </r>
       <r>   -16.4007     0.8600     5.9060 </r>
       <r>   -16.2871     0.5389     5.9817 </r>
       <r>   -16.1735    37.1551    11.3916 </r>
       <r>   -16.0599     0.0000    12.0000 </r>
       <r>   -15.9463     0.0000    12.0000 </r>
       <r>   -15.8327     0.0000    12.0000 </r>
       <r>   -15.7191     0.0000    12.0000 </r>
       <r>   -15.6055     0.0000    12.0000 </r>
       <r>   -15.4918     0.0000    12.0000 </r>
       <r>   -15.3782     0.0000    12.0000 </r>
       <r>   -15.2646     0.0000    12.0000 </r>
       <r>   -15.1510     0.0000    12.0000 </r>
       <r>   -15.0374     0.0000    12.0000 </r>
       <r>   -14.9238     0.0000    12.0000 </r>
       <r>   -14.8102     0.0000    12.0000 </r>
       <r>   -14.6966     0.0000    12.0000 </r>
       <r>   -14.5830     0.0000    12.0000 </r>
       <r>   -14.4694     0.0000    12.0000 </r>
       <r>   -14.3557     0.0000    12.0000 </r>
       <r>   -14.2421     0.0000    12.0000 </r>
       <r>   -14.1285     0.0000    12.0000 </r>
       <r>   -14.0149     0.0000    12.0000 </r>
       <r>   -13.9013     0.0000    12.0000 </r>
       <r>   -13.7877     0.0000    12.0000 </r>
       <r>   -13.6741     0.0000    12.0000 </r>
       <r>   -13.5605     0.0000    12.0000 </r>
       <r>   -13.4469     0.0000    12.0000 </r>
       <r>   -13.3333     0.0000    12.0000 </r>
       <r>   -13.2197     0.0000    12.0000 </r>
       <r>   -13.1060     0.0000    12.0000 </r>
       <r>   -12.9924     0.0000    12.0000 </r>
       <r>   -12.8788     0.0000    12.0000 </r>
       <r>   -12.7652     0.0000    12.0000 </r>
       <r>   -12.6516     0.0000    12.0000 </r>
       <r>   -12.5380     0.0000    12.0000 </r>
       <r>   -12.4244     0.0000    12.0000 </r>
       <r>   -12.3108     0.0000    12.0000 </r>
       <r>   -12.1972     0.0000    12.0000 </r>
       <r>   -12.0836     0.0000    12.0000 </r>
       <r>   -11.9699     0.0000    12.0000 </r>
       <r>   -11.8563     0.0000    12.0000 </r>
       <r>   -11.7427     0.0000    12.0000 </r>
       <r>   -11.6291     0.0000    12.0000 </r>
       <r>   -11.5155     0.0000    12.0000 </r>
       <r>   -11.4019     0.0000    12.0000 </r>
       <r>   -11.2883     0.0000    12.0000 </r>
       <r>   -11.1747     0.0000    12.0000 </r>
       <r>   -11.0611     0.0000    12.0000 </r>
       <r>   -10.9475     0.0000    12.0000 </r>
       <r>   -10.8339     0.0000    12.0000 </r>
       <r>   -10.7202     0.0000    12.0000 </r>
       <r>   -10.6066     0.0000    12.0000 </r>
       <r>   -10.4930     0.0000    12.0000 </r>
       <r>   -10.3794     0.0000    12.0000 </r>
       <r>   -10.2658     0.0000    12.0000 </r>
       <r>   -10.1522     0.0000    12.0000 </r>
       <r>   -10.0386     0.0000    12.0000 </r>
       <r>    -9.9250     0.0000    12.0000 </r>
       <r>    -9.8114     0.0000    12.0000 </r>
       <r>    -9.6978     0.0000    12.0000 </r>
       <r>    -9.5841     0.0000    12.0000 </r>
       <r>    -9.4705     0.0000    12.0000 </r>
       <r>    -9.3569     0.0000    12.0000 </r>
       <r>    -9.2433     0.0000    12.0000 </r>
       <r>    -9.1297     0.0000    12.0000 </r>
       <r>    -9.0161     0.0000    12.0000 </r>
       <r>    -8.9025     0.0000    12.0000 </r>
       <r>    -8.7889     0.0000    12.0000 </r>
       <r>    -8.6753     0.0000    12.0000 </r>
       <r>    -8.5617     0.0000    12.0000 </r>
       <r>    -8.4480     0.0000    12.0000 </r>
       <r>    -8.3344     0.0000    12.0000 </r>
       <r>    -8.2208     0.0963    12.0018 </r>
       <r>    -8.1072     0.3285    12.0299 </r>
       <r>    -7.9936     0.5148    12.0786 </r>
       <r>    -7.8800     0.6823    12.1461 </r>
       <r>    -7.7664     0.8483    12.2327 </r>
       <r>    -7.6528     1.1185    12.3433 </r>
       <r>    -7.5392     1.4545    12.4886 </r>
       <r>    -7.4256     2.4287    12.6977 </r>
       <r>    -7.3120     9.1403    13.3959 </r>
       <r>    -7.1983     2.1594    13.8069 </r>
       <r>    -7.0847     0.6449    13.9371 </r>
       <r>    -6.9711     0.3946    13.9948 </r>
       <r>    -6.8575     0.2406    14.0322 </r>
       <r>    -6.7439     0.4054    14.0683 </r>
       <r>    -6.6303     0.6282    14.1264 </r>
       <r>    -6.5167     0.9883    14.2141 </r>
       <r>    -6.4031     1.3747    14.3469 </r>
       <r>    -6.2895     3.1923    14.6004 </r>
       <r>    -6.1759     5.6565    15.1407 </r>
       <r>    -6.0622     2.2049    15.5247 </r>
       <r>    -5.9486     1.3364    15.7183 </r>
       <r>    -5.8350     0.7335    15.8256 </r>
       <r>    -5.7214     0.5366    15.8974 </r>
       <r>    -5.6078     0.4020    15.9508 </r>
       <r>    -5.4942     0.3878    15.9885 </r>
       <r>    -5.3806     2.3504    16.1785 </r>
       <r>    -5.2670     3.2101    16.5482 </r>
       <r>    -5.1534     2.7292    16.8860 </r>
       <r>    -5.0398     2.4527    17.1757 </r>
       <r>    -4.9261     2.0167    17.4326 </r>
       <r>    -4.8125     1.4972    17.6311 </r>
       <r>    -4.6989     1.0766    17.7782 </r>
       <r>    -4.5853     0.7834    17.8825 </r>
       <r>    -4.4717     1.7842    17.9950 </r>
       <r>    -4.3581    21.3320    18.7449 </r>
       <r>    -4.2445     8.6970    20.1864 </r>
       <r>    -4.1309     5.1800    21.0405 </r>
       <r>    -4.0173     6.7886    21.6357 </r>
       <r>    -3.9037     3.2761    22.1796 </r>
       <r>    -3.7901     7.1709    23.0818 </r>
       <r>    -3.6764     3.5936    23.6296 </r>
       <r>    -3.5628     1.8954    23.9489 </r>
       <r>    -3.4492     0.0000    24.0000 </r>
       <r>    -3.3356     0.0000    24.0000 </r>
       <r>    -3.2220     0.0000    24.0000 </r>
       <r>    -3.1084     0.0000    24.0000 </r>
       <r>    -2.9948     0.0000    24.0000 </r>
       <r>    -2.8812     0.0000    24.0000 </r>
       <r>    -2.7676     0.0000    24.0000 </r>
       <r>    -2.6540     0.0000    24.0000 </r>
       <r>    -2.5403     0.0000    24.0000 </r>
       <r>    -2.4267     0.0000    24.0000 </r>
       <r>    -2.3131     0.0000    24.0000 </r>
       <r>    -2.1995     0.0000    24.0000 </r>
       <r>    -2.0859    11.1265    24.8120 </r>
       <r>    -1.9723     6.4633    25.9777 </r>
       <r>    -1.8587     5.7573    26.6195 </r>
       <r>    -1.7451     7.7906    27.4373 </r>
       <r>    -1.6315     5.2575    28.1122 </r>
       <r>    -1.5179    16.8417    29.1322 </r>
       <r>    -1.4043     4.3034    29.7943 </r>
       <r>    -1.2906     2.3301    30.0818 </r>
       <r>    -1.1770    12.1229    31.1055 </r>
       <r>    -1.0634     3.1333    31.8326 </r>
       <r>    -0.9498    19.7468    32.7090 </r>
       <r>    -0.8362     0.9103    33.8719 </r>
       <r>    -0.7226     4.3207    34.1585 </r>
       <r>    -0.6090     6.0507    34.8302 </r>
       <r>    -0.4954    11.3654    35.8859 </r>
       <r>    -0.3818     8.5696    37.1730 </r>
       <r>    -0.2682     4.3234    37.8015 </r>
       <r>    -0.1545     8.5757    38.5548 </r>
       <r>    -0.0409     7.1779    39.7983 </r>
       <r>     0.0727     9.1223    40.5261 </r>
       <r>     0.1863     7.2879    41.9190 </r>
       <r>     0.2999     8.3202    42.1955 </r>
       <r>     0.4135     7.2172    43.3833 </r>
       <r>     0.5271     4.7164    43.9631 </r>
       <r>     0.6407     4.6681    44.4782 </r>
       <r>     0.7543    11.6137    45.3373 </r>
       <r>     0.8679     5.4906    46.2680 </r>
       <r>     0.9816    10.6424    47.1001 </r>
       <r>     1.0952     0.0000    48.0000 </r>
       <r>     1.2088     0.0000    48.0000 </r>
       <r>     1.3224     0.0000    48.0000 </r>
       <r>     1.4360     0.0000    48.0000 </r>
       <r>     1.5496     0.0000    48.0000 </r>
       <r>     1.6632     0.0000    48.0000 </r>
       <r>     1.7768     0.0000    48.0000 </r>
       <r>     1.8904     0.0000    48.0000 </r>
       <r>     2.0040     0.0000    48.0000 </r>
       <r>     2.1176     0.0000    48.0000 </r>
       <r>     2.2313     0.0000    48.0000 </r>
       <r>     2.3449     0.0000    48.0000 </r>
       <r>     2.4585     0.0000    48.0000 </r>
       <r>     2.5721     0.0000    48.0000 </r>
       <r>     2.6857     0.0000    48.0000 </r>
       <r>     2.7993     0.0000    48.0000 </r>
       <r>     2.9129     0.0000    48.0000 </r>
       <r>     3.0265     0.0000    48.0000 </r>
       <r>     3.1401     0.0000    48.0000 </r>
       <r>     3.2537     0.0000    48.0000 </r>
       <r>     3.3674     0.0000    48.0000 </r>
       <r>     3.4810     0.0000    48.0000 </r>
       <r>     3.5946     0.0000    48.0000 </r>
       <r>     3.7082     0.0000    48.0000 </r>
       <r>     3.8218     0.0000    48.0000 </r>
       <r>     3.9354     0.0000    48.0000 </r>
       <r>     4.0490     0.0000    48.0000 </r>
       <r>     4.1626     0.0000    48.0000 </r>
       <r>     4.2762     0.0000    48.0000 </r>
       <r>     4.3898     0.0000    48.0000 </r>
       <r>     4.5035     0.0000    48.0000 </r>
       <r>     4.6171     0.0000    48.0000 </r>
       <r>     4.7307     0.0000    48.0000 </r>
       <r>     4.8443     0.0000    48.0000 </r>
       <r>     4.9579     0.0000    48.0000 </r>
       <r>     5.0715     0.0000    48.0000 </r>
       <r>     5.1851     0.0000    48.0000 </r>
       <r>     5.2987     0.0000    48.0000 </r>
       <r>     5.4123     0.0000    48.0000 </r>
       <r>     5.5259     0.0000    48.0000 </r>
       <r>     5.6395     0.0000    48.0000 </r>
       <r>     5.7532     0.0000    48.0000 </r>
       <r>     5.8668     0.0000    48.0000 </r>
       <r>     5.9804     0.0000    48.0000 </r>
       <r>     6.0940     0.0000    48.0000 </r>
       <r>     6.2076     0.0000    48.0000 </r>
       <r>     6.3212     0.0000    48.0000 </r>
       <r>     6.4348     0.0000    48.0000 </r>
       <r>     6.5484     0.0000    48.0000 </r>
       <r>     6.6620     0.0000    48.0000 </r>
       <r>     6.7756     0.0000    48.0000 </r>
       <r>     6.8893     0.0000    48.0000 </r>
       <r>     7.0029     0.0000    48.0000 </r>
       <r>     7.1165     0.0000    48.0000 </r>
       <r>     7.2301     0.0299    48.0011 </r>
       <r>     7.3437     0.1181    48.0090 </r>
       <r>     7.4573     0.1739    48.0264 </r>
       <r>     7.5709     0.1932    48.0471 </r>
       <r>     7.6845     0.2379    48.0716 </r>
       <r>     7.7981     0.2859    48.1013 </r>
       <r>     7.9117     0.3324    48.1365 </r>
       <r>     8.0253     0.3681    48.1764 </r>
       <r>     8.1390     0.4093    48.2204 </r>
       <r>     8.2526     0.4538    48.2695 </r>
       <r>     8.3662     0.4991    48.3236 </r>
       <r>     8.4798     0.5467    48.3829 </r>
       <r>     8.5934     0.6057    48.4482 </r>
       <r>     8.7070     0.7335    48.5224 </r>
       <r>     8.8206     0.8015    48.6142 </r>
       <r>     8.9342     0.8599    48.7085 </r>
       <r>     9.0478     0.9286    48.8099 </r>
       <r>     9.1614     0.9881    48.9189 </r>
       <r>     9.2751     1.0716    49.0353 </r>
       <r>     9.3887     1.4662    49.1843 </r>
       <r>     9.5023     1.2710    49.3329 </r>
       <r>     9.6159     1.4330    49.4918 </r>
       <r>     9.7295     1.4830    49.6578 </r>
       <r>     9.8431     1.5667    49.8334 </r>
       <r>     9.9567     1.6620    50.0032 </r>
       <r>    10.0703     1.1472    50.1803 </r>
       <r>    10.1839     1.2661    50.3004 </r>
       <r>    10.2975     6.8665    50.7319 </r>
       <r>    10.4112     7.6482    51.7483 </r>
       <r>    10.5248     4.3571    52.3281 </r>
       <r>    10.6384     7.1610    52.9909 </r>
       <r>    10.7520     6.9774    53.7876 </r>
       <r>    10.8656     2.7356    54.3834 </r>
       <r>    10.9792     3.1301    54.6820 </r>
       <r>    11.0928     6.5398    55.2796 </r>
       <r>    11.2064     5.0835    56.0196 </r>
       <r>    11.3200     3.1965    56.4182 </r>
       <r>    11.4336     6.8970    57.0126 </r>
       <r>    11.5472     4.4651    57.7096 </r>
       <r>    11.6609     0.0579    57.9993 </r>
       <r>    11.7745     0.0000    58.0000 </r>
       <r>    11.8881     0.0000    58.0000 </r>
       <r>    12.0017     0.0000    58.0000 </r>
       <r>    12.1153     0.0000    58.0000 </r>
       <r>    12.2289     0.0000    58.0000 </r>
       <r>    12.3425     0.0000    58.0000 </r>
       <r>    12.4561     0.0000    58.0000 </r>
       <r>    12.5697     0.0000    58.0000 </r>
       <r>    12.6833     0.0000    58.0000 </r>
       <r>    12.7970     0.0000    58.0000 </r>
       <r>    12.9106     0.0000    58.0000 </r>
       <r>    13.0242     0.0000    58.0000 </r>
       <r>    13.1378     0.0000    58.0000 </r>
       <r>    13.2514     0.0000    58.0000 </r>
       <r>    13.3650     0.0000    58.0000 </r>
       <r>    13.4786     0.0000    58.0000 </r>
       <r>    13.5922     0.0000    58.0000 </r>
       <r>    13.7058     0.0000    58.0000 </r>
      </set>
     </set>
    </array>
   </total>
  </dos>
 </calculation>
 <structure name="finalpos" >
  <crystal>
   <varray name="basis" >
    <v>       4.91370000       0.00000000       0.00000000 </v>
    <v>      -2.45685000       4.25538903       0.00000000 </v>
    <v>       0.00000000       0.00000000       5.40513000 </v>
   </varray>
   <i name="volume">    113.01967420 </i>
   <varray name="rec_basis" >
    <v>       0.20351263       0.11749807       0.00000000 </v>
    <v>       0.00000000       0.23499614       0.00000000 </v>
    <v>       0.00000000       0.00000000       0.18500943 </v>
   </varray>
  </crystal>
  <varray name="positions" >
   <v>       0.46980000       0.00000000       0.66667000 </v>
   <v>       0.00000000       0.46980000       0.33333000 </v>
   <v>       0.53020000       0.53020000       0.00000000 </v>
   <v>       0.41450000       0.26620000       0.78560000 </v>
   <v>       0.73380000       0.14830000       0.45227000 </v>
   <v>       0.85170000       0.58550000       0.11893000 </v>
   <v>       0.14830000       0.73380000       0.54773000 </v>
   <v>       0.26620000       0.41450000       0.21440000 </v>
   <v>       0.58550000       0.85170000       0.88107000 </v>
  </varray>
 </structure>
</modeling>
