   14   14   50    1
  0.4548897E+02  0.5431010E-09  0.5431010E-09  0.2159101E-08  0.5000000E-15
  1.000000000000000E-004
  CAR 
 unknown system                          
     44      6     30
 
  0.0000000E+00  0.0000000E+00  0.0000000E+00  0.4000000E-01
    1      -12.616376   1.000000
    2      -11.371818   1.000000
    3       -9.304077   1.000000
    4       -8.994279   1.000000
    5       -8.934083   1.000000
    6       -8.933911   1.000000
    7       -8.911059   1.000000
    8       -8.744522   1.000000
    9       -7.353315   1.000000
   10       -5.496934   1.000000
   11       -5.436682   1.000000
   12       -5.076571   1.000000
   13       -4.460666   1.000000
   14       -4.460506   1.000000
   15       -4.412094   1.000000
   16       -3.564305   1.000000
   17       -3.564200   1.000000
   18       -3.114471   1.000000
   19       -2.387931   1.000000
   20       -2.387849   1.000000
   21       -2.061337   1.000000
   22       -2.061018   1.000000
   23       -0.187891   0.000003
   24        0.283810   0.000000
   25        0.333753   0.000000
   26        0.688654   0.000000
   27        0.688883   0.000000
   28        0.709267   0.000000
   29        0.869110   0.000000
   30        1.037891   0.000000
 
  0.2000000E+00  0.0000000E+00  0.0000000E+00  0.1600000E+00
    1      -12.450524   1.000000
    2      -11.237014   1.000000
    3      -10.117459   1.000000
    4       -9.584383   1.000000
    5       -9.237833   1.000000
    6       -8.895386   1.000000
    7       -8.327616   1.000000
    8       -7.636003   1.000000
    9       -7.361912   1.000000
   10       -5.588559   1.000000
   11       -5.482605   1.000000
   12       -5.145068   1.000000
   13       -4.713375   1.000000
   14       -4.261877   1.000000
   15       -4.220317   1.000000
   16       -3.988858   1.000000
   17       -3.902792   1.000000
   18       -3.155606   1.000000
   19       -2.928476   1.000000
   20       -2.655300   1.000000
   21       -2.109266   1.000000
   22       -1.631794   1.000000
   23        0.151742   0.000000
   24        0.290868   0.000000
   25        0.507301   0.000000
   26        0.645280   0.000000
   27        1.120867   0.000000
   28        1.292191   0.000000
   29        1.454552   0.000000
   30        1.618895   0.000000
 
  0.4000000E+00  0.0000000E+00  0.0000000E+00  0.1600000E+00
    1      -11.959636   1.000000
    2      -11.166110   1.000000
    3      -10.849179   1.000000
    4      -10.264378   1.000000
    5       -9.080243   1.000000
    6       -8.940890   1.000000
    7       -7.808320   1.000000
    8       -7.467877   1.000000
    9       -6.592284   1.000000
   10       -5.933000   1.000000
   11       -5.316442   1.000000
   12       -5.215633   1.000000
   13       -4.936687   1.000000
   14       -4.699969   1.000000
   15       -4.497739   1.000000
   16       -3.983723   1.000000
   17       -3.910620   1.000000
   18       -3.659001   1.000000
   19       -3.371925   1.000000
   20       -2.904670   1.000000
   21       -1.749983   1.000000
   22       -0.851624   0.571514
   23       -0.753585   0.303974
   24       -0.178088   0.000002
   25        0.996563   0.000000
   26        1.412974   0.000000
   27        1.844330   0.000000
   28        1.979246   0.000000
   29        2.275945   0.000000
   30        2.301125   0.000000
 
  0.2000000E+00  0.2000000E+00  0.0000000E+00  0.1600000E+00
    1      -12.289185   1.000000
    2      -11.116583   1.000000
    3      -10.206941   1.000000
    4      -10.078990   1.000000
    5       -9.200777   1.000000
    6       -9.142488   1.000000
    7       -7.718022   1.000000
    8       -7.662014   1.000000
    9       -7.418432   1.000000
   10       -5.813873   1.000000
   11       -5.513958   1.000000
   12       -4.957273   1.000000
   13       -4.904520   1.000000
   14       -4.584880   1.000000
   15       -4.069302   1.000000
   16       -3.949106   1.000000
   17       -3.903654   1.000000
   18       -3.332133   1.000000
   19       -2.995871   1.000000
   20       -2.279543   1.000000
   21       -1.909324   1.000000
   22       -1.379442   0.999954
   23       -0.660000   0.120047
   24        0.393568   0.000000
   25        0.761182   0.000000
   26        0.797441   0.000000
   27        1.088064   0.000000
   28        1.387840   0.000000
   29        1.796657   0.000000
   30        1.946837   0.000000
 
  0.4000000E+00  0.2000000E+00  0.0000000E+00  0.3200000E+00
    1      -11.814911   1.000000
    2      -11.065387   1.000000
    3      -10.787907   1.000000
    4      -10.376337   1.000000
    5       -9.186668   1.000000
    6       -9.152394   1.000000
    7       -7.719416   1.000000
    8       -7.594424   1.000000
    9       -6.964400   1.000000
   10       -6.330197   1.000000
   11       -5.577220   1.000000
   12       -5.463109   1.000000
   13       -4.532414   1.000000
   14       -4.315124   1.000000
   15       -4.185839   1.000000
   16       -3.750742   1.000000
   17       -3.727208   1.000000
   18       -3.542876   1.000000
   19       -3.196689   1.000000
   20       -2.741883   1.000000
   21       -1.640903   1.000000
   22       -1.221073   0.997386
   23       -0.460545   0.004867
   24        0.405766   0.000000
   25        1.109608   0.000000
   26        1.283940   0.000000
   27        1.556349   0.000000
   28        1.606671   0.000000
   29        1.974286   0.000000
   30        2.208486   0.000000
 
  0.4000000E+00  0.4000000E+00  0.0000000E+00  0.1600000E+00
    1      -11.405599   1.000000
    2      -10.894022   1.000000
    3      -10.758122   1.000000
    4      -10.701541   1.000000
    5       -9.420533   1.000000
    6       -9.354948   1.000000
    7       -7.685911   1.000000
    8       -7.472234   1.000000
    9       -7.466699   1.000000
   10       -6.981570   1.000000
   11       -5.688130   1.000000
   12       -5.667880   1.000000
   13       -4.327923   1.000000
   14       -4.234785   1.000000
   15       -4.021084   1.000000
   16       -3.747728   1.000000
   17       -3.126157   1.000000
   18       -2.862526   1.000000
   19       -2.783908   1.000000
   20       -2.207119   1.000000
   21       -1.601499   1.000000
   22       -1.563897   1.000000
   23        0.365063   0.000000
   24        0.791163   0.000000
   25        0.904290   0.000000
   26        1.020452   0.000000
   27        1.238920   0.000000
   28        1.547930   0.000000
   29        1.868714   0.000000
   30        2.076230   0.000000
