       N       E                     dE             d eps       ncg     rms          rms(c)
DAV:   1     0.144108324796E+03    0.14411E+03   -0.97524E+03   360   0.591E+02
DAV:   2    -0.487850621451E+02   -0.19289E+03   -0.18879E+03   476   0.151E+02
DAV:   3    -0.644241536580E+02   -0.15639E+02   -0.15445E+02   420   0.463E+01
DAV:   4    -0.649541787960E+02   -0.53003E+00   -0.52826E+00   576   0.101E+01
DAV:   5    -0.649656070194E+02   -0.11428E-01   -0.11424E-01   512   0.128E+00    0.921E+00
RMM:   6    -0.634039012220E+02    0.15617E+01   -0.10643E+00   360   0.335E+00    0.521E+00
RMM:   7    -0.626646022296E+02    0.73930E+00   -0.22272E+00   360   0.492E+00    0.651E-01
RMM:   8    -0.626424199912E+02    0.22182E-01   -0.14400E-01   367   0.126E+00    0.228E-01
RMM:   9    -0.626389018260E+02    0.35182E-02   -0.24858E-02   395   0.522E-01    0.148E-01
RMM:  10    -0.626391413853E+02   -0.23956E-03   -0.62950E-03   361   0.293E-01    0.687E-02
RMM:  11    -0.626392001885E+02   -0.58803E-04   -0.11760E-03   368   0.104E-01    0.437E-02
RMM:  12    -0.626412879414E+02   -0.20878E-02   -0.30949E-03   363   0.136E-01    0.336E-02
RMM:  13    -0.626412382481E+02    0.49693E-04   -0.11178E-04   350   0.432E-02    0.195E-02
RMM:  14    -0.626418083371E+02   -0.57009E-03   -0.52149E-04   360   0.566E-02    0.165E-02
RMM:  15    -0.626417929560E+02    0.15381E-04   -0.50293E-05   298   0.207E-02    0.710E-03
RMM:  16    -0.626418553739E+02   -0.62418E-04   -0.56660E-05   280   0.218E-02    0.363E-03
RMM:  17    -0.626419720387E+02   -0.11666E-03   -0.64658E-06   220   0.913E-03    0.263E-03
RMM:  18    -0.626421320630E+02   -0.16002E-03   -0.20240E-05   245   0.118E-02    0.202E-03
RMM:  19    -0.626421556375E+02   -0.23574E-04   -0.27333E-06   179   0.529E-03    0.183E-03
RMM:  20    -0.626421707959E+02   -0.15158E-04   -0.23997E-06   178   0.506E-03    0.577E-04
RMM:  21    -0.626421722079E+02   -0.14120E-05   -0.11470E-07    88   0.290E-03
   1 F= -.62642172E+02 E0= -.62618528E+02  d E =-.626422E+02
       N       E                     dE             d eps       ncg     rms          rms(c)
DAV:   1    -0.622648442883E+02    0.37733E+00   -0.42561E+01   366   0.302E+01    0.153E+00
RMM:   2    -0.628569280796E+02   -0.59208E+00   -0.40117E+00   365   0.847E+00    0.183E+00
RMM:   3    -0.625891300529E+02    0.26780E+00   -0.52276E-01   369   0.244E+00    0.762E-01
RMM:   4    -0.625416064753E+02    0.47524E-01   -0.48736E-01   371   0.160E+00    0.381E-01
RMM:   5    -0.625380041101E+02    0.36024E-02   -0.31115E-02   385   0.656E-01    0.173E-01
RMM:   6    -0.625378198843E+02    0.18423E-03   -0.18584E-02   386   0.335E-01    0.355E-02
RMM:   7    -0.625379482199E+02   -0.12834E-03   -0.21692E-03   426   0.140E-01    0.531E-02
RMM:   8    -0.625378016898E+02    0.14653E-03   -0.17722E-03   362   0.961E-02    0.186E-02
RMM:   9    -0.625377939534E+02    0.77364E-05   -0.63256E-05   297   0.289E-02
   2 F= -.62537794E+02 E0= -.62516838E+02  d E =0.104378E+00
       N       E                     dE             d eps       ncg     rms          rms(c)
DAV:   1    -0.631202589627E+02   -0.58246E+00   -0.84829E+00   360   0.130E+01    0.645E-01
RMM:   2    -0.631729757149E+02   -0.52717E-01   -0.52933E-01   364   0.357E+00    0.120E-01
RMM:   3    -0.631763880021E+02   -0.34123E-02   -0.26703E-02   392   0.747E-01    0.643E-02
RMM:   4    -0.631767305449E+02   -0.34254E-03   -0.71500E-03   384   0.296E-01    0.666E-02
RMM:   5    -0.631766630364E+02    0.67509E-04   -0.49623E-04   374   0.918E-02    0.283E-02
RMM:   6    -0.631766468697E+02    0.16167E-04   -0.25953E-04   353   0.486E-02    0.387E-03
RMM:   7    -0.631766514713E+02   -0.46016E-05   -0.11237E-05   229   0.147E-02
   3 F= -.63176651E+02 E0= -.63154371E+02  d E =-.638858E+00
       N       E                     dE             d eps       ncg     rms          rms(c)
DAV:   1    -0.632004063125E+02   -0.23759E-01   -0.88823E-01   414   0.430E+00    0.236E-01
RMM:   2    -0.632056041881E+02   -0.51979E-02   -0.59637E-02   365   0.116E+00    0.114E-01
RMM:   3    -0.632056184348E+02   -0.14247E-04   -0.42223E-03   372   0.266E-01    0.635E-02
RMM:   4    -0.632057185250E+02   -0.10009E-03   -0.16737E-03   376   0.128E-01    0.301E-02
RMM:   5    -0.632056585065E+02    0.60018E-04   -0.19124E-04   360   0.482E-02    0.130E-02
RMM:   6    -0.632056576042E+02    0.90235E-06   -0.13824E-04   323   0.294E-02    0.442E-03
RMM:   7    -0.632056564569E+02    0.11473E-05   -0.61320E-06   212   0.120E-02
   4 F= -.63205656E+02 E0= -.63183248E+02  d E =-.290050E-01
       N       E                     dE             d eps       ncg     rms          rms(c)
DAV:   1    -0.632074935002E+02   -0.18359E-02   -0.63773E-02   408   0.121E+00    0.605E-02
RMM:   2    -0.632077301241E+02   -0.23662E-03   -0.32584E-03   365   0.262E-01    0.220E-02
RMM:   3    -0.632077399077E+02   -0.97836E-05   -0.30438E-04   371   0.616E-02    0.120E-02
RMM:   4    -0.632077309051E+02    0.90026E-05   -0.33463E-05   245   0.245E-02
   5 F= -.63207731E+02 E0= -.63185418E+02  d E =-.207445E-02
       N       E                     dE             d eps       ncg     rms          rms(c)
DAV:   1    -0.632083158249E+02   -0.57592E-03   -0.62341E-03   420   0.336E-01    0.254E-02
RMM:   2    -0.632083586857E+02   -0.42861E-04   -0.47221E-04   363   0.108E-01    0.508E-03
RMM:   3    -0.632083613175E+02   -0.26317E-05   -0.26119E-05   211   0.255E-02    0.185E-03
RMM:   4    -0.632083622300E+02   -0.91258E-06   -0.63381E-06   189   0.138E-02
   6 F= -.63208362E+02 E0= -.63186030E+02  d E =-.631325E-03
