 vasp.5.4.1 05Feb16 (build Mar 02 2016 14:09:44) complex                        
  
 executed on   Abel-impi-ifc-cuda date 2019.10.04  10:39:35
 running on    4 total cores
 distrk:  each k-point on    4 cores,    1 groups
 distr:  one band on NCORES_PER_BAND=   2 cores,    2 groups


--------------------------------------------------------------------------------------------------------


 INCAR:
 POTCAR:   PAW_PBE Si 05Jan2001                   
 POTCAR:   PAW_PBE H 15Jun2001                    
 POTCAR:   PAW_PBE Si 05Jan2001                   
   VRHFIN =Si: s2p2                                                             
   LEXCH  = PE                                                                  
   EATOM  =   103.0669 eV,    7.5752 Ry                                         
                                                                                
   TITEL  = PAW_PBE Si 05Jan2001                                                
   LULTRA =        F    use ultrasoft PP ?                                      
   IUNSCR =        1    unscreen: 0-lin 1-nonlin 2-no                           
   RPACOR =    1.500    partial core radius                                     
   POMASS =   28.085; ZVAL   =    4.000    mass and valenz                      
   RCORE  =    1.900    outmost cutoff radius                                   
   RWIGS  =    2.480; RWIGS  =    1.312    wigner-seitz radius (au A)           
   ENMAX  =  245.345; ENMIN  =  184.009 eV                                      
   ICORE  =        2    local potential                                         
   LCOR   =        T    correct aug charges                                     
   LPAW   =        T    paw PP                                                  
   EAUG   =  322.069                                                            
   DEXC   =    -.007                                                            
   RMAX   =    2.944    core radius for proj-oper                               
   RAUG   =    1.300    factor for augmentation sphere                          
   RDEP   =    1.993    radius for radial grids                                 
   QCUT   =   -4.246; QGAM   =    8.493    optimization parameters              
                                                                                
   Description                                                                  
     l     E      TYP  RCUT    TYP  RCUT                                        
     0   .000     23  1.900                                                     
     0   .000     23  1.900                                                     
     1   .000     23  1.900                                                     
     1   .000     23  1.900                                                     
     2   .000      7  1.900                                                     
  local pseudopotential read in
  partial core-charges read in
  atomic valenz-charges read in
  non local Contribution for L=           0  read in
    real space projection operators read in
  non local Contribution for L=           0  read in
    real space projection operators read in
  non local Contribution for L=           1  read in
    real space projection operators read in
  non local Contribution for L=           1  read in
    real space projection operators read in
    PAW grid and wavefunctions read in
 
   number of l-projection  operators is LMAX  =           4
   number of lm-projection operators is LMMAX =           8
 
 POTCAR:   PAW_PBE H 15Jun2001                    
   VRHFIN =H: ultrasoft test                                                    
   LEXCH  = PE                                                                  
   EATOM  =    12.4884 eV,     .9179 Ry                                         
                                                                                
   TITEL  = PAW_PBE H 15Jun2001                                                 
   LULTRA =        F    use ultrasoft PP ?                                      
   IUNSCR =        0    unscreen: 0-lin 1-nonlin 2-no                           
   RPACOR =     .000    partial core radius                                     
   POMASS =    1.000; ZVAL   =    1.000    mass and valenz                      
   RCORE  =    1.100    outmost cutoff radius                                   
   RWIGS  =     .700; RWIGS  =     .370    wigner-seitz radius (au A)           
   ENMAX  =  250.000; ENMIN  =  200.000 eV                                      
   RCLOC  =     .701    cutoff for local pot                                    
   LCOR   =        T    correct aug charges                                     
   LPAW   =        T    paw PP                                                  
   EAUG   =  400.000                                                            
   RMAX   =    2.174    core radius for proj-oper                               
   RAUG   =    1.200    factor for augmentation sphere                          
   RDEP   =    1.112    radius for radial grids                                 
   QCUT   =   -5.749; QGAM   =   11.498    optimization parameters              
                                                                                
   Description                                                                  
     l     E      TYP  RCUT    TYP  RCUT                                        
     0   .000     23  1.100                                                     
     0   .500     23  1.100                                                     
     1  -.300     23  1.100                                                     
  local pseudopotential read in
  atomic valenz-charges read in
  non local Contribution for L=           0  read in
    real space projection operators read in
  non local Contribution for L=           0  read in
    real space projection operators read in
  non local Contribution for L=           1  read in
    real space projection operators read in
    PAW grid and wavefunctions read in
 
   number of l-projection  operators is LMAX  =           3
   number of lm-projection operators is LMMAX =           5
 
 Optimization of the real space projectors (new method)

 maximal supplied QI-value         = 19.84
 optimisation between [QCUT,QGAM] = [  7.94, 16.07] = [ 17.64, 72.34] Ry 
 Optimized for a Real-space Cutoff    1.55 Angstroem

   l    n(q)    QCUT    max X(q) W(low)/X(q) W(high)/X(q)  e(spline) 
   0      7     7.937     8.708    0.25E-04    0.20E-04    0.11E-07
   0      7     7.937   106.241    0.95E-04    0.31E-03    0.13E-06
   1      7     7.937     5.901    0.19E-04    0.32E-04    0.50E-07
   1      7     7.937    73.241    0.39E-03    0.64E-03    0.12E-06
 Optimization of the real space projectors (new method)

 maximal supplied QI-value         = 34.20
 optimisation between [QCUT,QGAM] = [  7.87, 16.08] = [ 17.33, 72.37] Ry 
 Optimized for a Real-space Cutoff    1.85 Angstroem

   l    n(q)    QCUT    max X(q) W(low)/X(q) W(high)/X(q)  e(spline) 
   0      9     7.867     4.436    0.44E-04    0.71E-04    0.23E-06
   0      9     7.867    15.341    0.29E-03    0.73E-03    0.99E-06
   1      8     7.867     4.196    0.27E-03    0.13E-02    0.91E-06
 PAW_PBE Si 05Jan2001                   :
 energy of atom  1       EATOM= -103.0669
 kinetic energy error for atom=    0.0052 (will be added to EATOM!!)
 PAW_PBE H 15Jun2001                    :
 energy of atom  2       EATOM=  -12.4884
 kinetic energy error for atom=    0.0868 (will be added to EATOM!!)
 
 
 POSCAR: Si_bulk_icsd_60385                      
  positions in cartesian coordinates
  velocities in cartesian coordinates
  No initial velocities read in
 exchange correlation table for  LEXCH =        8
   RHO(1)=    0.500       N(1)  =     2000
   RHO(2)=  100.500       N(2)  =     4000
 


--------------------------------------------------------------------------------------------------------


 ion  position               nearest neighbor table
   1  0.000  0.000  0.000-  13 1.40   4 2.35   3 2.35
   2  0.500  0.500  0.000-  14 1.40   3 2.35   4 2.35
   3  0.250  0.250  0.063-   5 2.35   6 2.35   2 2.35   1 2.35
   4  0.750  0.750  0.063-   1 2.35   5 2.35   6 2.35   2 2.35
   5  0.000  0.500  0.126-   3 2.35   4 2.35   8 2.35   7 2.35
   6  0.500  0.000  0.126-   3 2.35   4 2.35   7 2.35   8 2.35
   7  0.250  0.750  0.189-   9 2.35  10 2.35   6 2.35   5 2.35
   8  0.750  0.250  0.189-   9 2.35  10 2.35   5 2.35   6 2.35
   9  0.000  0.000  0.252-  11 1.40   8 2.35   7 2.35
  10  0.500  0.500  0.252-  12 1.40   8 2.35   7 2.35
  11  0.000  0.000  0.316-   9 1.40
  12  0.500  0.500  0.316-  10 1.40
  13  0.000  0.000  0.935-   1 1.40
  14  0.500  0.500  0.935-   2 1.40
 
  LATTYP: Found a simple tetragonal cell.
 ALAT       =     5.4310100000
 C/A-ratio  =     3.9755054769
  
  Lattice vectors:
  
 A1 = (   5.4310100000,   0.0000000000,   0.0000000000)
 A2 = (   0.0000000000,   5.4310100000,   0.0000000000)
 A3 = (   0.0000000000,   0.0000000000,  21.5910100000)


Analysis of symmetry for initial positions (statically):
=====================================================================
 Subroutine PRICEL returns following result:
 
  LATTYP: Found a simple tetragonal cell.
 ALAT       =     3.8403039997
 C/A-ratio  =     5.6222137627
  
  Lattice vectors:
  
 A1 = (   2.7155050000,  -2.7155050000,   0.0000000000)
 A2 = (  -2.7155050000,  -2.7155050000,   0.0000000000)
 A3 = (   0.0000000000,   0.0000000000, -21.5910100000)
 
   2 primitive cells build up your supercell.
 

 Routine SETGRP: Setting up the symmetry group for a 
 simple tetragonal supercell.


 Subroutine GETGRP returns: Found  8 space group operations
 (whereof  4 operations were pure point group operations)
 out of a pool of 16 trial point group operations.


The static configuration has the point symmetry C_2v.
 The point group associated with its full space group is D_2d.


Analysis of symmetry for dynamics (positions and initial velocities):
=====================================================================
 Subroutine PRICEL returns following result:
 
  LATTYP: Found a simple tetragonal cell.
 ALAT       =     3.8403039997
 C/A-ratio  =     5.6222137627
  
  Lattice vectors:
  
 A1 = (   2.7155050000,  -2.7155050000,   0.0000000000)
 A2 = (  -2.7155050000,  -2.7155050000,   0.0000000000)
 A3 = (   0.0000000000,   0.0000000000, -21.5910100000)
 
   2 primitive cells build up your supercell.
 

 Routine SETGRP: Setting up the symmetry group for a 
 simple tetragonal supercell.


 Subroutine GETGRP returns: Found  8 space group operations
 (whereof  4 operations were pure point group operations)
 out of a pool of 16 trial point group operations.


The dynamic configuration has the point symmetry C_2v.
 The point group associated with its full space group is D_2d.


 Subroutine INISYM returns: Found  8 space group operations
 (whereof  4 operations are pure point group operations),
 and found     2 'primitive' translations

 
 
 KPOINTS: Automatic                               

Automatic generation of k-mesh.
Space group operators:
 irot       det(A)        alpha          n_x          n_y          n_z        tau_x        tau_y        tau_z
    1     1.000000     0.000000     1.000000     0.000000     0.000000     0.000000     0.000000     0.000000
    2     1.000000   180.000000     0.000000     0.000000     1.000000     0.000000     0.000000     0.000000
    3    -1.000000   180.000000     0.707107     0.707107     0.000000     0.000000     0.000000     0.000000
    4    -1.000000   180.000000     0.707107    -0.707107     0.000000     0.000000     0.000000     0.000000
    5    -1.000000    90.000000     0.000000     0.000000    -1.000000     0.000000     0.000000    -0.748460
    6    -1.000000    90.000000     0.000000     0.000000     1.000000     0.000000     0.000000    -0.748460
    7     1.000000   180.000000     0.000000     1.000000     0.000000     0.000000     0.000000    -0.748460
    8     1.000000   180.000000     1.000000     0.000000     0.000000     0.000000     0.000000    -0.748460
 
 Subroutine IBZKPT returns following result:
 ===========================================
 
 Found      6 irreducible k-points:
 
 Following reciprocal coordinates:
            Coordinates               Weight
  0.000000  0.000000  0.000000      1.000000
  0.200000  0.000000  0.000000      4.000000
  0.400000  0.000000  0.000000      4.000000
  0.200000  0.200000  0.000000      4.000000
  0.400000  0.200000  0.000000      8.000000
  0.400000  0.400000  0.000000      4.000000
 
 Following cartesian coordinates:
            Coordinates               Weight
  0.000000  0.000000  0.000000      1.000000
  0.036826  0.000000  0.000000      4.000000
  0.073651  0.000000  0.000000      4.000000
  0.036826  0.036826  0.000000      4.000000
  0.073651  0.036826  0.000000      8.000000
  0.073651  0.073651  0.000000      4.000000
 


--------------------------------------------------------------------------------------------------------




 Dimension of arrays:
   k-points           NKPTS =      6   k-points in BZ     NKDIM =      6   number of bands    NBANDS=     30
   number of dos      NEDOS =    301   number of ions     NIONS =     14
   non local maximal  LDIM  =      4   non local SUM 2l+1 LMDIM =      8
   total plane-waves  NPLWV =  48384
   max r-space proj   IRMAX =   2073   max aug-charges    IRDMAX=   2739
   dimension x,y,z NGX =    24 NGY =   24 NGZ =   84
   dimension x,y,z NGXF=    48 NGYF=   48 NGZF=  168
   support grid    NGXF=    48 NGYF=   48 NGZF=  168
   ions per type =              10   4
 NGX,Y,Z   is equivalent  to a cutoff of   7.35,  7.35,  6.47 a.u.
 NGXF,Y,Z  is equivalent  to a cutoff of  14.69, 14.69, 12.94 a.u.


 I would recommend the setting:
   dimension x,y,z NGX =    21 NGY =   21 NGZ =   84
 SYSTEM =  unknown system                          
 POSCAR =  Si_bulk_icsd_60385                      

 Startparameter for this run:
   NWRITE =      2    write-flag & timer
   PREC   = normal    normal or accurate (medium, high low for compatibility)
   ISTART =      0    job   : 0-new  1-cont  2-samecut
   ICHARG =      2    charge: 1-file 2-atom 10-const
   ISPIN  =      1    spin polarized calculation?
   LNONCOLLINEAR =      F non collinear calculations
   LSORBIT =      F    spin-orbit coupling
   INIWAV =      1    electr: 0-lowe 1-rand  2-diag
   LASPH  =      F    aspherical Exc in radial PAW
   METAGGA=      F    non-selfconsistent MetaGGA calc.

 Electronic Relaxation 1
   ENCUT  =  250.0 eV  18.37 Ry    4.29 a.u.   7.00  7.00 27.84*2*pi/ulx,y,z
   ENINI  =  250.0     initial cutoff
   ENAUG  =  400.0 eV  augmentation charge cutoff
   NELM   =     60;   NELMIN=  4; NELMDL= -5     # of ELM steps 
   EDIFF  = 0.1E-04   stopping-criterion for ELM
   LREAL  =      T    real-space projection
   NLSPLINE    = F    spline interpolate recip. space projectors
   LCOMPAT=      F    compatible to vasp.4.4
   GGA_COMPAT  = T    GGA compatible to vasp.4.4-vasp.4.6
   LMAXPAW     = -100 max onsite density
   LMAXMIX     =    2 max onsite mixed and CHGCAR
   VOSKOWN=      0    Vosko Wilk Nusair interpolation
   ROPT   =   -0.00050  -0.00050
 Ionic relaxation
   EDIFFG = -.5E-01   stopping-criterion for IOM
   NSW    =     50    number of steps for IOM
   NBLOCK =      1;   KBLOCK =     50    inner block; outer block 
   IBRION =      1    ionic relax: 0-MD 1-quasi-New 2-CG
   NFREE  =      0    steps in history (QN), initial steepest desc. (CG)
   ISIF   =      2    stress and relaxation
   IWAVPR =     11    prediction:  0-non 1-charg 2-wave 3-comb
   ISYM   =      2    0-nonsym 1-usesym 2-fastsym
   LCORR  =      T    Harris-Foulkes like correction to forces

   POTIM  = 0.5000    time-step for ionic-motion
   TEIN   =    0.0    initial temperature
   TEBEG  =    0.0;   TEEND  =   0.0 temperature during run
   SMASS  =  -3.00    Nose mass-parameter (am)
   estimated Nose-frequenzy (Omega)   =  0.10E-29 period in steps =****** mass=  -0.674E-27a.u.
   SCALEE = 1.0000    scale energy and forces
   NPACO  =    256;   APACO  = 16.0  distance and # of slots for P.C.
   PSTRESS=    0.0 pullay stress

  Mass of Ions in am
   POMASS =  28.09  1.00
  Ionic Valenz
   ZVAL   =   4.00  1.00
  Atomic Wigner-Seitz radii
   RWIGS  =  -1.00 -1.00
  virtual crystal weights 
   VCA    =   1.00  1.00
   NELECT =      44.0000    total number of electrons
   NUPDOWN=      -1.0000    fix difference up-down

 DOS related values:
   EMIN   =  10.00;   EMAX   =-10.00  energy-range for DOS
   EFERMI =   0.00
   ISMEAR =     0;   SIGMA  =   0.20  broadening in eV -4-tet -1-fermi 0-gaus

 Electronic relaxation 2 (details)
   IALGO  =     68    algorithm
   LDIAG  =      T    sub-space diagonalisation (order eigenvalues)
   LSUBROT=      F    optimize rotation matrix (better conditioning)
   TURBO    =      0    0=normal 1=particle mesh
   IRESTART =      0    0=no restart 2=restart with 2 vectors
   NREBOOT  =      0    no. of reboots
   NMIN     =      0    reboot dimension
   EREF     =   0.00    reference energy to select bands
   IMIX   =      4    mixing-type and parameters
     AMIX     =   0.40;   BMIX     =  1.00
     AMIX_MAG =   1.60;   BMIX_MAG =  1.00
     AMIN     =   0.10
     WC   =   100.;   INIMIX=   1;  MIXPRE=   1;  MAXMIX=  80

 Intra band minimization:
   WEIMIN = 0.0010     energy-eigenvalue tresh-hold
   EBREAK =  0.83E-07  absolut break condition
   DEPER  =   0.30     relativ break condition  

   TIME   =   0.40     timestep for ELM

  volume/ion in A,a.u.               =      45.49       306.97
  Fermi-wavevector in a.u.,A,eV,Ry     =   0.671760  1.269443  6.139791  0.451262
  Thomas-Fermi vector in A             =   1.747677
 
 Write flags
   LWAVE  =      F    write WAVECAR
   LCHARG =      T    write CHGCAR
   LVTOT  =      F    write LOCPOT, total local potential
   LVHAR  =      F    write LOCPOT, Hartree potential only
   LELF   =      F    write electronic localiz. function (ELF)
   LORBIT =      0    0 simple, 1 ext, 2 COOP (PROOUT)


 Dipole corrections
   LMONO  =      F    monopole corrections only (constant potential shift)
   LDIPOL =      F    correct potential (dipole corrections)
   IDIPOL =      0    1-x, 2-y, 3-z, 4-all directions 
   EPSILON=  1.0000000 bulk dielectric constant

 Exchange correlation treatment:
   GGA     =    --    GGA type
   LEXCH   =     8    internal setting for exchange type
   VOSKOWN=      0    Vosko Wilk Nusair interpolation
   LHFCALC =     F    Hartree Fock is set to
   LHFONE  =     F    Hartree Fock one center treatment
   AEXX    =    0.0000 exact exchange contribution

 Linear response parameters
   LEPSILON=     F    determine dielectric tensor
   LRPA    =     F    only Hartree local field effects (RPA)
   LNABLA  =     F    use nabla operator in PAW spheres
   LVEL    =     F    velocity operator in full k-point grid
   LINTERFAST=   F  fast interpolation
   KINTER  =     0    interpolate to denser k-point grid
   CSHIFT  =0.1000    complex shift for real part using Kramers Kronig
   OMEGAMAX=  -1.0    maximum frequency
   DEG_THRESHOLD= 0.2000000E-02 threshold for treating states as degnerate
   RTIME   =    0.100 relaxation time in fs

 Orbital magnetization related:
   ORBITALMAG=     F  switch on orbital magnetization
   LCHIMAG   =     F  perturbation theory with respect to B field
   DQ        =  0.001000  dq finite difference perturbation B field



--------------------------------------------------------------------------------------------------------


 quasi-Newton-method for relaxation of ions
 charge density and potential will be updated during run
 non-spin polarized calculation
 RMM-DIIS sequential band-by-band and
  variant of blocked Davidson during initial phase
 perform sub-space diagonalisation
    before iterative eigenvector-optimisation
 modified Broyden-mixing scheme, WC =      100.0
 initial mixing is a Kerker type mixing with AMIX =  0.4000 and BMIX =      1.0000
 Hartree-type preconditioning will be used
 using additional bands            8
 real space projection scheme for non local part
 use partial core corrections
 calculate Harris-corrections to forces 
   (improved forces if not selfconsistent)
 use gradient corrections 
 use of overlap-Matrix (Vanderbilt PP)
 Gauss-broadening in eV      SIGMA  =   0.20


--------------------------------------------------------------------------------------------------------


  energy-cutoff  :      250.00
  volume of cell :      636.85
      direct lattice vectors                 reciprocal lattice vectors
     5.431010000  0.000000000  0.000000000     0.184127814  0.000000000  0.000000000
     0.000000000  5.431010000  0.000000000     0.000000000  0.184127814  0.000000000
     0.000000000  0.000000000 21.591010000     0.000000000  0.000000000  0.046315573

  length of vectors
     5.431010000  5.431010000 21.591010000     0.184127814  0.184127814  0.046315573


 
 k-points in units of 2pi/SCALE and weight: Automatic                               
   0.00000000  0.00000000  0.00000000       0.040
   0.03682556  0.00000000  0.00000000       0.160
   0.07365113  0.00000000  0.00000000       0.160
   0.03682556  0.03682556  0.00000000       0.160
   0.07365113  0.03682556  0.00000000       0.320
   0.07365113  0.07365113  0.00000000       0.160
 
 k-points in reciprocal lattice and weights: Automatic                               
   0.00000000  0.00000000  0.00000000       0.040
   0.20000000  0.00000000  0.00000000       0.160
   0.40000000  0.00000000  0.00000000       0.160
   0.20000000  0.20000000  0.00000000       0.160
   0.40000000  0.20000000  0.00000000       0.320
   0.40000000  0.40000000  0.00000000       0.160
 
 position of ions in fractional coordinates (direct lattice) 
   0.00000000  0.00000000  0.00000000
   0.49999908  0.49999908  0.00000000
   0.24999954  0.24999954  0.06288497
   0.75000046  0.75000046  0.06288497
   0.00000000  0.49999908  0.12576994
   0.49999908  0.00000000  0.12576994
   0.24999954  0.75000046  0.18865537
   0.75000046  0.24999954  0.18865537
   0.00000000  0.00000000  0.25154034
   0.49999908  0.49999908  0.25154034
   0.00000000  0.00000000  0.31638214
   0.49999908  0.49999908  0.31638214
   0.00000000  0.00000000  0.93515773
   0.49999908  0.49999908  0.93515773
 
 position of ions in cartesian coordinates  (Angst):
   0.00000000  0.00000000  0.00000000
   2.71550000  2.71550000  0.00000000
   1.35775000  1.35775000  1.35775000
   4.07326000  4.07326000  1.35775000
   0.00000000  2.71550000  2.71550000
   2.71550000  0.00000000  2.71550000
   1.35775000  4.07326000  4.07326000
   4.07326000  1.35775000  4.07326000
   0.00000000  0.00000000  5.43101000
   2.71550000  2.71550000  5.43101000
   0.00000000  0.00000000  6.83101000
   2.71550000  2.71550000  6.83101000
   0.00000000  0.00000000 20.19100000
   2.71550000  2.71550000 20.19100000
 


--------------------------------------------------------------------------------------------------------


 k-point  1 :   0.0000 0.0000 0.0000  plane waves:    5635
 k-point  2 :   0.2000 0.0000 0.0000  plane waves:    5686
 k-point  3 :   0.4000 0.0000 0.0000  plane waves:    5706
 k-point  4 :   0.2000 0.2000 0.0000  plane waves:    5706
 k-point  5 :   0.4000 0.2000 0.0000  plane waves:    5731
 k-point  6 :   0.4000 0.4000 0.0000  plane waves:    5734

 maximum and minimum number of plane-waves per node :      2873     2805

 maximum number of plane-waves:      5734
 maximum index in each direction: 
   IXMAX=    7   IYMAX=    7   IZMAX=   27
   IXMIN=   -7   IYMIN=   -7   IZMIN=  -27

 WARNING: aliasing errors must be expected set NGX to  30 to avoid them
 WARNING: aliasing errors must be expected set NGY to  30 to avoid them
 WARNING: aliasing errors must be expected set NGZ to 110 to avoid them
 aliasing errors are usually negligible using standard VASP settings
 and one can safely disregard these warnings

 real space projection operators:
  total allocation   :       1029.69 KBytes
  max/ min on nodes  :        517.56        512.12


 parallel 3D FFT for wavefunctions:
    minimum data exchange during FFTs selected (reduces bandwidth)
 parallel 3D FFT for charge:
    minimum data exchange during FFTs selected (reduces bandwidth)


 total amount of memory used by VASP on root node    45801. kBytes
========================================================================

   base      :      30000. kBytes
   nonlr-proj:       1120. kBytes
   fftplans  :       4013. kBytes
   grid      :       6437. kBytes
   one-center:         21. kBytes
   wavefun   :       4210. kBytes
 
     INWAV:  cpu time    0.0010: real time    0.0003
 Broyden mixing: mesh for mixing (old mesh)
   NGX = 15   NGY = 15   NGZ = 55
  (NGX  = 48   NGY  = 48   NGZ  =168)
  gives a total of  12375 points

 initial charge density was supplied:
 charge density of overlapping atoms calculated
 number of electron      44.0000000 magnetization 
 keeping initial charge density in first step


--------------------------------------------------------------------------------------------------------


 Maximum index for non-local projection operator          974
 Maximum index for augmentation-charges          618 (set IRDMAX)


--------------------------------------------------------------------------------------------------------


 First call to EWALD:  gamma=   0.206
 Maximum number of real-space cells 4x 4x 1
 Maximum number of reciprocal cells 2x 2x 6

 FEWALD executed in parallel
    FEWALD:  cpu time    0.0020: real time    0.0017


----------------------------------------- Iteration    1(   1)  ---------------------------------------


    POTLOK:  cpu time    0.0580: real time    0.0591
    SETDIJ:  cpu time    0.0060: real time    0.0060
     EDDAV:  cpu time    0.4499: real time    0.4525
       DOS:  cpu time    0.0000: real time    0.0007
    --------------------------------------------
      LOOP:  cpu time    0.5169: real time    0.5438

 eigenvalue-minimisations  :   360
 total energy-change (2. order) : 0.1441083E+03  (-0.9752429E+03)
 number of electron      44.0000000 magnetization 
 augmentation part       44.0000000 magnetization 

 Free energy of the ion-electron system (eV)
  ---------------------------------------------------
  alpha Z        PSCENC =         6.48777344
  Ewald energy   TEWEN  =      3350.50887920
  -Hartree energ DENC   =     -4253.75390416
  -exchange      EXHF   =         0.00000000
  -V(xc)+E(xc)   XCENC  =       -86.01880523
  PAW double counting   =       332.90134342     -157.00396765
  entropy T*S    EENTRO =        -0.08279655
  eigenvalues    EBANDS =      -129.15416709
  atomic energy  EATOM  =      1080.22396943
  Solvation  Ediel_sol  =         0.00000000
  ---------------------------------------------------
  free energy    TOTEN  =       144.10832480 eV

  energy without entropy =      144.19112134  energy(sigma->0) =      144.14972307


--------------------------------------------------------------------------------------------------------




----------------------------------------- Iteration    1(   2)  ---------------------------------------


     EDDAV:  cpu time    0.5569: real time    0.5595
       DOS:  cpu time    0.0010: real time    0.0005
    --------------------------------------------
      LOOP:  cpu time    0.5589: real time    0.5624

 eigenvalue-minimisations  :   476
 total energy-change (2. order) :-0.1928934E+03  (-0.1887855E+03)
 number of electron      44.0000000 magnetization 
 augmentation part       44.0000000 magnetization 

 Free energy of the ion-electron system (eV)
  ---------------------------------------------------
  alpha Z        PSCENC =         6.48777344
  Ewald energy   TEWEN  =      3350.50887920
  -Hartree energ DENC   =     -4253.75390416
  -exchange      EXHF   =         0.00000000
  -V(xc)+E(xc)   XCENC  =       -86.01880523
  PAW double counting   =       332.90134342     -157.00396765
  entropy T*S    EENTRO =        -0.03691552
  eigenvalues    EBANDS =      -322.09343507
  atomic energy  EATOM  =      1080.22396943
  Solvation  Ediel_sol  =         0.00000000
  ---------------------------------------------------
  free energy    TOTEN  =       -48.78506215 eV

  energy without entropy =      -48.74814663  energy(sigma->0) =      -48.76660439


--------------------------------------------------------------------------------------------------------




----------------------------------------- Iteration    1(   3)  ---------------------------------------


     EDDAV:  cpu time    0.5059: real time    0.5054
       DOS:  cpu time    0.0000: real time    0.0005
    --------------------------------------------
      LOOP:  cpu time    0.5059: real time    0.5096

 eigenvalue-minimisations  :   420
 total energy-change (2. order) :-0.1563909E+02  (-0.1544462E+02)
 number of electron      44.0000000 magnetization 
 augmentation part       44.0000000 magnetization 

 Free energy of the ion-electron system (eV)
  ---------------------------------------------------
  alpha Z        PSCENC =         6.48777344
  Ewald energy   TEWEN  =      3350.50887920
  -Hartree energ DENC   =     -4253.75390416
  -exchange      EXHF   =         0.00000000
  -V(xc)+E(xc)   XCENC  =       -86.01880523
  PAW double counting   =       332.90134342     -157.00396765
  entropy T*S    EENTRO =        -0.04739977
  eigenvalues    EBANDS =      -337.72204233
  atomic energy  EATOM  =      1080.22396943
  Solvation  Ediel_sol  =         0.00000000
  ---------------------------------------------------
  free energy    TOTEN  =       -64.42415366 eV

  energy without entropy =      -64.37675389  energy(sigma->0) =      -64.40045378


--------------------------------------------------------------------------------------------------------




----------------------------------------- Iteration    1(   4)  ---------------------------------------


     EDDAV:  cpu time    0.6529: real time    0.6545
       DOS:  cpu time    0.0010: real time    0.0006
    --------------------------------------------
      LOOP:  cpu time    0.6559: real time    0.6594

 eigenvalue-minimisations  :   576
 total energy-change (2. order) :-0.5300251E+00  (-0.5282584E+00)
 number of electron      44.0000000 magnetization 
 augmentation part       44.0000000 magnetization 

 Free energy of the ion-electron system (eV)
  ---------------------------------------------------
  alpha Z        PSCENC =         6.48777344
  Ewald energy   TEWEN  =      3350.50887920
  -Hartree energ DENC   =     -4253.75390416
  -exchange      EXHF   =         0.00000000
  -V(xc)+E(xc)   XCENC  =       -86.01880523
  PAW double counting   =       332.90134342     -157.00396765
  entropy T*S    EENTRO =        -0.04689218
  eigenvalues    EBANDS =      -338.25257505
  atomic energy  EATOM  =      1080.22396943
  Solvation  Ediel_sol  =         0.00000000
  ---------------------------------------------------
  free energy    TOTEN  =       -64.95417880 eV

  energy without entropy =      -64.90728661  energy(sigma->0) =      -64.93073271


--------------------------------------------------------------------------------------------------------




----------------------------------------- Iteration    1(   5)  ---------------------------------------


     EDDAV:  cpu time    0.5919: real time    0.5919
       DOS:  cpu time    0.0010: real time    0.0006
    CHARGE:  cpu time    0.0330: real time    0.0343
    MIXING:  cpu time    0.0030: real time    0.0018
    --------------------------------------------
      LOOP:  cpu time    0.6289: real time    0.6324

 eigenvalue-minimisations  :   512
 total energy-change (2. order) :-0.1142822E-01  (-0.1142422E-01)
 number of electron      44.0000060 magnetization 
 augmentation part       -2.2586431 magnetization 

 Broyden mixing:
  rms(total) = 0.92123E+00    rms(broyden)= 0.92109E+00
  rms(prec ) = 0.99303E+00
  weight for this iteration     100.00

 Free energy of the ion-electron system (eV)
  ---------------------------------------------------
  alpha Z        PSCENC =         6.48777344
  Ewald energy   TEWEN  =      3350.50887920
  -Hartree energ DENC   =     -4253.75390416
  -exchange      EXHF   =         0.00000000
  -V(xc)+E(xc)   XCENC  =       -86.01880523
  PAW double counting   =       332.90134342     -157.00396765
  entropy T*S    EENTRO =        -0.04689567
  eigenvalues    EBANDS =      -338.26399979
  atomic energy  EATOM  =      1080.22396943
  Solvation  Ediel_sol  =         0.00000000
  ---------------------------------------------------
  free energy    TOTEN  =       -64.96560702 eV

  energy without entropy =      -64.91871135  energy(sigma->0) =      -64.94215919


--------------------------------------------------------------------------------------------------------




----------------------------------------- Iteration    1(   6)  ---------------------------------------


    POTLOK:  cpu time    0.0540: real time    0.0543
    SETDIJ:  cpu time    0.0060: real time    0.0056
    EDDIAG:  cpu time    0.0720: real time    0.0726
  RMM-DIIS:  cpu time    0.2990: real time    0.2980
    ORTHCH:  cpu time    0.0090: real time    0.0096
       DOS:  cpu time    0.0000: real time    0.0005
    CHARGE:  cpu time    0.0340: real time    0.0339
    MIXING:  cpu time    0.0030: real time    0.0019
    --------------------------------------------
      LOOP:  cpu time    0.4769: real time    0.4796

 eigenvalue-minimisations  :   360
 total energy-change (2. order) : 0.1561706E+01  (-0.1064350E+00)
 number of electron      44.0000060 magnetization 
 augmentation part       -2.2427836 magnetization 

 Broyden mixing:
  rms(total) = 0.52105E+00    rms(broyden)= 0.52103E+00
  rms(prec ) = 0.56432E+00
  weight for this iteration     100.00

 eigenvalues of (default mixing * dielectric matrix)
  average eigenvalue GAMMA=   2.2626
  2.2626

 Free energy of the ion-electron system (eV)
  ---------------------------------------------------
  alpha Z        PSCENC =         6.48777344
  Ewald energy   TEWEN  =      3350.50887920
  -Hartree energ DENC   =     -4273.74077430
  -exchange      EXHF   =         0.00000000
  -V(xc)+E(xc)   XCENC  =       -84.25331372
  PAW double counting   =       357.30549330     -181.94928381
  entropy T*S    EENTRO =        -0.04738779
  eigenvalues    EBANDS =      -317.93925696
  atomic energy  EATOM  =      1080.22396943
  Solvation  Ediel_sol  =         0.00000000
  ---------------------------------------------------
  free energy    TOTEN  =       -63.40390122 eV

  energy without entropy =      -63.35651343  energy(sigma->0) =      -63.38020733


--------------------------------------------------------------------------------------------------------




----------------------------------------- Iteration    1(   7)  ---------------------------------------


    POTLOK:  cpu time    0.0520: real time    0.0530
    SETDIJ:  cpu time    0.0070: real time    0.0055
    EDDIAG:  cpu time    0.0720: real time    0.0726
  RMM-DIIS:  cpu time    0.2990: real time    0.2986
    ORTHCH:  cpu time    0.0090: real time    0.0095
       DOS:  cpu time    0.0000: real time    0.0005
    CHARGE:  cpu time    0.0340: real time    0.0337
    MIXING:  cpu time    0.0020: real time    0.0017
    --------------------------------------------
      LOOP:  cpu time    0.4749: real time    0.4791

 eigenvalue-minimisations  :   360
 total energy-change (2. order) : 0.7392990E+00  (-0.2227203E+00)
 number of electron      44.0000061 magnetization 
 augmentation part       -2.2234835 magnetization 

 Broyden mixing:
  rms(total) = 0.65093E-01    rms(broyden)= 0.64843E-01
  rms(prec ) = 0.82746E-01
  weight for this iteration     100.00

 eigenvalues of (default mixing * dielectric matrix)
  average eigenvalue GAMMA=   2.2497
  2.2497  2.2497

 Free energy of the ion-electron system (eV)
  ---------------------------------------------------
  alpha Z        PSCENC =         6.48777344
  Ewald energy   TEWEN  =      3350.50887920
  -Hartree energ DENC   =     -4306.37722768
  -exchange      EXHF   =         0.00000000
  -V(xc)+E(xc)   XCENC  =       -81.51566858
  PAW double counting   =       390.78170815     -216.10502709
  entropy T*S    EENTRO =        -0.04686411
  eigenvalues    EBANDS =      -286.62214498
  atomic energy  EATOM  =      1080.22396943
  Solvation  Ediel_sol  =         0.00000000
  ---------------------------------------------------
  free energy    TOTEN  =       -62.66460223 eV

  energy without entropy =      -62.61773812  energy(sigma->0) =      -62.64117017


--------------------------------------------------------------------------------------------------------




----------------------------------------- Iteration    1(   8)  ---------------------------------------


    POTLOK:  cpu time    0.0520: real time    0.0530
    SETDIJ:  cpu time    0.0070: real time    0.0056
    EDDIAG:  cpu time    0.0720: real time    0.0722
  RMM-DIIS:  cpu time    0.2920: real time    0.2922
    ORTHCH:  cpu time    0.0100: real time    0.0095
       DOS:  cpu time    0.0000: real time    0.0005
    CHARGE:  cpu time    0.0340: real time    0.0336
    MIXING:  cpu time    0.0020: real time    0.0020
    --------------------------------------------
      LOOP:  cpu time    0.4699: real time    0.4722

 eigenvalue-minimisations  :   367
 total energy-change (2. order) : 0.2218224E-01  (-0.1440045E-01)
 number of electron      44.0000061 magnetization 
 augmentation part       -2.2219533 magnetization 

 Broyden mixing:
  rms(total) = 0.22837E-01    rms(broyden)= 0.22821E-01
  rms(prec ) = 0.33737E-01
  weight for this iteration     100.00

 eigenvalues of (default mixing * dielectric matrix)
  average eigenvalue GAMMA=   1.9165
  1.2263  2.4339  2.0891

 Free energy of the ion-electron system (eV)
  ---------------------------------------------------
  alpha Z        PSCENC =         6.48777344
  Ewald energy   TEWEN  =      3350.50887920
  -Hartree energ DENC   =     -4313.64728373
  -exchange      EXHF   =         0.00000000
  -V(xc)+E(xc)   XCENC  =       -81.46672971
  PAW double counting   =       386.83619216     -212.06273387
  entropy T*S    EENTRO =        -0.04731182
  eigenvalues    EBANDS =      -279.47517508
  atomic energy  EATOM  =      1080.22396943
  Solvation  Ediel_sol  =         0.00000000
  ---------------------------------------------------
  free energy    TOTEN  =       -62.64241999 eV

  energy without entropy =      -62.59510817  energy(sigma->0) =      -62.61876408


--------------------------------------------------------------------------------------------------------




----------------------------------------- Iteration    1(   9)  ---------------------------------------


    POTLOK:  cpu time    0.0530: real time    0.0532
    SETDIJ:  cpu time    0.0060: real time    0.0056
    EDDIAG:  cpu time    0.0730: real time    0.0723
  RMM-DIIS:  cpu time    0.3120: real time    0.3127
    ORTHCH:  cpu time    0.0100: real time    0.0096
       DOS:  cpu time    0.0000: real time    0.0005
    CHARGE:  cpu time    0.0340: real time    0.0336
    MIXING:  cpu time    0.0020: real time    0.0019
    --------------------------------------------
      LOOP:  cpu time    0.4899: real time    0.4930

 eigenvalue-minimisations  :   395
 total energy-change (2. order) : 0.3518165E-02  (-0.2485805E-02)
 number of electron      44.0000060 magnetization 
 augmentation part       -2.2216617 magnetization 

 Broyden mixing:
  rms(total) = 0.14793E-01    rms(broyden)= 0.14790E-01
  rms(prec ) = 0.21886E-01
  weight for this iteration     100.00

 eigenvalues of (default mixing * dielectric matrix)
  average eigenvalue GAMMA=   2.2864
  1.0410  2.1296  2.9875  2.9875

 Free energy of the ion-electron system (eV)
  ---------------------------------------------------
  alpha Z        PSCENC =         6.48777344
  Ewald energy   TEWEN  =      3350.50887920
  -Hartree energ DENC   =     -4317.74500643
  -exchange      EXHF   =         0.00000000
  -V(xc)+E(xc)   XCENC  =       -81.31405030
  PAW double counting   =       387.40206388     -212.63389730
  entropy T*S    EENTRO =        -0.04727333
  eigenvalues    EBANDS =      -275.52136041
  atomic energy  EATOM  =      1080.22396943
  Solvation  Ediel_sol  =         0.00000000
  ---------------------------------------------------
  free energy    TOTEN  =       -62.63890183 eV

  energy without entropy =      -62.59162850  energy(sigma->0) =      -62.61526516


--------------------------------------------------------------------------------------------------------




----------------------------------------- Iteration    1(  10)  ---------------------------------------


    POTLOK:  cpu time    0.0530: real time    0.0539
    SETDIJ:  cpu time    0.0060: real time    0.0056
    EDDIAG:  cpu time    0.0720: real time    0.0722
  RMM-DIIS:  cpu time    0.2820: real time    0.2810
    ORTHCH:  cpu time    0.0090: real time    0.0095
       DOS:  cpu time    0.0010: real time    0.0005
    CHARGE:  cpu time    0.0330: real time    0.0336
    MIXING:  cpu time    0.0020: real time    0.0020
    --------------------------------------------
      LOOP:  cpu time    0.4589: real time    0.4624

 eigenvalue-minimisations  :   361
 total energy-change (2. order) :-0.2395593E-03  (-0.6294994E-03)
 number of electron      44.0000061 magnetization 
 augmentation part       -2.2229446 magnetization 

 Broyden mixing:
  rms(total) = 0.68742E-02    rms(broyden)= 0.68715E-02
  rms(prec ) = 0.10904E-01
  weight for this iteration     100.00

 eigenvalues of (default mixing * dielectric matrix)
  average eigenvalue GAMMA=   1.9318
  3.0180  2.1081  2.1081  1.2125  1.2125

 Free energy of the ion-electron system (eV)
  ---------------------------------------------------
  alpha Z        PSCENC =         6.48777344
  Ewald energy   TEWEN  =      3350.50887920
  -Hartree energ DENC   =     -4321.53609128
  -exchange      EXHF   =         0.00000000
  -V(xc)+E(xc)   XCENC  =       -81.28432332
  PAW double counting   =       386.17313494     -211.37464217
  entropy T*S    EENTRO =        -0.04727066
  eigenvalues    EBANDS =      -271.79057095
  atomic energy  EATOM  =      1080.22396943
  Solvation  Ediel_sol  =         0.00000000
  ---------------------------------------------------
  free energy    TOTEN  =       -62.63914139 eV

  energy without entropy =      -62.59187072  energy(sigma->0) =      -62.61550605


--------------------------------------------------------------------------------------------------------




----------------------------------------- Iteration    1(  11)  ---------------------------------------


    POTLOK:  cpu time    0.0530: real time    0.0543
    SETDIJ:  cpu time    0.0070: real time    0.0056
    EDDIAG:  cpu time    0.0720: real time    0.0721
  RMM-DIIS:  cpu time    0.2880: real time    0.2879
    ORTHCH:  cpu time    0.0090: real time    0.0096
       DOS:  cpu time    0.0000: real time    0.0005
    CHARGE:  cpu time    0.0340: real time    0.0337
    MIXING:  cpu time    0.0030: real time    0.0020
    --------------------------------------------
      LOOP:  cpu time    0.4669: real time    0.4686

 eigenvalue-minimisations  :   368
 total energy-change (2. order) :-0.5880318E-04  (-0.1175989E-03)
 number of electron      44.0000061 magnetization 
 augmentation part       -2.2225794 magnetization 

 Broyden mixing:
  rms(total) = 0.43748E-02    rms(broyden)= 0.43744E-02
  rms(prec ) = 0.74031E-02
  weight for this iteration     100.00

 eigenvalues of (default mixing * dielectric matrix)
  average eigenvalue GAMMA=   2.2399
  4.0171  2.7533  2.7533  1.8300  1.1423  0.9433

 Free energy of the ion-electron system (eV)
  ---------------------------------------------------
  alpha Z        PSCENC =         6.48777344
  Ewald energy   TEWEN  =      3350.50887920
  -Hartree energ DENC   =     -4322.74487257
  -exchange      EXHF   =         0.00000000
  -V(xc)+E(xc)   XCENC  =       -81.25574605
  PAW double counting   =       386.33490945     -211.53995113
  entropy T*S    EENTRO =        -0.04728317
  eigenvalues    EBANDS =      -270.60687876
  atomic energy  EATOM  =      1080.22396943
  Solvation  Ediel_sol  =         0.00000000
  ---------------------------------------------------
  free energy    TOTEN  =       -62.63920019 eV

  energy without entropy =      -62.59191701  energy(sigma->0) =      -62.61555860


--------------------------------------------------------------------------------------------------------




----------------------------------------- Iteration    1(  12)  ---------------------------------------


    POTLOK:  cpu time    0.0550: real time    0.0557
    SETDIJ:  cpu time    0.0060: real time    0.0056
    EDDIAG:  cpu time    0.0730: real time    0.0720
  RMM-DIIS:  cpu time    0.2820: real time    0.2828
    ORTHCH:  cpu time    0.0090: real time    0.0096
       DOS:  cpu time    0.0010: real time    0.0005
    CHARGE:  cpu time    0.0340: real time    0.0336
    MIXING:  cpu time    0.0020: real time    0.0021
    --------------------------------------------
      LOOP:  cpu time    0.4619: real time    0.4659

 eigenvalue-minimisations  :   363
 total energy-change (2. order) :-0.2087753E-02  (-0.3094896E-03)
 number of electron      44.0000061 magnetization 
 augmentation part       -2.2216622 magnetization 

 Broyden mixing:
  rms(total) = 0.33571E-02    rms(broyden)= 0.33567E-02
  rms(prec ) = 0.44276E-02
  weight for this iteration     100.00

 eigenvalues of (default mixing * dielectric matrix)
  average eigenvalue GAMMA=   2.0966
  4.8394  2.7977  1.9282  1.9282  1.1766  1.1766  0.8294

 Free energy of the ion-electron system (eV)
  ---------------------------------------------------
  alpha Z        PSCENC =         6.48777344
  Ewald energy   TEWEN  =      3350.50887920
  -Hartree energ DENC   =     -4325.35454122
  -exchange      EXHF   =         0.00000000
  -V(xc)+E(xc)   XCENC  =       -81.23376878
  PAW double counting   =       386.66271597     -211.87797559
  entropy T*S    EENTRO =        -0.04727698
  eigenvalues    EBANDS =      -268.01106340
  atomic energy  EATOM  =      1080.22396943
  Solvation  Ediel_sol  =         0.00000000
  ---------------------------------------------------
  free energy    TOTEN  =       -62.64128794 eV

  energy without entropy =      -62.59401096  energy(sigma->0) =      -62.61764945


--------------------------------------------------------------------------------------------------------




----------------------------------------- Iteration    1(  13)  ---------------------------------------


    POTLOK:  cpu time    0.0560: real time    0.0565
    SETDIJ:  cpu time    0.0060: real time    0.0056
    EDDIAG:  cpu time    0.0720: real time    0.0720
  RMM-DIIS:  cpu time    0.2780: real time    0.2786
    ORTHCH:  cpu time    0.0090: real time    0.0096
       DOS:  cpu time    0.0010: real time    0.0005
    CHARGE:  cpu time    0.0350: real time    0.0337
    MIXING:  cpu time    0.0020: real time    0.0022
    --------------------------------------------
      LOOP:  cpu time    0.4599: real time    0.4632

 eigenvalue-minimisations  :   350
 total energy-change (2. order) : 0.4969328E-04  (-0.1117771E-04)
 number of electron      44.0000061 magnetization 
 augmentation part       -2.2218201 magnetization 

 Broyden mixing:
  rms(total) = 0.19487E-02    rms(broyden)= 0.19486E-02
  rms(prec ) = 0.29061E-02
  weight for this iteration     100.00

 eigenvalues of (default mixing * dielectric matrix)
  average eigenvalue GAMMA=   2.2831
  5.7167  2.9952  2.5584  1.8488  1.8488  0.9341  1.1813  1.1813

 Free energy of the ion-electron system (eV)
  ---------------------------------------------------
  alpha Z        PSCENC =         6.48777344
  Ewald energy   TEWEN  =      3350.50887920
  -Hartree energ DENC   =     -4325.26622958
  -exchange      EXHF   =         0.00000000
  -V(xc)+E(xc)   XCENC  =       -81.24101299
  PAW double counting   =       386.47101445     -211.68130531
  entropy T*S    EENTRO =        -0.04728637
  eigenvalues    EBANDS =      -268.09704051
  atomic energy  EATOM  =      1080.22396943
  Solvation  Ediel_sol  =         0.00000000
  ---------------------------------------------------
  free energy    TOTEN  =       -62.64123825 eV

  energy without entropy =      -62.59395188  energy(sigma->0) =      -62.61759506


--------------------------------------------------------------------------------------------------------




----------------------------------------- Iteration    1(  14)  ---------------------------------------


    POTLOK:  cpu time    0.0570: real time    0.0577
    SETDIJ:  cpu time    0.0070: real time    0.0056
    EDDIAG:  cpu time    0.0720: real time    0.0719
  RMM-DIIS:  cpu time    0.2960: real time    0.2974
    ORTHCH:  cpu time    0.0100: real time    0.0095
       DOS:  cpu time    0.0010: real time    0.0005
    CHARGE:  cpu time    0.0330: real time    0.0336
    MIXING:  cpu time    0.0030: real time    0.0024
    --------------------------------------------
      LOOP:  cpu time    0.4789: real time    0.4817

 eigenvalue-minimisations  :   360
 total energy-change (2. order) :-0.5700890E-03  (-0.5214868E-04)
 number of electron      44.0000061 magnetization 
 augmentation part       -2.2221612 magnetization 

 Broyden mixing:
  rms(total) = 0.16526E-02    rms(broyden)= 0.16522E-02
  rms(prec ) = 0.22096E-02
  weight for this iteration     100.00

 eigenvalues of (default mixing * dielectric matrix)
  average eigenvalue GAMMA=   2.1017
  5.3573  3.0403  2.7053  1.9118  1.4436  1.4436  1.2461  0.8837  0.8837

 Free energy of the ion-electron system (eV)
  ---------------------------------------------------
  alpha Z        PSCENC =         6.48777344
  Ewald energy   TEWEN  =      3350.50887920
  -Hartree energ DENC   =     -4325.39206695
  -exchange      EXHF   =         0.00000000
  -V(xc)+E(xc)   XCENC  =       -81.24004615
  PAW double counting   =       386.47280171     -211.68127831
  entropy T*S    EENTRO =        -0.04728913
  eigenvalues    EBANDS =      -267.97455157
  atomic energy  EATOM  =      1080.22396943
  Solvation  Ediel_sol  =         0.00000000
  ---------------------------------------------------
  free energy    TOTEN  =       -62.64180834 eV

  energy without entropy =      -62.59451921  energy(sigma->0) =      -62.61816377


--------------------------------------------------------------------------------------------------------




----------------------------------------- Iteration    1(  15)  ---------------------------------------


    POTLOK:  cpu time    0.0570: real time    0.0574
    SETDIJ:  cpu time    0.0060: real time    0.0056
    EDDIAG:  cpu time    0.0720: real time    0.0719
  RMM-DIIS:  cpu time    0.2430: real time    0.2431
    ORTHCH:  cpu time    0.0090: real time    0.0096
       DOS:  cpu time    0.0000: real time    0.0005
    CHARGE:  cpu time    0.0340: real time    0.0337
    MIXING:  cpu time    0.0030: real time    0.0025
    --------------------------------------------
      LOOP:  cpu time    0.4249: real time    0.4280

 eigenvalue-minimisations  :   298
 total energy-change (2. order) : 0.1538118E-04  (-0.5029251E-05)
 number of electron      44.0000061 magnetization 
 augmentation part       -2.2220495 magnetization 

 Broyden mixing:
  rms(total) = 0.70977E-03    rms(broyden)= 0.70973E-03
  rms(prec ) = 0.11037E-02
  weight for this iteration     100.00

 eigenvalues of (default mixing * dielectric matrix)
  average eigenvalue GAMMA=   2.2698
  5.8199  4.2879  2.6966  2.2769  1.7631  1.3686  1.3686  1.2103  1.0102  0.8962

 Free energy of the ion-electron system (eV)
  ---------------------------------------------------
  alpha Z        PSCENC =         6.48777344
  Ewald energy   TEWEN  =      3350.50887920
  -Hartree energ DENC   =     -4325.61853229
  -exchange      EXHF   =         0.00000000
  -V(xc)+E(xc)   XCENC  =       -81.23946834
  PAW double counting   =       386.47365782     -211.68268801
  entropy T*S    EENTRO =        -0.04728734
  eigenvalues    EBANDS =      -267.74809685
  atomic energy  EATOM  =      1080.22396943
  Solvation  Ediel_sol  =         0.00000000
  ---------------------------------------------------
  free energy    TOTEN  =       -62.64179296 eV

  energy without entropy =      -62.59450561  energy(sigma->0) =      -62.61814929


--------------------------------------------------------------------------------------------------------




----------------------------------------- Iteration    1(  16)  ---------------------------------------


    POTLOK:  cpu time    0.0540: real time    0.0553
    SETDIJ:  cpu time    0.0070: real time    0.0056
    EDDIAG:  cpu time    0.0720: real time    0.0722
  RMM-DIIS:  cpu time    0.2320: real time    0.2320
    ORTHCH:  cpu time    0.0090: real time    0.0095
       DOS:  cpu time    0.0000: real time    0.0005
    CHARGE:  cpu time    0.0350: real time    0.0344
    MIXING:  cpu time    0.0030: real time    0.0027
    --------------------------------------------
      LOOP:  cpu time    0.4129: real time    0.4158

 eigenvalue-minimisations  :   280
 total energy-change (2. order) :-0.6241797E-04  (-0.5666048E-05)
 number of electron      44.0000061 magnetization 
 augmentation part       -2.2220721 magnetization 

 Broyden mixing:
  rms(total) = 0.36336E-03    rms(broyden)= 0.36321E-03
  rms(prec ) = 0.57524E-03
  weight for this iteration     100.00

 eigenvalues of (default mixing * dielectric matrix)
  average eigenvalue GAMMA=   2.1278
  5.8540  4.1797  2.7002  2.2845  1.7271  1.3399  1.3399  1.3016  1.0236  0.8275
  0.8275

 Free energy of the ion-electron system (eV)
  ---------------------------------------------------
  alpha Z        PSCENC =         6.48777344
  Ewald energy   TEWEN  =      3350.50887920
  -Hartree energ DENC   =     -4325.83255726
  -exchange      EXHF   =         0.00000000
  -V(xc)+E(xc)   XCENC  =       -81.24245155
  PAW double counting   =       386.41604267     -211.62360342
  entropy T*S    EENTRO =        -0.04728687
  eigenvalues    EBANDS =      -267.53262101
  atomic energy  EATOM  =      1080.22396943
  Solvation  Ediel_sol  =         0.00000000
  ---------------------------------------------------
  free energy    TOTEN  =       -62.64185537 eV

  energy without entropy =      -62.59456850  energy(sigma->0) =      -62.61821194


--------------------------------------------------------------------------------------------------------




----------------------------------------- Iteration    1(  17)  ---------------------------------------


    POTLOK:  cpu time    0.0550: real time    0.0559
    SETDIJ:  cpu time    0.0060: real time    0.0056
    EDDIAG:  cpu time    0.0720: real time    0.0720
  RMM-DIIS:  cpu time    0.1880: real time    0.1871
    ORTHCH:  cpu time    0.0090: real time    0.0095
       DOS:  cpu time    0.0010: real time    0.0005
    CHARGE:  cpu time    0.0330: real time    0.0336
    MIXING:  cpu time    0.0030: real time    0.0028
    --------------------------------------------
      LOOP:  cpu time    0.3679: real time    0.3707

 eigenvalue-minimisations  :   220
 total energy-change (2. order) :-0.1166648E-03  (-0.6465760E-06)
 number of electron      44.0000061 magnetization 
 augmentation part       -2.2220841 magnetization 

 Broyden mixing:
  rms(total) = 0.26300E-03    rms(broyden)= 0.26300E-03
  rms(prec ) = 0.43404E-03
  weight for this iteration     100.00

 eigenvalues of (default mixing * dielectric matrix)
  average eigenvalue GAMMA=   2.3696
  5.9750  5.6653  3.2539  2.5810  2.3267  1.7543  1.3480  1.3480  1.2953  0.9984
  0.9450  0.9450

 Free energy of the ion-electron system (eV)
  ---------------------------------------------------
  alpha Z        PSCENC =         6.48777344
  Ewald energy   TEWEN  =      3350.50887920
  -Hartree energ DENC   =     -4325.84722641
  -exchange      EXHF   =         0.00000000
  -V(xc)+E(xc)   XCENC  =       -81.24196533
  PAW double counting   =       386.41498661     -211.62259004
  entropy T*S    EENTRO =        -0.04728908
  eigenvalues    EBANDS =      -267.51850986
  atomic energy  EATOM  =      1080.22396943
  Solvation  Ediel_sol  =         0.00000000
  ---------------------------------------------------
  free energy    TOTEN  =       -62.64197204 eV

  energy without entropy =      -62.59468296  energy(sigma->0) =      -62.61832750


--------------------------------------------------------------------------------------------------------




----------------------------------------- Iteration    1(  18)  ---------------------------------------


    POTLOK:  cpu time    0.0540: real time    0.0547
    SETDIJ:  cpu time    0.0060: real time    0.0056
    EDDIAG:  cpu time    0.0720: real time    0.0723
  RMM-DIIS:  cpu time    0.2060: real time    0.2057
    ORTHCH:  cpu time    0.0090: real time    0.0095
       DOS:  cpu time    0.0010: real time    0.0005
    CHARGE:  cpu time    0.0330: real time    0.0336
    MIXING:  cpu time    0.0030: real time    0.0028
    --------------------------------------------
      LOOP:  cpu time    0.3849: real time    0.3881

 eigenvalue-minimisations  :   245
 total energy-change (2. order) :-0.1600243E-03  (-0.2023968E-05)
 number of electron      44.0000061 magnetization 
 augmentation part       -2.2220561 magnetization 

 Broyden mixing:
  rms(total) = 0.20193E-03    rms(broyden)= 0.20193E-03
  rms(prec ) = 0.23443E-03
  weight for this iteration     100.00

 eigenvalues of (default mixing * dielectric matrix)
  average eigenvalue GAMMA=   2.3796
  6.1635  6.1635  3.4211  2.5903  2.0905  2.0905  1.4021  1.4021  1.5230  0.9416
  0.9732  1.0870  1.0870

 Free energy of the ion-electron system (eV)
  ---------------------------------------------------
  alpha Z        PSCENC =         6.48777344
  Ewald energy   TEWEN  =      3350.50887920
  -Hartree energ DENC   =     -4325.98628075
  -exchange      EXHF   =         0.00000000
  -V(xc)+E(xc)   XCENC  =       -81.24041341
  PAW double counting   =       386.43682051     -211.64527771
  entropy T*S    EENTRO =        -0.04728903
  eigenvalues    EBANDS =      -267.38031373
  atomic energy  EATOM  =      1080.22396943
  Solvation  Ediel_sol  =         0.00000000
  ---------------------------------------------------
  free energy    TOTEN  =       -62.64213206 eV

  energy without entropy =      -62.59484303  energy(sigma->0) =      -62.61848755


--------------------------------------------------------------------------------------------------------




----------------------------------------- Iteration    1(  19)  ---------------------------------------


    POTLOK:  cpu time    0.0540: real time    0.0546
    SETDIJ:  cpu time    0.0060: real time    0.0056
    EDDIAG:  cpu time    0.0720: real time    0.0720
  RMM-DIIS:  cpu time    0.1740: real time    0.1736
    ORTHCH:  cpu time    0.0090: real time    0.0095
       DOS:  cpu time    0.0010: real time    0.0005
    CHARGE:  cpu time    0.0330: real time    0.0337
    MIXING:  cpu time    0.0040: real time    0.0030
    --------------------------------------------
      LOOP:  cpu time    0.3539: real time    0.3562

 eigenvalue-minimisations  :   179
 total energy-change (2. order) :-0.2357444E-04  (-0.2733282E-06)
 number of electron      44.0000061 magnetization 
 augmentation part       -2.2220502 magnetization 

 Broyden mixing:
  rms(total) = 0.18319E-03    rms(broyden)= 0.18318E-03
  rms(prec ) = 0.24499E-03
  weight for this iteration     100.00

 eigenvalues of (default mixing * dielectric matrix)
  average eigenvalue GAMMA=   2.5939
  8.7683  6.4258  3.5492  3.0941  2.5014  2.3193  1.3477  1.3477  1.5203  1.5203
  1.0051  1.0051  0.9959  0.9137

 Free energy of the ion-electron system (eV)
  ---------------------------------------------------
  alpha Z        PSCENC =         6.48777344
  Ewald energy   TEWEN  =      3350.50887920
  -Hartree energ DENC   =     -4325.98315068
  -exchange      EXHF   =         0.00000000
  -V(xc)+E(xc)   XCENC  =       -81.24134324
  PAW double counting   =       386.42682017     -211.63496008
  entropy T*S    EENTRO =        -0.04728883
  eigenvalues    EBANDS =      -267.38285504
  atomic energy  EATOM  =      1080.22396943
  Solvation  Ediel_sol  =         0.00000000
  ---------------------------------------------------
  free energy    TOTEN  =       -62.64215564 eV

  energy without entropy =      -62.59486681  energy(sigma->0) =      -62.61851122


--------------------------------------------------------------------------------------------------------




----------------------------------------- Iteration    1(  20)  ---------------------------------------


    POTLOK:  cpu time    0.0550: real time    0.0559
    SETDIJ:  cpu time    0.0070: real time    0.0056
    EDDIAG:  cpu time    0.0720: real time    0.0721
  RMM-DIIS:  cpu time    0.1680: real time    0.1694
    ORTHCH:  cpu time    0.0090: real time    0.0095
       DOS:  cpu time    0.0010: real time    0.0005
    CHARGE:  cpu time    0.0330: real time    0.0337
    MIXING:  cpu time    0.0040: real time    0.0032
    --------------------------------------------
      LOOP:  cpu time    0.3499: real time    0.3541

 eigenvalue-minimisations  :   178
 total energy-change (2. order) :-0.1515838E-04  (-0.2399710E-06)
 number of electron      44.0000061 magnetization 
 augmentation part       -2.2220681 magnetization 

 Broyden mixing:
  rms(total) = 0.57729E-04    rms(broyden)= 0.57710E-04
  rms(prec ) = 0.67095E-04
  weight for this iteration     100.00

 eigenvalues of (default mixing * dielectric matrix)
  average eigenvalue GAMMA=   2.5543
  8.8980  6.6652  3.3025  3.3025  2.3639  2.1872  2.1872  1.3485  1.3485  1.4620
  1.1829  1.1829  0.9233  0.9800  0.9800

 Free energy of the ion-electron system (eV)
  ---------------------------------------------------
  alpha Z        PSCENC =         6.48777344
  Ewald energy   TEWEN  =      3350.50887920
  -Hartree energ DENC   =     -4325.97138923
  -exchange      EXHF   =         0.00000000
  -V(xc)+E(xc)   XCENC  =       -81.24127350
  PAW double counting   =       386.42747621     -211.63550130
  entropy T*S    EENTRO =        -0.04728959
  eigenvalues    EBANDS =      -267.39481546
  atomic energy  EATOM  =      1080.22396943
  Solvation  Ediel_sol  =         0.00000000
  ---------------------------------------------------
  free energy    TOTEN  =       -62.64217080 eV

  energy without entropy =      -62.59488120  energy(sigma->0) =      -62.61852600


--------------------------------------------------------------------------------------------------------




----------------------------------------- Iteration    1(  21)  ---------------------------------------


    POTLOK:  cpu time    0.0560: real time    0.0560
    SETDIJ:  cpu time    0.0050: real time    0.0056
    EDDIAG:  cpu time    0.0730: real time    0.0727
  RMM-DIIS:  cpu time    0.1430: real time    0.1429
    ORTHCH:  cpu time    0.0090: real time    0.0095
       DOS:  cpu time    0.0010: real time    0.0005
    --------------------------------------------
      LOOP:  cpu time    0.2880: real time    0.2915

 eigenvalue-minimisations  :    88
 total energy-change (2. order) :-0.1412029E-05  (-0.1146965E-07)
 number of electron      44.0000061 magnetization 
 augmentation part       -2.2220681 magnetization 

 Free energy of the ion-electron system (eV)
  ---------------------------------------------------
  alpha Z        PSCENC =         6.48777344
  Ewald energy   TEWEN  =      3350.50887920
  -Hartree energ DENC   =     -4325.97339419
  -exchange      EXHF   =         0.00000000
  -V(xc)+E(xc)   XCENC  =       -81.24124474
  PAW double counting   =       386.42815749     -211.63621731
  entropy T*S    EENTRO =        -0.04728928
  eigenvalues    EBANDS =      -267.39280625
  atomic energy  EATOM  =      1080.22396943
  Solvation  Ediel_sol  =         0.00000000
  ---------------------------------------------------
  free energy    TOTEN  =       -62.64217221 eV

  energy without entropy =      -62.59488293  energy(sigma->0) =      -62.61852757


--------------------------------------------------------------------------------------------------------




 average (electrostatic) potential at core
  the test charge radii are     0.9892  0.5201
  (the norm of the test charge is              1.0000)
       1 -90.4125       2 -90.4124       3 -90.2566       4 -90.2564       5 -90.2425
       6 -90.2425       7 -90.2567       8 -90.2567       9 -90.4131      10 -90.4130
      11 -38.5924      12 -38.5923      13 -38.5918      14 -38.5918
 
 
 
 E-fermi :  -0.7543     XC(G=0):  -4.0113     alpha+bet : -3.9396


 k-point     1 :       0.0000    0.0000    0.0000
  band No.  band energies     occupation 
      1     -12.5400      2.00000
      2     -11.1701      2.00000
      3      -9.4568      2.00000
      4      -9.0324      2.00000
      5      -8.9726      2.00000
      6      -8.8074      2.00000
      7      -8.7788      2.00000
      8      -8.7786      2.00000
      9      -7.6508      2.00000
     10      -5.6225      2.00000
     11      -5.5175      2.00000
     12      -5.1021      2.00000
     13      -4.3703      2.00000
     14      -4.3701      2.00000
     15      -4.3318      2.00000
     16      -3.4430      2.00000
     17      -3.4430      2.00000
     18      -3.1561      2.00000
     19      -2.1089      2.00000
     20      -2.1087      2.00000
     21      -1.9187      2.00000
     22      -1.9183      2.00000
     23      -0.0020      0.00000
     24       0.2420      0.00000
     25       0.2834      0.00000
     26       0.7739      0.00000
     27       0.7742      0.00000
     28       0.9705      0.00000
     29       1.1653      0.00000
     30       1.2292      0.00000

 k-point     2 :       0.2000    0.0000    0.0000
  band No.  band energies     occupation 
      1     -12.3742      2.00000
      2     -11.0392      2.00000
      3     -10.0458      2.00000
      4      -9.4781      2.00000
      5      -9.3897      2.00000
      6      -8.9744      2.00000
      7      -8.3565      2.00000
      8      -7.6497      2.00000
      9      -7.6233      2.00000
     10      -5.7082      2.00000
     11      -5.4426      2.00000
     12      -5.1912      2.00000
     13      -4.6168      2.00000
     14      -4.2484      2.00000
     15      -4.1583      2.00000
     16      -3.8364      2.00000
     17      -3.7787      2.00000
     18      -3.0876      2.00000
     19      -2.7250      2.00000
     20      -2.4226      2.00000
     21      -1.9594      2.00000
     22      -1.5169      2.00000
     23       0.2460      0.00000
     24       0.3365      0.00000
     25       0.4410      0.00000
     26       0.8347      0.00000
     27       1.1181      0.00000
     28       1.4733      0.00000
     29       1.5329      0.00000
     30       1.9129      0.00000

 k-point     3 :       0.4000    0.0000    0.0000
  band No.  band energies     occupation 
      1     -11.8836      2.00000
      2     -11.0909      2.00000
      3     -10.6645      2.00000
      4     -10.1073      2.00000
      5      -9.2246      2.00000
      6      -9.0587      2.00000
      7      -7.9444      2.00000
      8      -7.7067      2.00000
      9      -6.6713      2.00000
     10      -6.0465      2.00000
     11      -5.2509      2.00000
     12      -5.0548      2.00000
     13      -4.9134      2.00000
     14      -4.4197      2.00000
     15      -4.3611      2.00000
     16      -4.0563      2.00000
     17      -3.7631      2.00000
     18      -3.6479      2.00000
     19      -3.2204      2.00000
     20      -2.7364      2.00000
     21      -1.6024      2.00000
     22      -0.7346      0.88918
     23      -0.7162      0.78730
     24      -0.1749      0.00004
     25       0.9555      0.00000
     26       1.5215      0.00000
     27       1.8172      0.00000
     28       2.0756      0.00000
     29       2.3819      0.00000
     30       2.5005      0.00000

 k-point     4 :       0.2000    0.2000    0.0000
  band No.  band energies     occupation 
      1     -12.2127      2.00000
      2     -10.9238      2.00000
      3     -10.0590      2.00000
      4     -10.0580      2.00000
      5      -9.3472      2.00000
      6      -9.1767      2.00000
      7      -7.9258      2.00000
      8      -7.6843      2.00000
      9      -7.5291      2.00000
     10      -5.9262      2.00000
     11      -5.5585      2.00000
     12      -4.8352      2.00000
     13      -4.8182      2.00000
     14      -4.5620      2.00000
     15      -3.9804      2.00000
     16      -3.8393      2.00000
     17      -3.8114      2.00000
     18      -3.2001      2.00000
     19      -2.9131      2.00000
     20      -2.0208      2.00000
     21      -1.8131      2.00000
     22      -1.2352      1.99933
     23      -0.6139      0.32069
     24       0.5046      0.00000
     25       0.7135      0.00000
     26       0.8989      0.00000
     27       1.2796      0.00000
     28       1.4255      0.00000
     29       1.9732      0.00000
     30       2.0011      0.00000

 k-point     5 :       0.4000    0.2000    0.0000
  band No.  band energies     occupation 
      1     -11.7376      2.00000
      2     -10.9846      2.00000
      3     -10.6131      2.00000
      4     -10.2430      2.00000
      5      -9.2711      2.00000
      6      -9.2504      2.00000
      7      -7.8891      2.00000
      8      -7.8016      2.00000
      9      -6.9620      2.00000
     10      -6.4173      2.00000
     11      -5.5941      2.00000
     12      -5.3478      2.00000
     13      -4.5031      2.00000
     14      -4.3118      2.00000
     15      -3.9742      2.00000
     16      -3.8008      2.00000
     17      -3.5864      2.00000
     18      -3.3516      2.00000
     19      -3.1216      2.00000
     20      -2.5174      2.00000
     21      -1.5723      2.00000
     22      -1.1861      1.99774
     23      -0.3472      0.00399
     24       0.5004      0.00000
     25       1.1167      0.00000
     26       1.3471      0.00000
     27       1.6346      0.00000
     28       1.6753      0.00000
     29       2.1991      0.00000
     30       2.2731      0.00000

 k-point     6 :       0.4000    0.4000    0.0000
  band No.  band energies     occupation 
      1     -11.3219      2.00000
      2     -10.7479      2.00000
      3     -10.7145      2.00000
      4     -10.5642      2.00000
      5      -9.4338      2.00000
      6      -9.4066      2.00000
      7      -7.8784      2.00000
      8      -7.7943      2.00000
      9      -7.2805      2.00000
     10      -6.9670      2.00000
     11      -5.7739      2.00000
     12      -5.7274      2.00000
     13      -4.3082      2.00000
     14      -4.0962      2.00000
     15      -4.0584      2.00000
     16      -3.6854      2.00000
     17      -2.9307      2.00000
     18      -2.7328      2.00000
     19      -2.5927      2.00000
     20      -2.0423      2.00000
     21      -1.5843      2.00000
     22      -1.5541      2.00000
     23       0.5268      0.00000
     24       0.8705      0.00000
     25       1.0645      0.00000
     26       1.0676      0.00000
     27       1.2529      0.00000
     28       1.8415      0.00000
     29       1.8813      0.00000
     30       2.3399      0.00000


--------------------------------------------------------------------------------------------------------


 soft charge-density along one line, spin component           1
         0         1         2         3         4         5         6         7         8         9
 total charge-density along one line
 
 pseudopotential strength for first ion, spin component:           1
 19.262   0.004   0.000  -0.007   0.000  -0.000   0.000  -0.000
  0.004   0.006  -0.000   0.000  -0.000   0.000  -0.000   0.000
  0.000  -0.000   4.306   0.000  -0.001  -0.001  -0.000   0.000
 -0.007   0.000   0.000   4.307   0.000  -0.000  -0.001  -0.000
  0.000  -0.000  -0.001   0.000   4.306   0.000  -0.000  -0.001
 -0.000   0.000  -0.001  -0.000   0.000   0.004   0.000   0.000
  0.000  -0.000  -0.000  -0.001  -0.000   0.000   0.004   0.000
 -0.000   0.000   0.000  -0.000  -0.001   0.000   0.000   0.004
 total augmentation occupancy for first ion, spin component:           1
  1.515  -0.843   0.000  -0.019   0.000   0.000   0.083   0.000
 -0.843   0.726   0.000   0.213   0.000   0.000  -0.116   0.000
  0.000  -0.000   0.906   0.000   0.128  -0.430   0.000  -0.171
 -0.019   0.213   0.000   1.227   0.000   0.000  -0.851   0.000
  0.000  -0.000   0.128   0.000   0.906  -0.171   0.000  -0.430
  0.000   0.000  -0.430   0.000  -0.171   0.251  -0.000   0.151
  0.083  -0.116   0.000  -0.851   0.000  -0.000   0.621   0.000
  0.000   0.000  -0.171   0.000  -0.430   0.151   0.000   0.251


------------------------ aborting loop because EDIFF is reached ----------------------------------------


    CHARGE:  cpu time    0.0330: real time    0.0339
    FORLOC:  cpu time    0.0090: real time    0.0089
    FORNL :  cpu time    0.1290: real time    0.1284
    STRESS:  cpu time    0.3899: real time    0.3915
    FORCOR:  cpu time    0.0600: real time    0.0587
    FORHAR:  cpu time    0.0170: real time    0.0175
    MIXING:  cpu time    0.0030: real time    0.0033
    OFIELD:  cpu time    0.0000: real time    0.0000

  FORCE on cell =-STRESS in cart. coord.  units (eV):
  Direction    XX          YY          ZZ          XY          YZ          ZX
  --------------------------------------------------------------------------------------
  Alpha Z     6.48777     6.48777     6.48777
  Ewald    4018.26621  4018.26621 -4686.02475    -0.00087    -0.00083    -0.00083
  Hartree  4233.49300  4233.49300 -4141.00832     0.00005     0.00002     0.00002
  E(xc)    -136.45269  -136.45269  -137.61750     0.00002     0.00001     0.00001
  Local   -8757.45428 -8757.45428  8324.76208     0.00041     0.00043     0.00043
  n-local   368.88570   367.12082   396.32983    -2.15158    -0.00020    -0.00020
  augment   -57.26592   -57.26592   -59.14755     0.00001    -0.00000    -0.00000
  Kinetic   313.96753   325.51897   303.91788    -2.10875     0.00018     0.00018
  Fock        0.00000     0.00000     0.00000     0.00000     0.00000     0.00000
  -------------------------------------------------------------------------------------
  Total      -5.17940    -5.17940     7.69944    -0.00000     0.00000     0.00000
  in kB     -13.03035   -13.03035    19.37027    -0.00000     0.00000     0.00000
  external pressure =       -2.23 kB  Pullay stress =        0.00 kB


 VOLUME and BASIS-vectors are now :
 -----------------------------------------------------------------------------
  energy-cutoff  :      250.00
  volume of cell :      636.85
      direct lattice vectors                 reciprocal lattice vectors
     5.431010000  0.000000000  0.000000000     0.184127814  0.000000000  0.000000000
     0.000000000  5.431010000  0.000000000     0.000000000  0.184127814  0.000000000
     0.000000000  0.000000000 21.591010000     0.000000000  0.000000000  0.046315573

  length of vectors
     5.431010000  5.431010000 21.591010000     0.184127814  0.184127814  0.046315573


 FORCES acting on ions
    electron-ion (+dipol)            ewald-force                    non-local-force                 convergence-correction
 -----------------------------------------------------------------------------------------------
   -.509E-05 -.509E-05 0.224E+03   -.101E-03 -.101E-03 -.224E+03   0.000E+00 0.000E+00 0.309E+01   0.255E-07 0.255E-07 -.324E-03
   0.261E-03 0.261E-03 0.224E+03   0.310E-03 0.310E-03 -.224E+03   -.169E-20 -.169E-20 0.309E+01   -.250E-07 -.250E-07 -.324E-03
   0.137E-03 0.137E-03 0.125E+03   0.900E-04 0.900E-04 -.125E+03   0.000E+00 0.000E+00 -.112E+01   -.208E-07 -.208E-07 -.167E-03
   -.144E-03 -.144E-03 0.125E+03   -.218E-03 -.218E-03 -.125E+03   0.000E+00 0.000E+00 -.112E+01   0.209E-07 0.209E-07 -.167E-03
   -.693E-05 0.267E-03 -.130E-03   -.123E-03 0.244E-03 -.117E-03   0.000E+00 0.847E-21 0.000E+00   0.317E-07 -.316E-07 0.363E-06
   0.267E-03 -.693E-05 -.130E-03   0.244E-03 -.123E-03 -.117E-03   -.106E-21 0.000E+00 0.000E+00   -.316E-07 0.317E-07 0.363E-06
   0.137E-03 -.144E-03 -.125E+03   0.965E-04 -.211E-03 0.125E+03   0.000E+00 0.000E+00 0.112E+01   -.207E-07 0.210E-07 0.167E-03
   -.144E-03 0.137E-03 -.125E+03   -.211E-03 0.965E-04 0.125E+03   0.000E+00 0.000E+00 0.112E+01   0.210E-07 -.207E-07 0.167E-03
   -.506E-05 -.506E-05 -.224E+03   -.101E-03 -.101E-03 0.224E+03   0.000E+00 0.000E+00 -.309E+01   0.242E-07 0.242E-07 0.325E-03
   0.693E-03 0.693E-03 -.224E+03   0.125E-04 0.125E-04 0.224E+03   0.212E-21 0.424E-21 -.309E+01   -.242E-07 -.242E-07 0.325E-03
   -.586E-06 -.586E-06 -.881E+02   -.151E-04 -.151E-04 0.936E+02   0.000E+00 0.000E+00 -.342E+01   0.540E-08 0.540E-08 0.842E-05
   0.337E-03 0.337E-03 -.881E+02   0.116E-04 0.116E-04 0.936E+02   -.106E-21 0.529E-22 -.342E+01   -.531E-08 -.531E-08 0.842E-05
   -.589E-06 -.589E-06 0.881E+02   -.151E-04 -.151E-04 -.936E+02   0.000E+00 0.000E+00 0.342E+01   0.527E-08 0.527E-08 -.839E-05
   0.333E-03 0.333E-03 0.881E+02   0.202E-04 0.202E-04 -.936E+02   0.662E-23 -.119E-21 0.342E+01   -.520E-08 -.520E-08 -.840E-05
 -----------------------------------------------------------------------------------------------
   0.186E-02 0.186E-02 -.357E-02   0.154E-14 -.959E-15 -.142E-13   -.169E-20 -.490E-21 0.000E+00   0.109E-08 0.109E-08 0.312E-05
 
 
 POSITION                                       TOTAL-FORCE (eV/Angst)
 -----------------------------------------------------------------------------------
      0.00000      0.00000      0.00000         0.000000      0.000000      2.831204
      2.71550      2.71550      0.00000         0.000000      0.000000      2.831204
      1.35775      1.35775      1.35775         0.000000     -0.000000     -1.101947
      4.07326      4.07326      1.35775         0.000000     -0.000000     -1.101947
      0.00000      2.71550      2.71550         0.000000     -0.000000     -0.000000
      2.71550      0.00000      2.71550        -0.000000     -0.000000     -0.000000
      1.35775      4.07326      4.07326         0.000000     -0.000000      1.101947
      4.07326      1.35775      4.07326         0.000000     -0.000000      1.101947
      0.00000      0.00000      5.43101        -0.000000      0.000000     -2.831204
      2.71550      2.71550      5.43101        -0.000000      0.000000     -2.831204
      0.00000      0.00000      6.83101         0.000000     -0.000000      2.076321
      2.71550      2.71550      6.83101        -0.000000     -0.000000      2.076321
      0.00000      0.00000     20.19100         0.000000     -0.000000     -2.076321
      2.71550      2.71550     20.19100        -0.000000     -0.000000     -2.076321
 -----------------------------------------------------------------------------------
    total drift:                                0.001858      0.001858     -0.003571


--------------------------------------------------------------------------------------------------------



  FREE ENERGIE OF THE ION-ELECTRON SYSTEM (eV)
  ---------------------------------------------------
  free  energy   TOTEN  =       -62.64217221 eV

  energy  without entropy=      -62.59488293  energy(sigma->0) =      -62.61852757
 


--------------------------------------------------------------------------------------------------------


    POTLOK:  cpu time    0.0620: real time    0.0615


--------------------------------------------------------------------------------------------------------


 Quasi-Newton relaxation of ions (Broydens 2nd method)
  g(Force)  = 0.261E+01   g(Stress)= 0.000E+00

[...]
  average eigenvalue GAMMA=   2.0123
  9.5645  6.5583  3.9772  3.2690  2.9471  2.9471  2.6167  2.6167  2.7357  2.7357
  2.7163  2.2654  2.2654  2.5236  2.4139  2.2570  1.9247  1.3486  1.3486  1.6209
  1.2934  1.2934  1.3296  1.3296  1.1261  1.1261  0.7607  0.9559  0.9559  0.8319
  1.1004  0.9518  0.9518  1.0322  1.0322  0.9996  0.9996  0.9282  0.9282  0.9700
  0.9537

 Free energy of the ion-electron system (eV)
  ---------------------------------------------------
  alpha Z        PSCENC =         6.48777344
  Ewald energy   TEWEN  =      3357.21750759
  -Hartree energ DENC   =     -4331.19992894
  -exchange      EXHF   =         0.00000000
  -V(xc)+E(xc)   XCENC  =       -81.51686134
  PAW double counting   =       382.72133544     -207.89010793
  entropy T*S    EENTRO =        -0.04466594
  eigenvalues    EBANDS =      -269.20738305
  atomic energy  EATOM  =      1080.22396943
  Solvation  Ediel_sol  =         0.00000000
  ---------------------------------------------------
  free energy    TOTEN  =       -63.20836132 eV

  energy without entropy =      -63.16369537  energy(sigma->0) =      -63.18602835


--------------------------------------------------------------------------------------------------------




----------------------------------------- Iteration    6(   4)  ---------------------------------------


    POTLOK:  cpu time    0.0570: real time    0.0572
    SETDIJ:  cpu time    0.0060: real time    0.0056
    EDDIAG:  cpu time    0.0720: real time    0.0719
  RMM-DIIS:  cpu time    0.1660: real time    0.1661
    ORTHCH:  cpu time    0.0090: real time    0.0094
       DOS:  cpu time    0.0010: real time    0.0005
    --------------------------------------------
      LOOP:  cpu time    0.3120: real time    0.3141

 eigenvalue-minimisations  :   189
 total energy-change (2. order) :-0.9125829E-06  (-0.6338078E-06)
 number of electron      44.0000052 magnetization 
 augmentation part       -2.2254177 magnetization 

 Free energy of the ion-electron system (eV)
  ---------------------------------------------------
  alpha Z        PSCENC =         6.48777344
  Ewald energy   TEWEN  =      3357.21750759
  -Hartree energ DENC   =     -4331.18475419
  -exchange      EXHF   =         0.00000000
  -V(xc)+E(xc)   XCENC  =       -81.51697795
  PAW double counting   =       382.72050864     -207.88940142
  entropy T*S    EENTRO =        -0.04466497
  eigenvalues    EBANDS =      -269.22232279
  atomic energy  EATOM  =      1080.22396943
  Solvation  Ediel_sol  =         0.00000000
  ---------------------------------------------------
  free energy    TOTEN  =       -63.20836223 eV

  energy without entropy =      -63.16369726  energy(sigma->0) =      -63.18602975


--------------------------------------------------------------------------------------------------------




 average (electrostatic) potential at core
  the test charge radii are     0.9892  0.5201
  (the norm of the test charge is              1.0000)
       1 -90.5138       2 -90.5137       3 -90.3203       4 -90.3201       5 -90.3260
       6 -90.3260       7 -90.3203       8 -90.3203       9 -90.5141      10 -90.5140
      11 -38.0397      12 -38.0397      13 -38.0380      14 -38.0379
 
 
 
 E-fermi :  -0.8261     XC(G=0):  -4.0278     alpha+bet : -3.9396


 k-point     1 :       0.0000    0.0000    0.0000
  band No.  band energies     occupation 
      1     -12.6164      2.00000
      2     -11.3718      2.00000
      3      -9.3041      2.00000
      4      -8.9943      2.00000
      5      -8.9341      2.00000
      6      -8.9339      2.00000
      7      -8.9111      2.00000
      8      -8.7445      2.00000
      9      -7.3533      2.00000
     10      -5.4969      2.00000
     11      -5.4367      2.00000
     12      -5.0766      2.00000
     13      -4.4607      2.00000
     14      -4.4605      2.00000
     15      -4.4121      2.00000
     16      -3.5643      2.00000
     17      -3.5642      2.00000
     18      -3.1145      2.00000
     19      -2.3879      2.00000
     20      -2.3878      2.00000
     21      -2.0613      2.00000
     22      -2.0610      2.00000
     23      -0.1879      0.00001
     24       0.2838      0.00000
     25       0.3338      0.00000
     26       0.6887      0.00000
     27       0.6889      0.00000
     28       0.7093      0.00000
     29       0.8691      0.00000
     30       1.0379      0.00000

 k-point     2 :       0.2000    0.0000    0.0000
  band No.  band energies     occupation 
      1     -12.4505      2.00000
      2     -11.2370      2.00000
      3     -10.1175      2.00000
      4      -9.5844      2.00000
      5      -9.2378      2.00000
      6      -8.8954      2.00000
      7      -8.3276      2.00000
      8      -7.6360      2.00000
      9      -7.3619      2.00000
     10      -5.5886      2.00000
     11      -5.4826      2.00000
     12      -5.1451      2.00000
     13      -4.7134      2.00000
     14      -4.2619      2.00000
     15      -4.2203      2.00000
     16      -3.9889      2.00000
     17      -3.9028      2.00000
     18      -3.1556      2.00000
     19      -2.9285      2.00000
     20      -2.6553      2.00000
     21      -2.1093      2.00000
     22      -1.6318      2.00000
     23       0.1517      0.00000
     24       0.2909      0.00000
     25       0.5073      0.00000
     26       0.6453      0.00000
     27       1.1209      0.00000
     28       1.2922      0.00000
     29       1.4546      0.00000
     30       1.6189      0.00000

 k-point     3 :       0.4000    0.0000    0.0000
  band No.  band energies     occupation 
      1     -11.9596      2.00000
      2     -11.1661      2.00000
      3     -10.8492      2.00000
      4     -10.2644      2.00000
      5      -9.0802      2.00000
      6      -8.9409      2.00000
      7      -7.8083      2.00000
      8      -7.4679      2.00000
      9      -6.5923      2.00000
     10      -5.9330      2.00000
     11      -5.3164      2.00000
     12      -5.2156      2.00000
     13      -4.9367      2.00000
     14      -4.7000      2.00000
     15      -4.4977      2.00000
     16      -3.9837      2.00000
     17      -3.9106      2.00000
     18      -3.6590      2.00000
     19      -3.3719      2.00000
     20      -2.9047      2.00000
     21      -1.7500      2.00000
     22      -0.8516      1.14303
     23      -0.7536      0.60795
     24      -0.1781      0.00000
     25       0.9966      0.00000
     26       1.4130      0.00000
     27       1.8443      0.00000
     28       1.9792      0.00000
     29       2.2759      0.00000
     30       2.3011      0.00000

 k-point     4 :       0.2000    0.2000    0.0000
  band No.  band energies     occupation 
      1     -12.2892      2.00000
      2     -11.1166      2.00000
      3     -10.2069      2.00000
      4     -10.0790      2.00000
      5      -9.2008      2.00000
      6      -9.1425      2.00000
      7      -7.7180      2.00000
      8      -7.6620      2.00000
      9      -7.4184      2.00000
     10      -5.8139      2.00000
     11      -5.5140      2.00000
     12      -4.9573      2.00000
     13      -4.9045      2.00000
     14      -4.5849      2.00000
     15      -4.0693      2.00000
     16      -3.9491      2.00000
     17      -3.9037      2.00000
     18      -3.3321      2.00000
     19      -2.9959      2.00000
     20      -2.2795      2.00000
     21      -1.9093      2.00000
     22      -1.3794      1.99991
     23      -0.6600      0.24009
     24       0.3936      0.00000
     25       0.7612      0.00000
     26       0.7974      0.00000
     27       1.0881      0.00000
     28       1.3878      0.00000
     29       1.7967      0.00000
     30       1.9468      0.00000

 k-point     5 :       0.4000    0.2000    0.0000
  band No.  band energies     occupation 
      1     -11.8149      2.00000
      2     -11.0654      2.00000
      3     -10.7879      2.00000
      4     -10.3763      2.00000
      5      -9.1867      2.00000
      6      -9.1524      2.00000
      7      -7.7194      2.00000
      8      -7.5944      2.00000
      9      -6.9644      2.00000
     10      -6.3302      2.00000
     11      -5.5772      2.00000
     12      -5.4631      2.00000
     13      -4.5324      2.00000
     14      -4.3151      2.00000
     15      -4.1858      2.00000
     16      -3.7507      2.00000
     17      -3.7272      2.00000
     18      -3.5429      2.00000
     19      -3.1967      2.00000
     20      -2.7419      2.00000
     21      -1.6409      2.00000
     22      -1.2211      1.99477
     23      -0.4605      0.00973
     24       0.4058      0.00000
     25       1.1096      0.00000
     26       1.2839      0.00000
     27       1.5563      0.00000
     28       1.6067      0.00000
     29       1.9743      0.00000
     30       2.2085      0.00000

 k-point     6 :       0.4000    0.4000    0.0000
  band No.  band energies     occupation 
      1     -11.4056      2.00000
      2     -10.8940      2.00000
      3     -10.7581      2.00000
      4     -10.7015      2.00000
      5      -9.4205      2.00000
      6      -9.3549      2.00000
      7      -7.6859      2.00000
      8      -7.4722      2.00000
      9      -7.4667      2.00000
     10      -6.9816      2.00000
     11      -5.6881      2.00000
     12      -5.6679      2.00000
     13      -4.3279      2.00000
     14      -4.2348      2.00000
     15      -4.0211      2.00000
     16      -3.7477      2.00000
     17      -3.1262      2.00000
     18      -2.8625      2.00000
     19      -2.7839      2.00000
     20      -2.2071      2.00000
     21      -1.6015      2.00000
     22      -1.5639      2.00000
     23       0.3651      0.00000
     24       0.7912      0.00000
     25       0.9043      0.00000
     26       1.0205      0.00000
     27       1.2389      0.00000
     28       1.5479      0.00000
     29       1.8687      0.00000
     30       2.0762      0.00000


--------------------------------------------------------------------------------------------------------


 soft charge-density along one line, spin component           1
         0         1         2         3         4         5         6         7         8         9
 total charge-density along one line
 
 pseudopotential strength for first ion, spin component:           1
 19.270   0.005   0.000  -0.002   0.000  -0.000  -0.000  -0.000
  0.005   0.006  -0.000  -0.000  -0.000   0.000   0.000   0.000
  0.000  -0.000   4.307   0.000  -0.001  -0.001  -0.000  -0.000
 -0.002  -0.000   0.000   4.306   0.000  -0.000  -0.001  -0.000
  0.000  -0.000  -0.001   0.000   4.307  -0.000  -0.000  -0.001
 -0.000   0.000  -0.001  -0.000  -0.000   0.004   0.000   0.000
 -0.000   0.000  -0.000  -0.001  -0.000   0.000   0.004   0.000
 -0.000   0.000  -0.000  -0.000  -0.001   0.000   0.000   0.004
 total augmentation occupancy for first ion, spin component:           1
  1.510  -0.832   0.000   0.028   0.000   0.000   0.004   0.000
 -0.832   0.728   0.000   0.138   0.000   0.000  -0.033   0.000
  0.000   0.000   0.932   0.000   0.143  -0.467  -0.000  -0.198
  0.028   0.138   0.000   1.139   0.000  -0.000  -0.785  -0.000
  0.000   0.000   0.143   0.000   0.932  -0.198  -0.000  -0.467
  0.000   0.000  -0.467  -0.000  -0.198   0.287   0.000   0.179
  0.004  -0.033  -0.000  -0.785  -0.000   0.000   0.569  -0.000
  0.000   0.000  -0.198  -0.000  -0.467   0.179  -0.000   0.287


------------------------ aborting loop because EDIFF is reached ----------------------------------------


    CHARGE:  cpu time    0.0330: real time    0.0335
    FORLOC:  cpu time    0.0090: real time    0.0089
    FORNL :  cpu time    0.1280: real time    0.1281
    STRESS:  cpu time    0.3889: real time    0.3892
    FORCOR:  cpu time    0.0590: real time    0.0589
    FORHAR:  cpu time    0.0170: real time    0.0179
    MIXING:  cpu time    0.0090: real time    0.0086
    OFIELD:  cpu time    0.0000: real time    0.0000

  FORCE on cell =-STRESS in cart. coord.  units (eV):
  Direction    XX          YY          ZZ          XY          YZ          ZX
  --------------------------------------------------------------------------------------
  Alpha Z     6.48777     6.48777     6.48777
  Ewald    4037.87051  4037.87051 -4718.52471    -0.00084    -0.00084    -0.00084
  Hartree  4241.07866  4241.07866 -4151.00362     0.00000     0.00002     0.00002
  E(xc)    -136.22793  -136.22793  -136.94097     0.00000     0.00001     0.00001
  Local   -8783.94376 -8783.94376  8365.12925     0.00052     0.00043     0.00043
  n-local   372.07003   370.22462   390.70648    -2.10085    -0.00021    -0.00021
  augment   -57.40771   -57.40771   -58.79949     0.00001    -0.00000    -0.00000
  Kinetic   311.47025   323.18323   302.35455    -2.03338     0.00017     0.00017
  Fock        0.00000     0.00000     0.00000     0.00000     0.00000     0.00000
  -------------------------------------------------------------------------------------
  Total      -3.66840    -3.66840    -0.59074     0.00000     0.00000     0.00000
  in kB      -9.22896    -9.22896    -1.48620     0.00000     0.00000     0.00000
  external pressure =       -6.65 kB  Pullay stress =        0.00 kB


 VOLUME and BASIS-vectors are now :
 -----------------------------------------------------------------------------
  energy-cutoff  :      250.00
  volume of cell :      636.85
      direct lattice vectors                 reciprocal lattice vectors
     5.431010000  0.000000000  0.000000000     0.184127814  0.000000000  0.000000000
     0.000000000  5.431010000  0.000000000     0.000000000  0.184127814  0.000000000
     0.000000000  0.000000000 21.591010000     0.000000000  0.000000000  0.046315573

  length of vectors
     5.431010000  5.431010000 21.591010000     0.184127814  0.184127814  0.046315573


 FORCES acting on ions
    electron-ion (+dipol)            ewald-force                    non-local-force                 convergence-correction
 -----------------------------------------------------------------------------------------------
   -.522E-05 -.522E-05 0.228E+03   -.102E-03 -.102E-03 -.227E+03   0.000E+00 0.000E+00 -.547E+00   -.505E-07 -.505E-07 0.155E-02
   0.187E-03 0.187E-03 0.228E+03   0.344E-03 0.344E-03 -.227E+03   0.000E+00 0.000E+00 -.547E+00   0.522E-07 0.522E-07 0.155E-02
   0.111E-03 0.111E-03 0.126E+03   0.868E-04 0.868E-04 -.127E+03   0.000E+00 0.000E+00 0.760E-01   0.312E-07 0.312E-07 0.180E-02
   -.120E-03 -.120E-03 0.126E+03   -.252E-03 -.252E-03 -.127E+03   0.000E+00 0.000E+00 0.760E-01   -.334E-07 -.334E-07 0.180E-02
   -.718E-05 0.279E-03 -.695E-04   -.127E-03 0.238E-03 -.102E-03   0.000E+00 -.847E-21 0.000E+00   -.747E-07 0.729E-07 -.795E-05
   0.279E-03 -.718E-05 -.695E-04   0.238E-03 -.127E-03 -.102E-03   0.169E-20 0.000E+00 0.000E+00   0.729E-07 -.747E-07 -.795E-05
   0.113E-03 -.118E-03 -.126E+03   0.124E-03 -.214E-03 0.127E+03   0.000E+00 0.000E+00 -.760E-01   0.333E-07 -.313E-07 -.182E-02
   -.118E-03 0.113E-03 -.126E+03   -.214E-03 0.124E-03 0.127E+03   0.000E+00 0.000E+00 -.760E-01   -.313E-07 0.333E-07 -.182E-02
   -.520E-05 -.520E-05 -.228E+03   -.102E-03 -.102E-03 0.227E+03   0.000E+00 0.000E+00 0.547E+00   -.474E-07 -.474E-07 -.156E-02
   0.677E-03 0.677E-03 -.228E+03   0.356E-05 0.356E-05 0.227E+03   0.132E-22 0.424E-21 0.547E+00   0.472E-07 0.472E-07 -.156E-02
   -.551E-06 -.551E-06 -.870E+02   -.144E-04 -.144E-04 0.899E+02   0.000E+00 0.000E+00 -.289E+01   -.824E-08 -.824E-08 -.352E-03
   0.312E-03 0.312E-03 -.870E+02   0.110E-04 0.110E-04 0.899E+02   -.529E-22 0.529E-22 -.289E+01   0.759E-08 0.759E-08 -.352E-03
   -.554E-06 -.554E-06 0.870E+02   -.144E-04 -.144E-04 -.899E+02   0.000E+00 0.000E+00 0.289E+01   -.812E-08 -.812E-08 0.352E-03
   0.307E-03 0.307E-03 0.870E+02   0.196E-04 0.196E-04 -.899E+02   -.463E-22 0.562E-22 0.289E+01   0.779E-08 0.779E-08 0.352E-03
 -----------------------------------------------------------------------------------------------
   0.173E-02 0.173E-02 -.595E-02   0.195E-15 -.659E-15 -.853E-13   0.160E-20 -.314E-21 0.000E+00   -.145E-08 -.145E-08 -.605E-04
 
 
 POSITION                                       TOTAL-FORCE (eV/Angst)
 -----------------------------------------------------------------------------------
      0.00000      0.00000      0.05232        -0.000000     -0.000000     -0.026943
      2.71550      2.71550      0.05232        -0.000000      0.000000     -0.026943
      1.35775      1.35775      1.31053         0.000000      0.000000     -0.023692
      4.07326      4.07326      1.31053         0.000000      0.000000     -0.023692
     -0.00000      2.71550      2.71550         0.000000      0.000000     -0.000000
      2.71550     -0.00000      2.71550        -0.000000      0.000000     -0.000000
      1.35775      4.07326      4.12048         0.000000      0.000000      0.023692
      4.07326      1.35775      4.12048         0.000000      0.000000      0.023692
     -0.00000      0.00000      5.37869         0.000000     -0.000000      0.026943
      2.71550      2.71550      5.37869         0.000000      0.000000      0.026943
     -0.00000     -0.00000      6.87688         0.000000      0.000000      0.032575
      2.71550      2.71550      6.87688         0.000000      0.000000      0.032575
     -0.00000     -0.00000     20.14513         0.000000      0.000000     -0.032575
      2.71550      2.71550     20.14513         0.000000     -0.000000     -0.032575
 -----------------------------------------------------------------------------------
    total drift:                                0.001729      0.001729     -0.006015


--------------------------------------------------------------------------------------------------------



  FREE ENERGIE OF THE ION-ELECTRON SYSTEM (eV)
  ---------------------------------------------------
  free  energy   TOTEN  =       -63.20836223 eV

  energy  without entropy=      -63.16369726  energy(sigma->0) =      -63.18602975
 
 d Force = 0.6271398E-03[ 0.365E-03, 0.890E-03]  d Energy = 0.6313249E-03-0.419E-05
 d Force = 0.2754926E+01[ 0.275E+01, 0.276E+01]  d Ewald  = 0.2754926E+01-0.418E-06


--------------------------------------------------------------------------------------------------------


    POTLOK:  cpu time    0.0630: real time    0.0628


--------------------------------------------------------------------------------------------------------


 Quasi-Newton relaxation of ions (Broydens 2nd method)
  g(Force)  = 0.453E-03   g(Stress)= 0.000E+00

 retain information from N=  1 steps
 eigenvalues of (default step * inverse Hessian matrix)
  average eigenvalue of G=   0.5802
 eigenvalue spectrum of G is  0.5802


--------------------------------------------------------------------------------------------------------


  
 reached required accuracy - stopping structural energy minimisation
     LOOP+:  cpu time    2.4776: real time    2.4976
    4ORBIT:  cpu time    0.0000: real time    0.0000

 total amount of memory used by VASP on root node    45801. kBytes
========================================================================

   base      :      30000. kBytes
   nonlr-proj:       1120. kBytes
   fftplans  :       4013. kBytes
   grid      :       6437. kBytes
   one-center:         21. kBytes
   wavefun   :       4210. kBytes
 
  
  
 General timing and accounting informations for this job:
 ========================================================
  
                  Total CPU time used (sec):       30.552
                            User time (sec):       30.141
                          System time (sec):        0.411
                         Elapsed time (sec):       31.528
  
                   Maximum memory used (kb):       51052.
                   Average memory used (kb):           0.
  
                          Minor page faults:        63178
                          Major page faults:          236
                 Voluntary context switches:         3154
