<?xml version="1.0" encoding="ISO-8859-1"?>
<modeling>
 <generator>
  <i name="program" type="string">vasp </i>
  <i name="version" type="string">5.4.1  </i>
  <i name="subversion" type="string">05Feb16 (build Mar 02 2016 14:09:44) complex                          parallel </i>
  <i name="platform" type="string">Abel-impi-ifc-cuda </i>
  <i name="date" type="string">2019 10 04 </i>
  <i name="time" type="string">10:39:35 </i>
 </generator>
 <incar>
  <i type="string" name="PREC">normal    ! low/normal/accurate</i>
  <i type="string" name="ALGO"> Fast      ! Algorithm for electronic re</i>
  <i type="int" name="ISPIN">     1</i>
  <i type="int" name="MAXMIX">    80</i>
  <i type="int" name="NELMIN">     4</i>
  <i type="int" name="IBRION">     1</i>
  <i name="EDIFF">      0.00001000</i>
  <i name="EDIFFG">     -0.05000000</i>
  <i type="int" name="NSW">    50</i>
  <i type="int" name="ISIF">     2</i>
  <i name="ENCUT">    250.00000000</i>
  <i type="string" name="LREAL"> Auto      ! Projection in reciprocal sp</i>
  <i type="int" name="ISMEAR">     0</i>
  <i name="SIGMA">      0.20000000</i>
  <i type="logical" name="LWAVE"> F  </i>
  <v type="int" name="KPOINT_BSE">    -1     0     0     0</v>
 </incar>
 <kpoints>
  <generation param="Gamma">
   <v type="int" name="divisions">       5        5        1 </v>
   <v name="usershift">      0.00000000       0.00000000       0.00000000 </v>
   <v name="genvec1">      0.20000000       0.00000000       0.00000000 </v>
   <v name="genvec2">      0.00000000       0.20000000       0.00000000 </v>
   <v name="genvec3">      0.00000000       0.00000000       1.00000000 </v>
   <v name="shift">      0.00000000       0.00000000       0.00000000 </v>
  </generation>
  <varray name="kpointlist" >
   <v>       0.00000000       0.00000000       0.00000000 </v>
   <v>       0.20000000       0.00000000       0.00000000 </v>
   <v>       0.40000000       0.00000000       0.00000000 </v>
   <v>       0.20000000       0.20000000       0.00000000 </v>
   <v>       0.40000000       0.20000000       0.00000000 </v>
   <v>       0.40000000       0.40000000       0.00000000 </v>
  </varray>
  <varray name="weights" >
   <v>       0.04000000 </v>
   <v>       0.16000000 </v>
   <v>       0.16000000 </v>
   <v>       0.16000000 </v>
   <v>       0.32000000 </v>
   <v>       0.16000000 </v>
  </varray>
 </kpoints>
 <parameters>
  <separator name="general" >
   <i type="string" name="SYSTEM">unknown system</i>
   <i type="logical" name="LCOMPAT"> F  </i>
  </separator>
  <separator name="electronic" >
   <i type="string" name="PREC">normal</i>
   <i name="ENMAX">    250.00000000</i>
   <i name="ENAUG">    400.00000000</i>
   <i name="EDIFF">      0.00001000</i>
   <i type="int" name="IALGO">    68</i>
   <i type="int" name="IWAVPR">    11</i>
   <i type="int" name="NBANDS">    30</i>
   <i name="NELECT">     44.00000000</i>
   <i type="int" name="TURBO">     0</i>
   <i type="int" name="IRESTART">     0</i>
   <i type="int" name="NREBOOT">     0</i>
   <i type="int" name="NMIN">     0</i>
   <i name="EREF">      0.00000000</i>
   <separator name="electronic smearing" >
    <i type="int" name="ISMEAR">     0</i>
    <i name="SIGMA">      0.20000000</i>
    <i name="KSPACING">      0.50000000</i>
    <i type="logical" name="KGAMMA"> T  </i>
   </separator>
   <separator name="electronic projectors" >
    <i type="logical" name="LREAL"> T  </i>
    <v name="ROPT">     -0.00050000     -0.00050000</v>
    <i type="int" name="LMAXPAW">  -100</i>
    <i type="int" name="LMAXMIX">     2</i>
    <i type="logical" name="NLSPLINE"> F  </i>
   </separator>
   <separator name="electronic startup" >
    <i type="int" name="ISTART">     0</i>
    <i type="int" name="ICHARG">     2</i>
    <i type="int" name="INIWAV">     1</i>
   </separator>
   <separator name="electronic spin" >
    <i type="int" name="ISPIN">     1</i>
    <i type="logical" name="LNONCOLLINEAR"> F  </i>
    <v name="MAGMOM">      1.00000000      1.00000000      1.00000000      1.00000000      1.00000000      1.00000000      1.00000000      1.00000000      1.00000000      1.00000000      1.00000000      1.00000000      1.00000000      1.00000000</v>
    <i name="NUPDOWN">     -1.00000000</i>
    <i type="logical" name="LSORBIT"> F  </i>
    <v name="SAXIS">      0.00000000      0.00000000      1.00000000</v>
    <i type="logical" name="LSPIRAL"> F  </i>
    <v name="QSPIRAL">      0.00000000      0.00000000      0.00000000</v>
    <i type="logical" name="LZEROZ"> F  </i>
   </separator>
   <separator name="electronic exchange-correlation" >
    <i type="logical" name="LASPH"> F  </i>
    <i type="logical" name="LMETAGGA"> F  </i>
   </separator>
   <separator name="electronic convergence" >
    <i type="int" name="NELM">    60</i>
    <i type="int" name="NELMDL">    -5</i>
    <i type="int" name="NELMIN">     4</i>
    <i name="ENINI">    250.00000000</i>
    <separator name="electronic convergence detail" >
     <i type="logical" name="LDIAG"> T  </i>
     <i type="logical" name="LSUBROT"> F  </i>
     <i name="WEIMIN">      0.00100000</i>
     <i name="EBREAK">      0.00000008</i>
     <i name="DEPER">      0.30000000</i>
     <i type="int" name="NRMM">     4</i>
     <i name="TIME">      0.40000000</i>
    </separator>
   </separator>
   <separator name="electronic mixer" >
    <i name="AMIX">      0.40000000</i>
    <i name="BMIX">      1.00000000</i>
    <i name="AMIN">      0.10000000</i>
    <i name="AMIX_MAG">      1.60000000</i>
    <i name="BMIX_MAG">      1.00000000</i>
    <separator name="electronic mixer details" >
     <i type="int" name="IMIX">     4</i>
     <i type="logical" name="MIXFIRST"> F  </i>
     <i type="int" name="MAXMIX">    80</i>
     <i name="WC">    100.00000000</i>
     <i type="int" name="INIMIX">     1</i>
     <i type="int" name="MIXPRE">     1</i>
     <i type="int" name="MREMOVE">     5</i>
    </separator>
   </separator>
   <separator name="electronic dipolcorrection" >
    <i type="logical" name="LDIPOL"> F  </i>
    <i type="logical" name="LMONO"> F  </i>
    <i type="int" name="IDIPOL">     0</i>
    <i name="EPSILON">      1.00000000</i>
    <v name="DIPOL">   -100.00000000   -100.00000000   -100.00000000</v>
    <i name="EFIELD">      0.00000000</i>
   </separator>
  </separator>
  <separator name="grids" >
   <i type="int" name="NGX">    24</i>
   <i type="int" name="NGY">    24</i>
   <i type="int" name="NGZ">    84</i>
   <i type="int" name="NGXF">    48</i>
   <i type="int" name="NGYF">    48</i>
   <i type="int" name="NGZF">   168</i>
   <i type="logical" name="ADDGRID"> F  </i>
  </separator>
  <separator name="ionic" >
   <i type="int" name="NSW">    50</i>
   <i type="int" name="IBRION">     1</i>
   <i type="int" name="ISIF">     2</i>
   <i name="PSTRESS">      0.00000000</i>
   <i name="EDIFFG">     -0.05000000</i>
   <i type="int" name="NFREE">     0</i>
   <i name="POTIM">      0.50000000</i>
   <i name="SMASS">     -3.00000000</i>
   <i name="SCALEE">      1.00000000</i>
  </separator>
  <separator name="ionic md" >
   <i name="TEBEG">      0.00010000</i>
   <i name="TEEND">      0.00010000</i>
   <i type="int" name="NBLOCK">     1</i>
   <i type="int" name="KBLOCK">    50</i>
   <i type="int" name="NPACO">   256</i>
   <i name="APACO">     16.00000000</i>
  </separator>
  <separator name="symmetry" >
   <i type="int" name="ISYM">     2</i>
   <i name="SYMPREC">      0.00001000</i>
  </separator>
  <separator name="dos" >
   <i type="logical" name="LORBIT"> F  </i>
   <v name="RWIGS">     -1.00000000     -1.00000000</v>
   <i type="int" name="NEDOS">   301</i>
   <i name="EMIN">     10.00000000</i>
   <i name="EMAX">    -10.00000000</i>
   <i name="EFERMI">      0.00000000</i>
  </separator>
  <separator name="writing" >
   <i type="int" name="NWRITE">     2</i>
   <i type="logical" name="LWAVE"> F  </i>
   <i type="logical" name="LCHARG"> T  </i>
   <i type="logical" name="LPARD"> F  </i>
   <i type="logical" name="LVTOT"> F  </i>
   <i type="logical" name="LVHAR"> F  </i>
   <i type="logical" name="LELF"> F  </i>
   <i type="logical" name="LOPTICS"> F  </i>
   <v name="STM">      0.00000000      0.00000000      0.00000000      0.00000000      0.00000000      0.00000000      0.00000000</v>
  </separator>
  <separator name="performance" >
   <i type="int" name="NPAR">     2</i>
   <i type="int" name="NSIM">     4</i>
   <i type="int" name="NBLK">    -1</i>
   <i type="logical" name="LPLANE"> T  </i>
   <i type="logical" name="LSCALAPACK"> F  </i>
   <i type="logical" name="LSCAAWARE"> F  </i>
   <i type="logical" name="LSCALU"> F  </i>
   <i type="logical" name="LASYNC"> F  </i>
   <i type="logical" name="LORBITALREAL"> F  </i>
  </separator>
  <separator name="miscellaneous" >
   <i type="int" name="IDIOT">     3</i>
   <i type="logical" name="LMUSIC"> F  </i>
   <v name="POMASS">     28.08500000      1.00000000</v>
   <v name="DARWINR">      0.00000000      0.00000000</v>
   <v name="DARWINV">      1.00000000      1.00000000</v>
   <i type="logical" name="LCORR"> T  </i>
  </separator>
  <i type="logical" name="GGA_COMPAT"> T  </i>
  <i type="logical" name="LBERRY"> F  </i>
  <i type="int" name="ICORELEVEL">     0</i>
  <i type="logical" name="LDAU"> F  </i>
  <i type="int" name="I_CONSTRAINED_M">     0</i>
  <separator name="electronic exchange-correlation" >
   <i type="string" name="GGA">--</i>
   <i type="int" name="VOSKOWN">     0</i>
   <i type="logical" name="LHFCALC"> F  </i>
   <i type="string" name="PRECFOCK"></i>
   <i type="logical" name="LSYMGRAD"> F  </i>
   <i type="logical" name="LHFONE"> F  </i>
   <i type="logical" name="LRHFCALC"> F  </i>
   <i type="logical" name="LTHOMAS"> F  </i>
   <i type="logical" name="LMODELHF"> F  </i>
   <i name="ENCUT4O">     -1.00000000</i>
   <i type="int" name="EXXOEP">     0</i>
   <i type="int" name="FOURORBIT">     0</i>
   <i name="AEXX">      0.00000000</i>
   <i name="HFALPHA">      0.00000000</i>
   <i name="MCALPHA">      0.00000000</i>
   <i name="ALDAX">      1.00000000</i>
   <i name="AGGAX">      1.00000000</i>
   <i name="ALDAC">      1.00000000</i>
   <i name="AGGAC">      1.00000000</i>
   <i type="int" name="NKREDX">     1</i>
   <i type="int" name="NKREDY">     1</i>
   <i type="int" name="NKREDZ">     1</i>
   <i type="logical" name="SHIFTRED"> F  </i>
   <i type="logical" name="ODDONLY"> F  </i>
   <i type="logical" name="EVENONLY"> F  </i>
   <i type="int" name="LMAXFOCK">     0</i>
   <i type="int" name="NMAXFOCKAE">     0</i>
   <i type="logical" name="LFOCKAEDFT"> F  </i>
   <i name="HFSCREEN">      0.00000000</i>
   <i name="HFSCREENC">      0.00000000</i>
   <i type="int" name="NBANDSGWLOW">     0</i>
  </separator>
  <separator name="vdW DFT" >
   <i type="logical" name="LUSE_VDW"> F  </i>
   <i name="Zab_VDW">     -0.84910000</i>
   <i name="PARAM1">      0.12340000</i>
   <i name="PARAM2">      1.00000000</i>
   <i name="PARAM3">      0.00000000</i>
  </separator>
  <separator name="model GW" >
   <i type="int" name="MODEL_GW">     0</i>
   <i name="MODEL_EPS0">     27.29338354</i>
   <i name="MODEL_ALPHA">      1.00000000</i>
  </separator>
  <separator name="linear response parameters" >
   <i type="logical" name="LEPSILON"> F  </i>
   <i type="logical" name="LRPA"> F  </i>
   <i type="logical" name="LNABLA"> F  </i>
   <i type="logical" name="LVEL"> F  </i>
   <i type="int" name="KINTER">     0</i>
   <i name="CSHIFT">      0.10000000</i>
   <i name="OMEGAMAX">     -1.00000000</i>
   <i name="DEG_THRESHOLD">      0.00200000</i>
  </separator>
  <separator name="orbital magnetization" >
   <i type="logical" name="NUCIND"> F  </i>
   <v name="MAGPOS">      0.00000000      0.00000000      0.00000000</v>
   <i type="logical" name="LNICSALL"> T  </i>
   <i type="logical" name="ORBITALMAG"> F  </i>
   <i type="logical" name="LMAGBLOCH"> F  </i>
   <i type="logical" name="LCHIMAG"> F  </i>
   <i type="logical" name="LGAUGE"> T  </i>
   <i type="int" name="MAGATOM">     0</i>
   <v name="MAGDIPOL">      0.00000000      0.00000000      0.00000000</v>
   <v name="AVECCONST">      0.00000000      0.00000000      0.00000000</v>
  </separator>
  <separator name="response functions" >
   <i type="logical" name="LADDER"> F  </i>
   <i type="logical" name="LFXC"> F  </i>
   <i type="logical" name="LHARTREE"> T  </i>
   <i type="int" name="IBSE">     0</i>
   <v type="int" name="KPOINT">    -1     0     0     0</v>
   <i type="logical" name="LTCTE"> F  </i>
   <i type="logical" name="LTETE"> F  </i>
   <i type="logical" name="LTRIPLET"> F  </i>
   <i type="logical" name="LFXCEPS"> F  </i>
   <i type="logical" name="LFXHEG"> F  </i>
   <i type="int" name="NATURALO">     0</i>
   <i type="logical" name="L2ORDER"> F  </i>
   <i type="logical" name="LUSEW"> F  </i>
   <i name="ENCUTGW">     -2.00000000</i>
   <i name="ENCUTGWSOFT">     -2.00000000</i>
   <i name="ENCUTLF">     -1.00000000</i>
   <i type="int" name="LMAXMP2">    -1</i>
   <i name="SCISSOR">      0.00000000</i>
   <i type="int" name="NOMEGA">     0</i>
   <i type="int" name="NOMEGAR">     0</i>
   <i type="int" name="NBANDSGW">    -1</i>
   <i type="int" name="NBANDSO">    -1</i>
   <i type="int" name="NBANDSV">    -1</i>
   <i type="int" name="NELM">     1</i>
   <i type="int" name="NELMHF">     1</i>
   <i type="int" name="DIM">     3</i>
   <i type="int" name="ANTIRES">     0</i>
   <i name="OMEGAMAX">    -30.00000000</i>
   <i name="OMEGAMIN">    -30.00000000</i>
   <i name="OMEGATL">   -200.00000000</i>
   <i type="int" name="OMEGAGRID">     0</i>
   <i name="CSHIFT">     -0.10000000</i>
   <i type="logical" name="SELFENERGY"> F  </i>
   <i type="logical" name="LSPECTRAL"> F  </i>
   <i type="logical" name="LSPECTRALGW"> F  </i>
   <i type="logical" name="LSINGLES"> F  </i>
   <i type="logical" name="LFERMIGW"> F  </i>
   <i type="logical" name="ODDONLYGW"> F  </i>
   <i type="logical" name="EVENONLYGW"> F  </i>
   <i type="int" name="NKREDLFX">     1</i>
   <i type="int" name="NKREDLFY">     1</i>
   <i type="int" name="NKREDLFZ">     1</i>
   <i type="int" name="MAXMEM">  1800</i>
   <i type="int" name="TELESCOPE">     0</i>
   <i type="int" name="TAUPAR">     1</i>
   <i type="int" name="OMEGAPAR">    -1</i>
   <i name="LAMBDA">      1.00000000</i>
  </separator>
  <separator name="External order field" >
   <i name="OFIELD_KAPPA">      0.00000000</i>
   <v name="OFIELD_K">      0.00000000      0.00000000      0.00000000</v>
   <i name="OFIELD_Q6_NEAR">      0.00000000</i>
   <i name="OFIELD_Q6_FAR">      0.00000000</i>
   <i name="OFIELD_A">      0.00000000</i>
  </separator>
 </parameters>
 <atominfo>
  <atoms>      14 </atoms>
  <types>       2 </types>
  <array name="atoms" >
   <dimension dim="1">ion</dimension>
   <field type="string">element</field>
   <field type="int">atomtype</field>
   <set>
    <rc><c>Si</c><c>   1</c></rc>
    <rc><c>Si</c><c>   1</c></rc>
    <rc><c>Si</c><c>   1</c></rc>
    <rc><c>Si</c><c>   1</c></rc>
    <rc><c>Si</c><c>   1</c></rc>
    <rc><c>Si</c><c>   1</c></rc>
    <rc><c>Si</c><c>   1</c></rc>
    <rc><c>Si</c><c>   1</c></rc>
    <rc><c>Si</c><c>   1</c></rc>
    <rc><c>Si</c><c>   1</c></rc>
    <rc><c>H </c><c>   2</c></rc>
    <rc><c>H </c><c>   2</c></rc>
    <rc><c>H </c><c>   2</c></rc>
    <rc><c>H </c><c>   2</c></rc>
   </set>
  </array>
  <array name="atomtypes" >
   <dimension dim="1">type</dimension>
   <field type="int">atomspertype</field>
   <field type="string">element</field>
   <field>mass</field>
   <field>valence</field>
   <field type="string">pseudopotential</field>
   <set>
    <rc><c>  10</c><c>Si</c><c>     28.08500000</c><c>      4.00000000</c><c> PAW_PBE Si 05Jan2001                   </c></rc>
    <rc><c>   4</c><c>H </c><c>      1.00000000</c><c>      1.00000000</c><c> PAW_PBE H 15Jun2001                    </c></rc>
   </set>
  </array>
 </atominfo>
 <structure name="initialpos" >
  <crystal>
   <varray name="basis" >
    <v>       5.43101000       0.00000000       0.00000000 </v>
    <v>       0.00000000       5.43101000       0.00000000 </v>
    <v>       0.00000000       0.00000000      21.59101000 </v>
   </varray>
   <i name="volume">    636.84561593 </i>
   <varray name="rec_basis" >
    <v>       0.18412781       0.00000000       0.00000000 </v>
    <v>       0.00000000       0.18412781       0.00000000 </v>
    <v>       0.00000000       0.00000000       0.04631557 </v>
   </varray>
  </crystal>
  <varray name="positions" >
   <v>       0.00000000       0.00000000       0.00000000 </v>
   <v>       0.49999908       0.49999908       0.00000000 </v>
   <v>       0.24999954       0.24999954       0.06288497 </v>
   <v>       0.75000046       0.75000046       0.06288497 </v>
   <v>       0.00000000       0.49999908       0.12576994 </v>
   <v>       0.49999908       0.00000000       0.12576994 </v>
   <v>       0.24999954       0.75000046       0.18865537 </v>
   <v>       0.75000046       0.24999954       0.18865537 </v>
   <v>       0.00000000       0.00000000       0.25154034 </v>
   <v>       0.49999908       0.49999908       0.25154034 </v>
   <v>       0.00000000       0.00000000       0.31638214 </v>
   <v>       0.49999908       0.49999908       0.31638214 </v>
   <v>       0.00000000       0.00000000       0.93515773 </v>
   <v>       0.49999908       0.49999908       0.93515773 </v>
  </varray>
 </structure>
 <calculation>
  <scstep>
   <time name="dav">    0.45    0.45</time>
   <time name="total">    0.52    0.54</time>
   <energy>
    <i name="alphaZ">      6.48777344 </i>
    <i name="ewald">   3350.50887920 </i>
    <i name="hartreedc">  -4253.75390416 </i>
    <i name="XCdc">    -86.01880523 </i>
    <i name="pawpsdc">    332.90134342 </i>
    <i name="pawaedc">   -157.00396765 </i>
    <i name="eentropy">     -0.08279655 </i>
    <i name="bandstr">   -129.15416709 </i>
    <i name="atom">   1080.22396943 </i>
    <i name="e_fr_energy">    144.10832480 </i>
    <i name="e_wo_entrp">    144.19112134 </i>
    <i name="e_0_energy">    144.14972307 </i>
   </energy>
  </scstep>
  <scstep>
   <time name="dav">    0.56    0.56</time>
   <time name="total">    0.56    0.56</time>
   <energy>
    <i name="e_fr_energy">    -48.78506215 </i>
    <i name="e_wo_entrp">    -48.74814663 </i>
    <i name="e_0_energy">    -48.76660439 </i>
   </energy>
  </scstep>
  <scstep>
   <time name="dav">    0.51    0.51</time>
   <time name="total">    0.51    0.51</time>
   <energy>
    <i name="e_fr_energy">    -64.42415366 </i>
    <i name="e_wo_entrp">    -64.37675389 </i>
    <i name="e_0_energy">    -64.40045378 </i>
   </energy>
  </scstep>
  <scstep>
   <time name="dav">    0.65    0.65</time>
   <time name="total">    0.66    0.66</time>
   <energy>
    <i name="e_fr_energy">    -64.95417880 </i>
    <i name="e_wo_entrp">    -64.90728661 </i>
    <i name="e_0_energy">    -64.93073271 </i>
   </energy>
  </scstep>
  <scstep>
   <time name="dav">    0.59    0.59</time>
   <time name="total">    0.63    0.63</time>
   <energy>
    <i name="e_fr_energy">    -64.96560702 </i>
    <i name="e_wo_entrp">    -64.91871135 </i>
    <i name="e_0_energy">    -64.94215919 </i>
   </energy>
  </scstep>
  <scstep>
   <time name="diag">    0.07    0.07</time>
   <time name="diis">    0.30    0.30</time>
   <time name="orth">    0.01    0.01</time>
   <time name="total">    0.48    0.48</time>
   <energy>
    <i name="e_fr_energy">    -63.40390122 </i>
    <i name="e_wo_entrp">    -63.35651343 </i>
    <i name="e_0_energy">    -63.38020733 </i>
   </energy>
  </scstep>
  <scstep>
   <time name="diag">    0.07    0.07</time>
   <time name="diis">    0.30    0.30</time>
   <time name="orth">    0.01    0.01</time>
   <time name="total">    0.47    0.48</time>
   <energy>
    <i name="e_fr_energy">    -62.66460223 </i>
    <i name="e_wo_entrp">    -62.61773812 </i>
    <i name="e_0_energy">    -62.64117017 </i>
   </energy>
  </scstep>
  <scstep>
   <time name="diag">    0.07    0.07</time>
   <time name="diis">    0.29    0.29</time>
   <time name="orth">    0.01    0.01</time>
   <time name="total">    0.47    0.47</time>
   <energy>
    <i name="e_fr_energy">    -62.64241999 </i>
    <i name="e_wo_entrp">    -62.59510817 </i>
    <i name="e_0_energy">    -62.61876408 </i>
   </energy>
  </scstep>
  <scstep>
   <time name="diag">    0.07    0.07</time>
   <time name="diis">    0.31    0.31</time>
   <time name="orth">    0.01    0.01</time>
   <time name="total">    0.49    0.49</time>
   <energy>
    <i name="e_fr_energy">    -62.63890183 </i>
    <i name="e_wo_entrp">    -62.59162850 </i>
    <i name="e_0_energy">    -62.61526516 </i>
   </energy>
  </scstep>
  <scstep>
   <time name="diag">    0.07    0.07</time>
   <time name="diis">    0.28    0.28</time>
   <time name="orth">    0.01    0.01</time>
   <time name="total">    0.46    0.46</time>
   <energy>
    <i name="e_fr_energy">    -62.63914139 </i>
    <i name="e_wo_entrp">    -62.59187072 </i>
    <i name="e_0_energy">    -62.61550605 </i>
   </energy>
  </scstep>
  <scstep>
   <time name="diag">    0.07    0.07</time>
   <time name="diis">    0.29    0.29</time>
   <time name="orth">    0.01    0.01</time>
   <time name="total">    0.47    0.47</time>
   <energy>
    <i name="e_fr_energy">    -62.63920019 </i>
    <i name="e_wo_entrp">    -62.59191701 </i>
    <i name="e_0_energy">    -62.61555860 </i>
   </energy>
  </scstep>
  <scstep>
   <time name="diag">    0.07    0.07</time>
   <time name="diis">    0.28    0.28</time>
   <time name="orth">    0.01    0.01</time>
   <time name="total">    0.46    0.47</time>
   <energy>
    <i name="e_fr_energy">    -62.64128794 </i>
    <i name="e_wo_entrp">    -62.59401096 </i>
    <i name="e_0_energy">    -62.61764945 </i>
   </energy>
  </scstep>
  <scstep>
   <time name="diag">    0.07    0.07</time>
   <time name="diis">    0.28    0.28</time>
   <time name="orth">    0.01    0.01</time>
   <time name="total">    0.46    0.46</time>
   <energy>
    <i name="e_fr_energy">    -62.64123825 </i>
    <i name="e_wo_entrp">    -62.59395188 </i>
    <i name="e_0_energy">    -62.61759506 </i>
   </energy>
  </scstep>
  <scstep>
   <time name="diag">    0.07    0.07</time>
   <time name="diis">    0.30    0.30</time>
   <time name="orth">    0.01    0.01</time>
   <time name="total">    0.48    0.48</time>
   <energy>
    <i name="e_fr_energy">    -62.64180834 </i>
    <i name="e_wo_entrp">    -62.59451921 </i>
    <i name="e_0_energy">    -62.61816377 </i>
   </energy>
  </scstep>
  <scstep>
   <time name="diag">    0.07    0.07</time>
   <time name="diis">    0.24    0.24</time>
   <time name="orth">    0.01    0.01</time>
   <time name="total">    0.42    0.43</time>
   <energy>
    <i name="e_fr_energy">    -62.64179296 </i>
    <i name="e_wo_entrp">    -62.59450561 </i>
    <i name="e_0_energy">    -62.61814929 </i>
   </energy>
  </scstep>
  <scstep>
   <time name="diag">    0.07    0.07</time>
   <time name="diis">    0.23    0.23</time>
   <time name="orth">    0.01    0.01</time>
   <time name="total">    0.41    0.42</time>
   <energy>
    <i name="e_fr_energy">    -62.64185537 </i>
    <i name="e_wo_entrp">    -62.59456850 </i>
    <i name="e_0_energy">    -62.61821194 </i>
   </energy>
  </scstep>
  <scstep>
   <time name="diag">    0.07    0.07</time>
   <time name="diis">    0.19    0.19</time>
   <time name="orth">    0.01    0.01</time>
   <time name="total">    0.37    0.37</time>
   <energy>
    <i name="e_fr_energy">    -62.64197204 </i>
    <i name="e_wo_entrp">    -62.59468296 </i>
    <i name="e_0_energy">    -62.61832750 </i>
   </energy>
  </scstep>
  <scstep>
   <time name="diag">    0.07    0.07</time>
   <time name="diis">    0.21    0.21</time>
   <time name="orth">    0.01    0.01</time>
   <time name="total">    0.38    0.39</time>
   <energy>
    <i name="e_fr_energy">    -62.64213206 </i>
    <i name="e_wo_entrp">    -62.59484303 </i>
    <i name="e_0_energy">    -62.61848755 </i>
   </energy>
  </scstep>
  <scstep>
   <time name="diag">    0.07    0.07</time>
   <time name="diis">    0.17    0.17</time>
   <time name="orth">    0.01    0.01</time>
   <time name="total">    0.35    0.36</time>
   <energy>
    <i name="e_fr_energy">    -62.64215564 </i>
    <i name="e_wo_entrp">    -62.59486681 </i>
    <i name="e_0_energy">    -62.61851122 </i>
   </energy>
  </scstep>
  <scstep>
   <time name="diag">    0.07    0.07</time>
   <time name="diis">    0.17    0.17</time>
   <time name="orth">    0.01    0.01</time>
   <time name="total">    0.35    0.35</time>
   <energy>
    <i name="e_fr_energy">    -62.64217080 </i>
    <i name="e_wo_entrp">    -62.59488120 </i>
    <i name="e_0_energy">    -62.61852600 </i>
   </energy>
  </scstep>
  <scstep>
   <time name="diag">    0.07    0.07</time>
   <time name="diis">    0.14    0.14</time>
   <time name="orth">    0.01    0.01</time>
   <time name="total">    0.29    0.29</time>
   <energy>
    <i name="alphaZ">      6.48777344 </i>
    <i name="ewald">   3350.50887920 </i>
    <i name="hartreedc">  -4325.97339419 </i>
    <i name="XCdc">    -81.24124474 </i>
    <i name="pawpsdc">    386.42815749 </i>
    <i name="pawaedc">   -211.63621731 </i>
    <i name="eentropy">     -0.04728928 </i>
    <i name="bandstr">   -267.39280625 </i>
    <i name="atom">   1080.22396943 </i>
    <i name="e_fr_energy">    -62.64217221 </i>
    <i name="e_wo_entrp">    -62.59488293 </i>
    <i name="e_0_energy">    -62.61852757 </i>
   </energy>
  </scstep>
  <structure>
   <crystal>
    <varray name="basis" >
     <v>       5.43101000       0.00000000       0.00000000 </v>
     <v>       0.00000000       5.43101000       0.00000000 </v>
     <v>       0.00000000       0.00000000      21.59101000 </v>
    </varray>
    <i name="volume">    636.84561593 </i>
    <varray name="rec_basis" >
     <v>       0.18412781       0.00000000       0.00000000 </v>
     <v>       0.00000000       0.18412781       0.00000000 </v>
     <v>       0.00000000       0.00000000       0.04631557 </v>
    </varray>
   </crystal>
   <varray name="positions" >
    <v>       0.00000000       0.00000000       0.00000000 </v>
    <v>       0.49999908       0.49999908       0.00000000 </v>
    <v>       0.24999954       0.24999954       0.06288497 </v>
    <v>       0.75000046       0.75000046       0.06288497 </v>
    <v>       0.00000000       0.49999908       0.12576994 </v>
    <v>       0.49999908       0.00000000       0.12576994 </v>
    <v>       0.24999954       0.75000046       0.18865537 </v>
    <v>       0.75000046       0.24999954       0.18865537 </v>
    <v>       0.00000000       0.00000000       0.25154034 </v>
    <v>       0.49999908       0.49999908       0.25154034 </v>
    <v>       0.00000000       0.00000000       0.31638214 </v>
    <v>       0.49999908       0.49999908       0.31638214 </v>
    <v>       0.00000000       0.00000000       0.93515773 </v>
    <v>       0.49999908       0.49999908       0.93515773 </v>
   </varray>
  </structure>
  <varray name="forces" >
   <v>       0.00000000       0.00000000       2.83120355 </v>
   <v>       0.00000000       0.00000000       2.83120355 </v>
   <v>       0.00000000      -0.00000000      -1.10194710 </v>
   <v>       0.00000000      -0.00000000      -1.10194710 </v>
   <v>       0.00000000      -0.00000000      -0.00000000 </v>
   <v>      -0.00000000      -0.00000000      -0.00000000 </v>
   <v>       0.00000000      -0.00000000       1.10194710 </v>
   <v>       0.00000000      -0.00000000       1.10194710 </v>
   <v>      -0.00000000       0.00000000      -2.83120355 </v>
   <v>      -0.00000000       0.00000000      -2.83120355 </v>
   <v>       0.00000000      -0.00000000       2.07632088 </v>
   <v>      -0.00000000      -0.00000000       2.07632088 </v>
   <v>       0.00000000      -0.00000000      -2.07632088 </v>
   <v>      -0.00000000      -0.00000000      -2.07632088 </v>
  </varray>
  <varray name="stress" >
   <v>     -13.03034779       0.00000000       0.00000000 </v>
   <v>      -0.00000000     -13.03034779       0.00000000 </v>
   <v>       0.00000000       0.00000000      19.37027086 </v>
  </varray>
  <energy>
   <i name="e_fr_energy">    -62.64217221 </i>
   <i name="e_wo_entrp">    -62.61852757 </i>
   <i name="e_0_energy">     -0.04728928 </i>
  </energy>
  <time name="totalsc">   10.89   11.03</time>
 </calculation>
 <calculation>
  <scstep>
   <time name="dav">    0.45    0.45</time>
   <time name="total">    0.55    0.56</time>
   <energy>
    <i name="alphaZ">      6.48777344 </i>
    <i name="ewald">   3412.38387413 </i>
    <i name="hartreedc">  -4391.36082471 </i>
    <i name="XCdc">    -81.35811422 </i>
    <i name="pawpsdc">    386.42802210 </i>
    <i name="pawaedc">   -211.63608824 </i>
    <i name="eentropy">     -0.04160163 </i>
    <i name="bandstr">   -263.39185457 </i>
    <i name="atom">   1080.22396943 </i>
    <i name="e_fr_energy">    -62.26484429 </i>
    <i name="e_wo_entrp">    -62.22324266 </i>
    <i name="e_0_energy">    -62.24404347 </i>
   </energy>
  </scstep>
  <scstep>
   <time name="diag">    0.07    0.07</time>
   <time name="diis">    0.29    0.29</time>
   <time name="orth">    0.01    0.01</time>
   <time name="total">    0.47    0.47</time>
   <energy>
    <i name="e_fr_energy">    -62.85692808 </i>
    <i name="e_wo_entrp">    -62.81382956 </i>
    <i name="e_0_energy">    -62.83537882 </i>
   </energy>
  </scstep>
  <scstep>
   <time name="diag">    0.07    0.07</time>
   <time name="diis">    0.29    0.29</time>
   <time name="orth">    0.01    0.01</time>
   <time name="total">    0.47    0.48</time>
   <energy>
    <i name="e_fr_energy">    -62.58913005 </i>
    <i name="e_wo_entrp">    -62.54598113 </i>
    <i name="e_0_energy">    -62.56755559 </i>
   </energy>
  </scstep>
  <scstep>
   <time name="diag">    0.07    0.07</time>
   <time name="diis">    0.29    0.29</time>
   <time name="orth">    0.01    0.01</time>
   <time name="total">    0.47    0.48</time>
   <energy>
    <i name="e_fr_energy">    -62.54160648 </i>
    <i name="e_wo_entrp">    -62.50010883 </i>
    <i name="e_0_energy">    -62.52085765 </i>
   </energy>
  </scstep>
  <scstep>
   <time name="diag">    0.07    0.07</time>
   <time name="diis">    0.31    0.31</time>
   <time name="orth">    0.01    0.01</time>
   <time name="total">    0.49    0.49</time>
   <energy>
    <i name="e_fr_energy">    -62.53800411 </i>
    <i name="e_wo_entrp">    -62.49589294 </i>
    <i name="e_0_energy">    -62.51694852 </i>
   </energy>
  </scstep>
  <scstep>
   <time name="diag">    0.07    0.07</time>
   <time name="diis">    0.30    0.31</time>
   <time name="orth">    0.01    0.01</time>
   <time name="total">    0.49    0.49</time>
   <energy>
    <i name="e_fr_energy">    -62.53781988 </i>
    <i name="e_wo_entrp">    -62.49599011 </i>
    <i name="e_0_energy">    -62.51690499 </i>
   </energy>
  </scstep>
  <scstep>
   <time name="diag">    0.07    0.07</time>
   <time name="diis">    0.34    0.34</time>
   <time name="orth">    0.01    0.01</time>
   <time name="total">    0.52    0.52</time>
   <energy>
    <i name="e_fr_energy">    -62.53794822 </i>
    <i name="e_wo_entrp">    -62.49613485 </i>
    <i name="e_0_energy">    -62.51704153 </i>
   </energy>
  </scstep>
  <scstep>
   <time name="diag">    0.07    0.07</time>
   <time name="diis">    0.28    0.28</time>
   <time name="orth">    0.01    0.01</time>
   <time name="total">    0.47    0.47</time>
   <energy>
    <i name="e_fr_energy">    -62.53780169 </i>
    <i name="e_wo_entrp">    -62.49584997 </i>
    <i name="e_0_energy">    -62.51682583 </i>
   </energy>
  </scstep>
  <scstep>
   <time name="diag">    0.07    0.07</time>
   <time name="diis">    0.24    0.24</time>
   <time name="orth">    0.01    0.01</time>
   <time name="total">    0.38    0.39</time>
   <energy>
    <i name="alphaZ">      6.48777344 </i>
    <i name="ewald">   3412.38387413 </i>
    <i name="hartreedc">  -4381.10573905 </i>
    <i name="XCdc">    -81.77109058 </i>
    <i name="pawpsdc">    380.90004699 </i>
    <i name="pawaedc">   -206.07778749 </i>
    <i name="eentropy">     -0.04191122 </i>
    <i name="bandstr">   -273.53692960 </i>
    <i name="atom">   1080.22396943 </i>
    <i name="e_fr_energy">    -62.53779395 </i>
    <i name="e_wo_entrp">    -62.49588274 </i>
    <i name="e_0_energy">    -62.51683835 </i>
   </energy>
  </scstep>
  <structure>
   <crystal>
    <varray name="basis" >
     <v>       5.43101000       0.00000000       0.00000000 </v>
     <v>       0.00000000       5.43101000       0.00000000 </v>
     <v>       0.00000000       0.00000000      21.59101000 </v>
    </varray>
    <i name="volume">    636.84561593 </i>
    <varray name="rec_basis" >
     <v>       0.18412781       0.00000000       0.00000000 </v>
     <v>       0.00000000       0.18412781       0.00000000 </v>
     <v>       0.00000000       0.00000000       0.04631557 </v>
    </varray>
   </crystal>
   <varray name="positions" >
    <v>       0.00000000       0.00000000       0.00632600 </v>
    <v>       0.49999908       0.49999908       0.00632600 </v>
    <v>       0.24999954       0.24999954       0.06042279 </v>
    <v>       0.75000046       0.75000046       0.06042279 </v>
    <v>       0.00000000       0.49999908       0.12576994 </v>
    <v>       0.49999908      -0.00000000       0.12576994 </v>
    <v>       0.24999954       0.75000046       0.19111755 </v>
    <v>       0.75000046       0.24999954       0.19111755 </v>
    <v>      -0.00000000       0.00000000       0.24521434 </v>
    <v>       0.49999908       0.49999908       0.24521434 </v>
    <v>       0.00000000      -0.00000000       0.32102145 </v>
    <v>       0.49999908       0.49999908       0.32102145 </v>
    <v>       0.00000000      -0.00000000       0.93051843 </v>
    <v>       0.49999908       0.49999908       0.93051843 </v>
   </varray>
  </structure>
  <varray name="forces" >
   <v>      -0.00000000      -0.00000000      -2.54440373 </v>
   <v>       0.00000000       0.00000000      -2.54440373 </v>
   <v>      -0.00000000      -0.00000000       0.70736241 </v>
   <v>      -0.00000000      -0.00000000       0.70736241 </v>
   <v>      -0.00000000       0.00000000       0.00000000 </v>
   <v>       0.00000000      -0.00000000       0.00000000 </v>
   <v>      -0.00000000      -0.00000000      -0.70736241 </v>
   <v>      -0.00000000      -0.00000000      -0.70736241 </v>
   <v>      -0.00000000      -0.00000000       2.54440373 </v>
   <v>       0.00000000      -0.00000000       2.54440373 </v>
   <v>      -0.00000000      -0.00000000      -1.66632454 </v>
   <v>       0.00000000       0.00000000      -1.66632454 </v>
   <v>      -0.00000000      -0.00000000       1.66632454 </v>
   <v>      -0.00000000       0.00000000       1.66632454 </v>
  </varray>
  <varray name="stress" >
   <v>      -1.85036948      -0.00000000       0.00000000 </v>
   <v>       0.00000000      -1.85036948       0.00000000 </v>
   <v>       0.00000000       0.00000000     -18.09675854 </v>
  </varray>
  <energy>
   <i name="e_fr_energy">    -62.53779395 </i>
   <i name="e_wo_entrp">    -62.51683835 </i>
   <i name="e_0_energy">     -0.04191122 </i>
  </energy>
  <time name="totalsc">    5.10    5.16</time>
 </calculation>
 <calculation>
  <scstep>
   <time name="dav">    0.45    0.45</time>
   <time name="total">    0.55    0.55</time>
   <energy>
    <i name="alphaZ">      6.48777344 </i>
    <i name="ewald">   3375.96432591 </i>
    <i name="hartreedc">  -4344.07892671 </i>
    <i name="XCdc">    -81.75221336 </i>
    <i name="pawpsdc">    380.89749900 </i>
    <i name="pawaedc">   -206.07497265 </i>
    <i name="eentropy">     -0.04461024 </i>
    <i name="bandstr">   -274.74310377 </i>
    <i name="atom">   1080.22396943 </i>
    <i name="e_fr_energy">    -63.12025896 </i>
    <i name="e_wo_entrp">    -63.07564873 </i>
    <i name="e_0_energy">    -63.09795384 </i>
   </energy>
  </scstep>
  <scstep>
   <time name="diag">    0.07    0.07</time>
   <time name="diis">    0.29    0.29</time>
   <time name="orth">    0.01    0.01</time>
   <time name="total">    0.47    0.47</time>
   <energy>
    <i name="e_fr_energy">    -63.17297571 </i>
    <i name="e_wo_entrp">    -63.12845753 </i>
    <i name="e_0_energy">    -63.15071662 </i>
   </energy>
  </scstep>
  <scstep>
   <time name="diag">    0.07    0.07</time>
   <time name="diis">    0.32    0.32</time>
   <time name="orth">    0.01    0.01</time>
   <time name="total">    0.50    0.51</time>
   <energy>
    <i name="e_fr_energy">    -63.17638800 </i>
    <i name="e_wo_entrp">    -63.13185524 </i>
    <i name="e_0_energy">    -63.15412162 </i>
   </energy>
  </scstep>
  <scstep>
   <time name="diag">    0.07    0.07</time>
   <time name="diis">    0.30    0.30</time>
   <time name="orth">    0.01    0.01</time>
   <time name="total">    0.48    0.49</time>
   <energy>
    <i name="e_fr_energy">    -63.17673054 </i>
    <i name="e_wo_entrp">    -63.13209909 </i>
    <i name="e_0_energy">    -63.15441482 </i>
   </energy>
  </scstep>
  <scstep>
   <time name="diag">    0.07    0.07</time>
   <time name="diis">    0.30    0.30</time>
   <time name="orth">    0.01    0.01</time>
   <time name="total">    0.48    0.49</time>
   <energy>
    <i name="e_fr_energy">    -63.17666304 </i>
    <i name="e_wo_entrp">    -63.13208636 </i>
    <i name="e_0_energy">    -63.15437470 </i>
   </energy>
  </scstep>
  <scstep>
   <time name="diag">    0.07    0.07</time>
   <time name="diis">    0.28    0.28</time>
   <time name="orth">    0.01    0.01</time>
   <time name="total">    0.46    0.47</time>
   <energy>
    <i name="e_fr_energy">    -63.17664687 </i>
    <i name="e_wo_entrp">    -63.13209473 </i>
    <i name="e_0_energy">    -63.15437080 </i>
   </energy>
  </scstep>
  <scstep>
   <time name="diag">    0.07    0.07</time>
   <time name="diis">    0.19    0.19</time>
   <time name="orth">    0.01    0.01</time>
   <time name="total">    0.33    0.34</time>
   <energy>
    <i name="alphaZ">      6.48777344 </i>
    <i name="ewald">   3375.96432591 </i>
    <i name="hartreedc">  -4349.11477864 </i>
    <i name="XCdc">    -81.57388829 </i>
    <i name="pawpsdc">    381.99292422 </i>
    <i name="pawaedc">   -207.15652710 </i>
    <i name="eentropy">     -0.04456084 </i>
    <i name="bandstr">   -269.95588958 </i>
    <i name="atom">   1080.22396943 </i>
    <i name="e_fr_energy">    -63.17665147 </i>
    <i name="e_wo_entrp">    -63.13209063 </i>
    <i name="e_0_energy">    -63.15437105 </i>
   </energy>
  </scstep>
  <structure>
   <crystal>
    <varray name="basis" >
     <v>       5.43101000       0.00000000       0.00000000 </v>
     <v>       0.00000000       5.43101000       0.00000000 </v>
     <v>       0.00000000       0.00000000      21.59101000 </v>
    </varray>
    <i name="volume">    636.84561593 </i>
    <varray name="rec_basis" >
     <v>       0.18412781       0.00000000       0.00000000 </v>
     <v>       0.00000000       0.18412781       0.00000000 </v>
     <v>       0.00000000       0.00000000       0.04631557 </v>
    </varray>
   </crystal>
   <varray name="positions" >
    <v>       0.00000000       0.00000000       0.00325010 </v>
    <v>       0.49999908       0.49999908       0.00325010 </v>
    <v>       0.24999954       0.24999954       0.06127792 </v>
    <v>       0.75000046       0.75000046       0.06127792 </v>
    <v>       0.00000000       0.49999908       0.12576994 </v>
    <v>       0.49999908      -0.00000000       0.12576994 </v>
    <v>       0.24999954       0.75000046       0.19026242 </v>
    <v>       0.75000046       0.24999954       0.19026242 </v>
    <v>      -0.00000000       0.00000000       0.24829024 </v>
    <v>       0.49999908       0.49999908       0.24829024 </v>
    <v>       0.00000000      -0.00000000       0.31900705 </v>
    <v>       0.49999908       0.49999908       0.31900705 </v>
    <v>       0.00000000      -0.00000000       0.93253283 </v>
    <v>       0.49999908       0.49999908       0.93253283 </v>
   </varray>
  </structure>
  <varray name="forces" >
   <v>      -0.00000000      -0.00000000      -0.54045335 </v>
   <v>       0.00000000       0.00000000      -0.54045335 </v>
   <v>      -0.00000000      -0.00000000      -0.07504668 </v>
   <v>      -0.00000000      -0.00000000      -0.07504668 </v>
   <v>      -0.00000000      -0.00000000      -0.00000000 </v>
   <v>       0.00000000      -0.00000000      -0.00000000 </v>
   <v>      -0.00000000      -0.00000000       0.07504668 </v>
   <v>      -0.00000000      -0.00000000       0.07504668 </v>
   <v>      -0.00000000      -0.00000000       0.54045335 </v>
   <v>      -0.00000000      -0.00000000       0.54045335 </v>
   <v>      -0.00000000      -0.00000000      -0.41840254 </v>
   <v>       0.00000000       0.00000000      -0.41840254 </v>
   <v>      -0.00000000      -0.00000000       0.41840254 </v>
   <v>       0.00000000       0.00000000       0.41840254 </v>
  </varray>
  <varray name="stress" >
   <v>      -7.99436889       0.00000000       0.00000000 </v>
   <v>      -0.00000000      -7.99436889       0.00000000 </v>
   <v>       0.00000000       0.00000000      -5.78997124 </v>
  </varray>
  <energy>
   <i name="e_fr_energy">    -63.17665147 </i>
   <i name="e_wo_entrp">    -63.15437105 </i>
   <i name="e_0_energy">     -0.04456084 </i>
  </energy>
  <time name="totalsc">    4.08    4.12</time>
 </calculation>
 <calculation>
  <scstep>
   <time name="dav">    0.50    0.50</time>
   <time name="total">    0.60    0.60</time>
   <energy>
    <i name="alphaZ">      6.48777344 </i>
    <i name="ewald">   3360.56398880 </i>
    <i name="hartreedc">  -4333.08260260 </i>
    <i name="XCdc">    -81.55758339 </i>
    <i name="pawpsdc">    381.99754498 </i>
    <i name="pawaedc">   -207.16138834 </i>
    <i name="eentropy">     -0.04488876 </i>
    <i name="bandstr">   -270.62721987 </i>
    <i name="atom">   1080.22396943 </i>
    <i name="e_fr_energy">    -63.20040631 </i>
    <i name="e_wo_entrp">    -63.15551755 </i>
    <i name="e_0_energy">    -63.17796193 </i>
   </energy>
  </scstep>
  <scstep>
   <time name="diag">    0.07    0.07</time>
   <time name="diis">    0.29    0.29</time>
   <time name="orth">    0.01    0.01</time>
   <time name="total">    0.47    0.47</time>
   <energy>
    <i name="e_fr_energy">    -63.20560419 </i>
    <i name="e_wo_entrp">    -63.16082790 </i>
    <i name="e_0_energy">    -63.18321605 </i>
   </energy>
  </scstep>
  <scstep>
   <time name="diag">    0.07    0.07</time>
   <time name="diis">    0.30    0.30</time>
   <time name="orth">    0.01    0.01</time>
   <time name="total">    0.48    0.49</time>
   <energy>
    <i name="e_fr_energy">    -63.20561843 </i>
    <i name="e_wo_entrp">    -63.16078146 </i>
    <i name="e_0_energy">    -63.18319995 </i>
   </energy>
  </scstep>
  <scstep>
   <time name="diag">    0.07    0.07</time>
   <time name="diis">    0.31    0.31</time>
   <time name="orth">    0.01    0.01</time>
   <time name="total">    0.49    0.50</time>
   <energy>
    <i name="e_fr_energy">    -63.20571852 </i>
    <i name="e_wo_entrp">    -63.16086353 </i>
    <i name="e_0_energy">    -63.18329103 </i>
   </energy>
  </scstep>
  <scstep>
   <time name="diag">    0.07    0.07</time>
   <time name="diis">    0.29    0.29</time>
   <time name="orth">    0.01    0.01</time>
   <time name="total">    0.47    0.48</time>
   <energy>
    <i name="e_fr_energy">    -63.20565851 </i>
    <i name="e_wo_entrp">    -63.16082397 </i>
    <i name="e_0_energy">    -63.18324124 </i>
   </energy>
  </scstep>
  <scstep>
   <time name="diag">    0.07    0.07</time>
   <time name="diis">    0.26    0.26</time>
   <time name="orth">    0.01    0.01</time>
   <time name="total">    0.44    0.45</time>
   <energy>
    <i name="e_fr_energy">    -63.20565760 </i>
    <i name="e_wo_entrp">    -63.16084349 </i>
    <i name="e_0_energy">    -63.18325055 </i>
   </energy>
  </scstep>
  <scstep>
   <time name="diag">    0.07    0.07</time>
   <time name="diis">    0.19    0.19</time>
   <time name="orth">    0.01    0.01</time>
   <time name="total">    0.33    0.33</time>
   <energy>
    <i name="alphaZ">      6.48777344 </i>
    <i name="ewald">   3360.56398880 </i>
    <i name="hartreedc">  -4334.57439469 </i>
    <i name="XCdc">    -81.48481561 </i>
    <i name="pawpsdc">    383.00337153 </i>
    <i name="pawaedc">   -208.17674941 </i>
    <i name="eentropy">     -0.04481781 </i>
    <i name="bandstr">   -269.20398213 </i>
    <i name="atom">   1080.22396943 </i>
    <i name="e_fr_energy">    -63.20565646 </i>
    <i name="e_wo_entrp">    -63.16083865 </i>
    <i name="e_0_energy">    -63.18324755 </i>
   </energy>
  </scstep>
  <structure>
   <crystal>
    <varray name="basis" >
     <v>       5.43101000       0.00000000       0.00000000 </v>
     <v>       0.00000000       5.43101000       0.00000000 </v>
     <v>       0.00000000       0.00000000      21.59101000 </v>
    </varray>
    <i name="volume">    636.84561593 </i>
    <varray name="rec_basis" >
     <v>       0.18412781       0.00000000       0.00000000 </v>
     <v>       0.00000000       0.18412781       0.00000000 </v>
     <v>       0.00000000       0.00000000       0.04631557 </v>
    </varray>
   </crystal>
   <varray name="positions" >
    <v>       0.00000000       0.00000000       0.00239298 </v>
    <v>       0.49999908       0.49999908       0.00239298 </v>
    <v>       0.24999954       0.24999954       0.06088694 </v>
    <v>       0.75000046       0.75000046       0.06088694 </v>
    <v>      -0.00000000       0.49999908       0.12576994 </v>
    <v>       0.49999908      -0.00000000       0.12576994 </v>
    <v>       0.24999954       0.75000046       0.19065340 </v>
    <v>       0.75000046       0.24999954       0.19065340 </v>
    <v>      -0.00000000       0.00000000       0.24914736 </v>
    <v>       0.49999908       0.49999908       0.24914736 </v>
    <v>      -0.00000000      -0.00000000       0.31826567 </v>
    <v>       0.49999908       0.49999908       0.31826567 </v>
    <v>      -0.00000000      -0.00000000       0.93327420 </v>
    <v>       0.49999908       0.49999908       0.93327420 </v>
   </varray>
  </structure>
  <varray name="forces" >
   <v>       0.00000000      -0.00000000       0.10745922 </v>
   <v>      -0.00000000       0.00000000       0.10745922 </v>
   <v>       0.00000000      -0.00000000      -0.08847035 </v>
   <v>       0.00000000      -0.00000000      -0.08847035 </v>
   <v>       0.00000000      -0.00000000       0.00000000 </v>
   <v>       0.00000000      -0.00000000       0.00000000 </v>
   <v>       0.00000000      -0.00000000       0.08847035 </v>
   <v>       0.00000000      -0.00000000       0.08847035 </v>
   <v>       0.00000000      -0.00000000      -0.10745922 </v>
   <v>      -0.00000000      -0.00000000      -0.10745922 </v>
   <v>       0.00000000      -0.00000000       0.13125048 </v>
   <v>      -0.00000000       0.00000000       0.13125048 </v>
   <v>       0.00000000      -0.00000000      -0.13125048 </v>
   <v>       0.00000000      -0.00000000      -0.13125048 </v>
  </varray>
  <varray name="stress" >
   <v>      -9.38286908       0.00000000       0.00000000 </v>
   <v>       0.00000000      -9.38286908       0.00000000 </v>
   <v>       0.00000000       0.00000000      -0.08454465 </v>
  </varray>
  <energy>
   <i name="e_fr_energy">    -63.20565646 </i>
   <i name="e_wo_entrp">    -63.18324755 </i>
   <i name="e_0_energy">     -0.04481781 </i>
  </energy>
  <time name="totalsc">    4.09    4.13</time>
 </calculation>
 <calculation>
  <scstep>
   <time name="dav">    0.49    0.49</time>
   <time name="total">    0.59    0.60</time>
   <energy>
    <i name="alphaZ">      6.48777344 </i>
    <i name="ewald">   3359.97243394 </i>
    <i name="hartreedc">  -4334.20465055 </i>
    <i name="XCdc">    -81.49971832 </i>
    <i name="pawpsdc">    382.99753642 </i>
    <i name="pawaedc">   -208.17083276 </i>
    <i name="eentropy">     -0.04461044 </i>
    <i name="bandstr">   -268.96939466 </i>
    <i name="atom">   1080.22396943 </i>
    <i name="e_fr_energy">    -63.20749350 </i>
    <i name="e_wo_entrp">    -63.16288306 </i>
    <i name="e_0_energy">    -63.18518828 </i>
   </energy>
  </scstep>
  <scstep>
   <time name="diag">    0.07    0.07</time>
   <time name="diis">    0.29    0.29</time>
   <time name="orth">    0.01    0.01</time>
   <time name="total">    0.48    0.48</time>
   <energy>
    <i name="e_fr_energy">    -63.20773012 </i>
    <i name="e_wo_entrp">    -63.16313714 </i>
    <i name="e_0_energy">    -63.18543363 </i>
   </energy>
  </scstep>
  <scstep>
   <time name="diag">    0.07    0.07</time>
   <time name="diis">    0.30    0.30</time>
   <time name="orth">    0.01    0.01</time>
   <time name="total">    0.48    0.49</time>
   <energy>
    <i name="e_fr_energy">    -63.20773991 </i>
    <i name="e_wo_entrp">    -63.16311344 </i>
    <i name="e_0_energy">    -63.18542668 </i>
   </energy>
  </scstep>
  <scstep>
   <time name="diag">    0.07    0.07</time>
   <time name="diis">    0.20    0.20</time>
   <time name="orth">    0.01    0.01</time>
   <time name="total">    0.35    0.35</time>
   <energy>
    <i name="alphaZ">      6.48777344 </i>
    <i name="ewald">   3359.97243394 </i>
    <i name="hartreedc">  -4333.87428054 </i>
    <i name="XCdc">    -81.51636147 </i>
    <i name="pawpsdc">    382.69734224 </i>
    <i name="pawaedc">   -207.86712300 </i>
    <i name="eentropy">     -0.04462665 </i>
    <i name="bandstr">   -269.28685828 </i>
    <i name="atom">   1080.22396943 </i>
    <i name="e_fr_energy">    -63.20773091 </i>
    <i name="e_wo_entrp">    -63.16310426 </i>
    <i name="e_0_energy">    -63.18541758 </i>
   </energy>
  </scstep>
  <structure>
   <crystal>
    <varray name="basis" >
     <v>       5.43101000       0.00000000       0.00000000 </v>
     <v>       0.00000000       5.43101000       0.00000000 </v>
     <v>       0.00000000       0.00000000      21.59101000 </v>
    </varray>
    <i name="volume">    636.84561593 </i>
    <varray name="rec_basis" >
     <v>       0.18412781       0.00000000       0.00000000 </v>
     <v>       0.00000000       0.18412781       0.00000000 </v>
     <v>       0.00000000       0.00000000       0.04631557 </v>
    </varray>
   </crystal>
   <varray name="positions" >
    <v>       0.00000000       0.00000000       0.00253437 </v>
    <v>       0.49999908       0.49999908       0.00253437 </v>
    <v>       0.24999954       0.24999954       0.06075123 </v>
    <v>       0.75000046       0.75000046       0.06075123 </v>
    <v>      -0.00000000       0.49999908       0.12576994 </v>
    <v>       0.49999908      -0.00000000       0.12576994 </v>
    <v>       0.24999954       0.75000046       0.19078911 </v>
    <v>       0.75000046       0.24999954       0.19078911 </v>
    <v>      -0.00000000       0.00000000       0.24900597 </v>
    <v>       0.49999908       0.49999908       0.24900597 </v>
    <v>      -0.00000000      -0.00000000       0.31850779 </v>
    <v>       0.49999908       0.49999908       0.31850779 </v>
    <v>      -0.00000000      -0.00000000       0.93303209 </v>
    <v>       0.49999908       0.49999908       0.93303209 </v>
   </varray>
  </structure>
  <varray name="forces" >
   <v>       0.00000000       0.00000000      -0.08172096 </v>
   <v>       0.00000000       0.00000000      -0.08172096 </v>
   <v>       0.00000000       0.00000000      -0.02263666 </v>
   <v>       0.00000000       0.00000000      -0.02263666 </v>
   <v>       0.00000000      -0.00000000       0.00000000 </v>
   <v>      -0.00000000       0.00000000       0.00000000 </v>
   <v>       0.00000000       0.00000000       0.02263666 </v>
   <v>       0.00000000       0.00000000       0.02263666 </v>
   <v>       0.00000000       0.00000000       0.08172096 </v>
   <v>       0.00000000      -0.00000000       0.08172096 </v>
   <v>       0.00000000       0.00000000      -0.00850389 </v>
   <v>      -0.00000000       0.00000000      -0.00850389 </v>
   <v>       0.00000000       0.00000000       0.00850389 </v>
   <v>      -0.00000000      -0.00000000       0.00850389 </v>
  </varray>
  <varray name="stress" >
   <v>      -9.05038867       0.00000000       0.00000000 </v>
   <v>       0.00000000      -9.05038867       0.00000000 </v>
   <v>       0.00000000       0.00000000      -1.81143437 </v>
  </varray>
  <energy>
   <i name="e_fr_energy">    -63.20773091 </i>
   <i name="e_wo_entrp">    -63.18541758 </i>
   <i name="e_0_energy">     -0.04462665 </i>
  </energy>
  <time name="totalsc">    2.69    2.71</time>
 </calculation>
 <calculation>
  <scstep>
   <time name="dav">    0.50    0.51</time>
   <time name="total">    0.60    0.61</time>
   <energy>
    <i name="alphaZ">      6.48777344 </i>
    <i name="ewald">   3357.21750759 </i>
    <i name="hartreedc">  -4331.08260289 </i>
    <i name="XCdc">    -81.52207194 </i>
    <i name="pawpsdc">    382.70434771 </i>
    <i name="pawaedc">   -207.87410302 </i>
    <i name="eentropy">     -0.04467111 </i>
    <i name="bandstr">   -269.31846502 </i>
    <i name="atom">   1080.22396943 </i>
    <i name="e_fr_energy">    -63.20831582 </i>
    <i name="e_wo_entrp">    -63.16364471 </i>
    <i name="e_0_energy">    -63.18598027 </i>
   </energy>
  </scstep>
  <scstep>
   <time name="diag">    0.07    0.07</time>
   <time name="diis">    0.29    0.29</time>
   <time name="orth">    0.01    0.01</time>
   <time name="total">    0.47    0.48</time>
   <energy>
    <i name="e_fr_energy">    -63.20835869 </i>
    <i name="e_wo_entrp">    -63.16369445 </i>
    <i name="e_0_energy">    -63.18602657 </i>
   </energy>
  </scstep>
  <scstep>
   <time name="diag">    0.07    0.07</time>
   <time name="diis">    0.18    0.18</time>
   <time name="orth">    0.01    0.01</time>
   <time name="total">    0.36    0.37</time>
   <energy>
    <i name="e_fr_energy">    -63.20836132 </i>
    <i name="e_wo_entrp">    -63.16369537 </i>
    <i name="e_0_energy">    -63.18602835 </i>
   </energy>
  </scstep>
  <scstep>
   <time name="diag">    0.07    0.07</time>
   <time name="diis">    0.17    0.17</time>
   <time name="orth">    0.01    0.01</time>
   <time name="total">    0.31    0.31</time>
   <energy>
    <i name="alphaZ">      6.48777344 </i>
    <i name="ewald">   3357.21750759 </i>
    <i name="hartreedc">  -4331.18475419 </i>
    <i name="XCdc">    -81.51697795 </i>
    <i name="pawpsdc">    382.72050864 </i>
    <i name="pawaedc">   -207.88940142 </i>
    <i name="eentropy">     -0.04466497 </i>
    <i name="bandstr">   -269.22232279 </i>
    <i name="atom">   1080.22396943 </i>
    <i name="e_fr_energy">    -63.20836223 </i>
    <i name="e_wo_entrp">    -63.16369726 </i>
    <i name="e_0_energy">    -63.18602975 </i>
   </energy>
  </scstep>
  <structure>
   <crystal>
    <varray name="basis" >
     <v>       5.43101000       0.00000000       0.00000000 </v>
     <v>       0.00000000       5.43101000       0.00000000 </v>
     <v>       0.00000000       0.00000000      21.59101000 </v>
    </varray>
    <i name="volume">    636.84561593 </i>
    <varray name="rec_basis" >
     <v>       0.18412781       0.00000000       0.00000000 </v>
     <v>       0.00000000       0.18412781       0.00000000 </v>
     <v>       0.00000000       0.00000000       0.04631557 </v>
    </varray>
   </crystal>
   <varray name="positions" >
    <v>       0.00000000       0.00000000       0.00242325 </v>
    <v>       0.49999908       0.49999908       0.00242325 </v>
    <v>       0.24999954       0.24999954       0.06069776 </v>
    <v>       0.75000046       0.75000046       0.06069776 </v>
    <v>      -0.00000000       0.49999908       0.12576994 </v>
    <v>       0.49999908      -0.00000000       0.12576994 </v>
    <v>       0.24999954       0.75000046       0.19084258 </v>
    <v>       0.75000046       0.24999954       0.19084258 </v>
    <v>      -0.00000000       0.00000000       0.24911709 </v>
    <v>       0.49999908       0.49999908       0.24911709 </v>
    <v>      -0.00000000      -0.00000000       0.31850661 </v>
    <v>       0.49999908       0.49999908       0.31850661 </v>
    <v>      -0.00000000      -0.00000000       0.93303326 </v>
    <v>       0.49999908       0.49999908       0.93303326 </v>
   </varray>
  </structure>
  <varray name="forces" >
   <v>      -0.00000000      -0.00000000      -0.02694298 </v>
   <v>      -0.00000000       0.00000000      -0.02694298 </v>
   <v>       0.00000000       0.00000000      -0.02369150 </v>
   <v>       0.00000000       0.00000000      -0.02369150 </v>
   <v>       0.00000000       0.00000000      -0.00000000 </v>
   <v>      -0.00000000       0.00000000      -0.00000000 </v>
   <v>       0.00000000       0.00000000       0.02369150 </v>
   <v>       0.00000000       0.00000000       0.02369150 </v>
   <v>       0.00000000      -0.00000000       0.02694298 </v>
   <v>       0.00000000       0.00000000       0.02694298 </v>
   <v>       0.00000000       0.00000000       0.03257471 </v>
   <v>       0.00000000       0.00000000       0.03257471 </v>
   <v>       0.00000000       0.00000000      -0.03257471 </v>
   <v>       0.00000000      -0.00000000      -0.03257471 </v>
  </varray>
  <varray name="stress" >
   <v>      -9.22895657      -0.00000000       0.00000000 </v>
   <v>       0.00000000      -9.22895657       0.00000000 </v>
   <v>       0.00000000       0.00000000      -1.48619710 </v>
  </varray>
  <energy>
   <i name="e_fr_energy">    -63.20836223 </i>
   <i name="e_wo_entrp">    -63.18602975 </i>
   <i name="e_0_energy">     -0.04466497 </i>
  </energy>
  <time name="totalsc">    2.48    2.50</time>
  <eigenvalues>
   <array>
    <dimension dim="1">band</dimension>
    <dimension dim="2">kpoint</dimension>
    <dimension dim="3">spin</dimension>
    <field>eigene</field>
    <field>occ</field>
    <set>
     <set comment="spin 1">
      <set comment="kpoint 1">
       <r>  -12.6164    1.0000 </r>
       <r>  -11.3718    1.0000 </r>
       <r>   -9.3041    1.0000 </r>
       <r>   -8.9943    1.0000 </r>
       <r>   -8.9341    1.0000 </r>
       <r>   -8.9339    1.0000 </r>
       <r>   -8.9111    1.0000 </r>
       <r>   -8.7445    1.0000 </r>
       <r>   -7.3533    1.0000 </r>
       <r>   -5.4969    1.0000 </r>
       <r>   -5.4367    1.0000 </r>
       <r>   -5.0766    1.0000 </r>
       <r>   -4.4607    1.0000 </r>
       <r>   -4.4605    1.0000 </r>
       <r>   -4.4121    1.0000 </r>
       <r>   -3.5643    1.0000 </r>
       <r>   -3.5642    1.0000 </r>
       <r>   -3.1145    1.0000 </r>
       <r>   -2.3879    1.0000 </r>
       <r>   -2.3878    1.0000 </r>
       <r>   -2.0613    1.0000 </r>
       <r>   -2.0610    1.0000 </r>
       <r>   -0.1879    0.0000 </r>
       <r>    0.2838    0.0000 </r>
       <r>    0.3338    0.0000 </r>
       <r>    0.6887    0.0000 </r>
       <r>    0.6889    0.0000 </r>
       <r>    0.7093    0.0000 </r>
       <r>    0.8691    0.0000 </r>
       <r>    1.0379    0.0000 </r>
      </set>
      <set comment="kpoint 2">
       <r>  -12.4505    1.0000 </r>
       <r>  -11.2370    1.0000 </r>
       <r>  -10.1175    1.0000 </r>
       <r>   -9.5844    1.0000 </r>
       <r>   -9.2378    1.0000 </r>
       <r>   -8.8954    1.0000 </r>
       <r>   -8.3276    1.0000 </r>
       <r>   -7.6360    1.0000 </r>
       <r>   -7.3619    1.0000 </r>
       <r>   -5.5886    1.0000 </r>
       <r>   -5.4826    1.0000 </r>
       <r>   -5.1451    1.0000 </r>
       <r>   -4.7134    1.0000 </r>
       <r>   -4.2619    1.0000 </r>
       <r>   -4.2203    1.0000 </r>
       <r>   -3.9889    1.0000 </r>
       <r>   -3.9028    1.0000 </r>
       <r>   -3.1556    1.0000 </r>
       <r>   -2.9285    1.0000 </r>
       <r>   -2.6553    1.0000 </r>
       <r>   -2.1093    1.0000 </r>
       <r>   -1.6318    1.0000 </r>
       <r>    0.1517    0.0000 </r>
       <r>    0.2909    0.0000 </r>
       <r>    0.5073    0.0000 </r>
       <r>    0.6453    0.0000 </r>
       <r>    1.1209    0.0000 </r>
       <r>    1.2922    0.0000 </r>
       <r>    1.4546    0.0000 </r>
       <r>    1.6189    0.0000 </r>
      </set>
      <set comment="kpoint 3">
       <r>  -11.9596    1.0000 </r>
       <r>  -11.1661    1.0000 </r>
       <r>  -10.8492    1.0000 </r>
       <r>  -10.2644    1.0000 </r>
       <r>   -9.0802    1.0000 </r>
       <r>   -8.9409    1.0000 </r>
       <r>   -7.8083    1.0000 </r>
       <r>   -7.4679    1.0000 </r>
       <r>   -6.5923    1.0000 </r>
       <r>   -5.9330    1.0000 </r>
       <r>   -5.3164    1.0000 </r>
       <r>   -5.2156    1.0000 </r>
       <r>   -4.9367    1.0000 </r>
       <r>   -4.7000    1.0000 </r>
       <r>   -4.4977    1.0000 </r>
       <r>   -3.9837    1.0000 </r>
       <r>   -3.9106    1.0000 </r>
       <r>   -3.6590    1.0000 </r>
       <r>   -3.3719    1.0000 </r>
       <r>   -2.9047    1.0000 </r>
       <r>   -1.7500    1.0000 </r>
       <r>   -0.8516    0.5715 </r>
       <r>   -0.7536    0.3040 </r>
       <r>   -0.1781    0.0000 </r>
       <r>    0.9966    0.0000 </r>
       <r>    1.4130    0.0000 </r>
       <r>    1.8443    0.0000 </r>
       <r>    1.9792    0.0000 </r>
       <r>    2.2759    0.0000 </r>
       <r>    2.3011    0.0000 </r>
      </set>
      <set comment="kpoint 4">
       <r>  -12.2892    1.0000 </r>
       <r>  -11.1166    1.0000 </r>
       <r>  -10.2069    1.0000 </r>
       <r>  -10.0790    1.0000 </r>
       <r>   -9.2008    1.0000 </r>
       <r>   -9.1425    1.0000 </r>
       <r>   -7.7180    1.0000 </r>
       <r>   -7.6620    1.0000 </r>
       <r>   -7.4184    1.0000 </r>
       <r>   -5.8139    1.0000 </r>
       <r>   -5.5140    1.0000 </r>
       <r>   -4.9573    1.0000 </r>
       <r>   -4.9045    1.0000 </r>
       <r>   -4.5849    1.0000 </r>
       <r>   -4.0693    1.0000 </r>
       <r>   -3.9491    1.0000 </r>
       <r>   -3.9037    1.0000 </r>
       <r>   -3.3321    1.0000 </r>
       <r>   -2.9959    1.0000 </r>
       <r>   -2.2795    1.0000 </r>
       <r>   -1.9093    1.0000 </r>
       <r>   -1.3794    1.0000 </r>
       <r>   -0.6600    0.1200 </r>
       <r>    0.3936    0.0000 </r>
       <r>    0.7612    0.0000 </r>
       <r>    0.7974    0.0000 </r>
       <r>    1.0881    0.0000 </r>
       <r>    1.3878    0.0000 </r>
       <r>    1.7967    0.0000 </r>
       <r>    1.9468    0.0000 </r>
      </set>
      <set comment="kpoint 5">
       <r>  -11.8149    1.0000 </r>
       <r>  -11.0654    1.0000 </r>
       <r>  -10.7879    1.0000 </r>
       <r>  -10.3763    1.0000 </r>
       <r>   -9.1867    1.0000 </r>
       <r>   -9.1524    1.0000 </r>
       <r>   -7.7194    1.0000 </r>
       <r>   -7.5944    1.0000 </r>
       <r>   -6.9644    1.0000 </r>
       <r>   -6.3302    1.0000 </r>
       <r>   -5.5772    1.0000 </r>
       <r>   -5.4631    1.0000 </r>
       <r>   -4.5324    1.0000 </r>
       <r>   -4.3151    1.0000 </r>
       <r>   -4.1858    1.0000 </r>
       <r>   -3.7507    1.0000 </r>
       <r>   -3.7272    1.0000 </r>
       <r>   -3.5429    1.0000 </r>
       <r>   -3.1967    1.0000 </r>
       <r>   -2.7419    1.0000 </r>
       <r>   -1.6409    1.0000 </r>
       <r>   -1.2211    0.9974 </r>
       <r>   -0.4605    0.0049 </r>
       <r>    0.4058    0.0000 </r>
       <r>    1.1096    0.0000 </r>
       <r>    1.2839    0.0000 </r>
       <r>    1.5563    0.0000 </r>
       <r>    1.6067    0.0000 </r>
       <r>    1.9743    0.0000 </r>
       <r>    2.2085    0.0000 </r>
      </set>
      <set comment="kpoint 6">
       <r>  -11.4056    1.0000 </r>
       <r>  -10.8940    1.0000 </r>
       <r>  -10.7581    1.0000 </r>
       <r>  -10.7015    1.0000 </r>
       <r>   -9.4205    1.0000 </r>
       <r>   -9.3549    1.0000 </r>
       <r>   -7.6859    1.0000 </r>
       <r>   -7.4722    1.0000 </r>
       <r>   -7.4667    1.0000 </r>
       <r>   -6.9816    1.0000 </r>
       <r>   -5.6881    1.0000 </r>
       <r>   -5.6679    1.0000 </r>
       <r>   -4.3279    1.0000 </r>
       <r>   -4.2348    1.0000 </r>
       <r>   -4.0211    1.0000 </r>
       <r>   -3.7477    1.0000 </r>
       <r>   -3.1262    1.0000 </r>
       <r>   -2.8625    1.0000 </r>
       <r>   -2.7839    1.0000 </r>
       <r>   -2.2071    1.0000 </r>
       <r>   -1.6015    1.0000 </r>
       <r>   -1.5639    1.0000 </r>
       <r>    0.3651    0.0000 </r>
       <r>    0.7912    0.0000 </r>
       <r>    0.9043    0.0000 </r>
       <r>    1.0205    0.0000 </r>
       <r>    1.2389    0.0000 </r>
       <r>    1.5479    0.0000 </r>
       <r>    1.8687    0.0000 </r>
       <r>    2.0762    0.0000 </r>
      </set>
     </set>
    </set>
   </array>
  </eigenvalues>
  <separator name="orbital magnetization" >
   <v name="MAGDIPOLOUT">      0.00000000      0.00000000      0.00000000</v>
  </separator>
 </calculation>
 <structure name="finalpos" >
  <crystal>
   <varray name="basis" >
    <v>       5.43101000       0.00000000       0.00000000 </v>
    <v>       0.00000000       5.43101000       0.00000000 </v>
    <v>       0.00000000       0.00000000      21.59101000 </v>
   </varray>
   <i name="volume">    636.84561593 </i>
   <varray name="rec_basis" >
    <v>       0.18412781       0.00000000       0.00000000 </v>
    <v>       0.00000000       0.18412781       0.00000000 </v>
    <v>       0.00000000       0.00000000       0.04631557 </v>
   </varray>
  </crystal>
  <varray name="positions" >
   <v>       0.00000000       0.00000000       0.00242325 </v>
   <v>       0.49999908       0.49999908       0.00242325 </v>
   <v>       0.24999954       0.24999954       0.06069776 </v>
   <v>       0.75000046       0.75000046       0.06069776 </v>
   <v>      -0.00000000       0.49999908       0.12576994 </v>
   <v>       0.49999908      -0.00000000       0.12576994 </v>
   <v>       0.24999954       0.75000046       0.19084258 </v>
   <v>       0.75000046       0.24999954       0.19084258 </v>
   <v>      -0.00000000       0.00000000       0.24911709 </v>
   <v>       0.49999908       0.49999908       0.24911709 </v>
   <v>      -0.00000000      -0.00000000       0.31850661 </v>
   <v>       0.49999908       0.49999908       0.31850661 </v>
   <v>      -0.00000000      -0.00000000       0.93303326 </v>
   <v>       0.49999908       0.49999908       0.93303326 </v>
  </varray>
 </structure>
</modeling>
