unknown system                          
           1
     5.431010    0.000000    0.000000
     0.000000    5.431010    0.000000
     0.000000    0.000000   21.591010
   Si   H 
  10   4
Direct configuration=     1
   0.00000000  0.00000000  0.00000000
   0.49999908  0.49999908  0.00000000
   0.24999954  0.24999954  0.06288497
   0.75000046  0.75000046  0.06288497
   0.00000000  0.49999908  0.12576994
   0.49999908  0.00000000  0.12576994
   0.24999954  0.75000046  0.18865537
   0.75000046  0.24999954  0.18865537
   0.00000000  0.00000000  0.25154034
   0.49999908  0.49999908  0.25154034
   0.00000000  0.00000000  0.31638214
   0.49999908  0.49999908  0.31638214
   0.00000000  0.00000000  0.93515773
   0.49999908  0.49999908  0.93515773
Direct configuration=     2
   0.00000000  0.00000000  0.00632600
   0.49999908  0.49999908  0.00632600
   0.24999954  0.24999954  0.06042279
   0.75000046  0.75000046  0.06042279
   0.00000000  0.49999908  0.12576994
   0.49999908 -0.00000000  0.12576994
   0.24999954  0.75000046  0.19111755
   0.75000046  0.24999954  0.19111755
  -0.00000000  0.00000000  0.24521434
   0.49999908  0.49999908  0.24521434
   0.00000000 -0.00000000  0.32102145
   0.49999908  0.49999908  0.32102145
   0.00000000 -0.00000000  0.93051843
   0.49999908  0.49999908  0.93051843
Direct configuration=     3
   0.00000000  0.00000000  0.00325010
   0.49999908  0.49999908  0.00325010
   0.24999954  0.24999954  0.06127792
   0.75000046  0.75000046  0.06127792
   0.00000000  0.49999908  0.12576994
   0.49999908 -0.00000000  0.12576994
   0.24999954  0.75000046  0.19026242
   0.75000046  0.24999954  0.19026242
  -0.00000000  0.00000000  0.24829024
   0.49999908  0.49999908  0.24829024
   0.00000000 -0.00000000  0.31900705
   0.49999908  0.49999908  0.31900705
   0.00000000 -0.00000000  0.93253283
   0.49999908  0.49999908  0.93253283
Direct configuration=     4
   0.00000000  0.00000000  0.00239298
   0.49999908  0.49999908  0.00239298
   0.24999954  0.24999954  0.06088694
   0.75000046  0.75000046  0.06088694
  -0.00000000  0.49999908  0.12576994
   0.49999908 -0.00000000  0.12576994
   0.24999954  0.75000046  0.19065340
   0.75000046  0.24999954  0.19065340
  -0.00000000  0.00000000  0.24914736
   0.49999908  0.49999908  0.24914736
  -0.00000000 -0.00000000  0.31826567
   0.49999908  0.49999908  0.31826567
  -0.00000000 -0.00000000  0.93327420
   0.49999908  0.49999908  0.93327420
Direct configuration=     5
   0.00000000  0.00000000  0.00253437
   0.49999908  0.49999908  0.00253437
   0.24999954  0.24999954  0.06075123
   0.75000046  0.75000046  0.06075123
  -0.00000000  0.49999908  0.12576994
   0.49999908 -0.00000000  0.12576994
   0.24999954  0.75000046  0.19078911
   0.75000046  0.24999954  0.19078911
  -0.00000000  0.00000000  0.24900597
   0.49999908  0.49999908  0.24900597
  -0.00000000 -0.00000000  0.31850779
   0.49999908  0.49999908  0.31850779
  -0.00000000 -0.00000000  0.93303209
   0.49999908  0.49999908  0.93303209
Direct configuration=     6
   0.00000000  0.00000000  0.00242325
   0.49999908  0.49999908  0.00242325
   0.24999954  0.24999954  0.06069776
   0.75000046  0.75000046  0.06069776
  -0.00000000  0.49999908  0.12576994
   0.49999908 -0.00000000  0.12576994
   0.24999954  0.75000046  0.19084258
   0.75000046  0.24999954  0.19084258
  -0.00000000  0.00000000  0.24911709
   0.49999908  0.49999908  0.24911709
  -0.00000000 -0.00000000  0.31850661
   0.49999908  0.49999908  0.31850661
  -0.00000000 -0.00000000  0.93303326
   0.49999908  0.49999908  0.93303326
