unknown system                          
   1.00000000000000     
     2.573869    0.000000    0.000000
     1.286934    2.229036    0.000000
     0.000000    0.000000   30.304665
   Cu   H 
     4     1
Direct
  0.000000  0.000000  0.396427
  0.333333  0.333333  0.465162
  0.666667  0.666667  0.533889
  0.000000  0.000000  0.606712
  0.666667  0.666667  0.634829
 
   20   20  240
 0.47646E-01 0.43799E-01 0.34305E-01 0.22835E-01 0.12944E-01 0.65160E-02 0.31517E-02 0.10301E-02 -.12005E-02 -.32940E-02
 -.41417E-02 -.32498E-02 -.12004E-02 0.11110E-02 0.34732E-02 0.68500E-02 0.12944E-01 0.22646E-01 0.34344E-01 0.44022E-01
 0.43799E-01 0.37250E-01 0.27341E-01 0.17031E-01 0.87879E-02 0.36659E-02 0.60863E-03 -.21640E-02 -.48446E-02 -.60746E-02
 -.51758E-02 -.30863E-02 -.97217E-03 0.10097E-02 0.35812E-02 0.80364E-02 0.15789E-01 0.26708E-01 0.37698E-01 0.44237E-01
 0.34305E-01 0.27341E-01 0.18678E-01 0.10161E-01 0.35431E-02 -.94727E-03 -.49111E-02 -.92567E-02 -.12524E-01 -.12960E-01
 -.10952E-01 -.80778E-02 -.49487E-02 -.12675E-02 0.32592E-02 0.92947E-02 0.17709E-01 0.27530E-01 0.35236E-01 0.37576E-01
 0.22835E-01 0.17031E-01 0.10161E-01 0.34592E-02 -.20621E-02 -.73320E-02 -.13891E-01 -.20727E-01 -.24710E-01 -.24295E-01
 -.20628E-01 -.15164E-01 -.85371E-02 -.17086E-02 0.43239E-02 0.10154E-01 0.16959E-01 0.23679E-01 0.27409E-01 0.26762E-01
 0.12944E-01 0.87879E-02 0.35431E-02 -.20621E-02 -.82544E-02 -.16730E-01 -.27398E-01 -.36442E-01 -.39712E-01 -.36565E-01
 -.28932E-01 -.18769E-01 -.82562E-02 -.11109E-03 0.47982E-02 0.85572E-02 0.12940E-01 0.16669E-01 0.17649E-01 0.15986E-01
 0.65160E-02 0.36659E-02 -.94727E-03 -.73320E-02 -.16730E-01 -.29945E-01 -.43733E-01 -.52065E-01 -.51582E-01 -.43569E-01
 -.31095E-01 -.17278E-01 -.58446E-02 0.52358E-03 0.30546E-02 0.52493E-02 0.81388E-02 0.98219E-02 0.93944E-02 0.81010E-02
 0.31517E-02 0.60863E-03 -.49111E-02 -.13891E-01 -.27398E-01 -.43733E-01 -.56787E-01 -.60736E-01 -.54969E-01 -.42750E-01
 -.27679E-01 -.13481E-01 -.40247E-02 -.25002E-03 0.10103E-02 0.27276E-02 0.42539E-02 0.41065E-02 0.33184E-02 0.33651E-02
 0.10301E-02 -.21640E-02 -.92567E-02 -.20727E-01 -.36442E-01 -.52065E-01 -.60736E-01 -.59294E-01 -.49958E-01 -.36322E-01
 -.21395E-01 -.89910E-02 -.23678E-02 -.71097E-03 -.45839E-03 -.23029E-03 -.10697E-02 -.23541E-02 -.17687E-02 0.43660E-03
 -.12005E-02 -.48446E-02 -.12524E-01 -.24710E-01 -.39712E-01 -.51582E-01 -.54969E-01 -.49958E-01 -.39714E-01 -.26550E-01
 -.13130E-01 -.38639E-02 -.11959E-02 -.28231E-02 -.53915E-02 -.81975E-02 -.10794E-01 -.10629E-01 -.65977E-02 -.20700E-02
 -.32940E-02 -.60746E-02 -.12960E-01 -.24295E-01 -.36565E-01 -.43569E-01 -.42750E-01 -.36322E-01 -.26550E-01 -.14766E-01
 -.47274E-02 -.13212E-02 -.49867E-02 -.11590E-01 -.17860E-01 -.22718E-01 -.24000E-01 -.19395E-01 -.11095E-01 -.47363E-02
 -.41417E-02 -.51758E-02 -.10952E-01 -.20628E-01 -.28932E-01 -.31095E-01 -.27679E-01 -.21395E-01 -.13130E-01 -.47274E-02
 -.13610E-02 -.64567E-02 -.17100E-01 -.27923E-01 -.36214E-01 -.40244E-01 -.37145E-01 -.26887E-01 -.14961E-01 -.70842E-02
 -.32498E-02 -.30863E-02 -.80778E-02 -.15164E-01 -.18769E-01 -.17278E-01 -.13481E-01 -.89910E-02 -.38639E-02 -.13212E-02
 -.64567E-02 -.19346E-01 -.34492E-01 -.47168E-01 -.55335E-01 -.56158E-01 -.47205E-01 -.31744E-01 -.17247E-01 -.79187E-02
 -.12004E-02 -.97217E-03 -.49487E-02 -.85371E-02 -.82562E-02 -.58446E-02 -.40247E-02 -.23678E-02 -.11959E-02 -.49867E-02
 -.17100E-01 -.34492E-01 -.51406E-01 -.64490E-01 -.70931E-01 -.66646E-01 -.51405E-01 -.32102E-01 -.16455E-01 -.64848E-02
 0.11110E-02 0.10097E-02 -.12675E-02 -.17086E-02 -.11109E-03 0.52358E-03 -.25002E-03 -.71097E-03 -.28231E-02 -.11590E-01
 -.27923E-01 -.47168E-01 -.64490E-01 -.76516E-01 -.78627E-01 -.67485E-01 -.47120E-01 -.26857E-01 -.12399E-01 -.33963E-02
 0.34732E-02 0.35812E-02 0.32592E-02 0.43239E-02 0.47982E-02 0.30546E-02 0.10103E-02 -.45839E-03 -.53915E-02 -.17860E-01
 -.36214E-01 -.55335E-01 -.70931E-01 -.78627E-01 -.73713E-01 -.56608E-01 -.35289E-01 -.18125E-01 -.69604E-02 0.96160E-04
 0.68500E-02 0.80364E-02 0.92947E-02 0.10154E-01 0.85572E-02 0.52493E-02 0.27276E-02 -.23029E-03 -.81975E-02 -.22718E-01
 -.40244E-01 -.56158E-01 -.66646E-01 -.67485E-01 -.56608E-01 -.38517E-01 -.21508E-01 -.97718E-02 -.18631E-02 0.38043E-02
 0.12944E-01 0.15789E-01 0.17709E-01 0.16959E-01 0.12940E-01 0.81388E-02 0.42539E-02 -.10697E-02 -.10794E-01 -.24000E-01
 -.37145E-01 -.47205E-01 -.51405E-01 -.47120E-01 -.35289E-01 -.21508E-01 -.10792E-01 -.32045E-02 0.33598E-02 0.90019E-02
 0.22646E-01 0.26708E-01 0.27530E-01 0.23679E-01 0.16669E-01 0.98219E-02 0.41065E-02 -.23541E-02 -.10629E-01 -.19395E-01
 -.26887E-01 -.31744E-01 -.32102E-01 -.26857E-01 -.18125E-01 -.97718E-02 -.32045E-02 0.31000E-02 0.10116E-01 0.16934E-01
 0.34344E-01 0.37698E-01 0.35236E-01 0.27409E-01 0.17649E-01 0.93944E-02 0.33184E-02 -.17687E-02 -.65977E-02 -.11095E-01
 -.14961E-01 -.17247E-01 -.16455E-01 -.12399E-01 -.69604E-02 -.18631E-02 0.33598E-02 0.10116E-01 0.18499E-01 0.27186E-01
 0.44022E-01 0.44237E-01 0.37576E-01 0.26762E-01 0.15986E-01 0.81010E-02 0.33651E-02 0.43660E-03 -.20700E-02 -.47363E-02
 -.70842E-02 -.79187E-02 -.64848E-02 -.33963E-02 0.96160E-04 0.38043E-02 0.90019E-02 0.16934E-01 0.27186E-01 0.37371E-01
 -.22351E-01 -.20575E-01 -.16456E-01 -.11054E-01 -.56417E-02 -.16245E-02 0.29778E-03 0.61456E-03 0.24247E-03 -.31559E-03
 -.74827E-03 -.58736E-03 0.24325E-03 0.94143E-03 0.44804E-03 -.17423E-02 -.56430E-02 -.10967E-01 -.16689E-01 -.20988E-01
 -.20575E-01 -.17670E-01 -.12630E-01 -.71734E-02 -.29081E-02 -.60073E-03 -.86984E-04 -.57824E-03 -.11028E-02 -.10203E-02
 -.34488E-03 0.44204E-03 0.84222E-03 0.49487E-03 -.96717E-03 -.38619E-02 -.81144E-02 -.13062E-01 -.17599E-01 -.20457E-01
 -.16456E-01 -.12630E-01 -.77528E-02 -.38741E-02 -.16796E-02 -.78939E-03 -.76864E-03 -.10941E-02 -.99648E-03 -.27877E-03
 0.29272E-03 0.11142E-03 -.44957E-03 -.10062E-02 -.21485E-02 -.46461E-02 -.83051E-02 -.12262E-01 -.15668E-01 -.17463E-01
 -.11054E-01 -.71734E-02 -.38741E-02 -.21617E-02 -.12497E-02 -.61337E-03 -.57417E-03 -.90556E-03 -.84307E-03 -.58888E-03
 -.98577E-03 -.16962E-02 -.15864E-02 -.95080E-03 -.14652E-02 -.38032E-02 -.69990E-02 -.10080E-01 -.12506E-01 -.13164E-01
 -.56417E-02 -.29081E-02 -.16796E-02 -.12497E-02 -.50038E-03 -.91867E-04 -.84577E-03 -.18457E-02 -.20654E-02 -.20962E-02
 -.24544E-02 -.20907E-02 -.50183E-03 0.53970E-03 -.65529E-03 -.32720E-02 -.56460E-02 -.74838E-02 -.87174E-02 -.82095E-02
 -.16245E-02 -.60073E-03 -.78939E-03 -.61337E-03 -.91867E-04 -.82660E-03 -.26258E-02 -.34743E-02 -.29451E-02 -.24327E-02
 -.20652E-02 -.72253E-03 0.89910E-03 0.66616E-03 -.13988E-02 -.31066E-02 -.36992E-02 -.42654E-02 -.47010E-02 -.36656E-02
 0.29778E-03 -.86984E-04 -.76864E-03 -.57417E-03 -.84577E-03 -.26258E-02 -.40539E-02 -.33917E-02 -.19942E-02 -.15824E-02
 -.12947E-02 -.14608E-03 0.41812E-03 -.74389E-03 -.19130E-02 -.14785E-02 -.78274E-03 -.13003E-02 -.17449E-02 -.75224E-03
 0.61456E-03 -.57824E-03 -.10941E-02 -.90556E-03 -.18457E-02 -.34743E-02 -.33917E-02 -.17515E-02 -.11266E-02 -.18438E-02
 -.17626E-02 -.65766E-03 -.43215E-03 -.99176E-03 -.33528E-03 0.12109E-02 0.12553E-02 -.11642E-03 -.42295E-03 0.56711E-03
 0.24247E-03 -.11028E-02 -.99648E-03 -.84307E-03 -.20654E-02 -.29451E-02 -.19942E-02 -.11266E-02 -.20672E-02 -.29275E-02
 -.17346E-02 -.52040E-04 0.24609E-03 0.42784E-03 0.17946E-02 0.25588E-02 0.12613E-02 -.46999E-04 0.54527E-03 0.12892E-02
 -.31559E-03 -.10203E-02 -.27877E-03 -.58888E-03 -.20962E-02 -.24327E-02 -.15824E-02 -.18438E-02 -.29275E-02 -.21759E-02
 0.26140E-03 0.14866E-02 0.11142E-02 0.14924E-02 0.27278E-02 0.25571E-02 0.11713E-02 0.10809E-02 0.21224E-02 0.16412E-02
 -.74827E-03 -.34488E-03 0.29272E-03 -.98577E-03 -.24544E-02 -.20652E-02 -.12947E-02 -.17626E-02 -.17346E-02 0.26140E-03
 0.20154E-02 0.15706E-02 0.95001E-03 0.22750E-02 0.38041E-02 0.34902E-02 0.27938E-02 0.32898E-02 0.32107E-02 0.11062E-02
 -.58736E-03 0.44204E-03 0.11142E-03 -.16962E-02 -.20907E-02 -.72253E-03 -.14608E-03 -.65766E-03 -.52040E-04 0.14866E-02
 0.15706E-02 0.69797E-03 0.18274E-02 0.47690E-02 0.62182E-02 0.54359E-02 0.47424E-02 0.44586E-02 0.26815E-02 0.61508E-04
 0.24325E-03 0.84222E-03 -.44957E-03 -.15864E-02 -.50183E-03 0.89910E-03 0.41812E-03 -.43215E-03 0.24609E-03 0.11142E-02
 0.95001E-03 0.18274E-02 0.51365E-02 0.80743E-02 0.78915E-02 0.61390E-02 0.51378E-02 0.39445E-02 0.14550E-02 -.29520E-03
 0.94143E-03 0.49487E-03 -.10062E-02 -.95080E-03 0.53970E-03 0.66616E-03 -.74389E-03 -.99176E-03 0.42784E-03 0.14924E-02
 0.22750E-02 0.47690E-02 0.80743E-02 0.88928E-02 0.70049E-02 0.53553E-02 0.47013E-02 0.31411E-02 0.86174E-03 0.20718E-03
 0.44804E-03 -.96717E-03 -.21485E-02 -.14652E-02 -.65529E-03 -.13988E-02 -.19130E-02 -.33528E-03 0.17946E-02 0.27278E-02
 0.38041E-02 0.62182E-02 0.78915E-02 0.70049E-02 0.53824E-02 0.50201E-02 0.45529E-02 0.24842E-02 0.54081E-03 0.40876E-03
 -.17423E-02 -.38619E-02 -.46461E-02 -.38032E-02 -.32720E-02 -.31066E-02 -.14785E-02 0.12109E-02 0.25588E-02 0.25571E-02
 0.34902E-02 0.54359E-02 0.61390E-02 0.53553E-02 0.50201E-02 0.51080E-02 0.36714E-02 0.10299E-02 -.41553E-03 -.60018E-03
 -.56430E-02 -.81144E-02 -.83051E-02 -.69990E-02 -.56460E-02 -.36992E-02 -.78274E-03 0.12553E-02 0.12613E-02 0.11713E-02
 0.27938E-02 0.47424E-02 0.51378E-02 0.47013E-02 0.45529E-02 0.36714E-02 0.12630E-02 -.10108E-02 -.18908E-02 -.29771E-02
 -.10967E-01 -.13062E-01 -.12262E-01 -.10080E-01 -.74838E-02 -.42654E-02 -.13003E-02 -.11642E-03 -.46999E-04 0.10809E-02
 0.32898E-02 0.44586E-02 0.39445E-02 0.31411E-02 0.24842E-02 0.10299E-02 -.10108E-02 -.24621E-02 -.38976E-02 -.69750E-02
 -.16689E-01 -.17599E-01 -.15668E-01 -.12506E-01 -.87174E-02 -.47010E-02 -.17449E-02 -.42295E-03 0.54527E-03 0.21224E-02
 0.32107E-02 0.26815E-02 0.14550E-02 0.86174E-03 0.54081E-03 -.41553E-03 -.18908E-02 -.38976E-02 -.74645E-02 -.12547E-01
 -.20988E-01 -.20457E-01 -.17463E-01 -.13164E-01 -.82095E-02 -.36656E-02 -.75224E-03 0.56711E-03 0.12892E-02 0.16412E-02
 0.11062E-02 0.61508E-04 -.29520E-03 0.20718E-03 0.40876E-03 -.60018E-03 -.29771E-02 -.69750E-02 -.12547E-01 -.18043E-01
 -.47251E-01 -.43210E-01 -.34286E-01 -.23156E-01 -.12552E-01 -.50580E-02 -.13990E-02 0.18192E-03 0.15472E-02 0.26156E-02
 0.26353E-02 0.20275E-02 0.15473E-02 0.75287E-03 -.14213E-02 -.56275E-02 -.12554E-01 -.22792E-01 -.34791E-01 -.44259E-01
 -.43210E-01 -.36953E-01 -.26907E-01 -.16130E-01 -.75188E-02 -.25051E-02 -.19250E-03 0.14738E-02 0.34636E-02 0.51120E-02
 0.55645E-02 0.47960E-02 0.31238E-02 0.57101E-03 -.31528E-02 -.86755E-02 -.16771E-01 -.27139E-01 -.37260E-01 -.43411E-01
 -.34286E-01 -.26907E-01 -.17551E-01 -.93079E-02 -.35323E-02 0.49096E-03 0.42654E-02 0.85184E-02 0.12510E-01 0.14574E-01
 0.13518E-01 0.97521E-02 0.49417E-02 0.37854E-03 -.41848E-02 -.99855E-02 -.17689E-01 -.26363E-01 -.33643E-01 -.36801E-01
 -.23156E-01 -.16130E-01 -.93079E-02 -.40096E-02 0.10409E-02 0.73342E-02 0.14713E-01 0.21709E-01 0.26282E-01 0.26375E-01
 0.21451E-01 0.13741E-01 0.65922E-02 0.12859E-02 -.34800E-02 -.91592E-02 -.15710E-01 -.22052E-01 -.26559E-01 -.27228E-01
 -.12552E-01 -.75188E-02 -.35323E-02 0.10409E-02 0.86202E-02 0.18842E-01 0.29126E-01 0.36954E-01 0.40053E-01 0.36577E-01
 0.27442E-01 0.16882E-01 0.86188E-02 0.26686E-02 -.27404E-02 -.80168E-02 -.12553E-01 -.16140E-01 -.18104E-01 -.16913E-01
 -.50580E-02 -.25051E-02 0.49096E-03 0.73342E-02 0.18842E-01 0.31952E-01 0.43252E-01 0.50475E-01 0.51051E-01 0.43475E-01
 0.30624E-01 0.18129E-01 0.88729E-02 0.19314E-02 -.34920E-02 -.67563E-02 -.82565E-02 -.93969E-02 -.98425E-02 -.81537E-02
 -.13990E-02 -.19250E-03 0.42654E-02 0.14713E-01 0.29126E-01 0.43252E-01 0.54364E-01 0.59957E-01 0.56668E-01 0.44355E-01
 0.28507E-01 0.15158E-01 0.57560E-02 -.64544E-03 -.36810E-02 -.34186E-02 -.24972E-02 -.29552E-02 -.34849E-02 -.26009E-02
 0.18192E-03 0.14738E-02 0.85184E-02 0.21709E-01 0.36954E-01 0.50475E-01 0.59957E-01 0.61798E-01 0.53067E-01 0.36838E-01
 0.20661E-01 0.91267E-02 0.19725E-02 -.12893E-02 -.27647E-03 0.27691E-02 0.38654E-02 0.24066E-02 0.10410E-02 0.63510E-03
 0.15472E-02 0.34636E-02 0.12510E-01 0.26282E-01 0.40053E-01 0.51051E-01 0.56668E-01 0.53067E-01 0.40053E-01 0.23952E-01
 0.11639E-01 0.45841E-02 0.15480E-02 0.27474E-02 0.74154E-02 0.11314E-01 0.11155E-01 0.85305E-02 0.61213E-02 0.37186E-02
 0.26156E-02 0.51120E-02 0.14574E-01 0.26375E-01 0.36577E-01 0.43475E-01 0.44355E-01 0.36838E-01 0.23952E-01 0.12586E-01
 0.63291E-02 0.42463E-02 0.59224E-02 0.11944E-01 0.19476E-01 0.23256E-01 0.21764E-01 0.17714E-01 0.12709E-01 0.67285E-02
 0.26353E-02 0.55645E-02 0.13518E-01 0.21451E-01 0.27442E-01 0.30624E-01 0.28507E-01 0.20661E-01 0.11639E-01 0.63291E-02
 0.53841E-02 0.81177E-02 0.15612E-01 0.27027E-01 0.36742E-01 0.39519E-01 0.35653E-01 0.28020E-01 0.17995E-01 0.78153E-02
 0.20275E-02 0.47960E-02 0.97521E-02 0.13741E-01 0.16882E-01 0.18129E-01 0.15158E-01 0.91267E-02 0.45841E-02 0.42463E-02
 0.81177E-02 0.17058E-01 0.31686E-01 0.47583E-01 0.57000E-01 0.56259E-01 0.47567E-01 0.34200E-01 0.18924E-01 0.65603E-02
 0.15473E-02 0.31238E-02 0.49417E-02 0.65922E-02 0.86188E-02 0.88729E-02 0.57560E-02 0.19725E-02 0.15480E-02 0.59224E-02
 0.15612E-01 0.31686E-01 0.51754E-01 0.67928E-01 0.72931E-01 0.66213E-01 0.51756E-01 0.33530E-01 0.15978E-01 0.46032E-02
 0.75287E-03 0.57101E-03 0.37854E-03 0.12859E-02 0.26686E-02 0.19314E-02 -.64544E-03 -.12893E-02 0.27474E-02 0.11944E-01
 0.27027E-01 0.47583E-01 0.67928E-01 0.79352E-01 0.77687E-01 0.65486E-01 0.47400E-01 0.27695E-01 0.11493E-01 0.28786E-02
 -.14213E-02 -.31528E-02 -.41848E-02 -.34800E-02 -.27404E-02 -.34920E-02 -.36810E-02 -.27647E-03 0.74154E-02 0.19476E-01
 0.36742E-01 0.57000E-01 0.72931E-01 0.77687E-01 0.70696E-01 0.55876E-01 0.37314E-01 0.19253E-01 0.64764E-02 0.65649E-03
 -.56275E-02 -.86755E-02 -.99855E-02 -.91592E-02 -.80168E-02 -.67563E-02 -.34186E-02 0.27691E-02 0.11314E-01 0.23256E-01
 0.39519E-01 0.56259E-01 0.66213E-01 0.65486E-01 0.55876E-01 0.41024E-01 0.24271E-01 0.98301E-02 0.11513E-02 -.27367E-02
 -.12554E-01 -.16771E-01 -.17689E-01 -.15710E-01 -.12553E-01 -.82565E-02 -.24972E-02 0.38654E-02 0.11155E-01 0.21764E-01
 0.35653E-01 0.47567E-01 0.51756E-01 0.47400E-01 0.37314E-01 0.24271E-01 0.11157E-01 0.14695E-02 -.38184E-02 -.76762E-02
 -.22792E-01 -.27139E-01 -.26363E-01 -.22052E-01 -.16140E-01 -.93969E-02 -.29552E-02 0.24066E-02 0.85305E-02 0.17714E-01
 0.28020E-01 0.34200E-01 0.33530E-01 0.27695E-01 0.19253E-01 0.98301E-02 0.14695E-02 -.42737E-02 -.89582E-02 -.15389E-01
 -.34791E-01 -.37260E-01 -.33643E-01 -.26559E-01 -.18104E-01 -.98425E-02 -.34849E-02 0.10410E-02 0.61213E-02 0.12709E-01
 0.17995E-01 0.18924E-01 0.15978E-01 0.11493E-01 0.64764E-02 0.11513E-02 -.38184E-02 -.89582E-02 -.16449E-01 -.26417E-01
 -.44259E-01 -.43411E-01 -.36801E-01 -.27228E-01 -.16913E-01 -.81537E-02 -.26009E-02 0.63510E-03 0.37186E-02 0.67285E-02
 0.78153E-02 0.65603E-02 0.46032E-02 0.28786E-02 0.65649E-03 -.27367E-02 -.76762E-02 -.15389E-01 -.26417E-01 -.37757E-01
 0.21129E-01 0.20314E-01 0.15595E-01 0.97058E-02 0.56236E-02 0.33437E-02 0.15538E-02 0.34458E-03 0.14526E-03 0.32712E-04
 -.66300E-03 -.87122E-03 0.14427E-03 0.11581E-02 0.13578E-02 0.23226E-02 0.56226E-02 0.10347E-01 0.14818E-01 0.18629E-01
 0.20314E-01 0.17210E-01 0.11910E-01 0.71754E-02 0.41425E-02 0.19806E-02 0.24578E-03 -.44120E-03 -.76715E-04 0.38990E-03
 0.62029E-03 0.10442E-02 0.14378E-02 0.11892E-02 0.10507E-02 0.27831E-02 0.68336E-02 0.11879E-01 0.16525E-01 0.19793E-01
 0.15595E-01 0.11910E-01 0.77396E-02 0.43045E-02 0.18545E-02 0.29451E-03 -.18565E-03 0.45707E-03 0.15777E-02 0.23075E-02
 0.23047E-02 0.17190E-02 0.84740E-03 0.28633E-03 0.10189E-02 0.37216E-02 0.80161E-02 0.12630E-01 0.16093E-01 0.17230E-01
 0.97058E-02 0.71754E-02 0.43045E-02 0.17123E-02 0.40546E-03 0.64090E-03 0.16610E-02 0.26806E-02 0.33407E-02 0.32736E-02
 0.22447E-02 0.83895E-03 0.13075E-03 0.59784E-03 0.20755E-02 0.45304E-02 0.78408E-02 0.10940E-01 0.12345E-01 0.11664E-01
 0.56236E-02 0.41425E-02 0.18545E-02 0.40546E-03 0.10869E-02 0.26999E-02 0.34702E-02 0.34699E-02 0.34380E-02 0.29659E-02
 0.17113E-02 0.77926E-03 0.10865E-02 0.18717E-02 0.24130E-02 0.35092E-02 0.56257E-02 0.73507E-02 0.74146E-02 0.65296E-02
 0.33437E-02 0.19806E-02 0.29451E-03 0.64090E-03 0.26999E-02 0.37572E-02 0.32136E-02 0.30220E-02 0.36445E-02 0.34648E-02
 0.23383E-02 0.19035E-02 0.22057E-02 0.17191E-02 0.80398E-03 0.14290E-02 0.33727E-02 0.43464E-02 0.38901E-02 0.35436E-02
 0.15538E-02 0.24578E-03 -.18565E-03 0.16610E-02 0.34702E-02 0.32136E-02 0.27507E-02 0.40452E-02 0.52988E-02 0.43756E-02
 0.26792E-02 0.21229E-02 0.16089E-02 -.25504E-05 -.79869E-03 0.76828E-03 0.25929E-02 0.24427E-02 0.15795E-02 0.16771E-02
 0.34458E-03 -.44120E-03 0.45707E-03 0.26806E-02 0.34699E-02 0.30220E-02 0.40452E-02 0.60870E-02 0.58587E-02 0.32353E-02
 0.14404E-02 0.12370E-02 0.41119E-03 -.99012E-03 -.52138E-03 0.14246E-02 0.17426E-02 0.19700E-03 -.39746E-03 0.39878E-03
 0.14526E-03 -.76715E-04 0.15777E-02 0.33407E-02 0.34380E-02 0.36445E-02 0.52988E-02 0.58587E-02 0.34412E-02 0.76687E-03
 0.57452E-03 0.11136E-02 0.14307E-03 -.72901E-03 0.22264E-03 0.90116E-03 -.61287E-03 -.20595E-02 -.11156E-02 0.35244E-03
 0.32712E-04 0.38990E-03 0.23075E-02 0.32736E-02 0.29659E-02 0.34648E-02 0.43756E-02 0.32353E-02 0.76687E-03 0.23101E-03
 0.15428E-02 0.14908E-02 -.27977E-03 -.10373E-02 -.55945E-03 -.12799E-02 -.28777E-02 -.24363E-02 -.13596E-03 0.80671E-03
 -.66300E-03 0.62029E-03 0.23047E-02 0.22447E-02 0.17113E-02 0.23383E-02 0.26792E-02 0.14404E-02 0.57452E-03 0.15428E-02
 0.20700E-02 0.20070E-03 -.20016E-02 -.23061E-02 -.21481E-02 -.30931E-02 -.33163E-02 -.13348E-02 0.50277E-03 0.60310E-04
 -.87122E-03 0.10442E-02 0.17190E-02 0.83895E-03 0.77926E-03 0.19035E-02 0.21229E-02 0.12370E-02 0.11136E-02 0.14908E-02
 0.20070E-03 -.23583E-02 -.35097E-02 -.30408E-02 -.31538E-02 -.38525E-02 -.30454E-02 -.11154E-02 -.61296E-03 -.14049E-02
 0.14427E-03 0.14378E-02 0.84740E-03 0.13075E-03 0.10865E-02 0.22057E-02 0.16089E-02 0.41119E-03 0.14307E-03 -.27977E-03
 -.20016E-02 -.35097E-02 -.34333E-02 -.32237E-02 -.41810E-02 -.47172E-02 -.34319E-02 -.19402E-02 -.17749E-02 -.15075E-02
 0.11581E-02 0.11892E-02 0.28633E-03 0.59784E-03 0.18717E-02 0.17191E-02 -.25504E-05 -.99012E-03 -.72901E-03 -.10373E-02
 -.23061E-02 -.30408E-02 -.32237E-02 -.43026E-02 -.57438E-02 -.53873E-02 -.33381E-02 -.18364E-02 -.13073E-02 -.24596E-03
 0.13578E-02 0.10507E-02 0.10189E-02 0.20755E-02 0.24130E-02 0.80398E-03 -.79869E-03 -.52138E-03 0.22264E-03 -.55945E-03
 -.21481E-02 -.31538E-02 -.41810E-02 -.57438E-02 -.61404E-02 -.42006E-02 -.17533E-02 -.76080E-03 -.40015E-03 0.60023E-03
 0.23226E-02 0.27831E-02 0.37216E-02 0.45304E-02 0.35092E-02 0.14290E-02 0.76828E-03 0.14246E-02 0.90116E-03 -.12799E-02
 -.30931E-02 -.38525E-02 -.47172E-02 -.53873E-02 -.42006E-02 -.17021E-02 -.36672E-03 -.53744E-03 -.18278E-03 0.12547E-02
 0.56226E-02 0.68336E-02 0.80161E-02 0.78408E-02 0.56257E-02 0.33727E-02 0.25929E-02 0.17426E-02 -.61287E-03 -.28777E-02
 -.33163E-02 -.30454E-02 -.34319E-02 -.33381E-02 -.17533E-02 -.36672E-03 -.61171E-03 -.78184E-03 0.10596E-02 0.38108E-02
 0.10347E-01 0.11879E-01 0.12630E-01 0.10940E-01 0.73507E-02 0.43464E-02 0.24427E-02 0.19700E-03 -.20595E-02 -.24363E-02
 -.13348E-02 -.11154E-02 -.19402E-02 -.18364E-02 -.76080E-03 -.53744E-03 -.78184E-03 0.96752E-03 0.48540E-02 0.83424E-02
 0.14818E-01 0.16525E-01 0.16093E-01 0.12345E-01 0.74146E-02 0.38901E-02 0.15795E-02 -.39746E-03 -.11156E-02 -.13596E-03
 0.50277E-03 -.61296E-03 -.17749E-02 -.13073E-02 -.40015E-03 -.18278E-03 0.10596E-02 0.48540E-02 0.94688E-02 0.12669E-01
 0.18629E-01 0.19793E-01 0.17230E-01 0.11664E-01 0.65296E-02 0.35436E-02 0.16771E-02 0.39878E-03 0.35244E-03 0.80671E-03
 0.60310E-04 -.14049E-02 -.15075E-02 -.24596E-03 0.60023E-03 0.12547E-02 0.38108E-02 0.83424E-02 0.12669E-01 0.15899E-01
 0.47615E-01 0.45052E-01 0.34853E-01 0.22295E-01 0.12945E-01 0.74005E-02 0.34745E-02 0.53318E-03 -.11927E-02 -.26476E-02
 -.41258E-02 -.38668E-02 -.11936E-02 0.15904E-02 0.31054E-02 0.59277E-02 0.12944E-01 0.23213E-01 0.33805E-01 0.42732E-01
 0.45052E-01 0.38246E-01 0.26832E-01 0.16303E-01 0.92340E-02 0.42879E-02 0.10050E-03 -.29347E-02 -.46579E-02 -.56953E-02
 -.56863E-02 -.37473E-02 -.82661E-03 0.12222E-02 0.30743E-02 0.76723E-02 0.16262E-01 0.27001E-01 0.37181E-01 0.44211E-01
 0.34853E-01 0.26832E-01 0.17566E-01 0.99285E-02 0.40907E-02 -.10687E-02 -.57885E-02 -.95254E-02 -.11978E-01 -.12844E-01
 -.11532E-01 -.82356E-02 -.43992E-02 -.97382E-03 0.30707E-02 0.94403E-02 0.18258E-01 0.27728E-01 0.35208E-01 0.38067E-01
 0.22295E-01 0.16303E-01 0.99285E-02 0.38946E-02 -.17887E-02 -.76789E-02 -.14114E-01 -.20238E-01 -.24173E-01 -.24402E-01
 -.20854E-01 -.14786E-01 -.79562E-02 -.16488E-02 0.40909E-02 0.10232E-01 0.17214E-01 0.23661E-01 0.27183E-01 0.26489E-01
 0.12945E-01 0.92340E-02 0.40907E-02 -.17887E-02 -.82643E-02 -.16672E-01 -.27071E-01 -.36116E-01 -.39714E-01 -.36748E-01
 -.28905E-01 -.18552E-01 -.82628E-02 -.48324E-03 0.44168E-02 0.84660E-02 0.12948E-01 0.16415E-01 0.17120E-01 0.15548E-01
 0.74005E-02 0.42879E-02 -.10687E-02 -.76789E-02 -.16672E-01 -.29706E-01 -.43851E-01 -.52446E-01 -.51777E-01 -.43570E-01
 -.31214E-01 -.17551E-01 -.60885E-02 0.33959E-03 0.29221E-02 0.52689E-02 0.82364E-02 0.97460E-02 0.92806E-02 0.84778E-02
 0.34745E-02 0.10050E-03 -.57885E-02 -.14114E-01 -.27071E-01 -.43851E-01 -.57429E-01 -.60991E-01 -.54637E-01 -.42629E-01
 -.28033E-01 -.13636E-01 -.36927E-02 0.55084E-04 0.10524E-02 0.28674E-02 0.45711E-02 0.43113E-02 0.35313E-02 0.38658E-02
 0.53318E-03 -.29347E-02 -.95254E-02 -.20238E-01 -.36116E-01 -.52446E-01 -.60991E-01 -.58749E-01 -.49366E-01 -.36469E-01
 -.21670E-01 -.85750E-02 -.17299E-02 -.66420E-03 -.71372E-03 -.11526E-03 -.79086E-03 -.24237E-02 -.20329E-02 0.21278E-03
 -.11927E-02 -.46579E-02 -.11978E-01 -.24173E-01 -.39714E-01 -.51777E-01 -.54637E-01 -.49366E-01 -.39709E-01 -.26992E-01
 -.13113E-01 -.33970E-02 -.11963E-02 -.34307E-02 -.57484E-02 -.80251E-02 -.10802E-01 -.11161E-01 -.71302E-02 -.22404E-02
 -.26476E-02 -.56953E-02 -.12844E-01 -.24402E-01 -.36748E-01 -.43570E-01 -.42629E-01 -.36469E-01 -.26992E-01 -.15009E-01
 -.46064E-02 -.13617E-02 -.54827E-02 -.12013E-01 -.17736E-01 -.22446E-01 -.24148E-01 -.19725E-01 -.10974E-01 -.41162E-02
 -.41258E-02 -.56863E-02 -.11532E-01 -.20854E-01 -.28905E-01 -.31214E-01 -.28033E-01 -.21670E-01 -.13113E-01 -.46064E-02
 -.14098E-02 -.66193E-02 -.17088E-01 -.27635E-01 -.35872E-01 -.40093E-01 -.37119E-01 -.26685E-01 -.14461E-01 -.65967E-02
 -.38668E-02 -.37473E-02 -.82356E-02 -.14786E-01 -.18552E-01 -.17551E-01 -.13636E-01 -.85750E-02 -.33970E-02 -.13617E-02
 -.66193E-02 -.19043E-01 -.33979E-01 -.47030E-01 -.55489E-01 -.56146E-01 -.47025E-01 -.31704E-01 -.17418E-01 -.82730E-02
 -.11936E-02 -.82661E-03 -.43992E-02 -.79562E-02 -.82628E-02 -.60885E-02 -.36927E-02 -.17299E-02 -.11963E-02 -.54827E-02
 -.17088E-01 -.33979E-01 -.51407E-01 -.65149E-01 -.71291E-01 -.66423E-01 -.51407E-01 -.32684E-01 -.17001E-01 -.66202E-02
 0.15904E-02 0.12222E-02 -.97382E-03 -.16488E-02 -.48324E-03 0.33959E-03 0.55084E-04 -.66420E-03 -.34307E-02 -.12013E-01
 -.27635E-01 -.47030E-01 -.65149E-01 -.77104E-01 -.78322E-01 -.67036E-01 -.47442E-01 -.27363E-01 -.12102E-01 -.25961E-02
 0.31054E-02 0.30743E-02 0.30707E-02 0.40909E-02 0.44168E-02 0.29221E-02 0.10524E-02 -.71372E-03 -.57484E-02 -.17736E-01
 -.35872E-01 -.55489E-01 -.71291E-01 -.78322E-01 -.72975E-01 -.56459E-01 -.35653E-01 -.17915E-01 -.60546E-02 0.59686E-03
 0.59277E-02 0.76723E-02 0.94403E-02 0.10232E-01 0.84660E-02 0.52689E-02 0.28674E-02 -.11526E-03 -.80251E-02 -.22446E-01
 -.40093E-01 -.56146E-01 -.66423E-01 -.67036E-01 -.56459E-01 -.38814E-01 -.21633E-01 -.94187E-02 -.17132E-02 0.31582E-02
 0.12944E-01 0.16262E-01 0.18258E-01 0.17214E-01 0.12948E-01 0.82364E-02 0.45711E-02 -.79086E-03 -.10802E-01 -.24148E-01
 -.37119E-01 -.47025E-01 -.51407E-01 -.47442E-01 -.35653E-01 -.21633E-01 -.10803E-01 -.34456E-02 0.28255E-02 0.85339E-02
 0.23213E-01 0.27001E-01 0.27728E-01 0.23661E-01 0.16415E-01 0.97460E-02 0.43113E-02 -.24237E-02 -.11161E-01 -.19725E-01
 -.26685E-01 -.31704E-01 -.32684E-01 -.27363E-01 -.17915E-01 -.94187E-02 -.34456E-02 0.26800E-02 0.10324E-01 0.17648E-01
 0.33805E-01 0.37181E-01 0.35208E-01 0.27183E-01 0.17120E-01 0.92806E-02 0.35313E-02 -.20329E-02 -.71302E-02 -.10974E-01
 -.14461E-01 -.17418E-01 -.17001E-01 -.12102E-01 -.60546E-02 -.17132E-02 0.28255E-02 0.10324E-01 0.19574E-01 0.27688E-01
 0.42732E-01 0.44211E-01 0.38067E-01 0.26489E-01 0.15548E-01 0.84778E-02 0.38658E-02 0.21278E-03 -.22404E-02 -.41162E-02
 -.65967E-02 -.82730E-02 -.66202E-02 -.25961E-02 0.59686E-03 0.31582E-02 0.85339E-02 0.17648E-01 0.27688E-01 0.36363E-01
 -.19209E-01 -.16397E-01 -.13624E-01 -.10100E-01 -.48339E-02 -.38471E-03 0.74176E-03 0.12386E-03 0.17577E-03 0.18932E-03
 -.90185E-03 -.13454E-02 0.17591E-03 0.14270E-02 0.20067E-03 -.23097E-02 -.48349E-02 -.89043E-02 -.14945E-01 -.19355E-01
 -.16397E-01 -.14189E-01 -.11362E-01 -.68467E-02 -.19556E-02 0.20139E-03 -.58930E-03 -.14613E-02 -.11324E-02 -.92529E-03
 -.11372E-02 -.43054E-03 0.87734E-03 0.71105E-03 -.12966E-02 -.37194E-02 -.65848E-02 -.10992E-01 -.15635E-01 -.17560E-01
 -.13624E-01 -.11362E-01 -.77099E-02 -.35023E-02 -.91804E-03 -.95744E-03 -.19058E-02 -.18324E-02 -.10938E-02 -.87617E-03
 -.93042E-03 -.51470E-03 -.15920E-03 -.75962E-03 -.21245E-02 -.38977E-02 -.66023E-02 -.10286E-01 -.13412E-01 -.14492E-01
 -.10100E-01 -.68467E-02 -.35023E-02 -.14977E-02 -.10599E-02 -.13594E-02 -.15504E-02 -.15130E-02 -.16203E-02 -.20126E-02
 -.23107E-02 -.20733E-02 -.14035E-02 -.97319E-03 -.14700E-02 -.31222E-02 -.56875E-02 -.86002E-02 -.10958E-01 -.11664E-01
 -.48339E-02 -.19556E-02 -.91804E-03 -.10599E-02 -.96376E-03 -.96894E-03 -.19866E-02 -.34171E-02 -.41315E-02 -.41773E-02
 -.38973E-02 -.28102E-02 -.96086E-03 0.86352E-04 -.82123E-03 -.28569E-02 -.48307E-02 -.66865E-02 -.80984E-02 -.75962E-02
 -.38471E-03 0.20139E-03 -.95744E-03 -.13594E-02 -.96894E-03 -.21978E-02 -.50013E-02 -.65129E-02 -.57965E-02 -.46893E-02
 -.37934E-02 -.19297E-02 0.25673E-03 0.43650E-03 -.13519E-02 -.27344E-02 -.31006E-02 -.37465E-02 -.42190E-02 -.27850E-02
 0.74176E-03 -.58930E-03 -.19058E-02 -.15504E-02 -.19866E-02 -.50013E-02 -.75806E-02 -.67691E-02 -.45440E-02 -.37169E-02
 -.31151E-02 -.10559E-02 0.48925E-03 -.43457E-03 -.17512E-02 -.11673E-02 -.26488E-03 -.88450E-03 -.13325E-02 -.80337E-04
 0.12386E-03 -.14613E-02 -.18324E-02 -.15130E-02 -.34171E-02 -.65129E-02 -.67691E-02 -.43285E-02 -.31915E-02 -.38892E-02
 -.31358E-02 -.71184E-03 0.93752E-04 -.93832E-03 -.60618E-03 0.12448E-02 0.14059E-02 -.31581E-03 -.77110E-03 0.32615E-03
 0.17577E-03 -.11324E-02 -.10938E-02 -.16203E-02 -.41315E-02 -.57965E-02 -.45440E-02 -.31915E-02 -.41288E-02 -.46857E-02
 -.23611E-02 0.20090E-03 0.17253E-03 -.33634E-03 0.10944E-02 0.22185E-02 0.67266E-03 -.10938E-02 -.33121E-03 0.96222E-03
 0.18932E-03 -.92529E-03 -.87617E-03 -.20126E-02 -.41773E-02 -.46893E-02 -.37169E-02 -.38892E-02 -.46857E-02 -.31310E-02
 0.10001E-03 0.13054E-02 0.33024E-03 0.44954E-03 0.18761E-02 0.16274E-02 -.17959E-03 -.22524E-03 0.16254E-02 0.19756E-02
 -.90185E-03 -.11372E-02 -.93042E-03 -.23107E-02 -.38973E-02 -.37934E-02 -.31151E-02 -.31358E-02 -.23611E-02 0.10001E-03
 0.17977E-02 0.10325E-02 0.11072E-03 0.11293E-02 0.22379E-02 0.15519E-02 0.91261E-03 0.20591E-02 0.28616E-02 0.12189E-02
 -.13454E-02 -.43054E-03 -.51470E-03 -.20733E-02 -.28102E-02 -.19297E-02 -.10559E-02 -.71184E-03 0.20090E-03 0.13054E-02
 0.10325E-02 0.57570E-04 0.61528E-03 0.24249E-02 0.31160E-02 0.24993E-02 0.24403E-02 0.27733E-02 0.15661E-02 -.67014E-03
 0.17591E-03 0.87734E-03 -.15920E-03 -.14035E-02 -.96086E-03 0.25673E-03 0.48925E-03 0.93752E-04 0.17253E-03 0.33024E-03
 0.11072E-03 0.61528E-03 0.24311E-02 0.39346E-02 0.37531E-02 0.28783E-02 0.24295E-02 0.16372E-02 0.57165E-04 -.72081E-03
 0.14270E-02 0.71105E-03 -.75962E-03 -.97319E-03 0.86352E-04 0.43650E-03 -.43457E-03 -.93832E-03 -.33634E-03 0.44954E-03
 0.11293E-02 0.24249E-02 0.39346E-02 0.42108E-02 0.32132E-02 0.23214E-02 0.18966E-02 0.12033E-02 0.53929E-03 0.84981E-03
 0.20067E-03 -.12966E-02 -.21245E-02 -.14700E-02 -.82123E-03 -.13519E-02 -.17512E-02 -.60618E-03 0.10944E-02 0.18761E-02
 0.22379E-02 0.31160E-02 0.37531E-02 0.32132E-02 0.23410E-02 0.22210E-02 0.22824E-02 0.17199E-02 0.11038E-02 0.89488E-03
 -.23097E-02 -.37194E-02 -.38977E-02 -.31222E-02 -.28569E-02 -.27344E-02 -.11673E-02 0.12448E-02 0.22185E-02 0.16274E-02
 0.15519E-02 0.24993E-02 0.28783E-02 0.23214E-02 0.22210E-02 0.27226E-02 0.23445E-02 0.86865E-03 -.34754E-03 -.10731E-02
 -.48349E-02 -.65848E-02 -.66023E-02 -.56875E-02 -.48307E-02 -.31006E-02 -.26488E-03 0.14059E-02 0.67266E-03 -.17959E-03
 0.91261E-03 0.24403E-02 0.24295E-02 0.18966E-02 0.22824E-02 0.23445E-02 0.67010E-03 -.13832E-02 -.22250E-02 -.29419E-02
 -.89043E-02 -.10992E-01 -.10286E-01 -.86002E-02 -.66865E-02 -.37465E-02 -.88450E-03 -.31581E-03 -.10938E-02 -.22524E-03
 0.20591E-02 0.27733E-02 0.16372E-02 0.12033E-02 0.17199E-02 0.86865E-03 -.13832E-02 -.26718E-02 -.30936E-02 -.52098E-02
 -.14945E-01 -.15635E-01 -.13412E-01 -.10958E-01 -.80984E-02 -.42190E-02 -.13325E-02 -.77110E-03 -.33121E-03 0.16254E-02
 0.28616E-02 0.15661E-02 0.57165E-04 0.53929E-03 0.11038E-02 -.34754E-03 -.22250E-02 -.30936E-02 -.52428E-02 -.10271E-01
 -.19355E-01 -.17560E-01 -.14492E-01 -.11664E-01 -.75962E-02 -.27850E-02 -.80337E-04 0.32615E-03 0.96222E-03 0.19756E-02
 0.12189E-02 -.67014E-03 -.72081E-03 0.84981E-03 0.89488E-03 -.10731E-02 -.29419E-02 -.52098E-02 -.10271E-01 -.16570E-01
 -.47283E-01 -.41960E-01 -.33750E-01 -.23714E-01 -.12566E-01 -.41804E-02 -.10799E-02 -.31830E-03 0.15564E-02 0.32718E-02
 0.26649E-02 0.14204E-02 0.15572E-02 0.12309E-02 -.17936E-02 -.65584E-02 -.12567E-01 -.22240E-01 -.35344E-01 -.45557E-01
 -.41960E-01 -.35959E-01 -.27425E-01 -.16873E-01 -.70856E-02 -.18875E-02 -.69832E-03 0.70662E-03 0.36535E-02 0.54970E-02
 0.50643E-02 0.41473E-02 0.32770E-02 0.78150E-03 -.36695E-02 -.90506E-02 -.16308E-01 -.26856E-01 -.37789E-01 -.43447E-01