unknown system                          
   1.00000000000000     
     2.573869    0.000000    0.000000
     1.286934    2.229036    0.000000
     0.000000    0.000000   30.304665
   Cu   H 
     4     1
Direct
  0.000000  0.000000  0.396427
  0.333333  0.333333  0.465162
  0.666667  0.666667  0.533889
  0.000000  0.000000  0.606712
  0.666667  0.666667  0.634829
 
   20   20  240
 0.47645797575E-01 0.43798938357E-01 0.34304822794E-01 0.22834990235E-01 0.12943980530E-01
 0.65160229549E-02 0.31516845771E-02 0.10301083799E-02 -.12005054684E-02 -.32939664457E-02
 -.41416510013E-02 -.32498222521E-02 -.12003719571E-02 0.11109570352E-02 0.34731858354E-02
 0.68500410790E-02 0.12943878676E-01 0.22645745337E-01 0.34344214985E-01 0.44022021864E-01
 0.43798938357E-01 0.37249833019E-01 0.27340900318E-01 0.17030726098E-01 0.87878675117E-02
 0.36658897544E-02 0.60862998998E-03 -.21639748162E-02 -.48445520516E-02 -.60746485775E-02
 -.51758110721E-02 -.30862995163E-02 -.97216707054E-03 0.10097205504E-02 0.35812076172E-02
 0.80363634727E-02 0.15788863976E-01 0.26707526307E-01 0.37697832118E-01 0.44236573402E-01
 0.34304822794E-01 0.27340900319E-01 0.18677577267E-01 0.10160902901E-01 0.35430549629E-02
 -.94727350489E-03 -.49110782763E-02 -.92566935969E-02 -.12524429548E-01 -.12959823265E-01
 -.10952084868E-01 -.80777949941E-02 -.49486543420E-02 -.12674727920E-02 0.32591776096E-02
 0.92947492385E-02 0.17709107126E-01 0.27530165238E-01 0.35236170418E-01 0.37576003600E-01
 0.22834990235E-01 0.17030726098E-01 0.10160902900E-01 0.34592157502E-02 -.20621025368E-02
 -.73319989330E-02 -.13891448479E-01 -.20726729565E-01 -.24710434246E-01 -.24294762400E-01
 -.20628284078E-01 -.15164355887E-01 -.85371493929E-02 -.17085924036E-02 0.43239077086E-02
 0.10154060403E-01 0.16959041930E-01 0.23678747790E-01 0.27409011812E-01 0.26762125000E-01
 0.12943980529E-01 0.87878675120E-02 0.35430549629E-02 -.20621025367E-02 -.82543533676E-02
 -.16729736070E-01 -.27397624892E-01 -.36441754756E-01 -.39711701875E-01 -.36565403210E-01
 -.28931983343E-01 -.18768816613E-01 -.82561523613E-02 -.11108827143E-03 0.47981722493E-02
 0.85572024229E-02 0.12939529407E-01 0.16669013169E-01 0.17648641296E-01 0.15986380959E-01
 0.65160229551E-02 0.36658897547E-02 -.94727350476E-03 -.73319989328E-02 -.16729736070E-01
 -.29944683805E-01 -.43733289948E-01 -.52064873963E-01 -.51581862711E-01 -.43569497628E-01
 -.31094773135E-01 -.17278315689E-01 -.58446482528E-02 0.52358118290E-03 0.30545859745E-02
 0.52493281151E-02 0.81388121195E-02 0.98218506079E-02 0.93944095323E-02 0.81009673171E-02
 0.31516845770E-02 0.60862999018E-03 -.49110782762E-02 -.13891448479E-01 -.27397624892E-01
 -.43733289948E-01 -.56786583761E-01 -.60735853878E-01 -.54969120368E-01 -.42749985062E-01
 -.27678765294E-01 -.13480714596E-01 -.40246687998E-02 -.25001869695E-03 0.10103233587E-02
 0.27275528393E-02 0.42538525083E-02 0.41064889049E-02 0.33184050327E-02 0.33650630127E-02
 0.10301083800E-02 -.21639748159E-02 -.92566935969E-02 -.20726729565E-01 -.36441754757E-01
 -.52064873963E-01 -.60735853879E-01 -.59294057997E-01 -.49958447160E-01 -.36322393476E-01
 -.21394606169E-01 -.89909928978E-02 -.23678271681E-02 -.71097214291E-03 -.45839250538E-03
 -.23029244480E-03 -.10696718041E-02 -.23541184924E-02 -.17686717828E-02 0.43659535260E-03
 -.12005054686E-02 -.48445520517E-02 -.12524429548E-01 -.24710434246E-01 -.39711701875E-01
 -.51581862711E-01 -.54969120368E-01 -.49958447160E-01 -.39713683601E-01 -.26549660911E-01
 -.13129993988E-01 -.38639249752E-02 -.11958902773E-02 -.28231001632E-02 -.53914815401E-02
 -.81974500882E-02 -.10793512364E-01 -.10628622452E-01 -.65976892012E-02 -.20699534718E-02
 -.32939664457E-02 -.60746485775E-02 -.12959823265E-01 -.24294762400E-01 -.36565403211E-01
 -.43569497628E-01 -.42749985062E-01 -.36322393476E-01 -.26549660911E-01 -.14766101735E-01
 -.47273690136E-02 -.13211588921E-02 -.49866664037E-02 -.11589794205E-01 -.17860174513E-01
 -.22718433475E-01 -.23999966069E-01 -.19394522366E-01 -.11094585351E-01 -.47362874903E-02
 -.41416510015E-02 -.51758110723E-02 -.10952084868E-01 -.20628284078E-01 -.28931983343E-01
 -.31094773136E-01 -.27678765294E-01 -.21394606170E-01 -.13129993988E-01 -.47273690136E-02
 -.13610268433E-02 -.64566682686E-02 -.17100239984E-01 -.27923491420E-01 -.36213915258E-01
 -.40244450055E-01 -.37145103016E-01 -.26886648597E-01 -.14961488700E-01 -.70841504845E-02
 -.32498222523E-02 -.30862995163E-02 -.80777949941E-02 -.15164355887E-01 -.18768816613E-01
 -.17278315689E-01 -.13480714596E-01 -.89909928979E-02 -.38639249754E-02 -.13211588921E-02
 -.64566682686E-02 -.19346420787E-01 -.34491814545E-01 -.47168345398E-01 -.55334885953E-01
 -.56158094062E-01 -.47205306579E-01 -.31743838404E-01 -.17246741890E-01 -.79186691315E-02
 -.12003719573E-02 -.97216707061E-03 -.49486543421E-02 -.85371493931E-02 -.82561523614E-02
 -.58446482528E-02 -.40246687998E-02 -.23678271681E-02 -.11958902772E-02 -.49866664037E-02
 -.17100239984E-01 -.34491814544E-01 -.51405901049E-01 -.64490311599E-01 -.70930665979E-01
 -.66645568387E-01 -.51404595709E-01 -.32101629840E-01 -.16455454791E-01 -.64848125898E-02
 0.11109570351E-02 0.10097205508E-02 -.12674727919E-02 -.17085924034E-02 -.11108827144E-03
 0.52358118300E-03 -.25001869705E-03 -.71097214294E-03 -.28231001632E-02 -.11589794205E-01
 -.27923491420E-01 -.47168345399E-01 -.64490311599E-01 -.76516390421E-01 -.78626636160E-01
 -.67485197981E-01 -.47119539742E-01 -.26857061544E-01 -.12398634408E-01 -.33962838563E-02
 0.34731858353E-02 0.35812076173E-02 0.32591776096E-02 0.43239077085E-02 0.47981722493E-02
 0.30545859744E-02 0.10103233585E-02 -.45839250549E-03 -.53914815401E-02 -.17860174513E-01
 -.36213915258E-01 -.55334885953E-01 -.70930665979E-01 -.78626636160E-01 -.73712905575E-01
 -.56608032066E-01 -.35288965914E-01 -.18125177350E-01 -.69603620979E-02 0.96159934877E-04
 0.68500410791E-02 0.80363634730E-02 0.92947492387E-02 0.10154060403E-01 0.85572024230E-02
 0.52493281151E-02 0.27275528392E-02 -.23029244494E-03 -.81974500884E-02 -.22718433475E-01
 -.40244450055E-01 -.56158094062E-01 -.66645568387E-01 -.67485197981E-01 -.56608032066E-01
 -.38517350854E-01 -.21508040357E-01 -.97717843799E-02 -.18630561558E-02 0.38043496753E-02
 0.12943878676E-01 0.15788863976E-01 0.17709107126E-01 0.16959041930E-01 0.12939529407E-01
 0.81388121194E-02 0.42538525081E-02 -.10696718042E-02 -.10793512364E-01 -.23999966069E-01
 -.37145103016E-01 -.47205306579E-01 -.51404595709E-01 -.47119539742E-01 -.35288965915E-01
 -.21508040357E-01 -.10792382874E-01 -.32045053131E-02 0.33597842595E-02 0.90019039378E-02
 0.22645745337E-01 0.26707526307E-01 0.27530165238E-01 0.23678747790E-01 0.16669013170E-01
 0.98218506079E-02 0.41064889048E-02 -.23541184925E-02 -.10628622452E-01 -.19394522366E-01
 -.26886648597E-01 -.31743838404E-01 -.32101629840E-01 -.26857061544E-01 -.18125177350E-01
 -.97717843800E-02 -.32045053133E-02 0.31000486626E-02 0.10115738481E-01 0.16933719398E-01
 0.34344214985E-01 0.37697832118E-01 0.35236170418E-01 0.27409011812E-01 0.17648641296E-01
 0.93944095321E-02 0.33184050328E-02 -.17686717828E-02 -.65976892011E-02 -.11094585351E-01
 -.14961488699E-01 -.17246741890E-01 -.16455454791E-01 -.12398634408E-01 -.69603620979E-02
 -.18630561558E-02 0.33597842596E-02 0.10115738481E-01 0.18498968947E-01 0.27185887793E-01
 0.44022021865E-01 0.44236573402E-01 0.37576003599E-01 0.26762125000E-01 0.15986380959E-01
 0.81009673171E-02 0.33650630129E-02 0.43659535240E-03 -.20699534717E-02 -.47362874902E-02
 -.70841504846E-02 -.79186691314E-02 -.64848125897E-02 -.33962838566E-02 0.96159934841E-04
 0.38043496751E-02 0.90019039379E-02 0.16933719398E-01 0.27185887793E-01 0.37371414888E-01
 -.22350810238E-01 -.20575170237E-01 -.16456279110E-01 -.11053722044E-01 -.56417482461E-02
 -.16244869750E-02 0.29778126556E-03 0.61456351757E-03 0.24247020052E-03 -.31558675364E-03
 -.74827169712E-03 -.58735541009E-03 0.24325314200E-03 0.94143435238E-03 0.44803937737E-03
 -.17422986696E-02 -.56430130418E-02 -.10966966683E-01 -.16689364875E-01 -.20988354320E-01
 -.20575170237E-01 -.17669817667E-01 -.12629987488E-01 -.71734019119E-02 -.29080504097E-02
 -.60073308673E-03 -.86983876329E-04 -.57824281174E-03 -.11027822169E-02 -.10203372735E-02
 -.34487655562E-03 0.44204030829E-03 0.84221559331E-03 0.49487188193E-03 -.96717347881E-03
 -.38618807220E-02 -.81143854873E-02 -.13061927135E-01 -.17599398817E-01 -.20457164556E-01
 -.16456279109E-01 -.12629987488E-01 -.77527771252E-02 -.38740622333E-02 -.16795917576E-02
 -.78938932759E-03 -.76863620491E-03 -.10941362479E-02 -.99647956252E-03 -.27877370691E-03
 0.29272027852E-03 0.11141922962E-03 -.44957135249E-03 -.10061606796E-02 -.21484978609E-02
 -.46460651548E-02 -.83051164482E-02 -.12262487844E-01 -.15668352087E-01 -.17462937777E-01
 -.11053722044E-01 -.71734019118E-02 -.38740622336E-02 -.21617112143E-02 -.12497435613E-02
 -.61336630739E-03 -.57416920886E-03 -.90555702850E-03 -.84306545398E-03 -.58888163651E-03
 -.98576822694E-03 -.16962482547E-02 -.15864146126E-02 -.95079719719E-03 -.14651960908E-02
 -.38031846908E-02 -.69989629989E-02 -.10080048966E-01 -.12505807670E-01 -.13163714895E-01
 -.56417482461E-02 -.29080504095E-02 -.16795917576E-02 -.12497435613E-02 -.50038045399E-03
 -.91866524251E-04 -.84576849954E-03 -.18456527581E-02 -.20654060559E-02 -.20962280215E-02
 -.24544241015E-02 -.20907393341E-02 -.50183162036E-03 0.53969778823E-03 -.65529292793E-03
 -.32719531921E-02 -.56459997174E-02 -.74838131653E-02 -.87174370359E-02 -.82095312380E-02
 -.16244869748E-02 -.60073308634E-03 -.78938932746E-03 -.61336630726E-03 -.91866524219E-04
 -.82659849523E-03 -.26257709739E-02 -.34743089840E-02 -.29451012155E-02 -.24327184805E-02
 -.20651722711E-02 -.72252875148E-03 0.89909972223E-03 0.66615619914E-03 -.13987550363E-02
 -.31066085667E-02 -.36992392995E-02 -.42654317773E-02 -.47010392204E-02 -.36655828713E-02
 0.29778126557E-03 -.86983876152E-04 -.76863620485E-03 -.57416920884E-03 -.84576849964E-03
 -.26257709742E-02 -.40539315648E-02 -.33916755502E-02 -.19942429256E-02 -.15824453045E-02
 -.12947423076E-02 -.14608025591E-03 0.41811886978E-03 -.74389332050E-03 -.19130254975E-02
 -.14784911953E-02 -.78273811884E-03 -.13003309106E-02 -.17448910195E-02 -.75223540703E-03
 0.61456351767E-03 -.57824281141E-03 -.10941362479E-02 -.90555702855E-03 -.18456527583E-02
 -.34743089838E-02 -.33916755503E-02 -.17514840452E-02 -.11266249842E-02 -.18437578574E-02
 -.17625937712E-02 -.65766116564E-03 -.43215091426E-03 -.99176166074E-03 -.33527524669E-03
 0.12108630340E-02 0.12552732820E-02 -.11642426198E-03 -.42295003787E-03 0.56711207009E-03
 0.24247020031E-03 -.11027822169E-02 -.99647956273E-03 -.84306545418E-03 -.20654060559E-02
 -.29451012155E-02 -.19942429257E-02 -.11266249844E-02 -.20671852124E-02 -.29274558660E-02
 -.17346352335E-02 -.52040251788E-04 0.24608708926E-03 0.42784350369E-03 0.17946324493E-02
 0.25588027540E-02 0.12613120813E-02 -.46999072829E-04 0.54526855003E-03 0.12892441839E-02
 -.31558675372E-03 -.10203372734E-02 -.27877370689E-03 -.58888163647E-03 -.20962280218E-02
 -.24327184806E-02 -.15824453044E-02 -.18437578574E-02 -.29274558660E-02 -.21758559362E-02
 0.26140372210E-03 0.14866121382E-02 0.11141981174E-02 0.14923979081E-02 0.27278441869E-02
 0.25570575251E-02 0.11712870252E-02 0.10809435421E-02 0.21224007007E-02 0.16411841708E-02
 -.74827169741E-03 -.34487655576E-03 0.29272027849E-03 -.98576822719E-03 -.24544241016E-02
 -.20651722713E-02 -.12947423079E-02 -.17625937712E-02 -.17346352336E-02 0.26140372200E-03
 0.20154474425E-02 0.15705741245E-02 0.95001046142E-03 0.22749552256E-02 0.38040725020E-02
 0.34902132063E-02 0.27938280496E-02 0.32898106773E-02 0.32107423450E-02 0.11062016088E-02
 -.58735541030E-03 0.44204030824E-03 0.11141922962E-03 -.16962482548E-02 -.20907393342E-02
 -.72252875154E-03 -.14608025592E-03 -.65766116578E-03 -.52040251934E-04 0.14866121382E-02
 0.15705741245E-02 0.69796642044E-03 0.18273549007E-02 0.47689544168E-02 0.62181820782E-02
 0.54359482897E-02 0.47423556968E-02 0.44585947232E-02 0.26815149468E-02 0.61507600151E-04
 0.24325314180E-03 0.84221559320E-03 -.44957135268E-03 -.15864146128E-02 -.50183162053E-03
 0.89909972231E-03 0.41811886982E-03 -.43215091426E-03 0.24608708932E-03 0.11141981175E-02
 0.95001046161E-03 0.18273549008E-02 0.51364922826E-02 0.80742786720E-02 0.78915344488E-02
 0.61389723282E-02 0.51378473773E-02 0.39445498314E-02 0.14549646793E-02 -.29519826087E-03
 0.94143435226E-03 0.49487188222E-03 -.10061606796E-02 -.95079719706E-03 0.53969778817E-03
 0.66615619919E-03 -.74389332061E-03 -.99176166075E-03 0.42784350367E-03 0.14923979081E-02
 0.22749552256E-02 0.47689544169E-02 0.80742786722E-02 0.88928106962E-02 0.70049291193E-02
 0.53552829139E-02 0.47013388222E-02 0.31410615862E-02 0.86173597532E-03 0.20718271421E-03
 0.44803937732E-03 -.96717347871E-03 -.21484978610E-02 -.14651960909E-02 -.65529292796E-03
 -.13987550364E-02 -.19130254977E-02 -.33527524683E-03 0.17946324493E-02 0.27278441870E-02
 0.38040725022E-02 0.62181820780E-02 0.78915344486E-02 0.70049291190E-02 0.53824383952E-02
 0.50201214669E-02 0.45529289496E-02 0.24842004069E-02 0.54081127705E-03 0.40876370775E-03
 -.17422986695E-02 -.38618807218E-02 -.46460651548E-02 -.38031846909E-02 -.32719531920E-02
 -.31066085668E-02 -.14784911953E-02 0.12108630338E-02 0.25588027538E-02 0.25570575251E-02
 0.34902132062E-02 0.54359482897E-02 0.61389723280E-02 0.53552829138E-02 0.50201214667E-02
 0.51079964658E-02 0.36714008378E-02 0.10298782880E-02 -.41552553514E-03 -.60017569029E-03
 -.56430130420E-02 -.81143854872E-02 -.83051164488E-02 -.69989629991E-02 -.56459997175E-02
 -.36992392996E-02 -.78273811903E-03 0.12552732819E-02 0.12613120812E-02 0.11712870253E-02
 0.27938280497E-02 0.47423556969E-02 0.51378473775E-02 0.47013388223E-02 0.45529289495E-02
 0.36714008378E-02 0.12629956614E-02 -.10107570446E-02 -.18908389994E-02 -.29771050407E-02
 -.10966966683E-01 -.13061927135E-01 -.12262487844E-01 -.10080048966E-01 -.74838131654E-02
 -.42654317774E-02 -.13003309107E-02 -.11642426212E-03 -.46999072907E-04 0.10809435423E-02
 0.32898106774E-02 0.44585947232E-02 0.39445498314E-02 0.31410615860E-02 0.24842004069E-02
 0.10298782879E-02 -.10107570447E-02 -.24620508709E-02 -.38975867464E-02 -.69749756804E-02
 -.16689364875E-01 -.17599398817E-01 -.15668352087E-01 -.12505807670E-01 -.87174370358E-02
 -.47010392205E-02 -.17448910195E-02 -.42295003791E-03 0.54526855020E-03 0.21224007009E-02
 0.32107423453E-02 0.26815149470E-02 0.14549646795E-02 0.86173597533E-03 0.54081127709E-03
 -.41552553510E-03 -.18908389993E-02 -.38975867465E-02 -.74645255422E-02 -.12546966303E-01
 -.20988354320E-01 -.20457164556E-01 -.17462937778E-01 -.13163714895E-01 -.82095312381E-02
 -.36655828716E-02 -.75223540711E-03 0.56711206987E-03 0.12892441840E-02 0.16411841709E-02
 0.11062016087E-02 0.61507600286E-04 -.29519826073E-03 0.20718271405E-03 0.40876370783E-03
 -.60017569044E-03 -.29771050407E-02 -.69749756805E-02 -.12546966302E-01 -.18043491709E-01
 -.47250636171E-01 -.43209934641E-01 -.34286268471E-01 -.23155864938E-01 -.12552260315E-01
 -.50579502688E-02 -.13990363188E-02 0.18192350336E-03 0.15472445029E-02 0.26156294310E-02
 0.26352612901E-02 0.20274978187E-02 0.15473311189E-02 0.75287310319E-03 -.14213461824E-02
 -.56275134359E-02 -.12553695273E-01 -.22792183466E-01 -.34791397289E-01 -.44259280217E-01
 -.43209934641E-01 -.36953076442E-01 -.26907100781E-01 -.16129852135E-01 -.75187910194E-02
 -.25051470563E-02 -.19249605347E-03 0.14737573399E-02 0.34636273244E-02 0.51119813806E-02
 0.55645180762E-02 0.47959934112E-02 0.31238436969E-02 0.57101429790E-03 -.31528498998E-02
 -.86755365579E-02 -.16771497820E-01 -.27138812723E-01 -.37260367928E-01 -.43411370560E-01
 -.34286268471E-01 -.26907100780E-01 -.17550810196E-01 -.93078534692E-02 -.35322742205E-02
 0.49095793437E-03 0.42653945606E-02 0.85184399104E-02 0.12510058693E-01 0.14573950955E-01
 0.13517771963E-01 0.97520653119E-02 0.49416733057E-02 0.37853570404E-03 -.41848438142E-02
 -.99854951461E-02 -.17688533936E-01 -.26363201377E-01 -.33642691067E-01 -.36800822226E-01
 -.23155864938E-01 -.16129852135E-01 -.93078534692E-02 -.40095518561E-02 0.10409002640E-02
 0.73342068462E-02 0.14712811057E-01 0.21708709420E-01 0.26281693171E-01 0.26375189259E-01
 0.21450653647E-01 0.13740695649E-01 0.65922109187E-02 0.12859344322E-02 -.34799682097E-02
 -.91591780350E-02 -.15709614880E-01 -.22051718140E-01 -.26558661076E-01 -.27228128957E-01
 -.12552260315E-01 -.75187910192E-02 -.35322742205E-02 0.10409002641E-02 0.86201703048E-02
 0.18842497202E-01 0.29125857962E-01 0.36954279597E-01 0.40052892468E-01 0.36577016635E-01
 0.27442043095E-01 0.16882460462E-01 0.86187862622E-02 0.26686212918E-02 -.27404034307E-02
 -.80168441734E-02 -.12553490168E-01 -.16139718856E-01 -.18103551893E-01 -.16912651337E-01
 -.50579502685E-02 -.25051470560E-02 0.49095793455E-03 0.73342068464E-02 0.18842497202E-01
 0.31952163485E-01 0.43252342266E-01 0.50475004118E-01 0.51050827196E-01 0.43474520506E-01
 0.30623547548E-01 0.18129043137E-01 0.88729435396E-02 0.19313605856E-02 -.34919725318E-02
 -.67563309483E-02 -.82564907869E-02 -.93968556403E-02 -.98424855819E-02 -.81537485186E-02
 -.13990363188E-02 -.19249605333E-03 0.42653945607E-02 0.14712811057E-01 0.29125857962E-01
 0.43252342266E-01 0.54364012365E-01 0.59957426150E-01 0.56667812464E-01 0.44355323435E-01
 0.28506506915E-01 0.15158313861E-01 0.57560411114E-02 -.64543727342E-03 -.36809532528E-02
 -.34186410994E-02 -.24972021967E-02 -.29551611906E-02 -.34848524338E-02 -.26008999765E-02
 0.18192350350E-03 0.14737573402E-02 0.85184399105E-02 0.21708709420E-01 0.36954279596E-01
 0.50475004118E-01 0.59957426150E-01 0.61798214470E-01 0.53066938987E-01 0.36838087846E-01
 0.20660574156E-01 0.91267106602E-02 0.19724509371E-02 -.12892957363E-02 -.27647045481E-03
 0.27691216594E-02 0.38653525212E-02 0.24065558866E-02 0.10410467379E-02 0.63509638131E-03
 0.15472445027E-02 0.34636273243E-02 0.12510058692E-01 0.26281693171E-01 0.40052892468E-01
 0.51050827196E-01 0.56667812464E-01 0.53066938987E-01 0.40053100418E-01 0.23952021383E-01
 0.11639031954E-01 0.45840877189E-02 0.15480205772E-02 0.27473633554E-02 0.74153920843E-02
 0.11314037302E-01 0.11154891954E-01 0.85305167264E-02 0.61212936231E-02 0.37186255732E-02
 0.26156294309E-02 0.51119813807E-02 0.14573950955E-01 0.26375189259E-01 0.36577016635E-01
 0.43474520506E-01 0.44355323434E-01 0.36838087846E-01 0.23952021383E-01 0.12586406029E-01
 0.63291306802E-02 0.42463138298E-02 0.59223949501E-02 0.11944054046E-01 0.19476093052E-01
 0.23255931101E-01 0.21763950832E-01 0.17713759910E-01 0.12709202366E-01 0.67284698097E-02
 0.26352612898E-02 0.55645180760E-02 0.13517771963E-01 0.21450653647E-01 0.27442043095E-01
 0.30623547547E-01 0.28506506914E-01 0.20660574156E-01 0.11639031954E-01 0.63291306801E-02
 0.53840608825E-02 0.81177328256E-02 0.15612448528E-01 0.27027193370E-01 0.36742347347E-01
 0.39518643497E-01 0.35652739521E-01 0.28020271888E-01 0.17995396174E-01 0.78153419831E-02
 0.20274978184E-02 0.47959934111E-02 0.97520653118E-02 0.13740695649E-01 0.16882460462E-01
 0.18129043137E-01 0.15158313861E-01 0.91267106601E-02 0.45840877187E-02 0.42463138298E-02
 0.81177328256E-02 0.17058330330E-01 0.31685881592E-01 0.47582888411E-01 0.56999587986E-01
 0.56258893450E-01 0.47567443124E-01 0.34199898458E-01 0.18923982753E-01 0.65602861170E-02
 0.15473311187E-02 0.31238436967E-02 0.49416733056E-02 0.65922109185E-02 0.86187862620E-02
 0.88729435396E-02 0.57560411114E-02 0.19724509371E-02 0.15480205773E-02 0.59223949501E-02
 0.15612448529E-01 0.31685881592E-01 0.51754106580E-01 0.67927672836E-01 0.72931125439E-01
 0.66213037122E-01 0.51755919798E-01 0.33530116789E-01 0.15978289951E-01 0.46031902908E-02
 0.75287310303E-03 0.57101429812E-03 0.37853570411E-03 0.12859344323E-02 0.26686212917E-02
 0.19313605856E-02 -.64543727354E-03 -.12892957363E-02 0.27473633554E-02 0.11944054046E-01
 0.27027193370E-01 0.47582888411E-01 0.67927672836E-01 0.79352042573E-01 0.77686956933E-01
 0.65485538881E-01 0.47400134578E-01 0.27694709380E-01 0.11492908757E-01 0.28785757830E-02
 -.14213461825E-02 -.31528498999E-02 -.41848438143E-02 -.34799682099E-02 -.27404034307E-02
 -.34919725318E-02 -.36809532530E-02 -.27647045493E-03 0.74153920843E-02 0.19476093052E-01
 0.36742347347E-01 0.56999587986E-01 0.72931125439E-01 0.77686956933E-01 0.70695662297E-01
 0.55876472426E-01 0.37314335939E-01 0.19253357285E-01 0.64763796629E-02 0.65648950209E-03
 -.56275134360E-02 -.86755365577E-02 -.99854951460E-02 -.91591780350E-02 -.80168441733E-02
 -.67563309485E-02 -.34186410996E-02 0.27691216592E-02 0.11314037302E-01 0.23255931101E-01
 0.39518643497E-01 0.56258893450E-01 0.66213037122E-01 0.65485538881E-01 0.55876472426E-01
 0.41024071589E-01 0.24270975503E-01 0.98301067971E-02 0.11512518861E-02 -.27366940536E-02
 -.12553695273E-01 -.16771497820E-01 -.17688533936E-01 -.15709614880E-01 -.12553490168E-01
 -.82564907872E-02 -.24972021968E-02 0.38653525211E-02 0.11154891954E-01 0.21763950832E-01
 0.35652739521E-01 0.47567443124E-01 0.51755919798E-01 0.47400134578E-01 0.37314335939E-01
 0.24270975504E-01 0.11156975946E-01 0.14695149165E-02 -.38183920943E-02 -.76762184976E-02
 -.22792183466E-01 -.27138812723E-01 -.26363201377E-01 -.22051718140E-01 -.16139718856E-01
 -.93968556403E-02 -.29551611906E-02 0.24065558864E-02 0.85305167264E-02 0.17713759911E-01
 0.28020271888E-01 0.34199898459E-01 0.33530116789E-01 0.27694709380E-01 0.19253357285E-01
 0.98301067969E-02 0.14695149164E-02 -.42737060936E-02 -.89582187046E-02 -.15388643825E-01
 -.34791397290E-01 -.37260367928E-01 -.33642691067E-01 -.26558661077E-01 -.18103551893E-01
 -.98424855821E-02 -.34848524338E-02 0.10410467378E-02 0.61212936233E-02 0.12709202366E-01
 0.17995396174E-01 0.18923982754E-01 0.15978289952E-01 0.11492908757E-01 0.64763796629E-02
 0.11512518861E-02 -.38183920942E-02 -.89582187047E-02 -.16448838531E-01 -.26417023106E-01
 -.44259280216E-01 -.43411370560E-01 -.36800822227E-01 -.27228128957E-01 -.16912651337E-01
 -.81537485189E-02 -.26008999766E-02 0.63509638105E-03 0.37186255733E-02 0.67284698099E-02
 0.78153419830E-02 0.65602861172E-02 0.46031902910E-02 0.28785757830E-02 0.65648950216E-03
 -.27366940537E-02 -.76762184975E-02 -.15388643825E-01 -.26417023106E-01 -.37757090188E-01
 0.21129236526E-01 0.20313868394E-01 0.15594583848E-01 0.97058276054E-02 0.56235911824E-02
 0.33437309463E-02 0.15537622664E-02 0.34457522251E-03 0.14525900405E-03 0.32711851659E-04
 -.66299777917E-03 -.87121526476E-03 0.14427171274E-03 0.11580888566E-02 0.13578222096E-02
 0.23226014305E-02 0.56225711356E-02 0.10346864472E-01 0.14818086760E-01 0.18629133350E-01
 0.20313868394E-01 0.17209818219E-01 0.11910487790E-01 0.71753797909E-02 0.41424511369E-02
 0.19805701068E-02 0.24577503221E-03 -.44119586754E-03 -.76715115412E-04 0.38990262899E-03
 0.62029075747E-03 0.10441618411E-02 0.14378286457E-02 0.11891706866E-02 0.10506754005E-02
 0.27831165420E-02 0.68335508117E-02 0.11879014471E-01 0.16524669382E-01 0.19792943815E-01
 0.15594583847E-01 0.11910487790E-01 0.77396305796E-02 0.43044570949E-02 0.18544672084E-02
 0.29450845630E-03 -.18565066614E-03 0.45707046717E-03 0.15777480501E-02 0.23074742517E-02
 0.23046937263E-02 0.17190285056E-02 0.84739888590E-03 0.28632597478E-03 0.10188563535E-02
 0.37216160354E-02 0.80161424802E-02 0.12630093368E-01 0.16093429865E-01 0.17230238386E-01
 0.97058276054E-02 0.71753797910E-02 0.43044570948E-02 0.17122795825E-02 0.40546264798E-03
 0.64089923104E-03 0.16609635776E-02 0.26805505637E-02 0.33407391725E-02 0.32735823132E-02
 0.22446546185E-02 0.83894600568E-03 0.13074588555E-03 0.59784279565E-03 0.20755309749E-02
 0.45304104272E-02 0.78407600159E-02 0.10940485173E-01 0.12344975024E-01 0.11663740734E-01
 0.56235911824E-02 0.41424511372E-02 0.18544672083E-02 0.40546264796E-03 0.10868862337E-02
 0.26999177294E-02 0.34702223568E-02 0.34699424948E-02 0.34380252654E-02 0.29659448549E-02
 0.17113120389E-02 0.77925992407E-03 0.10864648563E-02 0.18717047167E-02 0.24129563849E-02
 0.35092396467E-02 0.56256772347E-02 0.73507143328E-02 0.74146160571E-02 0.65295813345E-02
 0.33437309466E-02 0.19805701071E-02 0.29450845645E-03 0.64089923113E-03 0.26999177294E-02
 0.37572193193E-02 0.32135762066E-02 0.30220184402E-02 0.36444685149E-02 0.34647621918E-02
 0.23382695360E-02 0.19034785803E-02 0.22057115931E-02 0.17190661518E-02 0.80397626679E-03
 0.14289577093E-02 0.33727238688E-02 0.43463596552E-02 0.38900906612E-02 0.35436423938E-02
 0.15537622664E-02 0.24577503225E-03 -.18565066613E-03 0.16609635775E-02 0.34702223567E-02
 0.32135762064E-02 0.27507460976E-02 0.40452392665E-02 0.52987504564E-02 0.43756348871E-02
 0.26792152509E-02 0.21229289078E-02 0.16089472796E-02 -.25503563634E-05 -.79869167829E-03
 0.76828268136E-03 0.25928874116E-02 0.24427131332E-02 0.15795183994E-02 0.16771438378E-02
 0.34457522262E-03 -.44119586731E-03 0.45707046727E-03 0.26805505637E-02 0.34699424944E-02
 0.30220184402E-02 0.40452392665E-02 0.60869956202E-02 0.58586645850E-02 0.32352883786E-02
 0.14404253323E-02 0.12369863720E-02 0.41119137999E-03 -.99012388269E-03 -.52138381041E-03
 0.14245753258E-02 0.17426118790E-02 0.19699680674E-03 -.39746239260E-03 0.39878266714E-03
 0.14525900382E-03 -.76715115522E-04 0.15777480499E-02 0.33407391725E-02 0.34380252653E-02
 0.36444685148E-02 0.52987504561E-02 0.58586645848E-02 0.34411606209E-02 0.76686954225E-03
 0.57451726108E-03 0.11135967441E-02 0.14307099004E-03 -.72900597611E-03 0.22263924187E-03
 0.90116042036E-03 -.61286763219E-03 -.20594902558E-02 -.11155791215E-02 0.35243650424E-03
 0.32711851436E-04 0.38990262897E-03 0.23074742517E-02 0.32735823134E-02 0.29659448549E-02
 0.34647621916E-02 0.43756348871E-02 0.32352883785E-02 0.76686954220E-03 0.23101305366E-03
 0.15427724382E-02 0.14908306172E-02 -.27977260128E-03 -.10373238453E-02 -.55945157029E-03
 -.12799003501E-02 -.28776816527E-02 -.24363153489E-02 -.13595573429E-03 0.80670662873E-03
 -.66299777947E-03 0.62029075725E-03 0.23046937263E-02 0.22446546183E-02 0.17113120389E-02
 0.23382695361E-02 0.26792152508E-02 0.14404253321E-02 0.57451726111E-03 0.15427724381E-02
 0.20699775165E-02 0.20070071216E-03 -.20016323596E-02 -.23060505696E-02 -.21480754667E-02
 -.30931468539E-02 -.33163356569E-02 -.13347814840E-02 0.50277040798E-03 0.60310452785E-04
 -.87121526510E-03 0.10441618410E-02 0.17190285055E-02 0.83894600549E-03 0.77925992392E-03
 0.19034785804E-02 0.21229289079E-02 0.12369863720E-02 0.11135967439E-02 0.14908306172E-02
 0.20070071214E-03 -.23583335604E-02 -.35097064441E-02 -.30407651163E-02 -.31537618106E-02
 -.38525305070E-02 -.30454308656E-02 -.11153919499E-02 -.61296394135E-03 -.14049458154E-02
 0.14427171248E-03 0.14378286455E-02 0.84739888572E-03 0.13074588539E-03 0.10864648562E-02
 0.22057115931E-02 0.16089472797E-02 0.41119138005E-03 0.14307099019E-03 -.27977260119E-03
 -.20016323595E-02 -.35097064440E-02 -.34332564966E-02 -.32237120082E-02 -.41809868361E-02
 -.47171636873E-02 -.34318971952E-02 -.19401837677E-02 -.17749211434E-02 -.15074793019E-02
 0.11580888564E-02 0.11891706867E-02 0.28632597481E-03 0.59784279571E-03 0.18717047167E-02
 0.17190661518E-02 -.25503564913E-05 -.99012388270E-03 -.72900597613E-03 -.10373238453E-02
 -.23060505696E-02 -.30407651163E-02 -.32237120079E-02 -.43026376974E-02 -.57437960513E-02
 -.53872881958E-02 -.33381035886E-02 -.18363507266E-02 -.13072709568E-02 -.24596012879E-03
 0.13578222094E-02 0.10506754005E-02 0.10188563534E-02 0.20755309746E-02 0.24129563849E-02
 0.80397626685E-03 -.79869167843E-03 -.52138381044E-03 0.22263924197E-03 -.55945157013E-03
 -.21480754667E-02 -.31537618107E-02 -.41809868359E-02 -.57437960514E-02 -.61403896423E-02
 -.42005711993E-02 -.17533290147E-02 -.76079592530E-03 -.40014583031E-03 0.60023344690E-03
 0.23226014303E-02 0.27831165420E-02 0.37216160354E-02 0.45304104272E-02 0.35092396468E-02
 0.14289577091E-02 0.76828268131E-03 0.14245753256E-02 0.90116042029E-03 -.12799003502E-02
 -.30931468541E-02 -.38525305071E-02 -.47171636873E-02 -.53872881958E-02 -.42005711994E-02
 -.17020876815E-02 -.36671516690E-03 -.53744039790E-03 -.18277526424E-03 0.12547151709E-02
 0.56225711352E-02 0.68335508117E-02 0.80161424799E-02 0.78407600157E-02 0.56256772345E-02
 0.33727238687E-02 0.25928874114E-02 0.17426118789E-02 -.61286763231E-03 -.28776816527E-02
 -.33163356568E-02 -.30454308654E-02 -.34318971950E-02 -.33381035884E-02 -.17533290147E-02
 -.36671516684E-03 -.61171171017E-03 -.78183702094E-03 0.10595699964E-02 0.38108287682E-02
 0.10346864472E-01 0.11879014471E-01 0.12630093368E-01 0.10940485173E-01 0.73507143329E-02
 0.43463596551E-02 0.24427131330E-02 0.19699680664E-03 -.20594902557E-02 -.24363153487E-02
 -.13347814840E-02 -.11153919500E-02 -.19401837677E-02 -.18363507267E-02 -.76079592533E-03
 -.53744039799E-03 -.78183702107E-03 0.96752344341E-03 0.48539673874E-02 0.83423831123E-02
 0.14818086760E-01 0.16524669382E-01 0.16093429865E-01 0.12344975024E-01 0.74146160570E-02
 0.38900906610E-02 0.15795183994E-02 -.39746239265E-03 -.11155791213E-02 -.13595573414E-03
 0.50277040820E-03 -.61296394107E-03 -.17749211433E-02 -.13072709567E-02 -.40014583026E-03
 -.18277526418E-03 0.10595699965E-02 0.48539673875E-02 0.94688430058E-02 0.12668914231E-01
 0.18629133350E-01 0.19792943816E-01 0.17230238386E-01 0.11663740734E-01 0.65295813343E-02
 0.35436423935E-02 0.16771438377E-02 0.39878266686E-03 0.35243650437E-03 0.80670662892E-03
 0.60310452778E-04 -.14049458152E-02 -.15074793017E-02 -.24596012876E-03 0.60023344703E-03
 0.12547151709E-02 0.38108287684E-02 0.83423831127E-02 0.12668914232E-01 0.15899332432E-01
 0.47614673384E-01 0.45052043816E-01 0.34853479866E-01 0.22295178675E-01 0.12944610385E-01
 0.74005194849E-02 0.34744729547E-02 0.53318039620E-03 -.11926880179E-02 -.26476175085E-02
 -.41257760321E-02 -.38667700818E-02 -.11936343807E-02 0.15904227582E-02 0.31054416959E-02
 0.59276982475E-02 0.12943740332E-01 0.23213399103E-01 0.33805348594E-01 0.42731613890E-01
 0.45052043816E-01 0.38245555730E-01 0.26831598387E-01 0.16302562956E-01 0.92339865196E-02