    5    5    1    1
  0.3477306E+02  0.2573869E-09  0.2573869E-09  0.3030466E-08  0.5000000E-15
  1.000000000000000E-004
  CAR 
 unknown system                          
     45     14     28
 
  0.0000000E+00  0.0000000E+00  0.0000000E+00  0.1000000E-01
    1      -11.751365   1.000000
    2      -10.657068   1.000000
    3       -8.955381   1.000000
    4       -7.466880   1.000000
    5       -5.820915   1.000000
    6       -5.569853   1.000000
    7       -5.569631   1.000000
    8       -5.532016   1.000000
    9       -5.241446   1.000000
   10       -5.194732   1.000000
   11       -5.194421   1.000000
   12       -5.165166   1.000000
   13       -5.164899   1.000000
   14       -4.924171   1.000000
   15       -4.923874   1.000000
   16       -4.805023   1.000000
   17       -4.732353   1.000000
   18       -4.732273   1.000000
   19       -4.423068   1.000000
   20       -4.422990   1.000000
   21       -4.202511   1.000000
   22       -4.202471   1.000000
   23       -3.925273   1.000000
   24       -3.925203   1.000000
   25       -2.850370   1.000000
   26        1.615196   0.000000
   27        1.898403   0.000000
   28        2.300384   0.000000
 
  0.1000000E+00  0.6938894E-17  0.0000000E+00  0.6000000E-01
    1      -11.456130   1.000000
    2      -10.356411   1.000000
    3       -8.687896   1.000000
    4       -7.246735   1.000000
    5       -5.875575   1.000000
    6       -5.690743   1.000000
    7       -5.608848   1.000000
    8       -5.460811   1.000000
    9       -5.301172   1.000000
   10       -5.267783   1.000000
   11       -5.245858   1.000000
   12       -5.098627   1.000000
   13       -5.085227   1.000000
   14       -5.032997   1.000000
   15       -4.941825   1.000000
   16       -4.843322   1.000000
   17       -4.739265   1.000000
   18       -4.622839   1.000000
   19       -4.440244   1.000000
   20       -4.404655   1.000000
   21       -4.233085   1.000000
   22       -4.198737   1.000000
   23       -3.920106   1.000000
   24       -3.706330   1.000000
   25       -2.162746   0.058911
   26        1.864353   0.000000
   27        2.200593   0.000000
   28        2.602779   0.000000
 
  0.2000000E+00 -0.1387779E-16  0.0000000E+00  0.6000000E-01
    1      -10.620820   1.000000
    2       -9.501811   1.000000
    3       -7.987201   1.000000
    4       -6.730480   1.000000
    5       -6.118706   1.000000
    6       -5.879350   1.000000
    7       -5.696036   1.000000
    8       -5.600273   1.000000
    9       -5.437918   1.000000
   10       -5.209584   1.000000
   11       -5.171246   1.000000
   12       -5.138754   1.000000
   13       -5.012321   1.000000
   14       -4.944953   1.000000
   15       -4.833206   1.000000
   16       -4.787669   1.000000
   17       -4.724561   1.000000
   18       -4.551705   1.000000
   19       -4.495785   1.000000
   20       -4.389513   1.000000
   21       -4.200815   1.000000
   22       -4.019374   1.000000
   23       -3.913189   1.000000
   24       -2.826240   1.000000
   25       -0.830074   0.000000
   26        2.605627   0.000000
   27        3.105850   0.000000
   28        3.509348   0.000000
 
  0.3000000E+00 -0.2775558E-16  0.0000000E+00  0.6000000E-01
    1       -9.463495   1.000000
    2       -8.298840   1.000000
    3       -7.270234   1.000000
    4       -6.490175   1.000000
    5       -6.244362   1.000000
    6       -6.110465   1.000000
    7       -5.810370   1.000000
    8       -5.582361   1.000000
    9       -5.494437   1.000000
   10       -5.225661   1.000000
   11       -5.080652   1.000000
   12       -4.997557   1.000000
   13       -4.877482   1.000000
   14       -4.774142   1.000000
   15       -4.746977   1.000000
   16       -4.564010   1.000000
   17       -4.472357   1.000000
   18       -4.304539   1.000000
   19       -4.261856   1.000000
   20       -4.190788   1.000000
   21       -4.075242   1.000000
   22       -3.898134   1.000000
   23       -3.554326   1.000000
   24       -1.643141   0.000000
   25        0.850800   0.000000
   26        3.794141   0.000000
   27        4.574322   0.000000
   28        4.972970   0.000000
 
  0.4000000E+00 -0.2775558E-16  0.0000000E+00  0.6000000E-01
    1       -8.588072   1.000000
    2       -7.293967   1.000000
    3       -6.937031   1.000000
    4       -6.510710   1.000000
    5       -6.410120   1.000000
    6       -6.242682   1.000000
    7       -5.920578   1.000000
    8       -5.384507   1.000000
    9       -5.254630   1.000000
   10       -5.167483   1.000000
   11       -5.137427   1.000000
   12       -4.911083   1.000000
   13       -4.817588   1.000000
   14       -4.466195   1.000000
   15       -4.355473   1.000000
   16       -4.265789   1.000000
   17       -4.060462   1.000000
   18       -4.039709   1.000000
   19       -3.972064   1.000000
   20       -3.897438   1.000000
   21       -3.758370   1.000000
   22       -3.486432   1.000000
   23       -2.489883   0.998902
   24       -0.251419   0.000000
   25        2.163939   0.000000
   26        2.480691   0.000000
   27        3.328183   0.000000
   28        4.682183   0.000000
 
  0.5000000E+00 -0.2775558E-16  0.0000000E+00  0.3000000E-01
    1       -8.356921   1.000000
    2       -7.007378   1.000000
    3       -6.861945   1.000000
    4       -6.513419   1.000000
    5       -6.478309   1.000000
    6       -6.286596   1.000000
    7       -5.939530   1.000000
    8       -5.344091   1.000000
    9       -5.201367   1.000000
   10       -5.189142   1.000000
   11       -4.931554   1.000000
   12       -4.911416   1.000000
   13       -4.572145   1.000000
   14       -4.411825   1.000000
   15       -4.277713   1.000000
   16       -4.091323   1.000000
   17       -3.981178   1.000000
   18       -3.878377   1.000000
   19       -3.816018   1.000000
   20       -3.660725   1.000000
   21       -3.643053   1.000000
   22       -2.165247   0.063180
   23       -1.304588   0.000000
   24       -0.758156   0.000000
   25        1.089836   0.000000
   26        1.770612   0.000000
   27        2.875638   0.000000
   28        4.107348   0.000000
 
  0.2000000E+00  0.1000000E+00  0.0000000E+00  0.6000000E-01
    1      -10.888910   1.000000
    2       -9.776701   1.000000
    3       -8.198014   1.000000
    4       -6.865699   1.000000
    5       -6.045935   1.000000
    6       -5.770294   1.000000
    7       -5.742459   1.000000
    8       -5.521423   1.000000
    9       -5.405716   1.000000
   10       -5.275900   1.000000
   11       -5.234624   1.000000
   12       -5.092432   1.000000
   13       -5.038488   1.000000
   14       -5.019500   1.000000
   15       -4.880247   1.000000
   16       -4.804374   1.000000
   17       -4.643491   1.000000
   18       -4.562076   1.000000
   19       -4.534468   1.000000
   20       -4.391184   1.000000
   21       -4.284496   1.000000
   22       -4.020717   1.000000
   23       -3.959973   1.000000
   24       -3.078348   1.000000
   25       -1.221141   0.000000
   26        2.360657   0.000000
   27        2.804613   0.000000
   28        3.207310   0.000000
 
  0.3000000E+00  0.1000000E+00  0.0000000E+00  0.1200000E+00
    1       -9.874461   1.000000
    2       -8.726603   1.000000
    3       -7.456619   1.000000
    4       -6.465630   1.000000
    5       -6.136888   1.000000
    6       -5.984584   1.000000
    7       -5.806936   1.000000
    8       -5.706567   1.000000
    9       -5.561841   1.000000
   10       -5.244560   1.000000
   11       -5.210356   1.000000
   12       -5.094416   1.000000
   13       -4.989252   1.000000
   14       -4.892185   1.000000
   15       -4.821520   1.000000
   16       -4.704447   1.000000
   17       -4.548195   1.000000
   18       -4.415357   1.000000
   19       -4.298324   1.000000
   20       -4.228454   1.000000
   21       -4.085015   1.000000
   22       -3.976358   1.000000
   23       -3.667426   1.000000
   24       -2.069394   0.001962
   25        0.237695   0.000000
   26        3.354710   0.000000
   27        4.006248   0.000000
   28        4.433134   0.000000
 
  0.4000000E+00  0.1000000E+00  0.0000000E+00  0.1200000E+00
    1       -8.814652   1.000000
    2       -7.558020   1.000000
    3       -6.946650   1.000000
    4       -6.446708   1.000000
    5       -6.258151   1.000000
    6       -6.122686   1.000000
    7       -5.873071   1.000000
    8       -5.584620   1.000000
    9       -5.491946   1.000000
   10       -5.237962   1.000000
   11       -5.196971   1.000000
   12       -5.030582   1.000000
   13       -4.882348   1.000000
   14       -4.683643   1.000000
   15       -4.590356   1.000000
   16       -4.449696   1.000000
   17       -4.333464   1.000000
   18       -4.200449   1.000000
   19       -4.102050   1.000000
   20       -3.919580   1.000000
   21       -3.877727   1.000000
   22       -3.565398   1.000000
   23       -2.791931   1.000000
   24       -0.658652   0.000000
   25        2.006110   0.000000
   26        3.883691   0.000000
   27        4.461880   0.000000
   28        5.290070   0.000000
 
  0.5000000E+00  0.1000000E+00  0.0000000E+00  0.1200000E+00
    1       -8.319907   1.000000
    2       -6.931327   1.000000
    3       -6.770262   1.000000
    4       -6.426247   1.000000
    5       -6.380889   1.000000
    6       -6.188232   1.000000
    7       -5.939766   1.000000
    8       -5.451181   1.000000
    9       -5.323530   1.000000
   10       -5.176524   1.000000
   11       -5.136351   1.000000
   12       -5.008459   1.000000
   13       -4.770008   1.000000
   14       -4.472613   1.000000
   15       -4.367632   1.000000
   16       -4.197056   1.000000
   17       -4.068792   1.000000
   18       -4.009894   1.000000
   19       -3.955524   1.000000
   20       -3.804834   1.000000
   21       -3.382682   1.000000
   22       -2.281949   0.548469
   23       -1.298703   0.000000
   24        0.142654   0.000000
   25        1.617805   0.000000
   26        2.051513   0.000000
   27        3.142460   0.000000
   28        4.541734   0.000000
 
  0.4000000E+00  0.2000000E+00  0.0000000E+00  0.6000000E-01
    1       -8.907125   1.000000
    2       -7.651845   1.000000
    3       -6.907547   1.000000
    4       -6.399031   1.000000
    5       -6.061543   1.000000
    6       -5.957135   1.000000
    7       -5.884210   1.000000
    8       -5.795803   1.000000
    9       -5.522684   1.000000
   10       -5.381853   1.000000
   11       -5.281953   1.000000
   12       -5.239171   1.000000
   13       -4.927971   1.000000
   14       -4.864786   1.000000
   15       -4.741643   1.000000
   16       -4.553029   1.000000
   17       -4.375201   1.000000
   18       -4.230661   1.000000
   19       -4.139618   1.000000
   20       -3.914523   1.000000
   21       -3.869649   1.000000
   22       -3.513901   1.000000
   23       -2.793276   1.000000
   24       -0.787599   0.000000
   25        1.807449   0.000000
   26        4.608635   0.000000
   27        5.240412   0.000000
   28        5.642554   0.000000
 
  0.5000000E+00  0.2000000E+00  0.0000000E+00  0.1200000E+00
    1       -8.254588   1.000000
    2       -6.769191   1.000000
    3       -6.567063   1.000000
    4       -6.326427   1.000000
    5       -6.153656   1.000000
    6       -6.029144   1.000000
    7       -5.877832   1.000000
    8       -5.708613   1.000000
    9       -5.533574   1.000000
   10       -5.434294   1.000000
   11       -5.311132   1.000000
   12       -5.006835   1.000000
   13       -4.931380   1.000000
   14       -4.778842   1.000000
   15       -4.600767   1.000000
   16       -4.479922   1.000000
   17       -4.318981   1.000000
   18       -4.140142   1.000000
   19       -3.968219   1.000000
   20       -3.823434   1.000000
   21       -3.155922   1.000000
   22       -2.304662   0.671121
   23       -1.176902   0.000000
   24        0.894548   0.000000
   25        2.997528   0.000000
   26        3.210271   0.000000
   27        4.023022   0.000000
   28        5.213417   0.000000
 
 -0.4000000E+00  0.2000000E+00  0.0000000E+00  0.6000000E-01
    1       -8.088084   1.000000
    2       -6.556448   1.000000
    3       -6.496433   1.000000
    4       -6.234967   1.000000
    5       -6.151950   1.000000
    6       -6.047315   1.000000
    7       -5.888934   1.000000
    8       -5.748910   1.000000
    9       -5.505727   1.000000
   10       -5.370530   1.000000
   11       -5.238646   1.000000
   12       -5.052124   1.000000
   13       -4.882128   1.000000
   14       -4.644542   1.000000
   15       -4.509370   1.000000
   16       -4.439681   1.000000
   17       -4.212617   1.000000
   18       -4.048525   1.000000
   19       -3.996756   1.000000
   20       -3.890254   1.000000
   21       -2.333057   0.800824
   22       -0.669474   0.000000
   23       -0.129774   0.000000
   24        0.629542   0.000000
   25        1.973115   0.000000
   26        2.260571   0.000000
   27        3.562808   0.000000
   28        4.691992   0.000000
 
 -0.4000000E+00  0.3000000E+00  0.0000000E+00  0.6000000E-01
    1       -7.986937   1.000000
    2       -6.314746   1.000000
    3       -6.260899   1.000000
    4       -6.184631   1.000000
    5       -6.044699   1.000000
    6       -5.940061   1.000000
    7       -5.895186   1.000000
    8       -5.820495   1.000000
    9       -5.683073   1.000000
   10       -5.515128   1.000000
   11       -5.361940   1.000000
   12       -4.988125   1.000000
   13       -4.939123   1.000000
   14       -4.818418   1.000000
   15       -4.616300   1.000000
   16       -4.460316   1.000000
   17       -4.383700   1.000000
   18       -4.090705   1.000000
   19       -4.008341   1.000000
   20       -3.914452   1.000000
   21       -1.886954   0.000000
   22       -0.335721   0.000000
   23        0.790286   0.000000
   24        2.042717   0.000000
   25        2.443842   0.000000
   26        2.964626   0.000000
   27        3.198286   0.000000
   28        4.045534   0.000000
