unknown system                          
   1.00000000000000     
     2.573869    0.000000    0.000000
     1.286934    2.229036    0.000000
     0.000000    0.000000   30.304665
   Cu   H 
     4     1
Direct
  0.000000  0.000000  0.396427
  0.333333  0.333333  0.465162
  0.666667  0.666667  0.533889
  0.000000  0.000000  0.606712
  0.666667  0.666667  0.634829
 
   10   10  120
 -.72858E-16 0.27756E-16 0.38962E-14 0.11972E-08 0.30226E-13 0.30993E-11 0.90900E-14 0.94795E-10 0.15890E-14 0.10408E-16
 0.95410E-16 0.45103E-15 0.91205E-13 0.30207E-10 0.35957E-13 0.68663E-10 0.11671E-13 0.51033E-12 0.97145E-15  0.0000    
 0.40246E-14 0.91177E-13 0.21311E-12 0.81213E-13 0.71887E-14 0.75689E-13 0.14017E-13 0.92149E-13 0.14919E-14 0.48052E-15
 0.11972E-08 0.30207E-10 0.81241E-13 0.12265E-12 0.14849E-13 0.24824E-11 0.82434E-14 0.15816E-11 0.48642E-13 0.57177E-12
 0.30323E-13 0.35971E-13 0.71887E-14 0.14905E-13 0.97838E-14 0.30587E-13 0.14849E-14 0.27381E-13 0.30129E-13 0.22538E-13
 0.30994E-11 0.68663E-10 0.75662E-13 0.24824E-11 0.30503E-13 0.14086E-11 0.85210E-14 0.13808E-13 0.85348E-14 0.94112E-12
 0.91593E-14 0.11727E-13 0.14003E-13 0.82295E-14 0.14572E-14 0.86875E-14 0.18874E-14 0.44409E-15 0.66613E-15 0.62172E-14
 0.94795E-10 0.51037E-12 0.92142E-13 0.15816E-11 0.27381E-13 0.13781E-13 0.38858E-15 0.13461E-14 0.76605E-14 0.25958E-11
 0.16098E-14 0.10096E-14 0.15439E-14 0.48683E-13 0.30170E-13 0.86181E-14 0.66613E-15 0.76605E-14 0.41356E-13 0.35888E-13
 0.24286E-16 0.32092E-16 0.47011E-15 0.57175E-12 0.22510E-13 0.94108E-12 0.62450E-14 0.25959E-11 0.35826E-13 0.16653E-14
 -.13878E-16 0.52042E-16 0.81254E-14 0.17959E-11 0.85765E-14 0.54619E-12 0.40010E-13 0.20640E-11 0.12629E-14 0.13704E-15
 0.12837E-15 0.55858E-15 0.11442E-12 0.62093E-11 0.17042E-13 0.95011E-11 0.30753E-13 0.64022E-12 0.15751E-14 0.79797E-16
 0.81601E-14 0.11445E-12 0.26654E-12 0.50626E-13 0.39690E-14 0.55067E-13 0.27589E-13 0.10680E-12 0.23419E-14 0.60715E-15
 0.17959E-11 0.62092E-11 0.50654E-13 0.28810E-13 0.43160E-14 0.56651E-12 0.23370E-13 0.17407E-11 0.55102E-13 0.70504E-12
 0.86320E-14 0.17195E-13 0.40107E-14 0.44409E-14 0.35943E-14 0.15016E-13 0.19429E-14 0.17486E-13 0.29171E-13 0.13017E-13
 0.54626E-12 0.95013E-11 0.55067E-13 0.56648E-12 0.14905E-13 0.13724E-11 0.18235E-13 0.35555E-13 0.21261E-13 0.88522E-11
 0.40037E-13 0.30795E-13 0.27575E-13 0.23287E-13 0.19290E-14 0.18249E-13 0.60230E-14 0.18041E-14 0.14572E-14 0.13073E-13
 0.20640E-11 0.64017E-12 0.10682E-12 0.17408E-11 0.17486E-13 0.35666E-13 0.18874E-14 0.32752E-14 0.21524E-13 0.17491E-10
 0.12906E-14 0.15959E-14 0.23835E-14 0.55109E-13 0.29254E-13 0.21386E-13 0.13878E-14 0.21594E-13 0.43160E-13 0.39461E-13
 0.62450E-16 0.11796E-15 0.60368E-15 0.70502E-12 0.12976E-13 0.88522E-11 0.12962E-13 0.17491E-10 0.39413E-13 0.28137E-14
 -.20817E-16 0.12490E-15 0.98047E-14 0.37803E-13 0.25119E-14 0.40065E-13 0.44520E-13 0.45866E-13 0.45103E-15 0.76328E-16
 0.14572E-15 0.31919E-15 0.13607E-12 0.19053E-11 0.89095E-14 0.12248E-11 0.66169E-13 0.84968E-12 0.19776E-14 0.83267E-16
 0.98463E-14 0.13604E-12 0.23390E-12 0.16126E-13 0.24425E-14 0.22510E-13 0.36304E-13 0.10433E-12 0.29213E-14 0.80491E-15
 0.37803E-13 0.19052E-11 0.16126E-13 0.96173E-14 0.14988E-14 0.13989E-12 0.50002E-13 0.19361E-11 0.61270E-13 0.84407E-12
 0.25813E-14 0.89928E-14 0.23592E-14 0.15682E-14 0.15543E-14 0.80491E-14 0.19290E-14 0.89234E-14 0.20484E-13 0.65503E-14
 0.40135E-13 0.12249E-11 0.22496E-13 0.13983E-12 0.80214E-14 0.15069E-11 0.44159E-13 0.93633E-13 0.37498E-13 0.35843E-10
 0.44603E-13 0.66169E-13 0.36429E-13 0.49960E-13 0.18874E-14 0.44298E-13 0.21871E-13 0.71609E-14 0.31364E-14 0.33612E-13
 0.45908E-13 0.84965E-12 0.10436E-12 0.19362E-11 0.89512E-14 0.93647E-13 0.70222E-14 0.11713E-13 0.41162E-13 0.75154E-07
 0.49266E-15 0.19984E-14 0.29837E-14 0.61368E-13 0.20386E-13 0.37553E-13 0.31364E-14 0.40967E-13 0.30531E-13 0.45006E-13
 0.69389E-16 0.90206E-16 0.82573E-15 0.84412E-12 0.64254E-14 0.35843E-10 0.33598E-13 0.75154E-07 0.44950E-13 0.43576E-14
 -.55511E-16 0.97145E-16 0.75911E-14 0.68556E-14 0.11241E-14 0.71609E-14 0.11657E-13 0.91732E-14 0.12490E-15 0.13878E-15
 0.16653E-15 0.44409E-15 0.14833E-12 0.10858E-11 0.51348E-14 0.53504E-12 0.27453E-12 0.95357E-12 0.29421E-14 0.97145E-16
 0.75911E-14 0.14826E-12 0.22601E-12 0.11047E-13 0.15266E-14 0.15862E-13 0.53763E-13 0.10786E-12 0.33029E-14 0.81879E-15
 0.68695E-14 0.10857E-11 0.11116E-13 0.50931E-14 0.66613E-15 0.86153E-13 0.21781E-12 0.20486E-11 0.56205E-13 0.84581E-12
 0.12212E-14 0.52180E-14 0.16098E-14 0.74940E-15 0.68001E-15 0.49127E-14 0.22482E-14 0.64115E-14 0.15279E-13 0.44131E-14
 0.72442E-14 0.53513E-12 0.15904E-13 0.86153E-13 0.48433E-14 0.15282E-11 0.14846E-12 0.25407E-11 0.90289E-13 0.18675E-11
 0.11754E-13 0.27457E-12 0.53832E-13 0.21776E-12 0.21788E-14 0.14841E-12 0.16734E-12 0.58870E-13 0.82157E-14 0.11002E-12
 0.91316E-14 0.95353E-12 0.10786E-12 0.20486E-11 0.64254E-14 0.25406E-11 0.59008E-13 0.10922E-12 0.11705E-12 0.10529E-10
 0.13878E-15 0.29698E-14 0.33584E-14 0.56191E-13 0.15266E-13 0.90317E-13 0.81046E-14 0.11702E-12 0.19013E-13 0.40079E-13
 0.97145E-16 0.15266E-15 0.81879E-15 0.84574E-12 0.43854E-14 0.18674E-11 0.10991E-12 0.10529E-10 0.40079E-13 0.68417E-14
 0.13878E-16 0.16653E-15 0.50515E-14 0.18596E-14 0.44409E-15 0.19984E-14 0.16515E-14 0.27062E-14 0.27756E-16 0.69389E-16
 0.13878E-15 0.24980E-15 0.17297E-12 0.53427E-12 0.29698E-14 0.22768E-12 0.11614E-11 0.11531E-11 0.40939E-14 0.23592E-15
 0.50793E-14 0.17299E-12 0.19509E-12 0.31919E-14 0.86042E-15 0.58981E-14 0.48295E-13 0.11589E-12 0.40246E-14 0.13045E-14
 0.18874E-14 0.53421E-12 0.32058E-14 0.22621E-14 0.20817E-15 0.38747E-13 0.81059E-12 0.22944E-11 0.75370E-13 0.11010E-11
 0.52736E-15 0.30254E-14 0.95757E-15 0.27756E-15 0.22204E-15 0.29005E-14 0.17486E-14 0.31641E-14 0.99087E-14 0.21927E-14
 0.20817E-14 0.22768E-12 0.58842E-14 0.38691E-13 0.28311E-14 0.17837E-11 0.41081E-12 0.22690E-10 0.94397E-13 0.12149E-11
 0.17070E-14 0.11615E-11 0.48378E-13 0.81056E-12 0.17208E-14 0.41087E-12 0.17240E-11 0.53610E-12 0.17625E-13 0.27628E-12
 0.27617E-14 0.11530E-11 0.11588E-12 0.22944E-11 0.31086E-14 0.22690E-10 0.53585E-12 0.70891E-11 0.12207E-12 0.39939E-11
 0.83267E-16 0.40662E-14 0.40384E-14 0.75426E-13 0.97977E-14 0.94313E-13 0.17458E-13 0.12182E-12 0.71054E-14 0.46241E-13
 0.11102E-15 0.22204E-15 0.13600E-14 0.11011E-11 0.20262E-14 0.12149E-11 0.27611E-12 0.39941E-11 0.46199E-13 0.13378E-13
  0.0000     0.83267E-16 0.33168E-14 0.74940E-15 0.22204E-15 0.94369E-15 0.49960E-15 0.11657E-14 -.41633E-16 0.97145E-16
 0.97145E-16 0.40246E-15 0.29227E-12 0.36707E-12 0.21094E-14 0.15112E-12 0.22637E-10 0.12860E-11 0.68556E-14 0.27756E-15
 0.33307E-14 0.29217E-12 0.18424E-12 0.21233E-14 0.62450E-15 0.41911E-14 0.40648E-13 0.17276E-12 0.56205E-14 0.12906E-14
 0.83267E-15 0.36714E-12 0.21372E-14 0.16862E-14 0.11102E-15 0.26895E-13 0.25571E-10 0.23715E-11 0.85473E-13 0.11439E-11
 0.33307E-15 0.20817E-14 0.68001E-15 0.22204E-15 0.12490E-15 0.19429E-14 0.21094E-14 0.24425E-14 0.84377E-14 0.16098E-14
 0.94369E-15 0.15116E-12 0.42327E-14 0.26937E-13 0.18874E-14 0.18700E-11 0.18268E-11 0.18816E-10 0.11671E-12 0.84616E-12
 0.52736E-15 0.22637E-10 0.40731E-13 0.25571E-10 0.20539E-14 0.18268E-11 0.87746E-10 0.71820E-12 0.36471E-13 0.87635E-12
 0.12351E-14 0.12860E-11 0.17275E-12 0.23715E-11 0.24147E-14 0.18817E-10 0.71815E-12 0.31819E-12 0.14846E-12 0.17801E-11
 -.41633E-16 0.68417E-14 0.56344E-14 0.85529E-13 0.84099E-14 0.11682E-12 0.36471E-13 0.14844E-12 0.38303E-14 0.46796E-13
 0.97145E-16 0.23592E-15 0.13323E-14 0.11439E-11 0.16653E-14 0.84607E-12 0.87638E-12 0.17801E-11 0.46782E-13 0.21760E-13
 0.13878E-16 0.15266E-15 0.18319E-14 0.31919E-15 0.97145E-16 0.41633E-15 0.16653E-15 0.49960E-15 0.27756E-16 0.11102E-15
 0.18041E-15 0.20817E-16 0.26611E-12 0.21709E-12 0.10825E-14 0.81379E-13 0.98850E-10 0.14347E-11 0.83544E-14 0.51348E-15
 0.18319E-14 0.26600E-12 0.15177E-12 0.61062E-15 0.37470E-15 0.18735E-14 0.16070E-13 0.14679E-12 0.56483E-14 0.12768E-14
 0.30531E-15 0.21708E-12 0.61756E-15 0.10304E-14 -.69389E-17 0.15807E-13 0.96133E-10 0.25713E-11 0.91718E-13 0.15191E-11
 0.20817E-15 0.11380E-14 0.43715E-15 0.11102E-15 0.11102E-15 0.10825E-14 0.13323E-14 0.14988E-14 0.55511E-14 0.94369E-15
 0.38858E-15 0.81338E-13 0.18735E-14 0.15744E-13 0.97145E-15 0.24055E-11 0.16281E-11 0.17764E-14 0.61590E-13 0.17815E-11
 0.19429E-15 0.98850E-10 0.16133E-13 0.96133E-10 0.12212E-14 0.16281E-11 0.34592E-12 0.42688E-13 0.17736E-13 0.62991E-12
 0.52736E-15 0.14346E-11 0.14673E-12 0.25714E-11 0.14710E-14 0.16376E-14 0.42799E-13 0.46074E-14 0.72581E-13 0.12462E-11
 0.69389E-16 0.82850E-14 0.57038E-14 0.91788E-13 0.54956E-14 0.61645E-13 0.17708E-13 0.72664E-13 -.83267E-16 0.47240E-13
 0.13878E-15 0.49960E-15 0.12906E-14 0.15191E-11 0.77716E-15 0.17815E-11 0.62991E-12 0.12462E-11 0.47226E-13 0.44020E-13
 0.27756E-16 0.83267E-16 0.13878E-14 0.16653E-15 0.97145E-16 0.24980E-15 0.12490E-15 0.30531E-15 -.13878E-16 0.83267E-16
 0.11102E-15 0.20817E-16 0.62361E-12 0.16528E-12 0.74940E-15 0.60292E-13 0.15165E-10 0.14898E-11 0.13337E-13 0.80491E-15
 0.14155E-14 0.62356E-12 0.15752E-12 0.26368E-15 0.25153E-15 0.10061E-14 0.71193E-14 0.21971E-12 0.79659E-14 0.17208E-14
 0.22204E-15 0.16520E-12 0.30531E-15 0.73899E-15 -.69389E-16 0.11473E-13 0.88777E-11 0.25910E-11 0.10646E-12 0.18837E-11
 0.24980E-15 0.69389E-15 0.31572E-15 0.83267E-16 0.26021E-16 0.81879E-15 0.13600E-14 0.11935E-14 0.44964E-14 0.65226E-15
 0.36082E-15 0.60299E-13 0.10131E-14 0.11470E-13 0.65226E-15 0.25835E-11 0.79439E-12 0.22204E-15 0.39968E-13 0.70938E-11
 0.55511E-16 0.15165E-10 0.70777E-14 0.88777E-11 0.13323E-14 0.79425E-12 0.59452E-13 0.98255E-14 0.82989E-14 0.30115E-12
 0.33307E-15 0.14898E-11 0.21969E-12 0.25910E-11 0.11657E-14 0.22204E-15 0.97700E-14 0.47184E-15 0.46629E-13 0.82157E-12
 0.41633E-16 0.13281E-13 0.79659E-14 0.10651E-12 0.44964E-14 0.39968E-13 0.83544E-14 0.46685E-13 0.12768E-14 0.48822E-13
 0.12490E-15 0.72164E-15 0.17486E-14 0.18838E-11 0.62450E-15 0.70937E-11 0.30123E-12 0.82162E-12 0.48850E-13 0.10089E-12
 -.27756E-16 0.83267E-16 0.10686E-14 0.55511E-16  0.0000     0.22204E-15 0.55511E-16 0.11102E-15 0.27756E-16 0.12490E-15
 0.97145E-16  0.0000     0.67761E-12 0.11968E-12 0.51348E-15 0.45053E-13 0.14544E-11 0.15872E-11 0.19096E-13 0.10825E-14
 0.11310E-14 0.67758E-12 0.17528E-12 0.16653E-15 0.18822E-15 0.74940E-15 0.28935E-14 0.23082E-12 0.90622E-14 0.24286E-14
 0.83267E-16 0.11971E-12 0.18041E-15 0.53776E-15 -.83267E-16 0.95280E-14 0.75284E-12 0.27891E-11 0.99518E-13 0.11238E-11
 0.11796E-15 0.62450E-15 0.21858E-15 0.97145E-16 0.38164E-16 0.66613E-15 0.13045E-14 0.77716E-15 0.36082E-14 0.40246E-15
 0.11102E-15 0.45092E-13 0.66613E-15 0.95245E-14 0.51348E-15 0.37939E-11 0.23587E-12 0.74940E-15 0.23814E-13 0.21208E-11
 0.83267E-16 0.14543E-11 0.29525E-14 0.75280E-12 0.12074E-14 0.23578E-12 0.15349E-13 0.32335E-14 0.33862E-14 0.10439E-12
 0.22898E-15 0.15871E-11 0.23082E-12 0.27890E-11 0.66613E-15 0.66613E-15 0.32890E-14  0.0000     0.27200E-13 0.68023E-12
 0.55511E-16 0.18985E-13 0.91455E-14 0.99531E-13 0.35527E-14 0.23939E-13 0.31919E-14 0.27103E-13 0.54401E-14 0.44784E-13
 0.76328E-16 0.11241E-14 0.24425E-14 0.11237E-11 0.30531E-15 0.21207E-11 0.10439E-12 0.68029E-12 0.44784E-13 0.43143E-12
  0.0000     0.27756E-16 0.10825E-14 0.27756E-16 -.69389E-17  0.0000     -.13878E-16 0.13878E-15  0.0000     0.90206E-16
 0.69389E-16 -.27756E-16 0.10849E-11 0.80300E-13 0.36776E-15 0.32325E-13 0.27964E-12 0.14740E-11 0.30947E-13 0.21788E-14
 0.10617E-14 0.10847E-11 0.19287E-12  0.0000     0.17911E-15 0.31572E-15 0.83267E-15 0.28713E-12 0.12046E-13 0.45935E-14
 0.27756E-16 0.80339E-13 0.58981E-16 0.45623E-15 -.10061E-15 0.81679E-14 0.13453E-12 0.27418E-11 0.11532E-12 0.17196E-11
 0.97145E-16 0.31919E-15 0.20643E-15 -.69389E-17 0.22551E-16 0.49960E-15 0.92287E-15 0.57593E-15 0.26090E-14 0.24980E-15
 0.33307E-15 0.32301E-13 0.30878E-15 0.80465E-14 0.27756E-15 0.44966E-11 0.88513E-13 0.13461E-14 0.13350E-13 0.21415E-12
 0.13878E-16 0.27963E-12 0.85001E-15 0.13449E-12 0.81879E-15 0.88429E-13 0.59258E-14 0.13600E-14 0.13045E-14 0.44652E-13
 0.15266E-15 0.14740E-11 0.28713E-12 0.27417E-11 0.52042E-15 0.14294E-14 0.13184E-14 -.27756E-16 0.15384E-13 0.52346E-12
 0.83267E-16 0.31003E-13 0.12060E-13 0.11537E-12 0.27756E-14 0.13434E-13 0.11657E-14 0.15453E-13 0.91038E-14 0.44888E-13
 0.34694E-16 0.21788E-14 0.46213E-14 0.17196E-11 0.29837E-15 0.21409E-12 0.44673E-13 0.52353E-12 0.44874E-13 0.13700E-10
 0.13878E-16 0.48572E-16 0.88818E-15 0.76328E-16 -.69389E-16 -.20817E-16 0.48572E-16 0.97145E-16 -.69389E-17 0.55511E-16
 0.90206E-16 0.49821E-14 0.24386E-11 0.66835E-13 0.27756E-15 0.26742E-13 0.12133E-12 0.15300E-11 0.41217E-13 0.43715E-14
 0.95063E-15 0.24386E-11 0.19920E-12 -.20817E-16 0.13878E-15 0.30878E-15 0.13184E-15 0.33903E-12 0.13420E-13 0.34694E-14
 0.34694E-16 0.66905E-13 0.27756E-16 0.34694E-15 -.34694E-16 0.86355E-14 0.62964E-13 0.28964E-11 0.12741E-12 0.13275E-11
 0.48572E-16 0.28449E-15 0.93675E-16 0.97145E-16 0.62450E-16 0.24286E-15 0.87430E-15 0.47184E-15 0.21094E-14 0.29143E-15
 0.41633E-16 0.26715E-13 0.28449E-15 0.87014E-14 0.22204E-15 0.64680E-11 0.39406E-13 0.94369E-15 0.84516E-14 0.63720E-13
 0.55511E-16 0.12128E-12 0.90206E-16 0.62922E-13 0.79797E-15 0.39260E-13 0.28311E-14 0.63838E-15 0.55511E-15 0.22558E-13
 0.10408E-15 0.15299E-11 0.33902E-12 0.28964E-11 0.43021E-15 0.74940E-15 0.63838E-15 -.20817E-16 0.94647E-14 0.45296E-12
 -.13878E-16 0.41217E-13 0.13420E-13 0.12745E-12 0.20400E-14 0.85071E-14 0.55511E-15 0.94716E-14 0.12233E-13 0.42896E-13
 0.41633E-16 0.43576E-14 0.35250E-14 0.13275E-11 0.21511E-15 0.63824E-13 0.22669E-13 0.45304E-12 0.42813E-13 0.20314E-11
 -.27756E-16 -.69389E-17 0.86042E-15 -.20817E-16  0.0000     -.41633E-16 0.27756E-16  0.0000     -.27756E-16 0.11102E-15
 0.13878E-16 0.26854E-13 0.15233E-11 0.47129E-13 0.26368E-15 0.20595E-13 0.45408E-13 0.13400E-11 0.61284E-13 0.98532E-14
 0.81879E-15 0.15233E-11 0.21708E-12 -.41633E-16 0.11796E-15 0.25674E-15 0.15266E-15 0.31974E-12 0.15883E-13 0.44062E-14
 0.41633E-16 0.47205E-13 0.27756E-16 0.43021E-15 -.55511E-16 0.88818E-14 0.22496E-13 0.27947E-11 0.13441E-12 0.78335E-12
 0.10408E-15 0.13184E-15 0.12490E-15 0.69389E-16 -.83267E-16 0.24980E-15 0.68001E-15 0.36082E-15 0.18111E-14 0.13878E-15
 0.27756E-16 0.20567E-13 0.18041E-15 0.89512E-14 0.13184E-15 0.10352E-10 0.19866E-13 0.61756E-15 0.60230E-14 0.17895E-13
 -.69389E-17 0.45366E-13 0.48572E-16 0.22427E-13 0.59674E-15 0.19817E-13 0.17625E-14 0.52736E-15 0.33307E-15 0.11713E-13
 0.97145E-16 0.13400E-11 0.31977E-12 0.27947E-11 0.34694E-15 0.72858E-15 0.45797E-15 -.69389E-17 0.68279E-14 0.38294E-12
 0.20817E-16 0.61277E-13 0.15876E-13 0.13446E-12 0.17902E-14 0.60577E-14 0.36082E-15 0.69528E-14 0.13302E-13 0.40037E-13
 0.41633E-16 0.98740E-14 0.44270E-14 0.78328E-12 0.13878E-15 0.17826E-13 0.11720E-13 0.38300E-12 0.39954E-13 0.61562E-12
 -.48572E-16 0.69389E-17 0.80491E-15 -.13878E-16 -.13878E-16 -.20817E-16 -.13878E-16 -.27756E-16  0.0000     -.27756E-16
 -.55511E-16 0.26455E-12 0.80934E-11 0.38802E-13 0.11796E-15 0.16938E-13 0.26409E-13 0.13069E-11 0.99393E-13 0.30288E-13
 0.76328E-15 0.80933E-11 0.22304E-12 0.27756E-16 0.76328E-16 0.18041E-15  0.0000     0.41959E-12 0.21053E-13 0.94924E-14
 -.27756E-16 0.38906E-13 0.48572E-16 0.22898E-15 -.83267E-16 0.86528E-14 0.12775E-13 0.28488E-11 0.13763E-12 0.46887E-12
 0.55511E-16 0.18735E-15 0.69389E-16 0.69389E-16 -.55511E-16 0.18041E-15 0.65226E-15 0.33307E-15 0.15335E-14 0.11102E-15
 -.69389E-17 0.16986E-13 0.69389E-16 0.86667E-14 0.12490E-15 0.25634E-10 0.11588E-13 0.62450E-15 0.37123E-14 0.84793E-14
 0.41633E-16 0.26465E-13 0.34694E-16 0.12761E-13 0.56205E-15 0.11484E-13 0.95757E-15 0.30531E-15 0.26368E-15 0.71956E-14
 0.55511E-16 0.13069E-11 0.41962E-12 0.28487E-11 0.22204E-15 0.61756E-15 0.21511E-15 -.34694E-16 0.45033E-14 0.34076E-12
 -.34694E-16 0.99309E-13 0.21066E-13 0.13771E-12 0.14364E-14 0.37054E-14 0.22204E-15 0.43299E-14 0.14495E-13 0.38372E-13
 -.41633E-16 0.30267E-13 0.95410E-14 0.46877E-12 0.97145E-16 0.84724E-14 0.71540E-14 0.34087E-12 0.38275E-13 0.29630E-12
 -.34694E-16 -.34694E-16 0.68001E-15 -.20817E-16 -.69389E-17 -.83267E-16 -.20817E-16  0.0000     -.69389E-17 0.10408E-15
 -.55511E-16 0.76737E-12 0.27592E-11 0.29171E-13 0.16653E-15 0.14024E-13 0.14266E-13 0.11922E-11 0.11845E-12 0.93793E-13
 0.66613E-15 0.27591E-11 0.26065E-12 0.27756E-16 0.97145E-16 0.90206E-16 -.34694E-16 0.33619E-12 0.19512E-13 0.18027E-13
 0.20817E-16 0.29261E-13 0.27756E-16 0.38164E-15 -.11102E-15 0.91038E-14 0.67030E-14 0.26576E-11 0.12608E-12 0.59695E-13
 0.62450E-16 0.27756E-16 0.11102E-15 -.69389E-17 -.34694E-16 0.13184E-15 0.49960E-15 0.20817E-15 0.13947E-14 0.34694E-16
 0.20817E-16 0.14051E-13 0.55511E-16 0.90344E-14 0.41633E-16 0.45098E-10 0.70430E-14 0.47184E-15 0.27547E-14 0.37956E-14
 -.27756E-16 0.14294E-13 0.13878E-16 0.66752E-14 0.44409E-15 0.71054E-14 0.54817E-15 0.21511E-15 0.62450E-16 0.46282E-14
 0.27756E-16 0.11921E-11 0.33612E-12 0.26576E-11 0.15266E-15 0.49960E-15 0.15266E-15 0.27756E-16 0.34278E-14 0.30018E-12
 -.27756E-16 0.11848E-12 0.19512E-13 0.12605E-12 0.14294E-14 0.28588E-14 0.55511E-16 0.35180E-14 0.13371E-13 0.35111E-13
 0.69389E-17 0.93765E-13 0.17951E-13 0.59619E-13 0.10408E-15 0.38233E-14 0.45380E-14 0.30029E-12 0.35076E-13 0.24877E-12
 -.27756E-16 -.27756E-16 0.78410E-15 0.34694E-16 0.55511E-16 -.69389E-17 0.34694E-16 0.13878E-16 -.69389E-17 -.27756E-16
 -.55511E-16 0.18532E-12 0.20851E-10 0.23502E-13 0.69389E-16 0.12518E-13 0.90206E-14 0.14885E-11 0.17073E-12 0.14496E-11
 0.77716E-15 0.20851E-10 0.27722E-12 0.55511E-16 0.76328E-16 0.34694E-16 -.41633E-16 0.74016E-12 0.27534E-13 0.44575E-13
 0.13878E-16 0.23516E-13 -.69389E-17 0.31919E-15 -.83267E-16 0.95063E-14 0.43368E-14 0.26853E-11 0.14530E-12 0.23939E-13
 0.62450E-16 0.62450E-16 0.10408E-15 0.83267E-16 0.41633E-16 0.10408E-15 0.39552E-15 0.24980E-15 0.12768E-14 0.76328E-16
 0.41633E-16 0.12462E-13 0.34694E-16 0.95202E-14 0.13878E-16 0.17231E-09 0.46074E-14 0.44409E-15 0.20400E-14 0.24980E-14
 0.76328E-16 0.90136E-14 -.48572E-16 0.42952E-14 0.31919E-15 0.45450E-14 0.51695E-15 0.23245E-15 0.93675E-16 0.32682E-14
 0.55511E-16 0.14885E-11 0.74012E-12 0.26853E-11 0.13184E-15 0.48572E-15 0.27409E-15 0.11796E-15 0.33168E-14 0.28481E-12
 0.69389E-17 0.17072E-12 0.27645E-13 0.14530E-12 0.11588E-14 0.21302E-14 0.12143E-15 0.32960E-14 0.14606E-13 0.33570E-13
 -.13878E-16 0.14495E-11 0.44638E-13 0.23911E-13 0.48572E-16 0.25119E-14 0.32752E-14 0.28490E-12 0.33515E-13 0.20366E-12
 -.83267E-16 -.34694E-16 0.58287E-15 -.48572E-16 -.69389E-17 -.13878E-16 -.34694E-16 -.48572E-16 0.20817E-16 0.48572E-16
 -.76328E-16 0.87798E-13 0.12736E-09 0.17653E-13 0.83267E-16 0.88887E-14 0.57315E-14 0.15043E-11 0.14572E-12 0.56068E-10
 0.56205E-15 0.12736E-09 0.28514E-12 -.34694E-16 0.13878E-16 0.27756E-16 0.13878E-16 0.82483E-12 0.19533E-13 0.16216E-13
 0.55511E-16 0.17750E-13 -.20817E-16 0.24980E-15 -.12490E-15 0.77507E-14 0.24772E-14 0.24508E-11 0.13176E-12 0.93529E-13
 0.34694E-16 -.13878E-16 0.69389E-16 0.13878E-16 -.69389E-16 -.13878E-16 0.26368E-15 0.11102E-15 0.10963E-14 -.76328E-16
 -.69389E-17 0.89026E-14 -.34694E-16 0.76328E-14 0.34694E-16 0.12361E-09 0.28692E-14 0.36429E-15 0.13531E-14 0.12143E-15
 -.76328E-16 0.57385E-14 0.48572E-16 0.24841E-14 0.16653E-15 0.28137E-14 0.12490E-15 0.71124E-16 -.11449E-15 0.19741E-14
 0.27756E-16 0.15043E-11 0.82481E-12 0.24508E-11 0.13878E-16 0.41286E-15 0.10495E-15 0.63317E-16 0.19654E-14 0.25945E-12
  0.0000     0.14568E-12 0.19519E-13 0.13178E-12 0.11866E-14 0.15057E-14 -.12317E-15 0.20383E-14 0.14027E-13 0.29726E-13
 -.34694E-16 0.56068E-10 0.16251E-13 0.93474E-13 -.48572E-16 0.13531E-15 0.19221E-14 0.25949E-12 0.29692E-13 0.16919E-12
  0.0000     0.69389E-17 0.80491E-15  0.0000      0.0000     0.55511E-16 0.27756E-16 0.13878E-16 -.69389E-17 -.34694E-16
 -.27756E-16 0.79409E-13 0.36460E-10 0.14627E-13 0.83267E-16 0.88957E-14 0.39690E-14 0.16219E-11 0.23179E-12 0.58383E-10
 0.76328E-15 0.36459E-10 0.30943E-12 -.20817E-16 0.62450E-16 0.10408E-15  0.0000     0.11395E-11 0.27756E-13 0.81074E-13
 0.13878E-16 0.14738E-13  0.0000     0.38164E-15 -.13878E-16 0.10353E-13 0.17070E-14 0.24258E-11 0.15821E-12 0.34035E-13
 0.13878E-15 0.17347E-15 0.12490E-15 0.13878E-16  0.0000     0.11796E-15 0.38858E-15 0.26368E-15 0.13115E-14 0.76328E-16
 0.11102E-15 0.88055E-14 0.48572E-16 0.10242E-13 0.41633E-16 0.57161E-10 0.26368E-14 0.38251E-15 0.16029E-14 0.10738E-14
 0.48572E-16 0.39760E-14 0.83267E-16 0.17764E-14 0.26368E-15 0.25535E-14 0.31052E-15 0.83267E-16 0.65919E-16 0.18076E-14
 0.69389E-16 0.16218E-11 0.11395E-11 0.24258E-11 0.16653E-15 0.44452E-15  0.0000     0.73726E-16 0.31121E-14 0.22133E-12
 -.69389E-17 0.23183E-12 0.27756E-13 0.15823E-12 0.13392E-14 0.17694E-14 0.68522E-16 0.31190E-14 0.12792E-13 0.28109E-13
 0.20817E-16 0.58383E-10 0.81060E-13 0.33980E-13 0.62450E-16 0.10773E-14 0.17816E-14 0.22131E-12 0.28103E-13 0.20556E-12
 0.27756E-16 -.48572E-16 0.62450E-15 0.48572E-16 0.41633E-16 -.13878E-16 -.34694E-16 -.13878E-16 -.13878E-16 0.83267E-16
 -.48572E-16 0.72053E-13 0.13579E-11 0.10617E-13  0.0000     0.67585E-14 0.26090E-14 0.14970E-11 0.15629E-12 0.63163E-12
 0.58287E-15 0.13579E-11 0.34396E-12 0.69389E-17 0.55511E-16 0.55511E-16 0.27756E-16 0.94614E-12 0.20636E-13 0.31808E-13
 -.27756E-16 0.10617E-13 -.13878E-16 0.24980E-15 -.97145E-16 0.89095E-14 0.10894E-14 0.21759E-11 0.12237E-12 0.19408E-12
 0.69389E-16 -.55511E-16 0.27756E-16  0.0000      0.0000     -.27756E-16 0.20817E-15 0.62450E-16 0.13461E-14 -.13878E-15
 -.55511E-16 0.66891E-14 0.41633E-16 0.88818E-14 -.41633E-16 0.98733E-11 0.13461E-14 0.18908E-15 0.97145E-15 0.83267E-16
 0.41633E-16 0.25951E-14 0.27756E-16 0.11102E-14 0.22204E-15 0.13878E-14 0.52042E-16 -.97145E-16 -.19602E-15 0.10686E-14
 0.27756E-16 0.14970E-11 0.94611E-12 0.21758E-11 -.55511E-16 0.30531E-15 0.97145E-16 -.62450E-16 0.19221E-14 0.21902E-12
 0.13878E-16 0.15631E-12 0.20567E-13 0.12240E-12 0.12837E-14 0.10270E-14 -.93675E-16 0.18874E-14 0.11414E-13 0.24807E-13
 0.27756E-16 0.63158E-12 0.31794E-13 0.19400E-12 -.41633E-16 -.34694E-16 0.10304E-14 0.21904E-12 0.24730E-13 0.20112E-12
 -.69389E-16 -.13878E-16 0.79103E-15 0.83267E-16 -.13878E-16 -.27756E-16 0.27756E-16 -.27756E-16 0.13878E-16  0.0000    
 0.13878E-16 0.90983E-13 0.17988E-11 0.10325E-13 -.69389E-17 0.61340E-14 0.23592E-14 0.18226E-11 0.20980E-12 0.11681E-12
 0.84655E-15 0.17989E-11 0.34647E-12 -.27756E-16 0.55511E-16 0.55511E-16 0.13878E-16 0.19495E-11 0.28380E-13 0.32016E-13
 -.27756E-16 0.10325E-13 -.41633E-16 0.36082E-15 -.83267E-16 0.95757E-14 0.10061E-14 0.21428E-11 0.14498E-12 0.72442E-13
 0.69389E-16 0.69389E-16  0.0000     0.55511E-16 -.27756E-16 -.55511E-16 0.20817E-15 0.15266E-15 0.15821E-14 -.55511E-16
 0.13878E-16 0.59952E-14  0.0000     0.94369E-14 -.41633E-16 0.62584E-11 0.14849E-14 0.34694E-15 0.15266E-14 0.21511E-15
 0.69389E-16 0.22690E-14 0.27756E-16 0.95757E-15 0.12490E-15 0.14849E-14 0.15613E-15 0.41633E-16 0.62450E-16 0.86042E-15
 0.27756E-16 0.18225E-11 0.19495E-11 0.21428E-11 0.27756E-16 0.49960E-15 -.41633E-16 0.20817E-15 0.26645E-14 0.19153E-12
 0.13878E-16 0.20975E-12 0.28422E-13 0.14498E-12 0.15127E-14 0.15543E-14 0.58981E-16 0.27478E-14 0.10471E-13 0.29476E-13
  0.0000     0.11681E-12 0.31988E-13 0.72366E-13 0.55511E-16 0.24980E-15 0.94369E-15 0.19157E-12 0.29449E-13 0.23342E-12
 -.83267E-16  0.0000     0.61062E-15 0.27756E-16  0.0000     -.13878E-15 -.11102E-15 -.55511E-16  0.0000     0.13878E-16
 -.69389E-16 0.10546E-12 0.56622E-11 0.78548E-14 -.27756E-16 0.53013E-14 0.15959E-14 0.16819E-11 0.14687E-12 0.31683E-13
 0.62450E-15 0.56622E-11 0.37212E-12 -.27756E-16 0.41633E-16 -.27756E-16 0.97145E-16 0.24406E-11 0.19762E-13 0.28727E-14
 0.13878E-16 0.79103E-14 -.27756E-16 0.49960E-15 -.41633E-16 0.96034E-14 0.70777E-15 0.18998E-11 0.12366E-12 0.14493E-12
 0.11102E-15 0.34694E-16 0.83267E-16 0.41633E-16 0.27756E-16 -.41633E-16 0.83267E-16 0.69389E-16 0.13045E-14 -.55511E-16
 0.13878E-16 0.52458E-14 -.41633E-16 0.94785E-14 0.27756E-16 0.38134E-11 0.84655E-15 0.22204E-15 0.92981E-15 -.13184E-15
 0.27756E-16 0.16237E-14 0.83267E-16 0.68001E-15 0.55511E-16 0.83267E-15 0.41633E-16 -.83267E-16 -.15266E-15 0.49960E-15
 0.27756E-16 0.16819E-11 0.24406E-11 0.18998E-11 -.41633E-16 0.33307E-15 -.16653E-15 -.27756E-16 0.19984E-14 0.17811E-12
 0.13878E-16 0.14688E-12 0.19720E-13 0.12378E-12 0.12906E-14 0.10825E-14 -.11102E-15 0.20262E-14 0.98255E-14 0.26812E-13
 -.41633E-16 0.31766E-13 0.28727E-14 0.14484E-12 -.55511E-16 -.62450E-16 0.61062E-15 0.17800E-12 0.26798E-13 0.25634E-12
 -.13878E-16 0.13878E-16 0.80491E-15 -.27756E-16 0.27756E-16 -.12490E-15 -.41633E-16 -.41633E-16 -.13878E-16 0.27756E-16
 0.27756E-16 0.18091E-12 0.86579E-12 0.73830E-14 0.41633E-16 0.62450E-14 0.13184E-14 0.19212E-11 0.14296E-12 0.12004E-13
 0.87430E-15 0.86581E-12 0.38627E-12 -.27756E-16 -.27756E-16 0.41633E-16 0.27756E-16 0.54112E-11 0.22024E-13 0.17070E-14
 -.27756E-16 0.74385E-14 0.97145E-16 0.31919E-15 -.41633E-16 0.11102E-13 0.55511E-15 0.18422E-11 0.12081E-12 0.14437E-12
 0.97145E-16 0.13878E-16 0.13878E-16 0.13878E-16 0.27756E-16  0.0000     0.11102E-15 0.83267E-16 0.17764E-14 0.27756E-16
 -.27756E-16 0.62728E-14 0.13878E-16 0.10977E-13 -.41633E-16 0.18638E-11 0.72164E-15 0.13878E-15 0.95757E-15 -.13878E-16
  0.0000     0.13461E-14 0.55511E-16 0.47184E-15 0.41633E-16 0.77716E-15 0.13878E-15 0.12490E-15 -.13878E-16 0.55511E-15
 0.11102E-15 0.19212E-11 0.54112E-11 0.18421E-11 0.41633E-16 0.24980E-15 0.69389E-16 0.27756E-16 0.20955E-14 0.17510E-12
 -.27756E-16 0.14291E-12 0.21982E-13 0.12086E-12 0.17625E-14 0.98532E-15 0.13878E-16 0.20678E-14 0.87985E-14 0.33473E-13
 0.41633E-16 0.11963E-13 0.17625E-14 0.14427E-12 0.55511E-16 0.62450E-16 0.69389E-15 0.17510E-12 0.33445E-13 0.26280E-12
 0.76328E-16 -.27756E-16 0.86042E-15 0.97145E-16 -.13878E-16 -.12490E-15 -.27756E-16 -.41633E-16  0.0000     0.13878E-16
 -.20817E-16 0.59118E-12 0.15484E-11 0.59258E-14 0.83267E-16 0.71332E-14 0.10825E-14 0.19809E-11 0.13418E-12 0.59189E-14
 0.83267E-15 0.15484E-11 0.46765E-12 0.27756E-16  0.0000     0.13878E-16 0.27756E-16 0.10746E-10 0.19026E-13 0.91593E-15
 -.13878E-16 0.59536E-14 0.55511E-16 0.43021E-15 -.55511E-16 0.10839E-13 0.44409E-15 0.16455E-11 0.11259E-12 0.11030E-12
 0.27756E-16 0.13878E-16 0.41633E-16 0.27756E-16 -.55511E-16 -.41633E-16 0.11102E-15  0.0000     0.18319E-14 0.13878E-16
  0.0000     0.71054E-14  0.0000     0.10769E-13 -.69389E-16 0.27727E-11 0.65226E-15 0.15266E-15 0.11380E-14 0.15266E-15
 0.27756E-16 0.10825E-14 0.55511E-16 0.45797E-15 0.97145E-16 0.58287E-15 0.19429E-15 0.13878E-15 0.11102E-15 0.49960E-15
 0.69389E-16 0.19809E-11 0.10746E-10 0.16455E-11 0.55511E-16 0.26368E-15 0.69389E-16 0.27756E-16 0.23037E-14 0.14994E-12
 0.69389E-16 0.13418E-12 0.18999E-13 0.11266E-12 0.18596E-14 0.99920E-15 0.27756E-16 0.21927E-14 0.75218E-14 0.34028E-13
 0.20817E-16 0.59397E-14 0.86042E-15 0.11020E-12 -.27756E-16 0.27756E-16 0.44409E-15 0.14989E-12 0.34001E-13 0.36857E-12
 -.34694E-17 -.41633E-16 0.72858E-15 0.41633E-16 -.13878E-16 -.83267E-16 0.13878E-16 -.11102E-15 0.48572E-16 -.34694E-16
 -.20817E-16 0.32758E-10 0.10256E-12 0.53013E-14 -.13878E-16 0.87985E-14 0.92981E-15 0.20336E-11 0.10545E-12 0.29560E-14
 0.74940E-15 0.10256E-12 0.49520E-12 -.55511E-16  0.0000      0.0000     0.27756E-16 0.12457E-10 0.14301E-13 0.45797E-15
 -.97145E-16 0.53013E-14 0.27756E-16 0.38858E-15 -.69389E-16 0.14849E-13 0.36082E-15 0.15306E-11 0.90566E-13 0.13238E-12
 -.27756E-16 -.13878E-16 0.55511E-16 0.27756E-16 -.13878E-16  0.0000     0.55511E-16 0.13878E-16 0.22066E-14 0.55511E-16
 0.41633E-16 0.86320E-14 -.13878E-16 0.14766E-13  0.0000     0.14656E-11 0.55511E-15 0.18041E-15 0.12490E-14 -.83267E-16
 -.13878E-16 0.99920E-15 0.41633E-16 0.31919E-15 0.27756E-16 0.69389E-15 0.19429E-15 0.69389E-16 -.41633E-16 0.49960E-15
 0.13878E-16 0.20335E-11 0.12457E-10 0.15306E-11 0.13878E-16 0.11102E-15 0.13878E-16 0.41633E-16 0.28172E-14 0.14878E-12
  0.0000     0.10540E-12 0.14391E-13 0.90553E-13 0.21233E-14 0.12906E-14 -.27756E-16 0.27617E-14 0.66613E-14 0.34833E-13
 0.13878E-16 0.29768E-14 0.45103E-15 0.13238E-12 -.41633E-16 -.27756E-16 0.38858E-15 0.14873E-12 0.34805E-13 0.37736E-12
 -.91940E-16 -.58981E-16 0.11102E-14 -.13878E-16 0.27756E-16 -.97145E-16 -.27756E-16 0.13878E-16 0.34694E-16 -.32960E-16
 -.45103E-16 0.70751E-12 0.99871E-13 0.53568E-14 0.83267E-16 0.10006E-13 0.12490E-14 0.24049E-11 0.11911E-12 0.14710E-14
 0.11102E-14 0.99927E-13 0.56814E-12 0.13878E-16 0.69389E-16 -.97145E-16  0.0000     0.14474E-08 0.15619E-13 0.97491E-15
  0.0000     0.53985E-14 0.55511E-16 0.59674E-15 -.55511E-16 0.13586E-13 0.29143E-15 0.14830E-11 0.13116E-12 0.64525E-13
 0.41633E-16 -.41633E-16 0.41633E-16  0.0000     0.27756E-16 0.27756E-16 0.15266E-15 -.13878E-16 0.24009E-14 0.69389E-16
 0.69389E-16 0.99365E-14 -.41633E-16 0.13434E-13 -.13878E-16 0.28794E-11 0.74940E-15 0.20817E-15 0.12074E-14 -.27756E-16
 -.27756E-16 0.12629E-14 -.41633E-16 0.31919E-15 0.15266E-15 0.81879E-15 0.13878E-15 0.83267E-16 -.13878E-16 0.58287E-15
 0.13878E-16 0.24050E-11 0.14474E-08 0.14829E-11 -.41633E-16 0.20817E-15 0.83267E-16 -.69389E-16 0.26229E-14 0.18116E-12
 -.13878E-16 0.11906E-12 0.15668E-13 0.13119E-12 0.23870E-14 0.10963E-14 0.13878E-16 0.26923E-14 0.61340E-14 0.48739E-13
 -.27756E-16 0.15231E-14 0.98185E-15 0.64455E-13 0.27756E-16  0.0000     0.44409E-15 0.18105E-12 0.48711E-13 0.53410E-12
 0.30791E-16 -.72858E-16 0.11037E-14 0.22118E-16 0.29490E-16 -.56595E-16 -.51500E-17 -.20022E-16 0.12143E-16 -.56433E-16
 -.34803E-16 0.85501E-13 0.57504E-13 0.54132E-14 0.38164E-16 0.13795E-13 0.18882E-14 0.27004E-11 0.11238E-12 0.10464E-14
 0.11154E-14 0.57499E-13 0.67356E-12 -.19516E-16 0.29490E-16 0.14311E-16 -.33827E-16 0.50683E-10 0.13643E-13 0.15417E-15
 -.16914E-16 0.53889E-14 0.28406E-16 0.58634E-15 -.84134E-16 0.19320E-13 0.36321E-15 0.13974E-11 0.17116E-12 0.34857E-13