 vasp.5.4.4.18Apr17-6-g9f103f2a35 (build Jun 30 2017 11:15:00) complex          
  
 executed on    STALLO_VASP_5.4.4 date 2019.10.11  09:51:55
 running on    4 total cores
 distrk:  each k-point on    4 cores,    1 groups
 distr:  one band on NCORES_PER_BAND=   2 cores,    2 groups


--------------------------------------------------------------------------------------------------------


 INCAR:
 POTCAR:   PAW_PBE Cu 05Jan2001                   
 POTCAR:   PAW_PBE H 15Jun2001                    
 POTCAR:   PAW_PBE Cu 05Jan2001                   
   VRHFIN =Cu: d10 p1                                                           
   LEXCH  = PE                                                                  
   EATOM  =  1390.9800 eV,  102.2341 Ry                                         
                                                                                
   TITEL  = PAW_PBE Cu 05Jan2001                                                
   LULTRA =        F    use ultrasoft PP ?                                      
   IUNSCR =        1    unscreen: 0-lin 1-nonlin 2-no                           
   RPACOR =    2.000    partial core radius                                     
   POMASS =   63.546; ZVAL   =   11.000    mass and valenz                      
   RCORE  =    2.300    outmost cutoff radius                                   
   RWIGS  =    2.480; RWIGS  =    1.312    wigner-seitz radius (au A)           
   ENMAX  =  273.214; ENMIN  =  204.910 eV                                      
   RCLOC  =    1.712    cutoff for local pot                                    
   LCOR   =        T    correct aug charges                                     
   LPAW   =        T    paw PP                                                  
   EAUG   =  516.456                                                            
   DEXC   =    -.008                                                            
   RMAX   =    2.789    core radius for proj-oper                               
   RAUG   =    1.300    factor for augmentation sphere                          
   RDEP   =    2.302    radius for radial grids                                 
   QCUT   =   -4.481; QGAM   =    8.962    optimization parameters              
                                                                                
   Description                                                                  
     l     E      TYP  RCUT    TYP  RCUT                                        
     2   .000     23  2.300                                                     
     2   .000     23  2.300                                                     
     0   .000     23  2.300                                                     
     0   .000     23  2.300                                                     
     1  -.200     23  2.300                                                     
     1   .000     23  2.300                                                     
     3   .000      7   .000                                                     
  local pseudopotential read in
  partial core-charges read in
  atomic valenz-charges read in
  non local Contribution for L=           2  read in
    real space projection operators read in
  non local Contribution for L=           2  read in
    real space projection operators read in
  non local Contribution for L=           0  read in
    real space projection operators read in
  non local Contribution for L=           0  read in
    real space projection operators read in
  non local Contribution for L=           1  read in
    real space projection operators read in
  non local Contribution for L=           1  read in
    real space projection operators read in
    PAW grid and wavefunctions read in
 
   number of l-projection  operators is LMAX  =           6
   number of lm-projection operators is LMMAX =          18
 
 POTCAR:   PAW_PBE H 15Jun2001                    
   VRHFIN =H: ultrasoft test                                                    
   LEXCH  = PE                                                                  
   EATOM  =    12.4884 eV,     .9179 Ry                                         
                                                                                
   TITEL  = PAW_PBE H 15Jun2001                                                 
   LULTRA =        F    use ultrasoft PP ?                                      
   IUNSCR =        0    unscreen: 0-lin 1-nonlin 2-no                           
   RPACOR =     .000    partial core radius                                     
   POMASS =    1.000; ZVAL   =    1.000    mass and valenz                      
   RCORE  =    1.100    outmost cutoff radius                                   
   RWIGS  =     .700; RWIGS  =     .370    wigner-seitz radius (au A)           
   ENMAX  =  250.000; ENMIN  =  200.000 eV                                      
   RCLOC  =     .701    cutoff for local pot                                    
   LCOR   =        T    correct aug charges                                     
   LPAW   =        T    paw PP                                                  
   EAUG   =  400.000                                                            
   RMAX   =    2.174    core radius for proj-oper                               
   RAUG   =    1.200    factor for augmentation sphere                          
   RDEP   =    1.112    radius for radial grids                                 
   QCUT   =   -5.749; QGAM   =   11.498    optimization parameters              
                                                                                
   Description                                                                  
     l     E      TYP  RCUT    TYP  RCUT                                        
     0   .000     23  1.100                                                     
     0   .500     23  1.100                                                     
     1  -.300     23  1.100                                                     
  local pseudopotential read in
  atomic valenz-charges read in
  non local Contribution for L=           0  read in
    real space projection operators read in
  non local Contribution for L=           0  read in
    real space projection operators read in
  non local Contribution for L=           1  read in
    real space projection operators read in
    PAW grid and wavefunctions read in
 
   number of l-projection  operators is LMAX  =           3
   number of lm-projection operators is LMMAX =           5
 

 ----------------------------------------------------------------------------- 
|                                                                             |
|  ADVICE TO THIS USER RUNNING 'VASP/VAMP'   (HEAR YOUR MASTER'S VOICE ...):  |
|                                                                             |
|      You have a (more or less) 'small supercell' and for smaller cells      |
|      it is recommended  to use the reciprocal-space projection scheme!      |
|      The real space optimization is not  efficient for small cells and it   |
|      is also less accurate ...                                              |
|      Therefore set LREAL=.FALSE. in the  INCAR file                         |
|                                                                             |
 ----------------------------------------------------------------------------- 

 Optimization of the real space projectors (new method)

 maximal supplied QI-value         = 16.25
 optimisation between [QCUT,QGAM] = [  7.96, 16.09] = [ 17.76, 72.49] Ry 
 Optimized for a Real-space Cutoff    1.70 Angstroem

   l    n(q)    QCUT    max X(q) W(low)/X(q) W(high)/X(q)  e(spline) 
   2      7     7.963     4.977    0.65E-04    0.90E-04    0.59E-07
   2      7     7.963    13.467    0.48E-03    0.73E-03    0.12E-06
   0      8     7.963    13.303    0.22E-04    0.12E-04    0.51E-08
   0      8     7.963    44.613    0.10E-03    0.16E-03    0.47E-07
   1      8     7.963     5.276    0.66E-04    0.10E-04    0.22E-07
   1      8     7.963     7.322    0.38E-03    0.18E-03    0.17E-06
 Optimization of the real space projectors (new method)

 maximal supplied QI-value         = 34.20
 optimisation between [QCUT,QGAM] = [  7.87, 16.08] = [ 17.33, 72.37] Ry 
 Optimized for a Real-space Cutoff    1.85 Angstroem

   l    n(q)    QCUT    max X(q) W(low)/X(q) W(high)/X(q)  e(spline) 
   0      9     7.867     4.436    0.44E-04    0.71E-04    0.23E-06
   0      9     7.867    15.341    0.29E-03    0.73E-03    0.99E-06
   1      8     7.867     4.196    0.27E-03    0.13E-02    0.91E-06
 PAW_PBE Cu 05Jan2001                   :
 energy of atom  1       EATOM=-1390.9800
 kinetic energy error for atom=    0.0930 (will be added to EATOM!!)
 PAW_PBE H 15Jun2001                    :
 energy of atom  2       EATOM=  -12.4884
 kinetic energy error for atom=    0.0868 (will be added to EATOM!!)
 
 
 POSCAR: Cu  H                                   
  positions in direct lattice
  velocities in cartesian coordinates
 exchange correlation table for  LEXCH =        8
   RHO(1)=    0.500       N(1)  =     2000
   RHO(2)=  100.500       N(2)  =     4000
 


--------------------------------------------------------------------------------------------------------


 ion  position               nearest neighbor table
   1  0.000  0.000  0.396-   2 2.56   2 2.56   2 2.56
   2  0.333  0.333  0.465-   3 2.56   3 2.56   3 2.56   1 2.56   1 2.56   1 2.56
   3  0.667  0.667  0.534-   2 2.56   2 2.56   2 2.56   4 2.66   4 2.66   4 2.66
   4  0.000  0.000  0.607-   5 1.71   5 1.71   5 1.71   3 2.66   3 2.66   3 2.66
   5  0.667  0.667  0.635-   4 1.71   4 1.71   4 1.71
 
  LATTYP: Found a hexagonal cell.
 ALAT       =     2.5738686835
 C/A-ratio  =    11.7739747694
  
  Lattice vectors:
  
 A1 = (   1.2869343418,  -2.2290356659,   0.0000000000)
 A2 = (  -2.5738686835,   0.0000000000,   0.0000000000)
 A3 = (   0.0000000000,   0.0000000000, -30.3046649396)


Analysis of symmetry for initial positions (statically):
=====================================================================
 Subroutine PRICEL returns:
 Original cell was already a primitive cell.
 

 Routine SETGRP: Setting up the symmetry group for a 
 hexagonal supercell.


 Subroutine GETGRP returns: Found  6 space group operations
 (whereof  6 operations were pure point group operations)
 out of a pool of 24 trial point group operations.


The static configuration has the point symmetry C_3v.


Analysis of symmetry for dynamics (positions and initial velocities):
=====================================================================
 Subroutine PRICEL returns:
 Original cell was already a primitive cell.
 

 Routine SETGRP: Setting up the symmetry group for a 
 hexagonal supercell.


 Subroutine GETGRP returns: Found  6 space group operations
 (whereof  6 operations were pure point group operations)
 out of a pool of 24 trial point group operations.


The dynamic configuration has the point symmetry C_3v.


 Subroutine INISYM returns: Found  6 space group operations
 (whereof  6 operations are pure point group operations),
 and found     1 'primitive' translations

 
 
 KPOINTS: k-density: 4.0                          

Automatic generation of k-mesh.
Space group operators:
 irot       det(A)        alpha          n_x          n_y          n_z        tau_x        tau_y        tau_z
    1     1.000000     0.000001     1.000000     0.000000     0.000000     0.000000     0.000000     0.000000
    2     1.000000   120.000000     0.000000     0.000000     1.000000     0.000000     0.000000     0.000000
    3     1.000000   120.000000     0.000000     0.000000    -1.000000     0.000000     0.000000     0.000000
    4    -1.000000   180.000000     0.500000    -0.866025     0.000000     0.000000     0.000000     0.000000
    5    -1.000000   180.000000     1.000000     0.000000     0.000000     0.000000     0.000000     0.000000
    6    -1.000000   180.000000    -0.500000    -0.866025     0.000000     0.000000     0.000000     0.000000
 
 Subroutine IBZKPT returns following result:
 ===========================================
 
 Found     14 irreducible k-points:
 
 Following reciprocal coordinates:
            Coordinates               Weight
  0.000000  0.000000  0.000000      1.000000
  0.100000  0.000000  0.000000      6.000000
  0.200000 -0.000000  0.000000      6.000000
  0.300000 -0.000000  0.000000      6.000000
  0.400000 -0.000000  0.000000      6.000000
  0.500000 -0.000000  0.000000      3.000000
  0.200000  0.100000  0.000000      6.000000
  0.300000  0.100000  0.000000     12.000000
  0.400000  0.100000  0.000000     12.000000
  0.500000  0.100000  0.000000     12.000000
  0.400000  0.200000  0.000000      6.000000
  0.500000  0.200000  0.000000     12.000000
 -0.400000  0.200000  0.000000      6.000000
 -0.400000  0.300000  0.000000      6.000000
 
 Following cartesian coordinates:
            Coordinates               Weight
  0.000000  0.000000  0.000000      1.000000
  0.038852 -0.022431  0.000000      6.000000
  0.077704 -0.044862  0.000000      6.000000
  0.116556 -0.067294  0.000000      6.000000
  0.155408 -0.089725  0.000000      6.000000
  0.194260 -0.112156  0.000000      3.000000
  0.077704 -0.000000  0.000000      6.000000
  0.116556 -0.022431  0.000000     12.000000
  0.155408 -0.044862  0.000000     12.000000
  0.194260 -0.067294  0.000000     12.000000
  0.155408  0.000000  0.000000      6.000000
  0.194260 -0.022431  0.000000     12.000000
 -0.155408  0.179450  0.000000      6.000000
 -0.155408  0.224312  0.000000      6.000000
 


--------------------------------------------------------------------------------------------------------




 Dimension of arrays:
   k-points           NKPTS =     14   k-points in BZ     NKDIM =     14   number of bands    NBANDS=     28
   number of dos      NEDOS =   2401   number of ions     NIONS =      5
   non local maximal  LDIM  =      6   non local SUM 2l+1 LMDIM =     18
   total plane-waves  NPLWV =  12000
   max r-space proj   IRMAX =   1888   max aug-charges    IRDMAX=   2622
   dimension x,y,z NGX =    10 NGY =   10 NGZ =  120
   dimension x,y,z NGXF=    20 NGYF=   20 NGZF=  240
   support grid    NGXF=    20 NGYF=   20 NGZF=  240
   ions per type =               4   1
   NGX,Y,Z   is equivalent  to a cutoff of   6.46,  6.46,  6.58 a.u.
   NGXF,Y,Z  is equivalent  to a cutoff of  12.92, 12.92, 13.17 a.u.

 SYSTEM =  unknown system                          
 POSCAR =  Cu  H                                   

 Startparameter for this run:
   NWRITE =      2    write-flag & timer
   PREC   = normal    normal or accurate (medium, high low for compatibility)
   ISTART =      0    job   : 0-new  1-cont  2-samecut
   ICHARG =      2    charge: 1-file 2-atom 10-const
   ISPIN  =      1    spin polarized calculation?
   LNONCOLLINEAR =      F non collinear calculations
   LSORBIT =      F    spin-orbit coupling
   INIWAV =      1    electr: 0-lowe 1-rand  2-diag
   LASPH  =      F    aspherical Exc in radial PAW
   METAGGA=      F    non-selfconsistent MetaGGA calc.

 Electronic Relaxation 1
   ENCUT  =  250.0 eV  18.37 Ry    4.29 a.u.   3.32  3.32 39.07*2*pi/ulx,y,z
   ENINI  =  250.0     initial cutoff
   ENAUG  =  516.5 eV  augmentation charge cutoff
   NELM   =     60;   NELMIN=  4; NELMDL= -5     # of ELM steps 
   EDIFF  = 0.1E-05   stopping-criterion for ELM
   LREAL  =      T    real-space projection
   NLSPLINE    = F    spline interpolate recip. space projectors
   LCOMPAT=      F    compatible to vasp.4.4
   GGA_COMPAT  = T    GGA compatible to vasp.4.4-vasp.4.6
   LMAXPAW     = -100 max onsite density
   LMAXMIX     =    2 max onsite mixed and CHGCAR
   VOSKOWN=      0    Vosko Wilk Nusair interpolation
   ROPT   =   -0.00050  -0.00050
 Ionic relaxation
   EDIFFG = 0.1E-04   stopping-criterion for IOM
   NSW    =      0    number of steps for IOM
   NBLOCK =      1;   KBLOCK =      1    inner block; outer block 
   IBRION =     -1    ionic relax: 0-MD 1-quasi-New 2-CG
   NFREE  =      0    steps in history (QN), initial steepest desc. (CG)
   ISIF   =      2    stress and relaxation
   IWAVPR =     10    prediction:  0-non 1-charg 2-wave 3-comb
   ISYM   =      2    0-nonsym 1-usesym 2-fastsym
   LCORR  =      T    Harris-Foulkes like correction to forces

   POTIM  = 0.5000    time-step for ionic-motion
   TEIN   =    0.0    initial temperature
   TEBEG  =    0.0;   TEEND  =   0.0 temperature during run
   SMASS  =  -3.00    Nose mass-parameter (am)
   estimated Nose-frequenzy (Omega)   =  0.10E-29 period in steps =****** mass=  -0.151E-27a.u.
   SCALEE = 1.0000    scale energy and forces
   NPACO  =    256;   APACO  = 16.0  distance and # of slots for P.C.
   PSTRESS=    0.0 pullay stress

  Mass of Ions in am
   POMASS =  63.55  1.00
  Ionic Valenz
   ZVAL   =  11.00  1.00
  Atomic Wigner-Seitz radii
   RWIGS  =  -1.00 -1.00
  virtual crystal weights 
   VCA    =   1.00  1.00
   NELECT =      45.0000    total number of electrons
   NUPDOWN=      -1.0000    fix difference up-down

 DOS related values:
   EMIN   = -17.00;   EMAX   =  7.00  energy-range for DOS
   EFERMI =   0.00
   ISMEAR =     0;   SIGMA  =   0.10  broadening in eV -4-tet -1-fermi 0-gaus

 Electronic relaxation 2 (details)
   IALGO  =     68    algorithm
   LDIAG  =      T    sub-space diagonalisation (order eigenvalues)
   LSUBROT=      F    optimize rotation matrix (better conditioning)
   TURBO    =      0    0=normal 1=particle mesh
   IRESTART =      0    0=no restart 2=restart with 2 vectors
   NREBOOT  =      0    no. of reboots
   NMIN     =      0    reboot dimension
   EREF     =   0.00    reference energy to select bands
   IMIX   =      4    mixing-type and parameters
     AMIX     =   0.40;   BMIX     =  1.00
     AMIX_MAG =   1.60;   BMIX_MAG =  1.00
     AMIN     =   0.10
     WC   =   100.;   INIMIX=   1;  MIXPRE=   1;  MAXMIX= -45

 Intra band minimization:
   WEIMIN = 0.0000     energy-eigenvalue tresh-hold
   EBREAK =  0.89E-08  absolut break condition
   DEPER  =   0.30     relativ break condition  

   TIME   =   0.40     timestep for ELM

  volume/ion in A,a.u.               =      34.77       234.66
  Fermi-wavevector in a.u.,A,eV,Ry     =   1.043297  1.971546 14.809520  1.088469
  Thomas-Fermi vector in A             =   2.178000
 
 Write flags
   LWAVE        =      F    write WAVECAR
   LDOWNSAMPLE  =      F    k-point downsampling of WAVECAR
   LCHARG       =      T    write CHGCAR
   LVTOT        =      F    write LOCPOT, total local potential
   LVHAR        =      F    write LOCPOT, Hartree potential only
   LELF         =      T    write electronic localiz. function (ELF)
   LORBIT       =     11    0 simple, 1 ext, 2 COOP (PROOUT), +10 PAW based schemes


 Dipole corrections
   LMONO  =      F    monopole corrections only (constant potential shift)
   LDIPOL =      F    correct potential (dipole corrections)
   IDIPOL =      0    1-x, 2-y, 3-z, 4-all directions 
   EPSILON=  1.0000000 bulk dielectric constant

 Exchange correlation treatment:
   GGA     =    --    GGA type
   LEXCH   =     8    internal setting for exchange type
   VOSKOWN=      0    Vosko Wilk Nusair interpolation
   LHFCALC =     F    Hartree Fock is set to
   LHFONE  =     F    Hartree Fock one center treatment
   AEXX    =    0.0000 exact exchange contribution

 Linear response parameters
   LEPSILON=     F    determine dielectric tensor
   LRPA    =     F    only Hartree local field effects (RPA)
   LNABLA  =     F    use nabla operator in PAW spheres
   LVEL    =     F    velocity operator in full k-point grid
   LINTERFAST=   F  fast interpolation
   KINTER  =     0    interpolate to denser k-point grid
   CSHIFT  =0.1000    complex shift for real part using Kramers Kronig
   OMEGAMAX=  -1.0    maximum frequency
   DEG_THRESHOLD= 0.2000000E-02 threshold for treating states as degnerate
   RTIME   =   -0.100 relaxation time in fs
  (WPLASMAI=    0.000 imaginary part of plasma frequency in eV, 0.658/RTIME)
   DFIELD  = 0.0000000 0.0000000 0.0000000 field for delta impulse in time
 
 Orbital magnetization related:
   ORBITALMAG=     F  switch on orbital magnetization
   LCHIMAG   =     F  perturbation theory with respect to B field
   DQ        =  0.001000  dq finite difference perturbation B field
   LLRAUG    =     F  two centre corrections for induced B field



--------------------------------------------------------------------------------------------------------


 Static calculation
 charge density and potential will be updated during run
 non-spin polarized calculation
 RMM-DIIS sequential band-by-band and
  variant of blocked Davidson during initial phase
 perform sub-space diagonalisation
    before iterative eigenvector-optimisation
 modified Broyden-mixing scheme, WC =      100.0
 initial mixing is a Kerker type mixing with AMIX =  0.4000 and BMIX =      1.0000
 Hartree-type preconditioning will be used
 using additional bands            5
 real space projection scheme for non local part
 use partial core corrections
 calculate Harris-corrections to forces 
   (improved forces if not selfconsistent)
 use gradient corrections 
 use of overlap-Matrix (Vanderbilt PP)
 Gauss-broadening in eV      SIGMA  =   0.10


--------------------------------------------------------------------------------------------------------


  energy-cutoff  :      250.00
  volume of cell :      173.87
      direct lattice vectors                 reciprocal lattice vectors
     2.573868684  0.000000000  0.000000000     0.388520209 -0.224312248  0.000000000
     1.286934342  2.229035666  0.000000000     0.000000000  0.448624495  0.000000000
     0.000000000  0.000000000 30.304664940     0.000000000  0.000000000  0.032998220

  length of vectors
     2.573868684  2.573868684 30.304664940     0.448624495  0.448624495  0.032998220


 
 k-points in units of 2pi/SCALE and weight: k-density: 4.0                          
   0.00000000  0.00000000  0.00000000       0.010
   0.03885202 -0.02243122  0.00000000       0.060
   0.07770404 -0.04486245  0.00000000       0.060
   0.11655606 -0.06729367  0.00000000       0.060
   0.15540808 -0.08972490  0.00000000       0.060
   0.19426010 -0.11215612  0.00000000       0.030
   0.07770404 -0.00000000  0.00000000       0.060
   0.11655606 -0.02243122  0.00000000       0.120
   0.15540808 -0.04486245  0.00000000       0.120
   0.19426010 -0.06729367  0.00000000       0.120
   0.15540808  0.00000000  0.00000000       0.060
   0.19426010 -0.02243122  0.00000000       0.120
  -0.15540808  0.17944980  0.00000000       0.060
  -0.15540808  0.22431225  0.00000000       0.060
 
 k-points in reciprocal lattice and weights: k-density: 4.0                          
   0.00000000  0.00000000  0.00000000       0.010
   0.10000000  0.00000000  0.00000000       0.060
   0.20000000 -0.00000000  0.00000000       0.060
   0.30000000 -0.00000000  0.00000000       0.060
   0.40000000 -0.00000000  0.00000000       0.060
   0.50000000 -0.00000000  0.00000000       0.030
   0.20000000  0.10000000  0.00000000       0.060
   0.30000000  0.10000000  0.00000000       0.120
   0.40000000  0.10000000  0.00000000       0.120
   0.50000000  0.10000000  0.00000000       0.120
   0.40000000  0.20000000  0.00000000       0.060
   0.50000000  0.20000000  0.00000000       0.120
  -0.40000000  0.20000000  0.00000000       0.060
  -0.40000000  0.30000000  0.00000000       0.060
 
 position of ions in fractional coordinates (direct lattice) 
   0.00000000  0.00000000  0.39642698
   0.33333333  0.33333333  0.46516162
   0.66666667  0.66666667  0.53388942
   0.00000000  0.00000000  0.60671226
   0.66666667  0.66666667  0.63482930
 
 position of ions in cartesian coordinates  (Angst):
   0.00000000  0.00000000 12.01358688
   1.28693434  0.74301189 14.09656705
   2.57386868  1.48602378 16.17934003
   0.00000000  0.00000000 18.38621163
   2.57386868  1.48602378 19.23828923
 


--------------------------------------------------------------------------------------------------------


 k-point  1 :   0.0000 0.0000 0.0000  plane waves:    1609
 k-point  2 :   0.1000 0.0000 0.0000  plane waves:    1589
 k-point  3 :   0.2000-0.0000 0.0000  plane waves:    1586
 k-point  4 :   0.3000-0.0000 0.0000  plane waves:    1542
 k-point  5 :   0.4000-0.0000 0.0000  plane waves:    1568
 k-point  6 :   0.5000-0.0000 0.0000  plane waves:    1570
 k-point  7 :   0.2000 0.1000 0.0000  plane waves:    1579
 k-point  8 :   0.3000 0.1000 0.0000  plane waves:    1569
 k-point  9 :   0.4000 0.1000 0.0000  plane waves:    1552
 k-point 10 :   0.5000 0.1000 0.0000  plane waves:    1549
 k-point 11 :   0.4000 0.2000 0.0000  plane waves:    1545
 k-point 12 :   0.5000 0.2000 0.0000  plane waves:    1549
 k-point 13 :  -0.4000 0.2000 0.0000  plane waves:    1546
 k-point 14 :  -0.4000 0.3000 0.0000  plane waves:    1547

 maximum and minimum number of plane-waves per node :       808      768

 maximum number of plane-waves:      1609
 maximum index in each direction: 
   IXMAX=    3   IYMAX=    3   IZMAX=   39
   IXMIN=   -3   IYMIN=   -3   IZMIN=  -39


 real space projection operators:
  total allocation   :        841.52 KBytes
  max/ min on nodes  :        424.41        417.11


 parallel 3D FFT for wavefunctions:
    minimum data exchange during FFTs selected (reduces bandwidth)
 parallel 3D FFT for charge:
    minimum data exchange during FFTs selected (reduces bandwidth)


 total amount of memory used by VASP MPI-rank0    35975. kBytes
=======================================================================

   base      :      30000. kBytes
   nonlr-proj:        677. kBytes
   fftplans  :        995. kBytes
   grid      :       1592. kBytes
   one-center:         46. kBytes
   wavefun   :       2665. kBytes
 
     INWAV:  cpu time    0.0000: real time    0.0000
 Broyden mixing: mesh for mixing (old mesh)
   NGX =  7   NGY =  7   NGZ = 79
  (NGX  = 20   NGY  = 20   NGZ  =240)
  gives a total of   3871 points

 initial charge density was supplied:
 charge density of overlapping atoms calculated
 number of electron      45.0000000 magnetization 
 keeping initial charge density in first step


--------------------------------------------------------------------------------------------------------


 Maximum index for non-local projection operator          893
 Maximum index for augmentation-charges          590 (set IRDMAX)


--------------------------------------------------------------------------------------------------------


 First call to EWALD:  gamma=   0.318
 Maximum number of real-space cells 6x 6x 1
 Maximum number of reciprocal cells 2x 2x13

    FEWALD:  cpu time    0.0020: real time    0.0016


--------------------------------------- Iteration      1(   1)  ---------------------------------------


    POTLOK:  cpu time    0.0160: real time    0.2051
    SETDIJ:  cpu time    0.0030: real time    0.0033
     EDDAV:  cpu time    0.2810: real time    0.2811
       DOS:  cpu time    0.0020: real time    0.0024
    --------------------------------------------
      LOOP:  cpu time    0.3020: real time    0.4920

 eigenvalue-minimisations  :   808
 total energy-change (2. order) : 0.1991548E+03  (-0.1398260E+04)
 number of electron      45.0000000 magnetization 
 augmentation part       45.0000000 magnetization 

 Free energy of the ion-electron system (eV)
  ---------------------------------------------------
  alpha Z        PSCENC =       120.87645803
  Ewald energy   TEWEN  =     37791.78339492
  -Hartree energ DENC   =    -42912.70283447
  -exchange      EXHF   =         0.00000000
  -V(xc)+E(xc)   XCENC  =       177.44740942
  PAW double counting   =      4328.99049516    -4905.09836044
  entropy T*S    EENTRO =        -0.01007647
  eigenvalues    EBANDS =        21.91872991
  atomic energy  EATOM  =      5575.94961827
  Solvation  Ediel_sol  =         0.00000000
  ---------------------------------------------------
  free energy    TOTEN  =       199.15483434 eV

  energy without entropy =      199.16491082  energy(sigma->0) =      199.15987258


--------------------------------------------------------------------------------------------------------




--------------------------------------- Iteration      1(   2)  ---------------------------------------


     EDDAV:  cpu time    0.2850: real time    0.2851
       DOS:  cpu time    0.0030: real time    0.0027
    --------------------------------------------
      LOOP:  cpu time    0.2880: real time    0.2877

 eigenvalue-minimisations  :   836
 total energy-change (2. order) :-0.2097677E+03  (-0.2036097E+03)
 number of electron      45.0000000 magnetization 
 augmentation part       45.0000000 magnetization 

 Free energy of the ion-electron system (eV)
  ---------------------------------------------------
  alpha Z        PSCENC =       120.87645803
  Ewald energy   TEWEN  =     37791.78339492
  -Hartree energ DENC   =    -42912.70283447
  -exchange      EXHF   =         0.00000000
  -V(xc)+E(xc)   XCENC  =       177.44740942
  PAW double counting   =      4328.99049516    -4905.09836044
  entropy T*S    EENTRO =        -0.00817601
  eigenvalues    EBANDS =      -187.85088782
  atomic energy  EATOM  =      5575.94961827
  Solvation  Ediel_sol  =         0.00000000
  ---------------------------------------------------
  free energy    TOTEN  =       -10.61288292 eV

  energy without entropy =      -10.60470692  energy(sigma->0) =      -10.60879492


--------------------------------------------------------------------------------------------------------




--------------------------------------- Iteration      1(   3)  ---------------------------------------


     EDDAV:  cpu time    0.2880: real time    0.2883
       DOS:  cpu time    0.0020: real time    0.0026
    --------------------------------------------
      LOOP:  cpu time    0.2900: real time    0.2909

 eigenvalue-minimisations  :   856
 total energy-change (2. order) :-0.1041006E+02  (-0.1020447E+02)
 number of electron      45.0000000 magnetization 
 augmentation part       45.0000000 magnetization 

 Free energy of the ion-electron system (eV)
  ---------------------------------------------------
  alpha Z        PSCENC =       120.87645803
  Ewald energy   TEWEN  =     37791.78339492
  -Hartree energ DENC   =    -42912.70283447
  -exchange      EXHF   =         0.00000000
  -V(xc)+E(xc)   XCENC  =       177.44740942
  PAW double counting   =      4328.99049516    -4905.09836044
  entropy T*S    EENTRO =        -0.01326605
  eigenvalues    EBANDS =      -198.25585489
  atomic energy  EATOM  =      5575.94961827
  Solvation  Ediel_sol  =         0.00000000
  ---------------------------------------------------
  free energy    TOTEN  =       -21.02294004 eV

  energy without entropy =      -21.00967399  energy(sigma->0) =      -21.01630701


--------------------------------------------------------------------------------------------------------




--------------------------------------- Iteration      1(   4)  ---------------------------------------


     EDDAV:  cpu time    0.2950: real time    0.2967
       DOS:  cpu time    0.0030: real time    0.0026
    --------------------------------------------
      LOOP:  cpu time    0.2980: real time    0.2993

 eigenvalue-minimisations  :   872
 total energy-change (2. order) :-0.1360180E+00  (-0.1354858E+00)
 number of electron      45.0000000 magnetization 
 augmentation part       45.0000000 magnetization 

 Free energy of the ion-electron system (eV)
  ---------------------------------------------------
  alpha Z        PSCENC =       120.87645803
  Ewald energy   TEWEN  =     37791.78339492
  -Hartree energ DENC   =    -42912.70283447
  -exchange      EXHF   =         0.00000000
  -V(xc)+E(xc)   XCENC  =       177.44740942
  PAW double counting   =      4328.99049516    -4905.09836044
  entropy T*S    EENTRO =        -0.01268780
  eigenvalues    EBANDS =      -198.39245115
  atomic energy  EATOM  =      5575.94961827
  Solvation  Ediel_sol  =         0.00000000
  ---------------------------------------------------
  free energy    TOTEN  =       -21.15895805 eV

  energy without entropy =      -21.14627025  energy(sigma->0) =      -21.15261415


--------------------------------------------------------------------------------------------------------




--------------------------------------- Iteration      1(   5)  ---------------------------------------


     EDDAV:  cpu time    0.3000: real time    0.3003
       DOS:  cpu time    0.0030: real time    0.0026
    CHARGE:  cpu time    0.0170: real time    0.0171
    MIXING:  cpu time    0.0010: real time    0.0005
    --------------------------------------------
      LOOP:  cpu time    0.3210: real time    0.3205

 eigenvalue-minimisations  :   892
 total energy-change (2. order) :-0.1411182E-02  (-0.1411121E-02)
 number of electron      45.0000000 magnetization 
 augmentation part       26.7209595 magnetization 

 Broyden mixing:
  rms(total) = 0.14538E+01    rms(broyden)= 0.14536E+01
  rms(prec ) = 0.15041E+01
  weight for this iteration     100.00

 Free energy of the ion-electron system (eV)
  ---------------------------------------------------
  alpha Z        PSCENC =       120.87645803
  Ewald energy   TEWEN  =     37791.78339492
  -Hartree energ DENC   =    -42912.70283447
  -exchange      EXHF   =         0.00000000
  -V(xc)+E(xc)   XCENC  =       177.44740942
  PAW double counting   =      4328.99049516    -4905.09836044
  entropy T*S    EENTRO =        -0.01268733
  eigenvalues    EBANDS =      -198.39386281
  atomic energy  EATOM  =      5575.94961827
  Solvation  Ediel_sol  =         0.00000000
  ---------------------------------------------------
  free energy    TOTEN  =       -21.16036923 eV

  energy without entropy =      -21.14768191  energy(sigma->0) =      -21.15402557


--------------------------------------------------------------------------------------------------------




--------------------------------------- Iteration      1(   6)  ---------------------------------------


    POTLOK:  cpu time    0.0110: real time    0.0124
    SETDIJ:  cpu time    0.0040: real time    0.0033
    EDDIAG:  cpu time    0.0540: real time    0.0541
  RMM-DIIS:  cpu time    0.1690: real time    0.1688
    ORTHCH:  cpu time    0.0060: real time    0.0069
       DOS:  cpu time    0.0020: real time    0.0027
    CHARGE:  cpu time    0.0170: real time    0.0167
    MIXING:  cpu time    0.0010: real time    0.0005
    --------------------------------------------
      LOOP:  cpu time    0.2640: real time    0.2653

 eigenvalue-minimisations  :   849
 total energy-change (2. order) : 0.2034832E+01  (-0.4286428E+01)
 number of electron      44.9999999 magnetization 
 augmentation part       30.0434731 magnetization 

 Broyden mixing:
  rms(total) = 0.74519E+00    rms(broyden)= 0.74496E+00
  rms(prec ) = 0.78328E+00
  weight for this iteration     100.00

 eigenvalues of (default mixing * dielectric matrix)
  average eigenvalue GAMMA=   0.6661
  0.6661

 Free energy of the ion-electron system (eV)
  ---------------------------------------------------
  alpha Z        PSCENC =       120.87645803
  Ewald energy   TEWEN  =     37791.78339492
  -Hartree energ DENC   =    -42798.79926102
  -exchange      EXHF   =         0.00000000
  -V(xc)+E(xc)   XCENC  =       172.33350947
  PAW double counting   =      4217.06175463    -4758.28260552
  entropy T*S    EENTRO =        -0.00969259
  eigenvalues    EBANDS =      -340.03871310
  atomic energy  EATOM  =      5575.94961827
  Solvation  Ediel_sol  =         0.00000000
  ---------------------------------------------------
  free energy    TOTEN  =       -19.12553691 eV

  energy without entropy =      -19.11584432  energy(sigma->0) =      -19.12069062


--------------------------------------------------------------------------------------------------------




--------------------------------------- Iteration      1(   7)  ---------------------------------------


    POTLOK:  cpu time    0.0120: real time    0.0117
    SETDIJ:  cpu time    0.0030: real time    0.0033
    EDDIAG:  cpu time    0.0540: real time    0.0541
  RMM-DIIS:  cpu time    0.1710: real time    0.1706
    ORTHCH:  cpu time    0.0070: real time    0.0069
       DOS:  cpu time    0.0020: real time    0.0027
    CHARGE:  cpu time    0.0160: real time    0.0166
    MIXING:  cpu time    0.0020: real time    0.0005
    --------------------------------------------
      LOOP:  cpu time    0.2670: real time    0.2664

 eigenvalue-minimisations  :   856
 total energy-change (2. order) : 0.1558653E+01  (-0.7058076E+00)
 number of electron      44.9999999 magnetization 
 augmentation part       28.6900675 magnetization 

 Broyden mixing:
  rms(total) = 0.28956E+00    rms(broyden)= 0.28929E+00
  rms(prec ) = 0.40089E+00
  weight for this iteration     100.00

 eigenvalues of (default mixing * dielectric matrix)
  average eigenvalue GAMMA=   0.5320
  0.7136  0.3505

 Free energy of the ion-electron system (eV)
  ---------------------------------------------------
  alpha Z        PSCENC =       120.87645803
  Ewald energy   TEWEN  =     37791.78339492
  -Hartree energ DENC   =    -42843.42394011
  -exchange      EXHF   =         0.00000000
  -V(xc)+E(xc)   XCENC  =       174.00709031
  PAW double counting   =      4314.38047773    -4879.84957374
  entropy T*S    EENTRO =        -0.01407520
  eigenvalues    EBANDS =      -271.27633462
  atomic energy  EATOM  =      5575.94961827
  Solvation  Ediel_sol  =         0.00000000
  ---------------------------------------------------
  free energy    TOTEN  =       -17.56688441 eV

  energy without entropy =      -17.55280921  energy(sigma->0) =      -17.55984681


--------------------------------------------------------------------------------------------------------




--------------------------------------- Iteration      1(   8)  ---------------------------------------


    POTLOK:  cpu time    0.0110: real time    0.0130
    SETDIJ:  cpu time    0.0040: real time    0.0033
    EDDIAG:  cpu time    0.0530: real time    0.0537
  RMM-DIIS:  cpu time    0.1720: real time    0.1716
    ORTHCH:  cpu time    0.0070: real time    0.0069
       DOS:  cpu time    0.0020: real time    0.0026
    CHARGE:  cpu time    0.0170: real time    0.0169
    MIXING:  cpu time    0.0010: real time    0.0005
    --------------------------------------------
      LOOP:  cpu time    0.2670: real time    0.2685

 eigenvalue-minimisations  :   857
 total energy-change (2. order) : 0.2331614E+00  (-0.2076196E-01)
 number of electron      45.0000000 magnetization 
 augmentation part       28.7464891 magnetization 

 Broyden mixing:
  rms(total) = 0.14375E+00    rms(broyden)= 0.14357E+00
  rms(prec ) = 0.16443E+00
  weight for this iteration     100.00

 eigenvalues of (default mixing * dielectric matrix)
  average eigenvalue GAMMA=   0.7893
  1.5387  0.6168  0.2125

 Free energy of the ion-electron system (eV)
  ---------------------------------------------------
  alpha Z        PSCENC =       120.87645803
  Ewald energy   TEWEN  =     37791.78339492
  -Hartree energ DENC   =    -42845.72524402
  -exchange      EXHF   =         0.00000000
  -V(xc)+E(xc)   XCENC  =       173.93786711
  PAW double counting   =      4326.04894279    -4893.37218960
  entropy T*S    EENTRO =        -0.01586453
  eigenvalues    EBANDS =      -266.81670594
  atomic energy  EATOM  =      5575.94961827
  Solvation  Ediel_sol  =         0.00000000
  ---------------------------------------------------
  free energy    TOTEN  =       -17.33372297 eV

  energy without entropy =      -17.31785843  energy(sigma->0) =      -17.32579070


--------------------------------------------------------------------------------------------------------




--------------------------------------- Iteration      1(   9)  ---------------------------------------


    POTLOK:  cpu time    0.0110: real time    0.0115
    SETDIJ:  cpu time    0.0040: real time    0.0033
    EDDIAG:  cpu time    0.0530: real time    0.0536
  RMM-DIIS:  cpu time    0.1690: real time    0.1688
    ORTHCH:  cpu time    0.0060: real time    0.0068
       DOS:  cpu time    0.0030: real time    0.0027
    CHARGE:  cpu time    0.0170: real time    0.0168
    MIXING:  cpu time    0.0010: real time    0.0006
    --------------------------------------------
      LOOP:  cpu time    0.2640: real time    0.2640

 eigenvalue-minimisations  :   849
 total energy-change (2. order) : 0.6127169E-01  (-0.5486234E-02)
 number of electron      45.0000000 magnetization 
 augmentation part       28.7397124 magnetization 

 Broyden mixing:
  rms(total) = 0.74027E-01    rms(broyden)= 0.74019E-01
  rms(prec ) = 0.83283E-01
  weight for this iteration     100.00

 eigenvalues of (default mixing * dielectric matrix)
  average eigenvalue GAMMA=   0.8460
  1.9057  0.6202  0.6202  0.2380

 Free energy of the ion-electron system (eV)
  ---------------------------------------------------
  alpha Z        PSCENC =       120.87645803
  Ewald energy   TEWEN  =     37791.78339492
  -Hartree energ DENC   =    -42849.95109904
  -exchange      EXHF   =         0.00000000
  -V(xc)+E(xc)   XCENC  =       173.70258325
  PAW double counting   =      4362.82052574    -4935.35678780
  entropy T*S    EENTRO =        -0.01484587
  eigenvalues    EBANDS =      -257.08229879
  atomic energy  EATOM  =      5575.94961827
  Solvation  Ediel_sol  =         0.00000000
  ---------------------------------------------------
  free energy    TOTEN  =       -17.27245128 eV

  energy without entropy =      -17.25760541  energy(sigma->0) =      -17.26502834


--------------------------------------------------------------------------------------------------------




--------------------------------------- Iteration      1(  10)  ---------------------------------------


    POTLOK:  cpu time    0.0110: real time    0.0116
    SETDIJ:  cpu time    0.0040: real time    0.0033
    EDDIAG:  cpu time    0.0530: real time    0.0537
  RMM-DIIS:  cpu time    0.1700: real time    0.1695
    ORTHCH:  cpu time    0.0060: real time    0.0068
       DOS:  cpu time    0.0030: real time    0.0027
    CHARGE:  cpu time    0.0170: real time    0.0167
    MIXING:  cpu time    0.0010: real time    0.0006
    --------------------------------------------
      LOOP:  cpu time    0.2650: real time    0.2649

 eigenvalue-minimisations  :   859
 total energy-change (2. order) : 0.1568814E-01  (-0.2336678E-02)
 number of electron      45.0000000 magnetization 
 augmentation part       28.7623903 magnetization 

 Broyden mixing:
  rms(total) = 0.42104E-01    rms(broyden)= 0.42085E-01
  rms(prec ) = 0.45517E-01
  weight for this iteration     100.00

 eigenvalues of (default mixing * dielectric matrix)
  average eigenvalue GAMMA=   0.8906
  2.2134  0.9376  0.6622  0.2384  0.4013

 Free energy of the ion-electron system (eV)
  ---------------------------------------------------
  alpha Z        PSCENC =       120.87645803
  Ewald energy   TEWEN  =     37791.78339492
  -Hartree energ DENC   =    -42850.47311702
  -exchange      EXHF   =         0.00000000
  -V(xc)+E(xc)   XCENC  =       173.53984012
  PAW double counting   =      4381.94345351    -4956.82147575
  entropy T*S    EENTRO =        -0.01680965
  eigenvalues    EBANDS =      -254.03812558
  atomic energy  EATOM  =      5575.94961827
  Solvation  Ediel_sol  =         0.00000000
  ---------------------------------------------------
  free energy    TOTEN  =       -17.25676314 eV

  energy without entropy =      -17.23995349  energy(sigma->0) =      -17.24835831


--------------------------------------------------------------------------------------------------------




--------------------------------------- Iteration      1(  11)  ---------------------------------------


    POTLOK:  cpu time    0.0110: real time    0.0117
    SETDIJ:  cpu time    0.0040: real time    0.0033
    EDDIAG:  cpu time    0.0540: real time    0.0543
  RMM-DIIS:  cpu time    0.1710: real time    0.1712
    ORTHCH:  cpu time    0.0070: real time    0.0068
       DOS:  cpu time    0.0030: real time    0.0027
    CHARGE:  cpu time    0.0160: real time    0.0168
    MIXING:  cpu time    0.0010: real time    0.0006
    --------------------------------------------
      LOOP:  cpu time    0.2670: real time    0.2676

 eigenvalue-minimisations  :   875
 total energy-change (2. order) : 0.3715963E-02  (-0.6087360E-03)
 number of electron      45.0000000 magnetization 
 augmentation part       28.7745486 magnetization 

 Broyden mixing:
  rms(total) = 0.21658E-01    rms(broyden)= 0.21642E-01
  rms(prec ) = 0.28171E-01
  weight for this iteration     100.00

 eigenvalues of (default mixing * dielectric matrix)
  average eigenvalue GAMMA=   0.9248
  2.2581  1.3388  0.6621  0.6621  0.2352  0.3925

 Free energy of the ion-electron system (eV)
  ---------------------------------------------------
  alpha Z        PSCENC =       120.87645803
  Ewald energy   TEWEN  =     37791.78339492
  -Hartree energ DENC   =    -42851.87644878
  -exchange      EXHF   =         0.00000000
  -V(xc)+E(xc)   XCENC  =       173.48203098
  PAW double counting   =      4387.78788414    -4963.24743200
  entropy T*S    EENTRO =        -0.01734314
  eigenvalues    EBANDS =      -251.99120959
  atomic energy  EATOM  =      5575.94961827
  Solvation  Ediel_sol  =         0.00000000
  ---------------------------------------------------
  free energy    TOTEN  =       -17.25304718 eV

  energy without entropy =      -17.23570404  energy(sigma->0) =      -17.24437561


--------------------------------------------------------------------------------------------------------




--------------------------------------- Iteration      1(  12)  ---------------------------------------


    POTLOK:  cpu time    0.0120: real time    0.0129
    SETDIJ:  cpu time    0.0030: real time    0.0033
    EDDIAG:  cpu time    0.0550: real time    0.0545
  RMM-DIIS:  cpu time    0.1670: real time    0.1673
    ORTHCH:  cpu time    0.0070: real time    0.0068
       DOS:  cpu time    0.0020: real time    0.0027
    CHARGE:  cpu time    0.0170: real time    0.0167
    MIXING:  cpu time    0.0010: real time    0.0007
    --------------------------------------------
      LOOP:  cpu time    0.2640: real time    0.2648

 eigenvalue-minimisations  :   850
 total energy-change (2. order) : 0.1905108E-02  (-0.1782914E-03)
 number of electron      45.0000000 magnetization 
 augmentation part       28.7948500 magnetization 

 Broyden mixing:
  rms(total) = 0.78050E-02    rms(broyden)= 0.77598E-02
  rms(prec ) = 0.11972E-01
  weight for this iteration     100.00

 eigenvalues of (default mixing * dielectric matrix)
  average eigenvalue GAMMA=   1.0533
  2.2473  2.2473  0.9947  0.6277  0.6277  0.2352  0.3933

 Free energy of the ion-electron system (eV)
  ---------------------------------------------------
  alpha Z        PSCENC =       120.87645803
  Ewald energy   TEWEN  =     37791.78339492
  -Hartree energ DENC   =    -42853.85893234
  -exchange      EXHF   =         0.00000000
  -V(xc)+E(xc)   XCENC  =       173.43201427
  PAW double counting   =      4392.76837374    -4968.55015792
  entropy T*S    EENTRO =        -0.01607965
  eigenvalues    EBANDS =      -249.63583139
  atomic energy  EATOM  =      5575.94961827
  Solvation  Ediel_sol  =         0.00000000
  ---------------------------------------------------
  free energy    TOTEN  =       -17.25114207 eV

  energy without entropy =      -17.23506241  energy(sigma->0) =      -17.24310224


--------------------------------------------------------------------------------------------------------




--------------------------------------- Iteration      1(  13)  ---------------------------------------


    POTLOK:  cpu time    0.0110: real time    0.0117
    SETDIJ:  cpu time    0.0040: real time    0.0033
    EDDIAG:  cpu time    0.0540: real time    0.0538
  RMM-DIIS:  cpu time    0.1650: real time    0.1656
    ORTHCH:  cpu time    0.0070: real time    0.0068
       DOS:  cpu time    0.0030: real time    0.0026
    CHARGE:  cpu time    0.0160: real time    0.0168
    MIXING:  cpu time    0.0010: real time    0.0007
    --------------------------------------------
      LOOP:  cpu time    0.2610: real time    0.2613

 eigenvalue-minimisations  :   838
 total energy-change (2. order) : 0.5347328E-03  (-0.4547160E-04)
 number of electron      45.0000000 magnetization 
 augmentation part       28.7908496 magnetization 

 Broyden mixing:
  rms(total) = 0.43899E-02    rms(broyden)= 0.43487E-02
  rms(prec ) = 0.68647E-02
  weight for this iteration     100.00

 eigenvalues of (default mixing * dielectric matrix)
  average eigenvalue GAMMA=   1.1114
  2.4527  2.4527  1.3545  0.2352  0.7676  0.6712  0.5612  0.3966

 Free energy of the ion-electron system (eV)
  ---------------------------------------------------
  alpha Z        PSCENC =       120.87645803
  Ewald energy   TEWEN  =     37791.78339492
  -Hartree energ DENC   =    -42856.55174998
  -exchange      EXHF   =         0.00000000
  -V(xc)+E(xc)   XCENC  =       173.43290147
  PAW double counting   =      4394.82480687    -4970.75246710
  entropy T*S    EENTRO =        -0.01689812
  eigenvalues    EBANDS =      -246.79667170
  atomic energy  EATOM  =      5575.94961827
  Solvation  Ediel_sol  =         0.00000000
  ---------------------------------------------------
  free energy    TOTEN  =       -17.25060734 eV

  energy without entropy =      -17.23370921  energy(sigma->0) =      -17.24215827


--------------------------------------------------------------------------------------------------------




--------------------------------------- Iteration      1(  14)  ---------------------------------------


    POTLOK:  cpu time    0.0110: real time    0.0116
    SETDIJ:  cpu time    0.0040: real time    0.0033
    EDDIAG:  cpu time    0.0530: real time    0.0535
  RMM-DIIS:  cpu time    0.1640: real time    0.1632
    ORTHCH:  cpu time    0.0060: real time    0.0068
       DOS:  cpu time    0.0020: real time    0.0026
    CHARGE:  cpu time    0.0170: real time    0.0168
    MIXING:  cpu time    0.0010: real time    0.0007
    --------------------------------------------
      LOOP:  cpu time    0.2580: real time    0.2585

 eigenvalue-minimisations  :   825
 total energy-change (2. order) :-0.4727938E-04  (-0.2435045E-04)
 number of electron      45.0000000 magnetization 
 augmentation part       28.7881756 magnetization 

 Broyden mixing:
  rms(total) = 0.28465E-02    rms(broyden)= 0.27938E-02
  rms(prec ) = 0.37734E-02
  weight for this iteration     100.00

 eigenvalues of (default mixing * dielectric matrix)
  average eigenvalue GAMMA=   1.1047
  2.6498  2.6498  1.4291  0.8612  0.2352  0.6768  0.6100  0.4066  0.4240

 Free energy of the ion-electron system (eV)
  ---------------------------------------------------
  alpha Z        PSCENC =       120.87645803
  Ewald energy   TEWEN  =     37791.78339492
  -Hartree energ DENC   =    -42859.00841029
  -exchange      EXHF   =         0.00000000
  -V(xc)+E(xc)   XCENC  =       173.44057582
  PAW double counting   =      4395.06222673    -4970.99505629
  entropy T*S    EENTRO =        -0.01687927
  eigenvalues    EBANDS =      -244.34258254
  atomic energy  EATOM  =      5575.94961827
  Solvation  Ediel_sol  =         0.00000000
  ---------------------------------------------------
  free energy    TOTEN  =       -17.25065461 eV

  energy without entropy =      -17.23377534  energy(sigma->0) =      -17.24221498


--------------------------------------------------------------------------------------------------------




--------------------------------------- Iteration      1(  15)  ---------------------------------------


    POTLOK:  cpu time    0.0120: real time    0.0116
    SETDIJ:  cpu time    0.0030: real time    0.0033
    EDDIAG:  cpu time    0.0540: real time    0.0541
  RMM-DIIS:  cpu time    0.1620: real time    0.1619
    ORTHCH:  cpu time    0.0070: real time    0.0068
       DOS:  cpu time    0.0020: real time    0.0026
    CHARGE:  cpu time    0.0170: real time    0.0168
    MIXING:  cpu time    0.0010: real time    0.0008
    --------------------------------------------
      LOOP:  cpu time    0.2580: real time    0.2579

 eigenvalue-minimisations  :   818
 total energy-change (2. order) :-0.2460515E-03  (-0.1019483E-04)
 number of electron      45.0000000 magnetization 
 augmentation part       28.7909267 magnetization 

 Broyden mixing:
  rms(total) = 0.36912E-02    rms(broyden)= 0.36478E-02
  rms(prec ) = 0.53755E-02
  weight for this iteration     100.00

 eigenvalues of (default mixing * dielectric matrix)
  average eigenvalue GAMMA=   1.1461
  2.8287  2.8287  1.5748  0.9357  0.9357  0.2352  0.6252  0.6031  0.3983  0.4962

 Free energy of the ion-electron system (eV)
  ---------------------------------------------------
  alpha Z        PSCENC =       120.87645803
  Ewald energy   TEWEN  =     37791.78339492
  -Hartree energ DENC   =    -42860.56302711
  -exchange      EXHF   =         0.00000000
  -V(xc)+E(xc)   XCENC  =       173.44098918
  PAW double counting   =      4394.71921774    -4970.59165904
  entropy T*S    EENTRO =        -0.01664780
  eigenvalues    EBANDS =      -242.84924486
  atomic energy  EATOM  =      5575.94961827
  Solvation  Ediel_sol  =         0.00000000
  ---------------------------------------------------
  free energy    TOTEN  =       -17.25090067 eV

  energy without entropy =      -17.23425286  energy(sigma->0) =      -17.24257676


--------------------------------------------------------------------------------------------------------




--------------------------------------- Iteration      1(  16)  ---------------------------------------


    POTLOK:  cpu time    0.0120: real time    0.0130
    SETDIJ:  cpu time    0.0030: real time    0.0033
    EDDIAG:  cpu time    0.0530: real time    0.0533
  RMM-DIIS:  cpu time    0.1620: real time    0.1613
    ORTHCH:  cpu time    0.0060: real time    0.0068
       DOS:  cpu time    0.0030: real time    0.0027
    CHARGE:  cpu time    0.0170: real time    0.0167
    MIXING:  cpu time    0.0010: real time    0.0008
    --------------------------------------------
      LOOP:  cpu time    0.2570: real time    0.2579

 eigenvalue-minimisations  :   809
 total energy-change (2. order) :-0.9078660E-04  (-0.2513606E-05)
 number of electron      45.0000000 magnetization 
 augmentation part       28.7906207 magnetization 

 Broyden mixing:
  rms(total) = 0.14919E-02    rms(broyden)= 0.13876E-02
  rms(prec ) = 0.19379E-02
  weight for this iteration     100.00

 eigenvalues of (default mixing * dielectric matrix)
  average eigenvalue GAMMA=   1.2891
  3.9546  2.9080  2.0820  1.2694  1.0009  0.2352  0.7316  0.6417  0.5640  0.4018
  0.3907

 Free energy of the ion-electron system (eV)
  ---------------------------------------------------
  alpha Z        PSCENC =       120.87645803
  Ewald energy   TEWEN  =     37791.78339492
  -Hartree energ DENC   =    -42860.97455957
  -exchange      EXHF   =         0.00000000
  -V(xc)+E(xc)   XCENC  =       173.44284810
  PAW double counting   =      4394.45490425    -4970.31425820
  entropy T*S    EENTRO =        -0.01681824
  eigenvalues    EBANDS =      -242.45257902
  atomic energy  EATOM  =      5575.94961827
  Solvation  Ediel_sol  =         0.00000000
  ---------------------------------------------------
  free energy    TOTEN  =       -17.25099145 eV

  energy without entropy =      -17.23417321  energy(sigma->0) =      -17.24258233


--------------------------------------------------------------------------------------------------------




--------------------------------------- Iteration      1(  17)  ---------------------------------------


    POTLOK:  cpu time    0.0110: real time    0.0115
    SETDIJ:  cpu time    0.0030: real time    0.0033
    EDDIAG:  cpu time    0.0540: real time    0.0535
  RMM-DIIS:  cpu time    0.1530: real time    0.1527
    ORTHCH:  cpu time    0.0060: real time    0.0068
       DOS:  cpu time    0.0030: real time    0.0027
    CHARGE:  cpu time    0.0160: real time    0.0166
    MIXING:  cpu time    0.0010: real time    0.0009
    --------------------------------------------
      LOOP:  cpu time    0.2470: real time    0.2479

 eigenvalue-minimisations  :   796
 total energy-change (2. order) :-0.2674383E-03  (-0.8022591E-05)
 number of electron      45.0000000 magnetization 
 augmentation part       28.7902603 magnetization 

 Broyden mixing:
  rms(total) = 0.13517E-02    rms(broyden)= 0.12377E-02
  rms(prec ) = 0.19041E-02
  weight for this iteration     100.00

 eigenvalues of (default mixing * dielectric matrix)
  average eigenvalue GAMMA=   1.4119
  4.6782  2.9924  2.3593  1.7434  1.2541  0.9248  0.2352  0.7447  0.6316  0.5809
  0.3937  0.4049

 Free energy of the ion-electron system (eV)
  ---------------------------------------------------
  alpha Z        PSCENC =       120.87645803
  Ewald energy   TEWEN  =     37791.78339492
  -Hartree energ DENC   =    -42862.60318012
  -exchange      EXHF   =         0.00000000
  -V(xc)+E(xc)   XCENC  =       173.44711150
  PAW double counting   =      4393.84494132    -4969.68004463
  entropy T*S    EENTRO =        -0.01692848
  eigenvalues    EBANDS =      -240.85262971
  atomic energy  EATOM  =      5575.94961827
  Solvation  Ediel_sol  =         0.00000000
  ---------------------------------------------------
  free energy    TOTEN  =       -17.25125889 eV

  energy without entropy =      -17.23433041  energy(sigma->0) =      -17.24279465


--------------------------------------------------------------------------------------------------------




--------------------------------------- Iteration      1(  18)  ---------------------------------------


    POTLOK:  cpu time    0.0120: real time    0.0114
    SETDIJ:  cpu time    0.0030: real time    0.0033
    EDDIAG:  cpu time    0.0540: real time    0.0536
  RMM-DIIS:  cpu time    0.1410: real time    0.1409
    ORTHCH:  cpu time    0.0060: real time    0.0067
       DOS:  cpu time    0.0030: real time    0.0026
    CHARGE:  cpu time    0.0160: real time    0.0165
    MIXING:  cpu time    0.0010: real time    0.0009
    --------------------------------------------
      LOOP:  cpu time    0.2360: real time    0.2359

 eigenvalue-minimisations  :   722
 total energy-change (2. order) :-0.7405917E-04  (-0.1614290E-05)
 number of electron      45.0000000 magnetization 
 augmentation part       28.7900081 magnetization 

 Broyden mixing:
  rms(total) = 0.78730E-03    rms(broyden)= 0.57083E-03
  rms(prec ) = 0.91010E-03
  weight for this iteration     100.00
  WARNING: grid for Broyden might be to small

 eigenvalues of (default mixing * dielectric matrix)
  average eigenvalue GAMMA=   1.5647
  6.0134  3.4652  2.3265  2.3265  1.2749  0.9643  0.9643  0.2352  0.7551  0.6340
  0.5820  0.3938  0.4055

 Free energy of the ion-electron system (eV)
  ---------------------------------------------------
  alpha Z        PSCENC =       120.87645803
  Ewald energy   TEWEN  =     37791.78339492
  -Hartree energ DENC   =    -42863.29198537
  -exchange      EXHF   =         0.00000000
  -V(xc)+E(xc)   XCENC  =       173.44668959
  PAW double counting   =      4394.00851555    -4969.87151552
  entropy T*S    EENTRO =        -0.01685814
  eigenvalues    EBANDS =      -240.13565029
  atomic energy  EATOM  =      5575.94961827
  Solvation  Ediel_sol  =         0.00000000
  ---------------------------------------------------
  free energy    TOTEN  =       -17.25133295 eV

  energy without entropy =      -17.23447481  energy(sigma->0) =      -17.24290388


--------------------------------------------------------------------------------------------------------




--------------------------------------- Iteration      1(  19)  ---------------------------------------


    POTLOK:  cpu time    0.0110: real time    0.0113
    SETDIJ:  cpu time    0.0040: real time    0.0032
    EDDIAG:  cpu time    0.0530: real time    0.0530
  RMM-DIIS:  cpu time    0.1140: real time    0.1136
    ORTHCH:  cpu time    0.0060: real time    0.0067
       DOS:  cpu time    0.0030: real time    0.0026
    CHARGE:  cpu time    0.0160: real time    0.0166
    MIXING:  cpu time    0.0010: real time    0.0009
    --------------------------------------------
      LOOP:  cpu time    0.2080: real time    0.2080

 eigenvalue-minimisations  :   560
 total energy-change (2. order) :-0.3964597E-04  (-0.3657559E-06)
 number of electron      45.0000000 magnetization 
 augmentation part       28.7903509 magnetization 

 Broyden mixing:
  rms(total) = 0.69552E-03    rms(broyden)= 0.43897E-03
  rms(prec ) = 0.64609E-03
  weight for this iteration     100.00
  WARNING: grid for Broyden might be to small

 eigenvalues of (default mixing * dielectric matrix)
  average eigenvalue GAMMA=   1.6424
  5.5126  4.5573  2.5135  2.3352  1.8726  1.2237  1.0285  0.9506  0.2352  0.7493
  0.6341  0.5813  0.3938  0.4055

 Free energy of the ion-electron system (eV)
  ---------------------------------------------------
  alpha Z        PSCENC =       120.87645803
  Ewald energy   TEWEN  =     37791.78339492
  -Hartree energ DENC   =    -42863.59420254
  -exchange      EXHF   =         0.00000000
  -V(xc)+E(xc)   XCENC  =       173.44629284
  PAW double counting   =      4393.99506546    -4969.84865497
  entropy T*S    EENTRO =        -0.01685874
  eigenvalues    EBANDS =      -239.84248587
  atomic energy  EATOM  =      5575.94961827
  Solvation  Ediel_sol  =         0.00000000
  ---------------------------------------------------
  free energy    TOTEN  =       -17.25137260 eV

  energy without entropy =      -17.23451386  energy(sigma->0) =      -17.24294323


--------------------------------------------------------------------------------------------------------




--------------------------------------- Iteration      1(  20)  ---------------------------------------


    POTLOK:  cpu time    0.0110: real time    0.0115
    SETDIJ:  cpu time    0.0040: real time    0.0032
    EDDIAG:  cpu time    0.0520: real time    0.0529
  RMM-DIIS:  cpu time    0.1100: real time    0.1089
    ORTHCH:  cpu time    0.0060: real time    0.0067
       DOS:  cpu time    0.0020: real time    0.0026
    CHARGE:  cpu time    0.0170: real time    0.0166
    MIXING:  cpu time    0.0010: real time    0.0010
    --------------------------------------------
      LOOP:  cpu time    0.2030: real time    0.2035

 eigenvalue-minimisations  :   523
 total energy-change (2. order) :-0.2061556E-04  (-0.1341751E-06)
 number of electron      45.0000000 magnetization 
 augmentation part       28.7902400 magnetization 

 Broyden mixing:
  rms(total) = 0.57930E-03    rms(broyden)= 0.20989E-03
  rms(prec ) = 0.34345E-03
  weight for this iteration     100.00
  WARNING: grid for Broyden might be to small

 eigenvalues of (default mixing * dielectric matrix)
  average eigenvalue GAMMA=   1.7448
  6.5104  5.0260  2.5717  2.5717  2.1699  1.2712  1.1457  0.9536  0.9536  0.2352
  0.7486  0.6344  0.5811  0.3938  0.4055

 Free energy of the ion-electron system (eV)
  ---------------------------------------------------
  alpha Z        PSCENC =       120.87645803
  Ewald energy   TEWEN  =     37791.78339492
  -Hartree energ DENC   =    -42863.71771570
  -exchange      EXHF   =         0.00000000
  -V(xc)+E(xc)   XCENC  =       173.44612807
  PAW double counting   =      4394.05253098    -4969.91092454
  entropy T*S    EENTRO =        -0.01689762
  eigenvalues    EBANDS =      -239.71398563
  atomic energy  EATOM  =      5575.94961827
  Solvation  Ediel_sol  =         0.00000000
  ---------------------------------------------------
  free energy    TOTEN  =       -17.25139321 eV

  energy without entropy =      -17.23449560  energy(sigma->0) =      -17.24294440


--------------------------------------------------------------------------------------------------------




--------------------------------------- Iteration      1(  21)  ---------------------------------------


    POTLOK:  cpu time    0.0120: real time    0.0136
    SETDIJ:  cpu time    0.0030: real time    0.0032
    EDDIAG:  cpu time    0.0530: real time    0.0552
  RMM-DIIS:  cpu time    0.1060: real time    0.1061
    ORTHCH:  cpu time    0.0070: real time    0.0066
       DOS:  cpu time    0.0020: real time    0.0026
    CHARGE:  cpu time    0.0170: real time    0.0165
    MIXING:  cpu time    0.0010: real time    0.0010
    --------------------------------------------
      LOOP:  cpu time    0.2010: real time    0.2050

 eigenvalue-minimisations  :   495
 total energy-change (2. order) :-0.1314654E-04  (-0.7002326E-07)
 number of electron      45.0000000 magnetization 
 augmentation part       28.7903372 magnetization 

 Broyden mixing:
  rms(total) = 0.54709E-03    rms(broyden)= 0.90894E-04
  rms(prec ) = 0.12997E-03
  weight for this iteration     100.00
  WARNING: grid for Broyden might be to small

 eigenvalues of (default mixing * dielectric matrix)
  average eigenvalue GAMMA=   1.8707
  7.4144  5.4943  3.2545  2.5330  1.9824  1.9824  1.2305  1.0308  1.0308  0.9795
  0.2352  0.7482  0.6343  0.5811  0.3938  0.4055

 Free energy of the ion-electron system (eV)
  ---------------------------------------------------
  alpha Z        PSCENC =       120.87645803
  Ewald energy   TEWEN  =     37791.78339492
  -Hartree energ DENC   =    -42863.81274475
  -exchange      EXHF   =         0.00000000
  -V(xc)+E(xc)   XCENC  =       173.44621193
  PAW double counting   =      4394.02550281    -4969.87971433
  entropy T*S    EENTRO =        -0.01688080
  eigenvalues    EBANDS =      -239.62325245
  atomic energy  EATOM  =      5575.94961827
  Solvation  Ediel_sol  =         0.00000000
  ---------------------------------------------------
  free energy    TOTEN  =       -17.25140636 eV

  energy without entropy =      -17.23452556  energy(sigma->0) =      -17.24296596


--------------------------------------------------------------------------------------------------------




--------------------------------------- Iteration      1(  22)  ---------------------------------------


    POTLOK:  cpu time    0.0110: real time    0.0113
    SETDIJ:  cpu time    0.0040: real time    0.0032
    EDDIAG:  cpu time    0.0520: real time    0.0530
  RMM-DIIS:  cpu time    0.1060: real time    0.1054
    ORTHCH:  cpu time    0.0070: real time    0.0067
       DOS:  cpu time    0.0020: real time    0.0026
    CHARGE:  cpu time    0.0170: real time    0.0167
    MIXING:  cpu time    0.0010: real time    0.0011
    --------------------------------------------
      LOOP:  cpu time    0.2000: real time    0.2001

 eigenvalue-minimisations  :   483
 total energy-change (2. order) :-0.4022058E-05  (-0.2655126E-07)
 number of electron      45.0000000 magnetization 
 augmentation part       28.7901833 magnetization 

 Broyden mixing:
  rms(total) = 0.55020E-03    rms(broyden)= 0.10822E-03
  rms(prec ) = 0.14049E-03
  weight for this iteration     100.00
  WARNING: grid for Broyden might be to small

 eigenvalues of (default mixing * dielectric matrix)
  average eigenvalue GAMMA=   1.9388
  8.0177  5.7820  3.4091  2.6681  2.3521  2.2454  1.4000  0.2352  1.1728  1.0053
  0.9547  0.9547  0.7477  0.6344  0.5811  0.3938  0.4055

 Free energy of the ion-electron system (eV)
  ---------------------------------------------------
  alpha Z        PSCENC =       120.87645803
  Ewald energy   TEWEN  =     37791.78339492
  -Hartree energ DENC   =    -42863.85781403
  -exchange      EXHF   =         0.00000000
  -V(xc)+E(xc)   XCENC  =       173.44642840
  PAW double counting   =      4394.02943051    -4969.88467121
  entropy T*S    EENTRO =        -0.01689292
  eigenvalues    EBANDS =      -239.57736235
  atomic energy  EATOM  =      5575.94961827
  Solvation  Ediel_sol  =         0.00000000
  ---------------------------------------------------
  free energy    TOTEN  =       -17.25141038 eV

  energy without entropy =      -17.23451746  energy(sigma->0) =      -17.24296392


--------------------------------------------------------------------------------------------------------




--------------------------------------- Iteration      1(  23)  ---------------------------------------


    POTLOK:  cpu time    0.0110: real time    0.0113
    SETDIJ:  cpu time    0.0040: real time    0.0033
    EDDIAG:  cpu time    0.0530: real time    0.0532
  RMM-DIIS:  cpu time    0.1060: real time    0.1061
    ORTHCH:  cpu time    0.0070: real time    0.0068
       DOS:  cpu time    0.0020: real time    0.0027
    CHARGE:  cpu time    0.0170: real time    0.0167
    MIXING:  cpu time    0.0010: real time    0.0012
    --------------------------------------------
      LOOP:  cpu time    0.2010: real time    0.2012

 eigenvalue-minimisations  :   470
 total energy-change (2. order) :-0.1152091E-05  (-0.8857739E-08)
 number of electron      45.0000000 magnetization 
 augmentation part       28.7903022 magnetization 

 Broyden mixing:
  rms(total) = 0.54030E-03    rms(broyden)= 0.30367E-04
  rms(prec ) = 0.35884E-04
  weight for this iteration     100.00
  WARNING: grid for Broyden might be to small

 eigenvalues of (default mixing * dielectric matrix)
  average eigenvalue GAMMA=   1.9879
  8.4918  5.9688  3.8080  2.8944  2.5625  1.9457  1.9457  0.2352  1.2275  1.1072
  0.9842  0.9243  0.9243  0.7476  0.6344  0.5811  0.3938  0.4055

 Free energy of the ion-electron system (eV)
  ---------------------------------------------------
  alpha Z        PSCENC =       120.87645803
  Ewald energy   TEWEN  =     37791.78339492
  -Hartree energ DENC   =    -42863.86480776
  -exchange      EXHF   =         0.00000000
  -V(xc)+E(xc)   XCENC  =       173.44626044
  PAW double counting   =      4394.02084498    -4969.87547768
  entropy T*S    EENTRO =        -0.01688546
  eigenvalues    EBANDS =      -239.57081728
  atomic energy  EATOM  =      5575.94961827
  Solvation  Ediel_sol  =         0.00000000
  ---------------------------------------------------
  free energy    TOTEN  =       -17.25141153 eV

  energy without entropy =      -17.23452607  energy(sigma->0) =      -17.24296880


--------------------------------------------------------------------------------------------------------




--------------------------------------- Iteration      1(  24)  ---------------------------------------


    POTLOK:  cpu time    0.0110: real time    0.0115
    SETDIJ:  cpu time    0.0040: real time    0.0033
    EDDIAG:  cpu time    0.0540: real time    0.0550
  RMM-DIIS:  cpu time    0.0830: real time    0.0836
    ORTHCH:  cpu time    0.0070: real time    0.0068
       DOS:  cpu time    0.0030: real time    0.0026
    --------------------------------------------
      LOOP:  cpu time    0.1620: real time    0.1628

 eigenvalue-minimisations  :   133
 total energy-change (2. order) :-0.9099404E-07  (-0.1213485E-09)
 number of electron      45.0000000 magnetization 
 augmentation part       28.7903022 magnetization 

 Free energy of the ion-electron system (eV)
  ---------------------------------------------------
  alpha Z        PSCENC =       120.87645803
  Ewald energy   TEWEN  =     37791.78339492
  -Hartree energ DENC   =    -42863.87004187
  -exchange      EXHF   =         0.00000000
  -V(xc)+E(xc)   XCENC  =       173.44627583
  PAW double counting   =      4394.02079244    -4969.87601174
  entropy T*S    EENTRO =        -0.01688681
  eigenvalues    EBANDS =      -239.56501070
  atomic energy  EATOM  =      5575.94961827
  Solvation  Ediel_sol  =         0.00000000
  ---------------------------------------------------
  free energy    TOTEN  =       -17.25141162 eV

  energy without entropy =      -17.23452481  energy(sigma->0) =      -17.24296822


--------------------------------------------------------------------------------------------------------




 average (electrostatic) potential at core
  the test charge radii are     1.0053  0.5201
  (the norm of the test charge is              1.0000)
       1 -45.7165       2 -45.9469       3 -45.9136       4 -46.3174       5 -39.1967
 
 
 
 E-fermi :  -2.2733     XC(G=0):  -4.4237     alpha+bet : -2.7756


 k-point     1 :       0.0000    0.0000    0.0000
  band No.  band energies     occupation 
      1     -11.7514      2.00000
      2     -10.6571      2.00000
      3      -8.9554      2.00000
      4      -7.4669      2.00000
      5      -5.8209      2.00000
      6      -5.5699      2.00000
      7      -5.5696      2.00000
      8      -5.5320      2.00000
      9      -5.2414      2.00000
     10      -5.1947      2.00000
     11      -5.1944      2.00000
     12      -5.1652      2.00000
     13      -5.1649      2.00000
     14      -4.9242      2.00000
     15      -4.9239      2.00000
     16      -4.8050      2.00000
     17      -4.7324      2.00000
     18      -4.7323      2.00000
     19      -4.4231      2.00000
     20      -4.4230      2.00000
     21      -4.2025      2.00000
     22      -4.2025      2.00000
     23      -3.9253      2.00000
     24      -3.9252      2.00000
     25      -2.8504      2.00000
     26       1.6152      0.00000
     27       1.8984      0.00000
     28       2.3004      0.00000

 k-point     2 :       0.1000    0.0000    0.0000
  band No.  band energies     occupation 
      1     -11.4561      2.00000
      2     -10.3564      2.00000
      3      -8.6879      2.00000
      4      -7.2467      2.00000
      5      -5.8756      2.00000
      6      -5.6907      2.00000
      7      -5.6088      2.00000
      8      -5.4608      2.00000
      9      -5.3012      2.00000
     10      -5.2678      2.00000
     11      -5.2459      2.00000
     12      -5.0986      2.00000
     13      -5.0852      2.00000
     14      -5.0330      2.00000
     15      -4.9418      2.00000
     16      -4.8433      2.00000
     17      -4.7393      2.00000
     18      -4.6228      2.00000
     19      -4.4402      2.00000
     20      -4.4047      2.00000
     21      -4.2331      2.00000
     22      -4.1987      2.00000
     23      -3.9201      2.00000
     24      -3.7063      2.00000
     25      -2.1627      0.11782
     26       1.8644      0.00000
     27       2.2006      0.00000
     28       2.6028      0.00000

 k-point     3 :       0.2000   -0.0000    0.0000
  band No.  band energies     occupation 
      1     -10.6208      2.00000
      2      -9.5018      2.00000
      3      -7.9872      2.00000
      4      -6.7305      2.00000
      5      -6.1187      2.00000
      6      -5.8793      2.00000
      7      -5.6960      2.00000
      8      -5.6003      2.00000
      9      -5.4379      2.00000
     10      -5.2096      2.00000
     11      -5.1712      2.00000
     12      -5.1388      2.00000
     13      -5.0123      2.00000
     14      -4.9450      2.00000
     15      -4.8332      2.00000
     16      -4.7877      2.00000
     17      -4.7246      2.00000
     18      -4.5517      2.00000
     19      -4.4958      2.00000
     20      -4.3895      2.00000
     21      -4.2008      2.00000
     22      -4.0194      2.00000
     23      -3.9132      2.00000
     24      -2.8262      2.00000
     25      -0.8301      0.00000
     26       2.6056      0.00000
     27       3.1059      0.00000
     28       3.5093      0.00000

 k-point     4 :       0.3000   -0.0000    0.0000
  band No.  band energies     occupation 
      1      -9.4635      2.00000
      2      -8.2988      2.00000
      3      -7.2702      2.00000
      4      -6.4902      2.00000
      5      -6.2444      2.00000
      6      -6.1105      2.00000
      7      -5.8104      2.00000
      8      -5.5824      2.00000
      9      -5.4944      2.00000
     10      -5.2257      2.00000
     11      -5.0807      2.00000
     12      -4.9976      2.00000
     13      -4.8775      2.00000
     14      -4.7741      2.00000
     15      -4.7470      2.00000
     16      -4.5640      2.00000
     17      -4.4724      2.00000
     18      -4.3045      2.00000
     19      -4.2619      2.00000
     20      -4.1908      2.00000
     21      -4.0752      2.00000
     22      -3.8981      2.00000
     23      -3.5543      2.00000
     24      -1.6431      0.00000
     25       0.8508      0.00000
     26       3.7941      0.00000
     27       4.5743      0.00000
     28       4.9730      0.00000

 k-point     5 :       0.4000   -0.0000    0.0000
  band No.  band energies     occupation 
      1      -8.5881      2.00000
      2      -7.2940      2.00000
      3      -6.9370      2.00000
      4      -6.5107      2.00000
      5      -6.4101      2.00000
      6      -6.2427      2.00000
      7      -5.9206      2.00000
      8      -5.3845      2.00000
      9      -5.2546      2.00000
     10      -5.1675      2.00000
     11      -5.1374      2.00000
     12      -4.9111      2.00000
     13      -4.8176      2.00000
     14      -4.4662      2.00000
     15      -4.3555      2.00000
     16      -4.2658      2.00000
     17      -4.0605      2.00000
     18      -4.0397      2.00000
     19      -3.9721      2.00000
     20      -3.8974      2.00000
     21      -3.7584      2.00000
     22      -3.4864      2.00000
     23      -2.4899      1.99780
     24      -0.2514      0.00000
     25       2.1639      0.00000
     26       2.4807      0.00000
     27       3.3282      0.00000
     28       4.6822      0.00000

 k-point     6 :       0.5000   -0.0000    0.0000
  band No.  band energies     occupation 
      1      -8.3569      2.00000
      2      -7.0074      2.00000
      3      -6.8619      2.00000
      4      -6.5134      2.00000
      5      -6.4783      2.00000
      6      -6.2866      2.00000
      7      -5.9395      2.00000
      8      -5.3441      2.00000
      9      -5.2014      2.00000
     10      -5.1891      2.00000
     11      -4.9316      2.00000
     12      -4.9114      2.00000
     13      -4.5721      2.00000
     14      -4.4118      2.00000
     15      -4.2777      2.00000
     16      -4.0913      2.00000
     17      -3.9812      2.00000
     18      -3.8784      2.00000
     19      -3.8160      2.00000
     20      -3.6607      2.00000
     21      -3.6431      2.00000
     22      -2.1652      0.12636
     23      -1.3046      0.00000
     24      -0.7582      0.00000
     25       1.0898      0.00000
     26       1.7706      0.00000
     27       2.8756      0.00000
     28       4.1073      0.00000

 k-point     7 :       0.2000    0.1000    0.0000
  band No.  band energies     occupation 
      1     -10.8889      2.00000
      2      -9.7767      2.00000
      3      -8.1980      2.00000
      4      -6.8657      2.00000
      5      -6.0459      2.00000
      6      -5.7703      2.00000
      7      -5.7425      2.00000
      8      -5.5214      2.00000
      9      -5.4057      2.00000
     10      -5.2759      2.00000
     11      -5.2346      2.00000
     12      -5.0924      2.00000
     13      -5.0385      2.00000
     14      -5.0195      2.00000
     15      -4.8802      2.00000
     16      -4.8044      2.00000
     17      -4.6435      2.00000
     18      -4.5621      2.00000
     19      -4.5345      2.00000
     20      -4.3912      2.00000
     21      -4.2845      2.00000
     22      -4.0207      2.00000
     23      -3.9600      2.00000
     24      -3.0783      2.00000
     25      -1.2211      0.00000
     26       2.3607      0.00000
     27       2.8046      0.00000
     28       3.2073      0.00000

 k-point     8 :       0.3000    0.1000    0.0000
  band No.  band energies     occupation 
      1      -9.8745      2.00000
      2      -8.7266      2.00000
      3      -7.4566      2.00000
      4      -6.4656      2.00000
      5      -6.1369      2.00000
      6      -5.9846      2.00000
      7      -5.8069      2.00000
      8      -5.7066      2.00000
      9      -5.5618      2.00000
     10      -5.2446      2.00000
     11      -5.2104      2.00000
     12      -5.0944      2.00000
     13      -4.9893      2.00000
     14      -4.8922      2.00000
     15      -4.8215      2.00000
     16      -4.7044      2.00000
     17      -4.5482      2.00000
     18      -4.4154      2.00000
     19      -4.2983      2.00000
     20      -4.2285      2.00000
     21      -4.0850      2.00000
     22      -3.9764      2.00000
     23      -3.6674      2.00000
     24      -2.0694      0.00392
     25       0.2377      0.00000
     26       3.3547      0.00000
     27       4.0062      0.00000
     28       4.4331      0.00000

 k-point     9 :       0.4000    0.1000    0.0000
  band No.  band energies     occupation 
      1      -8.8147      2.00000
      2      -7.5580      2.00000
      3      -6.9466      2.00000
      4      -6.4467      2.00000
      5      -6.2582      2.00000
      6      -6.1227      2.00000
      7      -5.8731      2.00000
      8      -5.5846      2.00000
      9      -5.4919      2.00000
     10      -5.2380      2.00000
     11      -5.1970      2.00000
     12      -5.0306      2.00000
     13      -4.8823      2.00000
     14      -4.6836      2.00000
     15      -4.5904      2.00000
     16      -4.4497      2.00000
     17      -4.3335      2.00000
     18      -4.2004      2.00000
     19      -4.1020      2.00000
     20      -3.9196      2.00000
     21      -3.8777      2.00000
     22      -3.5654      2.00000
     23      -2.7919      2.00000
     24      -0.6587      0.00000
     25       2.0061      0.00000
     26       3.8837      0.00000
     27       4.4619      0.00000
     28       5.2901      0.00000

 k-point    10 :       0.5000    0.1000    0.0000
  band No.  band energies     occupation 
      1      -8.3199      2.00000
      2      -6.9313      2.00000
      3      -6.7703      2.00000
      4      -6.4262      2.00000
      5      -6.3809      2.00000
      6      -6.1882      2.00000
      7      -5.9398      2.00000
      8      -5.4512      2.00000
      9      -5.3235      2.00000
     10      -5.1765      2.00000
     11      -5.1364      2.00000
     12      -5.0085      2.00000
     13      -4.7700      2.00000
     14      -4.4726      2.00000
     15      -4.3676      2.00000
     16      -4.1971      2.00000
     17      -4.0688      2.00000
     18      -4.0099      2.00000
     19      -3.9555      2.00000
     20      -3.8048      2.00000
     21      -3.3827      2.00000
     22      -2.2819      1.09694
     23      -1.2987      0.00000
     24       0.1427      0.00000
     25       1.6178      0.00000
     26       2.0515      0.00000
     27       3.1425      0.00000
     28       4.5417      0.00000

 k-point    11 :       0.4000    0.2000    0.0000
  band No.  band energies     occupation 
      1      -8.9071      2.00000
      2      -7.6518      2.00000
      3      -6.9075      2.00000
      4      -6.3990      2.00000
      5      -6.0615      2.00000
      6      -5.9571      2.00000
      7      -5.8842      2.00000
      8      -5.7958      2.00000
      9      -5.5227      2.00000
     10      -5.3819      2.00000
     11      -5.2820      2.00000
     12      -5.2392      2.00000
     13      -4.9280      2.00000
     14      -4.8648      2.00000
     15      -4.7416      2.00000
     16      -4.5530      2.00000
     17      -4.3752      2.00000
     18      -4.2307      2.00000
     19      -4.1396      2.00000
     20      -3.9145      2.00000
     21      -3.8696      2.00000
     22      -3.5139      2.00000
     23      -2.7933      2.00000
     24      -0.7876      0.00000
     25       1.8074      0.00000
     26       4.6086      0.00000
     27       5.2404      0.00000
     28       5.6426      0.00000

 k-point    12 :       0.5000    0.2000    0.0000
  band No.  band energies     occupation 
      1      -8.2546      2.00000
      2      -6.7692      2.00000
      3      -6.5671      2.00000
      4      -6.3264      2.00000
      5      -6.1537      2.00000
      6      -6.0291      2.00000
      7      -5.8778      2.00000
      8      -5.7086      2.00000
      9      -5.5336      2.00000
     10      -5.4343      2.00000
     11      -5.3111      2.00000
     12      -5.0068      2.00000
     13      -4.9314      2.00000
     14      -4.7788      2.00000
     15      -4.6008      2.00000
     16      -4.4799      2.00000
     17      -4.3190      2.00000
     18      -4.1401      2.00000
     19      -3.9682      2.00000
     20      -3.8234      2.00000
     21      -3.1559      2.00000
     22      -2.3047      1.34224
     23      -1.1769      0.00000
     24       0.8945      0.00000
     25       2.9975      0.00000
     26       3.2103      0.00000
     27       4.0230      0.00000
     28       5.2134      0.00000

 k-point    13 :      -0.4000    0.2000    0.0000
  band No.  band energies     occupation 
      1      -8.0881      2.00000
      2      -6.5564      2.00000
      3      -6.4964      2.00000
      4      -6.2350      2.00000
      5      -6.1520      2.00000
      6      -6.0473      2.00000
      7      -5.8889      2.00000
      8      -5.7489      2.00000
      9      -5.5057      2.00000
     10      -5.3705      2.00000
     11      -5.2386      2.00000
     12      -5.0521      2.00000
     13      -4.8821      2.00000
     14      -4.6445      2.00000
     15      -4.5094      2.00000
     16      -4.4397      2.00000
     17      -4.2126      2.00000
     18      -4.0485      2.00000
     19      -3.9968      2.00000
     20      -3.8903      2.00000
     21      -2.3331      1.60165
     22      -0.6695      0.00000
     23      -0.1298      0.00000
     24       0.6295      0.00000
     25       1.9731      0.00000
     26       2.2606      0.00000
     27       3.5628      0.00000
     28       4.6920      0.00000

 k-point    14 :      -0.4000    0.3000    0.0000
  band No.  band energies     occupation 
      1      -7.9869      2.00000
      2      -6.3147      2.00000
      3      -6.2609      2.00000
      4      -6.1846      2.00000
      5      -6.0447      2.00000
      6      -5.9401      2.00000
      7      -5.8952      2.00000
      8      -5.8205      2.00000
      9      -5.6831      2.00000
     10      -5.5151      2.00000
     11      -5.3619      2.00000
     12      -4.9881      2.00000
     13      -4.9391      2.00000
     14      -4.8184      2.00000
     15      -4.6163      2.00000
     16      -4.4603      2.00000
     17      -4.3837      2.00000
     18      -4.0907      2.00000
     19      -4.0083      2.00000
     20      -3.9145      2.00000
     21      -1.8870      0.00000
     22      -0.3357      0.00000
     23       0.7903      0.00000
     24       2.0427      0.00000
     25       2.4438      0.00000
     26       2.9646      0.00000
     27       3.1983      0.00000
     28       4.0455      0.00000


--------------------------------------------------------------------------------------------------------


 soft charge-density along one line, spin component           1
         0         1         2         3         4         5         6         7         8         9
 total charge-density along one line
 
 pseudopotential strength for first ion, spin component:           1
-10.771   0.000   0.000  -0.004   0.000   1.709  -0.000  -0.000
  0.000 -10.751  -0.000   0.000  -0.004  -0.000   1.699   0.000
  0.000  -0.000 -10.752  -0.000   0.000  -0.000   0.000   1.699
 -0.004   0.000  -0.000 -10.751   0.000   0.002  -0.000   0.000
  0.000  -0.004   0.000   0.000 -10.771  -0.000   0.002  -0.000
  1.709  -0.000  -0.000   0.002  -0.000   0.790   0.000   0.000
 -0.000   1.699   0.000  -0.000   0.002   0.000   0.795  -0.000
 -0.000   0.000   1.699   0.000  -0.000   0.000  -0.000   0.795
  0.002  -0.000   0.000   1.699  -0.000  -0.001   0.000  -0.000
 -0.000   0.002  -0.000  -0.000   1.709   0.000  -0.001   0.000
  0.000   0.000  -0.005   0.000   0.000   0.000   0.000   0.001
 -0.000  -0.000   0.000  -0.000  -0.000   0.000   0.000  -0.000
  0.000  -0.011  -0.000  -0.000   0.000  -0.000   0.006  -0.000
 -0.000   0.000  -0.011   0.000  -0.000  -0.000  -0.000   0.006
  0.000  -0.000  -0.000  -0.011   0.000   0.000  -0.000  -0.000
 -0.000   0.006   0.000   0.000  -0.000   0.000  -0.003  -0.000
  0.000   0.000   0.006   0.000   0.000  -0.000  -0.000  -0.003
 -0.000   0.000   0.000   0.006  -0.000   0.000  -0.000  -0.000
 total augmentation occupancy for first ion, spin component:           1
  1.927   0.000  -0.000  -0.002  -0.000  -0.003   0.000   0.000   0.010   0.000   0.000  -0.000   0.000  -0.000   0.005   0.000
  0.000   1.932   0.000   0.000  -0.002   0.000  -0.034  -0.000  -0.000   0.010  -0.000   0.000  -0.002   0.000   0.000  -0.005
 -0.000   0.000   1.935   0.000  -0.000   0.000  -0.000  -0.025  -0.000   0.000   0.016   0.040  -0.000   0.036   0.000   0.000
 -0.002   0.000   0.000   1.932   0.000   0.010  -0.000  -0.000  -0.034  -0.000   0.000  -0.000   0.000   0.000  -0.002  -0.000
 -0.000  -0.002  -0.000  -0.000   1.927  -0.000   0.010   0.000  -0.000  -0.003  -0.000  -0.000   0.005  -0.000  -0.000  -0.001
 -0.003   0.000   0.000   0.010  -0.000   0.060  -0.000  -0.000   0.001  -0.000   0.000   0.000  -0.000  -0.000   0.005   0.000
  0.000  -0.034  -0.000  -0.000   0.010  -0.000   0.039   0.000   0.000   0.001   0.000   0.000   0.031   0.000   0.000  -0.003
  0.000  -0.000  -0.025  -0.000   0.000  -0.000  -0.000   0.056  -0.000  -0.000  -0.074   0.013  -0.000   0.042  -0.000   0.000
  0.010   0.000  -0.000  -0.034  -0.000   0.001   0.000   0.000   0.039   0.000   0.000   0.000   0.000  -0.000   0.031   0.000
 -0.000   0.010   0.000  -0.000  -0.003  -0.000   0.001  -0.000  -0.000   0.060   0.000  -0.000   0.005  -0.000   0.000  -0.000
  0.000   0.000   0.016   0.000  -0.000   0.000   0.000  -0.074   0.000   0.000   1.243  -0.281   0.000   0.072   0.000   0.000
 -0.000   0.000   0.040  -0.000  -0.000  -0.000   0.000   0.013   0.000  -0.000  -0.281   0.109   0.000  -0.045  -0.000   0.000
  0.000  -0.002  -0.000   0.000   0.005  -0.000   0.031  -0.000   0.000   0.005   0.000   0.000   0.170   0.000   0.000  -0.010
 -0.000   0.000   0.036   0.000  -0.000   0.000   0.000   0.042  -0.000  -0.000   0.072  -0.045  -0.000   0.091   0.000  -0.000
  0.005   0.000   0.000  -0.002  -0.000   0.005   0.000   0.000   0.031  -0.000   0.000  -0.000  -0.000   0.000   0.170   0.000
 -0.000  -0.005   0.000  -0.000  -0.001  -0.000  -0.003   0.000   0.000  -0.000   0.000   0.000  -0.010   0.000  -0.000   0.001
  0.000   0.000  -0.008   0.000   0.000   0.000   0.000  -0.002   0.000   0.000  -0.013   0.006   0.000  -0.007   0.000   0.000
 -0.001  -0.000   0.000  -0.005   0.000  -0.000   0.000   0.000  -0.003   0.000   0.000   0.000   0.000   0.000  -0.010   0.000


------------------------ aborting loop because EDIFF is reached ----------------------------------------


 


 total charge     
 
# of ion       s       p       d       tot
------------------------------------------
    1        0.456   0.286   9.219   9.961
    2        0.443   0.368   9.222  10.033
    3        0.448   0.356   9.210  10.015
    4        0.424   0.459   9.209  10.091
    5        0.524   0.018   0.000   0.543
--------------------------------------------------
tot          2.296   1.487  36.859  40.643
 
    CHARGE:  cpu time    0.0160: real time    0.0166
    FORLOC:  cpu time    0.0020: real time    0.0014
    FORNL :  cpu time    0.0820: real time    0.0827
    STRESS:  cpu time    0.2500: real time    0.2507
    FORCOR:  cpu time    0.0120: real time    0.0118
    FORHAR:  cpu time    0.0030: real time    0.0032
    MIXING:  cpu time    0.0010: real time    0.0012
    OFIELD:  cpu time    0.0000: real time    0.0000

  FORCE on cell =-STRESS in cart. coord.  units (eV):
  Direction    XX          YY          ZZ          XY          YZ          ZX
  --------------------------------------------------------------------------------------
  Alpha Z   120.87646   120.87646   120.87646
  Ewald   40725.10581 40725.10581-43658.43184    -0.00000     0.00000     0.00000
  Hartree 42036.74687 42036.74685-41209.61525     0.00002    -0.00001    -0.00002
  E(xc)    -253.09751  -253.09596  -253.69275    -0.00134     0.00017     0.00030
  Local  -83028.38886-83028.39442 84598.08522     0.00481    -0.00080    -0.00139
  n-local  -158.22967  -154.00458  -156.93247     2.52508    -0.50402     0.21096
  augment   225.45870   225.46769   226.75996    -0.00778     0.00264     0.00457
  Kinetic   337.48900   311.57114   327.64556    -9.91451     0.06042    -0.26701
  Fock        0.00000     0.00000     0.00000     0.00000     0.00000     0.00000
  -------------------------------------------------------------------------------------
  Total      -4.88311    -4.88311    -5.30511     0.00000    -0.00000     0.00000
  in kB     -44.99814   -44.99814   -48.88687     0.00000    -0.00000     0.00000
  external pressure =      -46.29 kB  Pullay stress =        0.00 kB


 VOLUME and BASIS-vectors are now :
 -----------------------------------------------------------------------------
  energy-cutoff  :      250.00
  volume of cell :      173.87
      direct lattice vectors                 reciprocal lattice vectors
     2.573868684  0.000000000  0.000000000     0.388520209 -0.224312248  0.000000000
     1.286934342  2.229035666  0.000000000     0.000000000  0.448624495  0.000000000
     0.000000000  0.000000000 30.304664940     0.000000000  0.000000000  0.032998220

  length of vectors
     2.573868684  2.573868684 30.304664940     0.448624495  0.448624495  0.032998220


 FORCES acting on ions
    electron-ion (+dipol)            ewald-force                    non-local-force                 convergence-correction
 -----------------------------------------------------------------------------------------------
   -.348E-03 -.201E-03 0.421E+04   0.674E-12 0.428E-12 -.421E+04   -.607E-17 -.173E-17 -.156E+01   -.200E-08 -.115E-08 0.260E-04
   -.736E-04 -.425E-04 0.148E+04   -.232E-11 -.131E-11 -.148E+04   0.867E-18 0.000E+00 -.755E+00   -.550E-09 -.318E-09 -.312E-03
   0.274E-04 0.158E-04 -.126E+04   0.215E-11 0.116E-11 0.126E+04   -.434E-18 0.000E+00 0.464E+00   0.150E-08 0.863E-09 -.168E-03
   0.254E-03 0.147E-03 -.397E+04   -.216E-11 -.114E-11 0.397E+04   0.416E-16 0.278E-16 0.477E+00   0.303E-08 0.175E-08 -.192E-03
   0.776E-04 0.448E-04 -.470E+03   0.151E-11 0.898E-12 0.472E+03   0.173E-17 0.173E-17 -.139E+01   -.734E-09 -.424E-09 0.291E-04
 -----------------------------------------------------------------------------------------------
   -.626E-04 -.361E-04 0.277E+01   -.150E-12 0.336E-13 0.398E-12   0.377E-16 0.278E-16 -.277E+01   0.124E-08 0.718E-09 -.617E-03
 
 
 POSITION                                       TOTAL-FORCE (eV/Angst)
 -----------------------------------------------------------------------------------
      0.00000      0.00000     12.01359        -0.000000     -0.000000      0.064782
      1.28693      0.74301     14.09657        -0.000000     -0.000000     -0.008987
      2.57387      1.48602     16.17934        -0.000000     -0.000000      0.022605
      0.00000      0.00000     18.38621         0.000000      0.000000     -0.024755
      2.57387      1.48602     19.23829         0.000000     -0.000000     -0.053645
 -----------------------------------------------------------------------------------
    total drift:                               -0.000063     -0.000036      0.003989


--------------------------------------------------------------------------------------------------------



  FREE ENERGIE OF THE ION-ELECTRON SYSTEM (eV)
  ---------------------------------------------------
  free  energy   TOTEN  =       -17.25141162 eV

  energy  without entropy=      -17.23452481  energy(sigma->0) =      -17.24296822
 


--------------------------------------------------------------------------------------------------------


    POTLOK:  cpu time    0.0160: real time    0.0147


--------------------------------------------------------------------------------------------------------


     LOOP+:  cpu time    6.5360: real time    6.7537
    4ORBIT:  cpu time    0.0000: real time    0.0000
 


 total charge     
 
# of ion       s       p       d       tot
------------------------------------------
    1        0.456   0.286   9.219   9.961
    2        0.443   0.368   9.222  10.033
    3        0.448   0.356   9.210  10.015
    4        0.424   0.459   9.209  10.091
    5        0.524   0.018   0.000   0.543
--------------------------------------------------
tot          2.296   1.487  36.859  40.643
 

 total amount of memory used by VASP MPI-rank0    35975. kBytes
=======================================================================

   base      :      30000. kBytes
   nonlr-proj:        677. kBytes
   fftplans  :        995. kBytes
   grid      :       1592. kBytes
   one-center:         46. kBytes
   wavefun   :       2665. kBytes
 
  
  
 General timing and accounting informations for this job:
 ========================================================
  
                  Total CPU time used (sec):        7.685
                            User time (sec):        7.496
                          System time (sec):        0.189
                         Elapsed time (sec):        9.426
  
                   Maximum memory used (kb):       35512.
                   Average memory used (kb):           0.
  
                          Minor page faults:        12264
                          Major page faults:           28
                 Voluntary context switches:         2575
