PROCAR lm decomposed
# of k-points:   14         # of bands:   28         # of ions:    5

 k-point     1 :    0.00000000 0.00000000 0.00000000     weight = 0.01000000

band     1 # energy  -11.75136467 # occ.  2.00000000
 
ion      s     py     pz     px    dxy    dyz    dz2    dxz  x2-y2    tot
    1  0.003  0.000  0.000  0.000  0.000  0.000  0.000  0.000  0.000  0.004
    2  0.022  0.000  0.001  0.000  0.000  0.000  0.000  0.000  0.000  0.023
    3  0.085  0.000  0.003  0.000  0.000  0.000  0.000  0.000  0.000  0.088
    4  0.346  0.000  0.002  0.000  0.000  0.000  0.019  0.000  0.000  0.367
    5  0.126  0.000  0.001  0.000  0.000  0.000  0.000  0.000  0.000  0.127
tot    0.582  0.000  0.008  0.000  0.000  0.000  0.019  0.000  0.000  0.610
 
band     2 # energy  -10.65706817 # occ.  2.00000000
 
ion      s     py     pz     px    dxy    dyz    dz2    dxz  x2-y2    tot
    1  0.116  0.000  0.011  0.000  0.000  0.000  0.000  0.000  0.000  0.127
    2  0.285  0.000  0.000  0.000  0.000  0.000  0.002  0.000  0.000  0.287
    3  0.084  0.000  0.015  0.000  0.000  0.000  0.001  0.000  0.000  0.099
    4  0.037  0.000  0.008  0.000  0.000  0.000  0.011  0.000  0.000  0.056
    5  0.028  0.000  0.000  0.000  0.000  0.000  0.000  0.000  0.000  0.028
tot    0.550  0.000  0.034  0.000  0.000  0.000  0.014  0.000  0.000  0.598
 
band     3 # energy   -8.95538120 # occ.  2.00000000
 
ion      s     py     pz     px    dxy    dyz    dz2    dxz  x2-y2    tot
    1  0.199  0.000  0.002  0.000  0.000  0.000  0.021  0.000  0.000  0.222
    2  0.004  0.000  0.048  0.000  0.000  0.000  0.001  0.000  0.000  0.053
    3  0.215  0.000  0.000  0.000  0.000  0.000  0.036  0.000  0.000  0.251
    4  0.004  0.000  0.026  0.000  0.000  0.000  0.026  0.000  0.000  0.056
    5  0.023  0.000  0.000  0.000  0.000  0.000  0.000  0.000  0.000  0.023
tot    0.445  0.000  0.076  0.000  0.000  0.000  0.084  0.000  0.000  0.605
 
band     4 # energy   -7.46687952 # occ.  2.00000000
 
ion      s     py     pz     px    dxy    dyz    dz2    dxz  x2-y2    tot
    1  0.104  0.000  0.005  0.000  0.000  0.000  0.133  0.000  0.000  0.243
    2  0.099  0.000  0.002  0.000  0.000  0.000  0.236  0.000  0.000  0.337
    3  0.034  0.000  0.014  0.000  0.000  0.000  0.087  0.000  0.000  0.135
    4  0.000  0.000  0.010  0.000  0.000  0.000  0.016  0.000  0.000  0.027
    5  0.004  0.000  0.000  0.000  0.000  0.000  0.000  0.000  0.000  0.004
tot    0.241  0.000  0.032  0.000  0.000  0.000  0.472  0.000  0.000  0.746
 
band     5 # energy   -5.82091527 # occ.  2.00000000
 
ion      s     py     pz     px    dxy    dyz    dz2    dxz  x2-y2    tot
    1  0.000  0.000  0.000  0.000  0.000  0.000  0.001  0.000  0.000  0.001
    2  0.000  0.000  0.001  0.000  0.000  0.000  0.019  0.000  0.000  0.020
    3  0.002  0.000  0.001  0.000  0.000  0.000  0.005  0.000  0.000  0.008
    4  0.000  0.000  0.021  0.000  0.000  0.000  0.768  0.000  0.000  0.789
    5  0.024  0.000  0.002  0.000  0.000  0.000  0.000  0.000  0.000  0.026
tot    0.027  0.000  0.025  0.000  0.000  0.000  0.793  0.000  0.000  0.844
 
band     6 # energy   -5.56985265 # occ.  2.00000000
 
ion      s     py     pz     px    dxy    dyz    dz2    dxz  x2-y2    tot
    1  0.000  0.000  0.000  0.000  0.000  0.000  0.000  0.000  0.000  0.000
    2  0.000  0.000  0.000  0.000  0.001  0.000  0.000  0.000  0.002  0.002
    3  0.000  0.000  0.000  0.000  0.002  0.008  0.000  0.003  0.005  0.018
    4  0.000  0.000  0.000  0.000  0.235  0.003  0.000  0.001  0.706  0.945
    5  0.000  0.002  0.000  0.001  0.000  0.000  0.000  0.000  0.000  0.002
tot    0.000  0.002  0.000  0.001  0.238  0.011  0.000  0.004  0.713  0.968
 
band     7 # energy   -5.56963071 # occ.  2.00000000
 
ion      s     py     pz     px    dxy    dyz    dz2    dxz  x2-y2    tot
    1  0.000  0.000  0.000  0.000  0.000  0.000  0.000  0.000  0.000  0.000
    2  0.000  0.000  0.000  0.000  0.002  0.000  0.000  0.000  0.001  0.002
    3  0.000  0.000  0.000  0.000  0.005  0.003  0.000  0.008  0.002  0.018
    4  0.000  0.000  0.000  0.000  0.706  0.001  0.000  0.003  0.235  0.945
    5  0.000  0.001  0.000  0.002  0.000  0.000  0.000  0.000  0.000  0.002
tot    0.000  0.001  0.000  0.002  0.713  0.004  0.000  0.011  0.238  0.968
 
band     8 # energy   -5.53201589 # occ.  2.00000000
 
ion      s     py     pz     px    dxy    dyz    dz2    dxz  x2-y2    tot
    1  0.000  0.000  0.001  0.000  0.000  0.000  0.062  0.000  0.000  0.063
    2  0.003  0.000  0.003  0.000  0.000  0.000  0.000  0.000  0.000  0.006
    3  0.002  0.000  0.014  0.000  0.000  0.000  0.667  0.000  0.000  0.684
    4  0.006  0.000  0.043  0.000  0.000  0.000  0.046  0.000  0.000  0.095
    5  0.017  0.000  0.000  0.000  0.000  0.000  0.000  0.000  0.000  0.017
tot    0.028  0.000  0.061  0.000  0.000  0.000  0.776  0.000  0.000  0.865
 
band     9 # energy   -5.24144560 # occ.  2.00000000
 
ion      s     py     pz     px    dxy    dyz    dz2    dxz  x2-y2    tot
    1  0.000  0.000  0.005  0.000  0.000  0.000  0.278  0.000  0.000  0.284
    2  0.004  0.000  0.000  0.000  0.000  0.000  0.560  0.000  0.000  0.564
    3  0.001  0.000  0.010  0.000  0.000  0.000  0.066  0.000  0.000  0.077
    4  0.001  0.000  0.005  0.000  0.000  0.000  0.004  0.000  0.000  0.010
    5  0.002  0.000  0.000  0.000  0.000  0.000  0.000  0.000  0.000  0.002
tot    0.009  0.000  0.021  0.000  0.000  0.000  0.909  0.000  0.000  0.938
 
band    10 # energy   -5.19473237 # occ.  2.00000000
 
ion      s     py     pz     px    dxy    dyz    dz2    dxz  x2-y2    tot
    1  0.000  0.000  0.000  0.000  0.005  0.015  0.000  0.005  0.016  0.042
    2  0.000  0.000  0.000  0.000  0.185  0.001  0.000  0.000  0.556  0.743
    3  0.000  0.000  0.000  0.000  0.036  0.016  0.000  0.005  0.109  0.167
    4  0.000  0.000  0.000  0.000  0.002  0.003  0.000  0.001  0.007  0.013
    5  0.000  0.000  0.000  0.000  0.000  0.000  0.000  0.000  0.000  0.000
tot    0.000  0.000  0.000  0.000  0.229  0.035  0.000  0.012  0.688  0.965
 
band    11 # energy   -5.19442066 # occ.  2.00000000
 
ion      s     py     pz     px    dxy    dyz    dz2    dxz  x2-y2    tot
    1  0.000  0.000  0.000  0.000  0.016  0.005  0.000  0.015  0.005  0.042
    2  0.000  0.000  0.000  0.000  0.556  0.000  0.000  0.001  0.185  0.743
    3  0.000  0.000  0.000  0.000  0.109  0.005  0.000  0.016  0.036  0.167
    4  0.000  0.000  0.000  0.000  0.007  0.001  0.000  0.003  0.002  0.013
    5  0.000  0.000  0.000  0.000  0.000  0.000  0.000  0.000  0.000  0.000
tot    0.000  0.000  0.000  0.000  0.688  0.012  0.000  0.035  0.229  0.965
 
band    12 # energy   -5.16516603 # occ.  2.00000000
 
ion      s     py     pz     px    dxy    dyz    dz2    dxz  x2-y2    tot
    1  0.000  0.000  0.000  0.000  0.004  0.010  0.000  0.003  0.011  0.028
    2  0.000  0.000  0.000  0.000  0.029  0.067  0.000  0.022  0.087  0.206
    3  0.000  0.000  0.000  0.000  0.146  0.037  0.000  0.012  0.439  0.635
    4  0.000  0.000  0.000  0.000  0.000  0.073  0.000  0.024  0.001  0.099
    5  0.000  0.000  0.000  0.000  0.000  0.000  0.000  0.000  0.000  0.000
tot    0.000  0.000  0.000  0.000  0.180  0.187  0.000  0.062  0.539  0.968
 
band    13 # energy   -5.16489874 # occ.  2.00000000
 
ion      s     py     pz     px    dxy    dyz    dz2    dxz  x2-y2    tot
    1  0.000  0.000  0.000  0.000  0.011  0.003  0.000  0.010  0.004  0.028
    2  0.000  0.000  0.000  0.000  0.087  0.022  0.000  0.067  0.029  0.206
    3  0.000  0.000  0.000  0.000  0.439  0.012  0.000  0.037  0.146  0.635
    4  0.000  0.000  0.000  0.000  0.001  0.024  0.000  0.073  0.000  0.100
    5  0.000  0.000  0.000  0.000  0.000  0.000  0.000  0.000  0.000  0.000
tot    0.000  0.000  0.000  0.000  0.539  0.062  0.000  0.187  0.180  0.968
 
band    14 # energy   -4.92417054 # occ.  2.00000000
 
ion      s     py     pz     px    dxy    dyz    dz2    dxz  x2-y2    tot
    1  0.000  0.000  0.000  0.000  0.202  0.005  0.000  0.002  0.607  0.816
    2  0.000  0.000  0.000  0.000  0.000  0.057  0.000  0.019  0.001  0.077
    3  0.000  0.000  0.000  0.000  0.014  0.002  0.000  0.001  0.041  0.056
    4  0.000  0.000  0.000  0.000  0.000  0.014  0.000  0.005  0.001  0.020
    5  0.000  0.000  0.000  0.000  0.000  0.000  0.000  0.000  0.000  0.000
tot    0.000  0.000  0.000  0.000  0.216  0.077  0.000  0.026  0.649  0.969
 
band    15 # energy   -4.92387421 # occ.  2.00000000
 
ion      s     py     pz     px    dxy    dyz    dz2    dxz  x2-y2    tot
    1  0.000  0.000  0.000  0.000  0.607  0.002  0.000  0.005  0.202  0.816
    2  0.000  0.000  0.000  0.000  0.001  0.019  0.000  0.057  0.000  0.077
    3  0.000  0.000  0.000  0.000  0.041  0.001  0.000  0.002  0.014  0.056
    4  0.000  0.000  0.000  0.000  0.001  0.005  0.000  0.014  0.000  0.020
    5  0.000  0.000  0.000  0.000  0.000  0.000  0.000  0.000  0.000  0.000
tot    0.000  0.000  0.000  0.000  0.649  0.026  0.000  0.077  0.216  0.969
 
band    16 # energy   -4.80502312 # occ.  2.00000000
 
ion      s     py     pz     px    dxy    dyz    dz2    dxz  x2-y2    tot
    1  0.028  0.000  0.001  0.000  0.000  0.000  0.386  0.000  0.000  0.415
    2  0.014  0.000  0.045  0.000  0.000  0.000  0.062  0.000  0.000  0.121
    3  0.000  0.000  0.079  0.000  0.000  0.000  0.007  0.000  0.000  0.086
    4  0.012  0.000  0.050  0.000  0.000  0.000  0.003  0.000  0.000  0.065
    5  0.019  0.000  0.000  0.000  0.000  0.000  0.000  0.000  0.000  0.019
tot    0.073  0.000  0.175  0.000  0.000  0.000  0.457  0.000  0.000  0.705
 
band    17 # energy   -4.73235335 # occ.  2.00000000
 
ion      s     py     pz     px    dxy    dyz    dz2    dxz  x2-y2    tot
    1  0.000  0.000  0.000  0.000  0.001  0.002  0.000  0.001  0.003  0.007
    2  0.000  0.000  0.000  0.000  0.003  0.005  0.000  0.002  0.009  0.018
    3  0.000  0.000  0.000  0.000  0.030  0.032  0.000  0.011  0.090  0.162
    4  0.000  0.000  0.000  0.000  0.000  0.597  0.000  0.199  0.000  0.796
    5  0.000  0.001  0.000  0.000  0.000  0.000  0.000  0.000  0.000  0.001
tot    0.000  0.001  0.000  0.000  0.034  0.636  0.000  0.212  0.102  0.984
 
band    18 # energy   -4.73227346 # occ.  2.00000000
 
ion      s     py     pz     px    dxy    dyz    dz2    dxz  x2-y2    tot
    1  0.000  0.000  0.000  0.000  0.003  0.001  0.000  0.002  0.001  0.007
    2  0.000  0.000  0.000  0.000  0.009  0.002  0.000  0.005  0.003  0.018
    3  0.000  0.000  0.000  0.000  0.090  0.011  0.000  0.032  0.030  0.162
    4  0.000  0.000  0.000  0.000  0.000  0.199  0.000  0.597  0.000  0.796
    5  0.000  0.000  0.000  0.001  0.000  0.000  0.000  0.000  0.000  0.001
tot    0.000  0.000  0.000  0.001  0.102  0.212  0.000  0.635  0.034  0.984
 
band    19 # energy   -4.42306810 # occ.  2.00000000
 
ion      s     py     pz     px    dxy    dyz    dz2    dxz  x2-y2    tot
    1  0.000  0.000  0.000  0.000  0.025  0.038  0.000  0.013  0.076  0.152
    2  0.000  0.000  0.000  0.000  0.018  0.330  0.000  0.110  0.053  0.510
    3  0.000  0.000  0.000  0.000  0.011  0.191  0.000  0.064  0.033  0.299
    4  0.000  0.000  0.000  0.000  0.001  0.014  0.000  0.005  0.004  0.024
    5  0.000  0.000  0.000  0.000  0.000  0.000  0.000  0.000  0.000  0.000
tot    0.000  0.000  0.000  0.000  0.055  0.572  0.000  0.191  0.166  0.984
 
band    20 # energy   -4.42299021 # occ.  2.00000000
 
ion      s     py     pz     px    dxy    dyz    dz2    dxz  x2-y2    tot
    1  0.000  0.000  0.000  0.000  0.076  0.013  0.000  0.038  0.025  0.152
    2  0.000  0.000  0.000  0.000  0.053  0.110  0.000  0.330  0.018  0.510
    3  0.000  0.000  0.000  0.000  0.033  0.064  0.000  0.191  0.011  0.299
    4  0.000  0.000  0.000  0.000  0.004  0.005  0.000  0.014  0.001  0.024
    5  0.000  0.000  0.000  0.000  0.000  0.000  0.000  0.000  0.000  0.000
tot    0.000  0.000  0.000  0.000  0.166  0.191  0.000  0.572  0.055  0.984
 
band    21 # energy   -4.20251057 # occ.  2.00000000
 
ion      s     py     pz     px    dxy    dyz    dz2    dxz  x2-y2    tot
    1  0.000  0.000  0.000  0.000  0.002  0.264  0.000  0.088  0.007  0.362
    2  0.000  0.000  0.000  0.000  0.000  0.069  0.000  0.023  0.000  0.092
    3  0.000  0.000  0.000  0.000  0.002  0.359  0.000  0.120  0.005  0.485
    4  0.000  0.000  0.000  0.000  0.001  0.031  0.000  0.010  0.004  0.047
    5  0.000  0.000  0.000  0.000  0.000  0.000  0.000  0.000  0.000  0.000
tot    0.000  0.000  0.000  0.000  0.005  0.723  0.000  0.241  0.016  0.986
 
band    22 # energy   -4.20247065 # occ.  2.00000000
 
ion      s     py     pz     px    dxy    dyz    dz2    dxz  x2-y2    tot
    1  0.000  0.000  0.000  0.000  0.007  0.088  0.000  0.264  0.002  0.362
    2  0.000  0.000  0.000  0.000  0.000  0.023  0.000  0.069  0.000  0.092
    3  0.000  0.000  0.000  0.000  0.005  0.120  0.000  0.359  0.002  0.485
    4  0.000  0.000  0.000  0.000  0.004  0.010  0.000  0.031  0.001  0.047
    5  0.000  0.000  0.000  0.000  0.000  0.000  0.000  0.000  0.000  0.000
tot    0.000  0.000  0.000  0.000  0.016  0.241  0.000  0.723  0.005  0.986
 
band    23 # energy   -3.92527318 # occ.  2.00000000
 
ion      s     py     pz     px    dxy    dyz    dz2    dxz  x2-y2    tot
    1  0.000  0.000  0.000  0.000  0.002  0.404  0.000  0.135  0.006  0.547
    2  0.000  0.000  0.000  0.000  0.006  0.210  0.000  0.070  0.019  0.306
    3  0.000  0.000  0.000  0.000  0.002  0.093  0.000  0.031  0.005  0.131
    4  0.000  0.000  0.000  0.000  0.000  0.004  0.000  0.001  0.001  0.007
    5  0.000  0.000  0.000  0.000  0.000  0.000  0.000  0.000  0.000  0.000
tot    0.000  0.000  0.000  0.000  0.010  0.711  0.000  0.237  0.031  0.990
 
band    24 # energy   -3.92520338 # occ.  2.00000000
 
ion      s     py     pz     px    dxy    dyz    dz2    dxz  x2-y2    tot
    1  0.000  0.000  0.000  0.000  0.006  0.135  0.000  0.404  0.002  0.547
    2  0.000  0.000  0.000  0.000  0.019  0.070  0.000  0.210  0.006  0.306
    3  0.000  0.000  0.000  0.000  0.005  0.031  0.000  0.093  0.002  0.131
    4  0.000  0.000  0.000  0.000  0.001  0.001  0.000  0.004  0.000  0.007
    5  0.000  0.000  0.000  0.000  0.000  0.000  0.000  0.000  0.000  0.000
tot    0.000  0.000  0.000  0.000  0.031  0.237  0.000  0.711  0.010  0.990
 
band    25 # energy   -2.85036967 # occ.  2.00000000
 
ion      s     py     pz     px    dxy    dyz    dz2    dxz  x2-y2    tot
    1  0.019  0.000  0.153  0.000  0.000  0.000  0.028  0.000  0.000  0.201
    2  0.015  0.000  0.080  0.000  0.000  0.000  0.023  0.000  0.000  0.118
    3  0.012  0.000  0.035  0.000  0.000  0.000  0.021  0.000  0.000  0.068
    4  0.008  0.000  0.014  0.000  0.000  0.000  0.005  0.000  0.000  0.028
    5  0.004  0.000  0.000  0.000  0.000  0.000  0.000  0.000  0.000  0.004
tot    0.059  0.000  0.282  0.000  0.000  0.000  0.078  0.000  0.000  0.419
 
band    26 # energy    1.61519555 # occ.  0.00000000
 
ion      s     py     pz     px    dxy    dyz    dz2    dxz  x2-y2    tot
    1  0.015  0.000  0.002  0.000  0.000  0.000  0.015  0.000  0.000  0.031
    2  0.022  0.000  0.002  0.000  0.000  0.000  0.020  0.000  0.000  0.044
    3  0.031  0.000  0.002  0.000  0.000  0.000  0.028  0.000  0.000  0.061
    4  0.032  0.000  0.000  0.000  0.000  0.000  0.037  0.000  0.000  0.070
    5  0.000  0.000  0.002  0.000  0.000  0.000  0.000  0.000  0.000  0.002
tot    0.100  0.000  0.008  0.000  0.000  0.000  0.100  0.000  0.000  0.209
 
band    27 # energy    1.89840320 # occ.  0.00000000
 
ion      s     py     pz     px    dxy    dyz    dz2    dxz  x2-y2    tot
    1  0.006  0.000  0.002  0.000  0.000  0.000  0.006  0.000  0.000  0.014
    2  0.002  0.000  0.003  0.000  0.000  0.000  0.002  0.000  0.000  0.006
    3  0.000  0.000  0.003  0.000  0.000  0.000  0.000  0.000  0.000  0.003
    4  0.001  0.000  0.002  0.000  0.000  0.000  0.002  0.000  0.000  0.005
    5  0.002  0.000  0.000  0.000  0.000  0.000  0.000  0.000  0.000  0.002
tot    0.010  0.000  0.010  0.000  0.000  0.000  0.010  0.000  0.000  0.031
 
band    28 # energy    2.30038352 # occ.  0.00000000
 
ion      s     py     pz     px    dxy    dyz    dz2    dxz  x2-y2    tot
    1  0.004  0.000  0.003  0.000  0.000  0.000  0.004  0.000  0.000  0.012
    2  0.001  0.000  0.003  0.000  0.000  0.000  0.001  0.000  0.000  0.005
    3  0.000  0.000  0.004  0.000  0.000  0.000  0.000  0.000  0.000  0.004
    4  0.002  0.000  0.001  0.000  0.000  0.000  0.005  0.000  0.000  0.009
    5  0.001  0.000  0.000  0.000  0.000  0.000  0.000  0.000  0.000  0.002
tot    0.009  0.000  0.011  0.000  0.000  0.000  0.010  0.000  0.000  0.031
 

 k-point     2 :    0.10000000 0.00000000 0.00000000     weight = 0.06000000

band     1 # energy  -11.45613043 # occ.  2.00000000
 
ion      s     py     pz     px    dxy    dyz    dz2    dxz  x2-y2    tot
    1  0.003  0.000  0.000  0.000  0.000  0.000  0.000  0.000  0.000  0.003
    2  0.020  0.000  0.001  0.000  0.000  0.000  0.000  0.000  0.000  0.022
    3  0.079  0.001  0.003  0.002  0.000  0.000  0.000  0.000  0.000  0.085
    4  0.335  0.003  0.002  0.009  0.001  0.000  0.018  0.001  0.000  0.369
    5  0.131  0.000  0.001  0.000  0.000  0.000  0.000  0.000  0.000  0.132
tot    0.567  0.004  0.008  0.011  0.001  0.000  0.018  0.001  0.000  0.611
 
band     2 # energy  -10.35641068 # occ.  2.00000000
 
ion      s     py     pz     px    dxy    dyz    dz2    dxz  x2-y2    tot
    1  0.111  0.001  0.011  0.002  0.000  0.000  0.000  0.001  0.000  0.126
    2  0.277  0.002  0.000  0.006  0.000  0.000  0.001  0.000  0.000  0.287
    3  0.085  0.001  0.014  0.002  0.000  0.000  0.000  0.001  0.000  0.104
    4  0.032  0.000  0.008  0.001  0.000  0.000  0.011  0.001  0.000  0.054
    5  0.027  0.000  0.000  0.000  0.000  0.000  0.000  0.000  0.000  0.028
tot    0.533  0.004  0.033  0.012  0.001  0.001  0.013  0.003  0.000  0.599
 
band     3 # energy   -8.68789602 # occ.  2.00000000
 
ion      s     py     pz     px    dxy    dyz    dz2    dxz  x2-y2    tot
    1  0.188  0.002  0.003  0.005  0.000  0.000  0.018  0.000  0.000  0.215
    2  0.005  0.000  0.048  0.000  0.000  0.002  0.001  0.005  0.000  0.061
    3  0.205  0.002  0.000  0.005  0.000  0.000  0.034  0.000  0.000  0.246
    4  0.003  0.000  0.026  0.000  0.001  0.002  0.027  0.005  0.000  0.062
    5  0.023  0.000  0.000  0.000  0.000  0.000  0.000  0.000  0.000  0.023
tot    0.424  0.003  0.076  0.010  0.001  0.003  0.079  0.010  0.000  0.608
 
band     4 # energy   -7.24673548 # occ.  2.00000000
 
ion      s     py     pz     px    dxy    dyz    dz2    dxz  x2-y2    tot
    1  0.100  0.001  0.005  0.004  0.001  0.000  0.136  0.000  0.000  0.246
    2  0.088  0.001  0.003  0.004  0.001  0.000  0.239  0.001  0.000  0.337
    3  0.028  0.000  0.015  0.001  0.000  0.001  0.084  0.003  0.000  0.132
    4  0.000  0.000  0.009  0.000  0.001  0.001  0.017  0.003  0.000  0.032
    5  0.004  0.000  0.000  0.000  0.000  0.000  0.000  0.000  0.000  0.004
tot    0.221  0.003  0.032  0.009  0.003  0.002  0.476  0.007  0.001  0.752
 
band     5 # energy   -5.87557500 # occ.  2.00000000
 
ion      s     py     pz     px    dxy    dyz    dz2    dxz  x2-y2    tot
    1  0.000  0.000  0.000  0.000  0.000  0.000  0.004  0.000  0.000  0.004
    2  0.000  0.000  0.000  0.000  0.003  0.000  0.000  0.000  0.001  0.006
    3  0.000  0.000  0.003  0.000  0.013  0.001  0.090  0.002  0.004  0.112
    4  0.003  0.000  0.033  0.000  0.097  0.033  0.390  0.100  0.032  0.690
    5  0.031  0.000  0.001  0.000  0.000  0.000  0.000  0.000  0.000  0.032
tot    0.035  0.000  0.037  0.001  0.113  0.034  0.484  0.102  0.038  0.844
 
band     6 # energy   -5.69074335 # occ.  2.00000000
 
ion      s     py     pz     px    dxy    dyz    dz2    dxz  x2-y2    tot
    1  0.001  0.000  0.000  0.000  0.001  0.000  0.010  0.000  0.000  0.014
    2  0.001  0.000  0.002  0.000  0.018  0.000  0.073  0.001  0.006  0.102
    3  0.000  0.000  0.018  0.000  0.003  0.019  0.130  0.056  0.001  0.227
    4  0.007  0.000  0.005  0.000  0.158  0.005  0.330  0.015  0.053  0.573
    5  0.001  0.000  0.001  0.001  0.000  0.000  0.000  0.000  0.000  0.002
tot    0.011  0.000  0.026  0.001  0.180  0.024  0.543  0.072  0.060  0.917
 
band     7 # energy   -5.60884756 # occ.  2.00000000
 
ion      s     py     pz     px    dxy    dyz    dz2    dxz  x2-y2    tot
    1  0.000  0.000  0.001  0.000  0.000  0.000  0.030  0.000  0.000  0.032
    2  0.001  0.000  0.002  0.000  0.012  0.003  0.002  0.008  0.004  0.031
    3  0.001  0.000  0.003  0.000  0.002  0.000  0.236  0.000  0.001  0.243
    4  0.000  0.000  0.012  0.001  0.398  0.011  0.032  0.034  0.133  0.621
    5  0.003  0.000  0.000  0.001  0.000  0.000  0.000  0.000  0.000  0.004
tot    0.005  0.001  0.017  0.002  0.413  0.014  0.300  0.042  0.138  0.932
 
band     8 # energy   -5.46081105 # occ.  2.00000000
 
ion      s     py     pz     px    dxy    dyz    dz2    dxz  x2-y2    tot
    1  0.000  0.000  0.000  0.000  0.000  0.000  0.000  0.000  0.000  0.000
    2  0.000  0.000  0.000  0.000  0.001  0.000  0.000  0.000  0.002  0.003
    3  0.000  0.000  0.000  0.000  0.002  0.010  0.000  0.003  0.005  0.020
    4  0.000  0.001  0.000  0.000  0.235  0.003  0.000  0.001  0.704  0.944
    5  0.000  0.002  0.000  0.001  0.000  0.000  0.000  0.000  0.000  0.002
tot    0.000  0.002  0.000  0.001  0.237  0.014  0.000  0.005  0.711  0.970
 
band     9 # energy   -5.30117217 # occ.  2.00000000
 
ion      s     py     pz     px    dxy    dyz    dz2    dxz  x2-y2    tot
    1  0.003  0.000  0.001  0.000  0.038  0.007  0.070  0.020  0.013  0.152
    2  0.002  0.000  0.009  0.000  0.058  0.034  0.148  0.101  0.019  0.371
    3  0.000  0.000  0.016  0.000  0.152  0.002  0.050  0.005  0.051  0.277
    4  0.002  0.000  0.005  0.000  0.024  0.017  0.013  0.052  0.008  0.120
    5  0.001  0.000  0.000  0.000  0.000  0.000  0.000  0.000  0.000  0.002
tot    0.009  0.000  0.031  0.000  0.272  0.059  0.281  0.178  0.091  0.922
 
band    10 # energy   -5.26778283 # occ.  2.00000000
 
ion      s     py     pz     px    dxy    dyz    dz2    dxz  x2-y2    tot
    1  0.002  0.000  0.001  0.000  0.002  0.005  0.087  0.015  0.001  0.114
    2  0.001  0.000  0.002  0.001  0.246  0.010  0.137  0.031  0.082  0.511
    3  0.001  0.000  0.007  0.000  0.123  0.004  0.037  0.013  0.041  0.226
    4  0.001  0.000  0.003  0.000  0.003  0.012  0.033  0.036  0.001  0.090
    5  0.001  0.000  0.000  0.000  0.000  0.000  0.000  0.000  0.000  0.001
tot    0.006  0.000  0.014  0.001  0.374  0.032  0.295  0.095  0.125  0.942
 
band    11 # energy   -5.24585827 # occ.  2.00000000
 
ion      s     py     pz     px    dxy    dyz    dz2    dxz  x2-y2    tot
    1  0.001  0.000  0.001  0.000  0.047  0.002  0.040  0.005  0.016  0.111
    2  0.001  0.000  0.002  0.000  0.261  0.008  0.145  0.024  0.087  0.529
    3  0.000  0.000  0.004  0.000  0.093  0.006  0.116  0.017  0.031  0.267
    4  0.000  0.000  0.002  0.000  0.019  0.000  0.011  0.001  0.006  0.041
    5  0.001  0.000  0.000  0.000  0.000  0.000  0.000  0.000  0.000  0.001
tot    0.003  0.000  0.008  0.001  0.421  0.016  0.313  0.047  0.141  0.949
 
band    12 # energy   -5.09862729 # occ.  2.00000000
 
ion      s     py     pz     px    dxy    dyz    dz2    dxz  x2-y2    tot
    1  0.000  0.000  0.000  0.000  0.002  0.025  0.000  0.008  0.005  0.040
    2  0.000  0.000  0.000  0.000  0.102  0.061  0.000  0.021  0.306  0.491
    3  0.000  0.000  0.000  0.000  0.059  0.067  0.000  0.022  0.178  0.327
    4  0.000  0.000  0.000  0.000  0.000  0.083  0.000  0.028  0.001  0.112
    5  0.000  0.000  0.000  0.000  0.000  0.000  0.000  0.000  0.000  0.000
tot    0.000  0.001  0.000  0.000  0.163  0.236  0.000  0.079  0.490  0.970
 
band    13 # energy   -5.08522694 # occ.  2.00000000
 
ion      s     py     pz     px    dxy    dyz    dz2    dxz  x2-y2    tot
    1  0.000  0.000  0.000  0.000  0.008  0.005  0.000  0.002  0.023  0.038
    2  0.000  0.000  0.000  0.000  0.105  0.025  0.000  0.008  0.314  0.453
    3  0.000  0.001  0.000  0.000  0.101  0.008  0.000  0.003  0.303  0.415
    4  0.000  0.000  0.000  0.000  0.003  0.037  0.000  0.013  0.008  0.061
    5  0.000  0.000  0.000  0.000  0.000  0.000  0.000  0.000  0.000  0.000
tot    0.000  0.001  0.000  0.000  0.216  0.076  0.000  0.025  0.648  0.966
 
band    14 # energy   -5.03299721 # occ.  2.00000000
 
ion      s     py     pz     px    dxy    dyz    dz2    dxz  x2-y2    tot
    1  0.003  0.000  0.002  0.000  0.027  0.003  0.315  0.009  0.009  0.368
    2  0.000  0.000  0.017  0.000  0.028  0.006  0.058  0.018  0.009  0.136
    3  0.000  0.000  0.008  0.000  0.264  0.010  0.001  0.031  0.087  0.402
    4  0.001  0.000  0.006  0.000  0.002  0.001  0.002  0.004  0.001  0.018
    5  0.002  0.000  0.000  0.000  0.000  0.000  0.000  0.000  0.000  0.002
tot    0.008  0.000  0.034  0.000  0.321  0.021  0.375  0.061  0.106  0.926
 
band    15 # energy   -4.94182523 # occ.  2.00000000
 
ion      s     py     pz     px    dxy    dyz    dz2    dxz  x2-y2    tot
    1  0.002  0.000  0.000  0.001  0.529  0.001  0.044  0.004  0.177  0.758
    2  0.000  0.000  0.008  0.000  0.007  0.003  0.020  0.009  0.002  0.049
    3  0.001  0.000  0.005  0.000  0.010  0.015  0.039  0.044  0.004  0.118
    4  0.000  0.000  0.001  0.000  0.006  0.004  0.001  0.012  0.002  0.026
    5  0.000  0.000  0.000  0.000  0.000  0.000  0.000  0.000  0.000  0.000
tot    0.003  0.000  0.014  0.001  0.552  0.023  0.104  0.069  0.185  0.951
 
band    16 # energy   -4.84332216 # occ.  2.00000000
 
ion      s     py     pz     px    dxy    dyz    dz2    dxz  x2-y2    tot
    1  0.000  0.001  0.000  0.000  0.160  0.012  0.000  0.004  0.477  0.653
    2  0.000  0.000  0.000  0.000  0.001  0.095  0.000  0.032  0.002  0.129
    3  0.000  0.000  0.000  0.000  0.009  0.010  0.000  0.003  0.028  0.051
    4  0.000  0.000  0.000  0.000  0.001  0.101  0.000  0.034  0.002  0.137
    5  0.000  0.000  0.000  0.000  0.000  0.000  0.000  0.000  0.000  0.000
tot    0.000  0.001  0.000  0.000  0.171  0.218  0.000  0.073  0.509  0.971
 
band    17 # energy   -4.73926501 # occ.  2.00000000
 
ion      s     py     pz     px    dxy    dyz    dz2    dxz  x2-y2    tot
    1  0.000  0.000  0.000  0.000  0.030  0.003  0.000  0.001  0.090  0.124
    2  0.000  0.000  0.000  0.000  0.005  0.003  0.000  0.001  0.016  0.025
    3  0.000  0.000  0.000  0.000  0.051  0.032  0.000  0.011  0.152  0.245
    4  0.000  0.000  0.000  0.000  0.000  0.439  0.000  0.146  0.000  0.586
    5  0.000  0.000  0.000  0.000  0.000  0.000  0.000  0.000  0.000  0.001
tot    0.000  0.001  0.000  0.000  0.086  0.477  0.000  0.159  0.258  0.981
 
band    18 # energy   -4.62283943 # occ.  2.00000000
 
ion      s     py     pz     px    dxy    dyz    dz2    dxz  x2-y2    tot
    1  0.001  0.000  0.001  0.000  0.027  0.010  0.010  0.030  0.009  0.088
    2  0.000  0.000  0.000  0.000  0.028  0.013  0.004  0.039  0.009  0.093
    3  0.003  0.000  0.001  0.000  0.039  0.078  0.026  0.235  0.013  0.396
    4  0.000  0.000  0.009  0.000  0.005  0.085  0.013  0.254  0.002  0.369
    5  0.005  0.000  0.000  0.001  0.000  0.000  0.000  0.000  0.000  0.006
tot    0.010  0.000  0.012  0.001  0.099  0.186  0.053  0.558  0.033  0.952
 
band    19 # energy   -4.44024407 # occ.  2.00000000
 
ion      s     py     pz     px    dxy    dyz    dz2    dxz  x2-y2    tot
    1  0.000  0.000  0.000  0.000  0.038  0.053  0.000  0.018  0.114  0.223
    2  0.000  0.000  0.000  0.000  0.018  0.264  0.000  0.088  0.053  0.422
    3  0.000  0.000  0.000  0.000  0.017  0.161  0.000  0.053  0.051  0.283
    4  0.000  0.000  0.000  0.000  0.001  0.037  0.000  0.012  0.004  0.055
    5  0.000  0.000  0.000  0.000  0.000  0.000  0.000  0.000  0.000  0.000
tot    0.000  0.000  0.000  0.000  0.074  0.515  0.000  0.171  0.223  0.983
 
band    20 # energy   -4.40465547 # occ.  2.00000000
 
ion      s     py     pz     px    dxy    dyz    dz2    dxz  x2-y2    tot
    1  0.000  0.000  0.004  0.000  0.034  0.094  0.001  0.282  0.011  0.425
    2  0.000  0.000  0.004  0.000  0.047  0.053  0.000  0.161  0.015  0.281
    3  0.003  0.000  0.002  0.000  0.012  0.022  0.024  0.067  0.004  0.135
    4  0.000  0.000  0.004  0.000  0.002  0.027  0.001  0.081  0.001  0.115
    5  0.002  0.000  0.000  0.000  0.000  0.000  0.000  0.000  0.000  0.002
tot    0.006  0.000  0.014  0.000  0.095  0.196  0.026  0.589  0.031  0.958
 
band    21 # energy   -4.23308503 # occ.  2.00000000
 
ion      s     py     pz     px    dxy    dyz    dz2    dxz  x2-y2    tot
    1  0.011  0.000  0.014  0.000  0.014  0.083  0.080  0.249  0.005  0.456
    2  0.001  0.000  0.001  0.000  0.011  0.081  0.003  0.242  0.004  0.343
    3  0.001  0.000  0.004  0.000  0.006  0.001  0.009  0.004  0.002  0.027
    4  0.000  0.000  0.006  0.000  0.000  0.016  0.000  0.047  0.000  0.070
    5  0.003  0.000  0.000  0.000  0.000  0.000  0.000  0.000  0.000  0.003
tot    0.016  0.000  0.026  0.001  0.030  0.181  0.092  0.542  0.010  0.898
 
band    22 # energy   -4.19873654 # occ.  2.00000000
 
ion      s     py     pz     px    dxy    dyz    dz2    dxz  x2-y2    tot
    1  0.000  0.000  0.000  0.000  0.003  0.259  0.000  0.086  0.009  0.358
    2  0.000  0.000  0.000  0.000  0.005  0.061  0.000  0.020  0.016  0.102
    3  0.000  0.000  0.000  0.000  0.001  0.355  0.000  0.118  0.003  0.478
    4  0.000  0.000  0.000  0.000  0.002  0.031  0.000  0.010  0.005  0.048
    5  0.000  0.000  0.000  0.000  0.000  0.000  0.000  0.000  0.000  0.000
tot    0.000  0.000  0.000  0.000  0.011  0.706  0.000  0.235  0.034  0.986
 
band    23 # energy   -3.92010572 # occ.  2.00000000
 
ion      s     py     pz     px    dxy    dyz    dz2    dxz  x2-y2    tot
    1  0.000  0.000  0.000  0.000  0.003  0.381  0.000  0.127  0.008  0.519
    2  0.000  0.000  0.000  0.000  0.006  0.229  0.000  0.076  0.018  0.328
    3  0.000  0.000  0.000  0.000  0.002  0.095  0.000  0.032  0.007  0.136