<?xml version="1.0" encoding="ISO-8859-1"?>
<modeling>
 <generator>
  <i name="program" type="string">vasp </i>
  <i name="version" type="string">5.4.4.18Apr17-6-g9f103f2a35  </i>
  <i name="subversion" type="string">(build Jun 30 2017 11:15:00) complex            parallel </i>
  <i name="platform" type="string">STALLO_VASP_5.4.4 </i>
  <i name="date" type="string">2019 10 11 </i>
  <i name="time" type="string">09:51:55 </i>
 </generator>
 <incar>
  <i type="string" name="PREC">normal    ! low/normal/accurate</i>
  <i type="string" name="ALGO"> Fast      ! Algorithm for electronic re</i>
  <i type="int" name="ISPIN">     1</i>
  <i type="int" name="NELMIN">     4</i>
  <i name="EDIFF">      0.00000100</i>
  <i type="int" name="NSW">     0</i>
  <i name="ENCUT">    250.00000000</i>
  <i type="int" name="NEDOS">  2401</i>
  <i type="string" name="LREAL"> Auto      ! Projection in reciprocal sp</i>
  <i name="EMIN">    -17.00000000</i>
  <i name="EMAX">      7.00000000</i>
  <i type="int" name="ISMEAR">     0</i>
  <i name="SIGMA">      0.10000000</i>
  <i type="logical" name="LWAVE"> F  </i>
  <i type="int" name="LORBIT">    11</i>
  <i type="logical" name="LELF"> T  </i>
  <v type="int" name="KPOINT_BSE">    -1     0     0     0</v>
 </incar>
 <structure name="primitive_cell" >
  <crystal>
   <varray name="basis" >
    <v>       2.57386868       0.00000000       0.00000000 </v>
    <v>       1.28693434       2.22903567       0.00000000 </v>
    <v>       0.00000000       0.00000000      30.30466494 </v>
   </varray>
   <i name="volume">    173.86529028 </i>
   <varray name="rec_basis" >
    <v>       0.38852021      -0.22431225       0.00000000 </v>
    <v>       0.00000000       0.44862450       0.00000000 </v>
    <v>       0.00000000       0.00000000       0.03299822 </v>
   </varray>
  </crystal>
  <varray name="positions" >
   <v>       0.00000000       0.00000000       0.39642698 </v>
   <v>       0.33333333       0.33333333       0.46516162 </v>
   <v>      -0.33333333      -0.33333333      -0.46611058 </v>
   <v>       0.00000000       0.00000000      -0.39328774 </v>
   <v>      -0.33333333      -0.33333333      -0.36517070 </v>
  </varray>
 </structure>
 <varray name="primitive_index" >
  <v type="int" >        1 </v>
  <v type="int" >        2 </v>
  <v type="int" >        3 </v>
  <v type="int" >        4 </v>
  <v type="int" >        5 </v>
 </varray>
 <kpoints>
  <generation param="Gamma">
   <v type="int" name="divisions">      10       10        1 </v>
   <v name="usershift">      0.00000000       0.00000000       0.00000000 </v>
   <v name="genvec1">      0.10000000       0.00000000       0.00000000 </v>
   <v name="genvec2">      0.00000000       0.10000000       0.00000000 </v>
   <v name="genvec3">      0.00000000       0.00000000       1.00000000 </v>
   <v name="shift">      0.00000000       0.00000000       0.00000000 </v>
  </generation>
  <varray name="kpointlist" >
   <v>       0.00000000       0.00000000       0.00000000 </v>
   <v>       0.10000000       0.00000000       0.00000000 </v>
   <v>       0.20000000      -0.00000000       0.00000000 </v>
   <v>       0.30000000      -0.00000000       0.00000000 </v>
   <v>       0.40000000      -0.00000000       0.00000000 </v>
   <v>       0.50000000      -0.00000000       0.00000000 </v>
   <v>       0.20000000       0.10000000       0.00000000 </v>
   <v>       0.30000000       0.10000000       0.00000000 </v>
   <v>       0.40000000       0.10000000       0.00000000 </v>
   <v>       0.50000000       0.10000000       0.00000000 </v>
   <v>       0.40000000       0.20000000       0.00000000 </v>
   <v>       0.50000000       0.20000000       0.00000000 </v>
   <v>      -0.40000000       0.20000000       0.00000000 </v>
   <v>      -0.40000000       0.30000000       0.00000000 </v>
  </varray>
  <varray name="weights" >
   <v>       0.01000000 </v>
   <v>       0.06000000 </v>
   <v>       0.06000000 </v>
   <v>       0.06000000 </v>
   <v>       0.06000000 </v>
   <v>       0.03000000 </v>
   <v>       0.06000000 </v>
   <v>       0.12000000 </v>
   <v>       0.12000000 </v>
   <v>       0.12000000 </v>
   <v>       0.06000000 </v>
   <v>       0.12000000 </v>
   <v>       0.06000000 </v>
   <v>       0.06000000 </v>
  </varray>
 </kpoints>
 <parameters>
  <separator name="general" >
   <i type="string" name="SYSTEM">unknown system</i>
   <i type="logical" name="LCOMPAT"> F  </i>
  </separator>
  <separator name="electronic" >
   <i type="string" name="PREC">normal</i>
   <i name="ENMAX">    250.00000000</i>
   <i name="ENAUG">    516.45600000</i>
   <i name="EDIFF">      0.00000100</i>
   <i type="int" name="IALGO">    68</i>
   <i type="int" name="IWAVPR">    10</i>
   <i type="int" name="NBANDS">    28</i>
   <i name="NELECT">     45.00000000</i>
   <i type="int" name="TURBO">     0</i>
   <i type="int" name="IRESTART">     0</i>
   <i type="int" name="NREBOOT">     0</i>
   <i type="int" name="NMIN">     0</i>
   <i name="EREF">      0.00000000</i>
   <separator name="electronic smearing" >
    <i type="int" name="ISMEAR">     0</i>
    <i name="SIGMA">      0.10000000</i>
    <i name="KSPACING">      0.50000000</i>
    <i type="logical" name="KGAMMA"> T  </i>
   </separator>
   <separator name="electronic projectors" >
    <i type="logical" name="LREAL"> T  </i>
    <v name="ROPT">     -0.00050000     -0.00050000</v>
    <i type="int" name="LMAXPAW">  -100</i>
    <i type="int" name="LMAXMIX">     2</i>
    <i type="logical" name="NLSPLINE"> F  </i>
   </separator>
   <separator name="electronic startup" >
    <i type="int" name="ISTART">     0</i>
    <i type="int" name="ICHARG">     2</i>
    <i type="int" name="INIWAV">     1</i>
   </separator>
   <separator name="electronic spin" >
    <i type="int" name="ISPIN">     1</i>
    <i type="logical" name="LNONCOLLINEAR"> F  </i>
    <v name="MAGMOM">      1.00000000      1.00000000      1.00000000      1.00000000      1.00000000</v>
    <i name="NUPDOWN">     -1.00000000</i>
    <i type="logical" name="LSORBIT"> F  </i>
    <v name="SAXIS">      0.00000000      0.00000000      1.00000000</v>
    <i type="logical" name="LSPIRAL"> F  </i>
    <v name="QSPIRAL">      0.00000000      0.00000000      0.00000000</v>
    <i type="logical" name="LZEROZ"> F  </i>
   </separator>
   <separator name="electronic exchange-correlation" >
    <i type="logical" name="LASPH"> F  </i>
    <i type="logical" name="LMETAGGA"> F  </i>
   </separator>
   <separator name="electronic convergence" >
    <i type="int" name="NELM">    60</i>
    <i type="int" name="NELMDL">    -5</i>
    <i type="int" name="NELMIN">     4</i>
    <i name="ENINI">    250.00000000</i>
    <separator name="electronic convergence detail" >
     <i type="logical" name="LDIAG"> T  </i>
     <i type="logical" name="LSUBROT"> F  </i>
     <i name="WEIMIN">      0.00000000</i>
     <i name="EBREAK">      0.00000001</i>
     <i name="DEPER">      0.30000000</i>
     <i type="int" name="NRMM">     4</i>
     <i name="TIME">      0.40000000</i>
    </separator>
   </separator>
   <separator name="electronic mixer" >
    <i name="AMIX">      0.40000000</i>
    <i name="BMIX">      1.00000000</i>
    <i name="AMIN">      0.10000000</i>
    <i name="AMIX_MAG">      1.60000000</i>
    <i name="BMIX_MAG">      1.00000000</i>
    <separator name="electronic mixer details" >
     <i type="int" name="IMIX">     4</i>
     <i type="logical" name="MIXFIRST"> F  </i>
     <i type="int" name="MAXMIX">   -45</i>
     <i name="WC">    100.00000000</i>
     <i type="int" name="INIMIX">     1</i>
     <i type="int" name="MIXPRE">     1</i>
     <i type="int" name="MREMOVE">     5</i>
    </separator>
   </separator>
   <separator name="electronic dipolcorrection" >
    <i type="logical" name="LDIPOL"> F  </i>
    <i type="logical" name="LMONO"> F  </i>
    <i type="int" name="IDIPOL">     0</i>
    <i name="EPSILON">      1.00000000</i>
    <v name="DIPOL">   -100.00000000   -100.00000000   -100.00000000</v>
    <i name="EFIELD">      0.00000000</i>
   </separator>
  </separator>
  <separator name="grids" >
   <i type="int" name="NGX">    10</i>
   <i type="int" name="NGY">    10</i>
   <i type="int" name="NGZ">   120</i>
   <i type="int" name="NGXF">    20</i>
   <i type="int" name="NGYF">    20</i>
   <i type="int" name="NGZF">   240</i>
   <i type="logical" name="ADDGRID"> F  </i>
  </separator>
  <separator name="ionic" >
   <i type="int" name="NSW">     0</i>
   <i type="int" name="IBRION">    -1</i>
   <i type="int" name="MDALGO">     0</i>
   <i type="int" name="ISIF">     2</i>
   <i name="PSTRESS">      0.00000000</i>
   <i name="EDIFFG">      0.00001000</i>
   <i type="int" name="NFREE">     0</i>
   <i name="POTIM">      0.50000000</i>
   <i name="SMASS">     -3.00000000</i>
   <i name="SCALEE">      1.00000000</i>
  </separator>
  <separator name="ionic md" >
   <i name="TEBEG">      0.00010000</i>
   <i name="TEEND">      0.00010000</i>
   <i type="int" name="NBLOCK">     1</i>
   <i type="int" name="KBLOCK">     1</i>
   <i type="int" name="NPACO">   256</i>
   <i name="APACO">     16.00000000</i>
  </separator>
  <separator name="symmetry" >
   <i type="int" name="ISYM">     2</i>
   <i name="SYMPREC">      0.00001000</i>
  </separator>
  <separator name="dos" >
   <i type="int" name="LORBIT">    11</i>
   <v name="RWIGS">     -1.00000000     -1.00000000</v>
   <i type="int" name="NEDOS">  2401</i>
   <i name="EMIN">    -17.00000000</i>
   <i name="EMAX">      7.00000000</i>
   <i name="EFERMI">      0.00000000</i>
  </separator>
  <separator name="writing" >
   <i type="int" name="NWRITE">     2</i>
   <i type="logical" name="LWAVE"> F  </i>
   <i type="logical" name="LDOWNSAMPLE"> F  </i>
   <i type="logical" name="LCHARG"> T  </i>
   <i type="logical" name="LPARD"> F  </i>
   <i type="logical" name="LVTOT"> F  </i>
   <i type="logical" name="LVHAR"> F  </i>
   <i type="logical" name="LELF"> T  </i>
   <i type="logical" name="LOPTICS"> F  </i>
   <v name="STM">      0.00000000      0.00000000      0.00000000      0.00000000      0.00000000      0.00000000      0.00000000</v>
  </separator>
  <separator name="performance" >
   <i type="int" name="NPAR">     2</i>
   <i type="int" name="NSIM">     4</i>
   <i type="int" name="NBLK">    -1</i>
   <i type="logical" name="LPLANE"> T  </i>
   <i type="logical" name="LSCALAPACK"> T  </i>
   <i type="logical" name="LSCAAWARE"> F  </i>
   <i type="logical" name="LSCALU"> F  </i>
   <i type="logical" name="LASYNC"> F  </i>
   <i type="logical" name="LORBITALREAL"> F  </i>
  </separator>
  <separator name="miscellaneous" >
   <i type="int" name="IDIOT">     3</i>
   <i type="int" name="ISPECIAL">     0</i>
   <i type="logical" name="LMUSIC"> F  </i>
   <v name="POMASS">     63.54600000      1.00000000</v>
   <v name="DARWINR">      0.00000000      0.00000000</v>
   <v name="DARWINV">      1.00000000      1.00000000</v>
   <i type="logical" name="LCORR"> T  </i>
  </separator>
  <i type="logical" name="GGA_COMPAT"> T  </i>
  <i type="logical" name="LBERRY"> F  </i>
  <i type="int" name="ICORELEVEL">     0</i>
  <i type="logical" name="LDAU"> F  </i>
  <i type="int" name="I_CONSTRAINED_M">     0</i>
  <separator name="electronic exchange-correlation" >
   <i type="string" name="GGA">--</i>
   <i type="int" name="VOSKOWN">     0</i>
   <i type="logical" name="LHFCALC"> F  </i>
   <i type="string" name="PRECFOCK"></i>
   <i type="logical" name="LSYMGRAD"> F  </i>
   <i type="logical" name="LHFONE"> F  </i>
   <i type="logical" name="LRHFCALC"> F  </i>
   <i type="logical" name="LTHOMAS"> F  </i>
   <i type="logical" name="LMODELHF"> F  </i>
   <i name="ENCUT4O">     -1.00000000</i>
   <i type="int" name="EXXOEP">     0</i>
   <i type="int" name="FOURORBIT">     0</i>
   <i name="AEXX">      0.00000000</i>
   <i name="HFALPHA">      0.00000000</i>
   <i name="MCALPHA">      0.00000000</i>
   <i name="ALDAX">      1.00000000</i>
   <i name="AGGAX">      1.00000000</i>
   <i name="ALDAC">      1.00000000</i>
   <i name="AGGAC">      1.00000000</i>
   <i type="int" name="NKREDX">     1</i>
   <i type="int" name="NKREDY">     1</i>
   <i type="int" name="NKREDZ">     1</i>
   <i type="logical" name="SHIFTRED"> F  </i>
   <i type="logical" name="ODDONLY"> F  </i>
   <i type="logical" name="EVENONLY"> F  </i>
   <i type="int" name="LMAXFOCK">     0</i>
   <i type="int" name="NMAXFOCKAE">     0</i>
   <i type="logical" name="LFOCKAEDFT"> F  </i>
   <i name="HFSCREEN">      0.00000000</i>
   <i name="HFSCREENC">      0.00000000</i>
   <i type="int" name="NBANDSGWLOW">     0</i>
  </separator>
  <separator name="vdW DFT" >
   <i type="logical" name="LUSE_VDW"> F  </i>
   <i name="Zab_VDW">     -0.84910000</i>
   <i name="PARAM1">      0.12340000</i>
   <i name="PARAM2">      1.00000000</i>
   <i name="PARAM3">      0.00000000</i>
  </separator>
  <separator name="model GW" >
   <i type="int" name="MODEL_GW">     0</i>
   <i name="MODEL_EPS0">     20.86383483</i>
   <i name="MODEL_ALPHA">      1.00000000</i>
  </separator>
  <separator name="linear response parameters" >
   <i type="logical" name="LEPSILON"> F  </i>
   <i type="logical" name="LRPA"> F  </i>
   <i type="logical" name="LNABLA"> F  </i>
   <i type="logical" name="LVEL"> F  </i>
   <i type="int" name="KINTER">     0</i>
   <i name="CSHIFT">      0.10000000</i>
   <i name="OMEGAMAX">     -1.00000000</i>
   <i name="DEG_THRESHOLD">      0.00200000</i>
   <i name="RTIME">     -0.10000000</i>
   <i name="WPLASMAI">      0.00000000</i>
   <v name="DFIELD">      0.00000000      0.00000000      0.00000000</v>
   <v name="WPLASMA">      0.00000000      0.00000000      0.00000000      0.00000000      0.00000000      0.00000000      0.00000000      0.00000000      0.00000000</v>
  </separator>
  <separator name="orbital magnetization" >
   <i type="logical" name="NUCIND"> F  </i>
   <v name="MAGPOS">      0.00000000      0.00000000      0.00000000</v>
   <i type="logical" name="LNICSALL"> T  </i>
   <i type="logical" name="ORBITALMAG"> F  </i>
   <i type="logical" name="LMAGBLOCH"> F  </i>
   <i type="logical" name="LCHIMAG"> F  </i>
   <i type="logical" name="LGAUGE"> T  </i>
   <i type="int" name="MAGATOM">     0</i>
   <v name="MAGDIPOL">      0.00000000      0.00000000      0.00000000</v>
   <v name="AVECCONST">      0.00000000      0.00000000      0.00000000</v>
  </separator>
  <separator name="response functions" >
   <i type="logical" name="LADDER"> F  </i>
   <i type="logical" name="LRPAFORCE"> F  </i>
   <i type="logical" name="LFXC"> F  </i>
   <i type="logical" name="LHARTREE"> T  </i>
   <i type="int" name="IBSE">     0</i>
   <v type="int" name="KPOINT">    -1     0     0     0</v>
   <i type="logical" name="LTCTE"> F  </i>
   <i type="logical" name="LTETE"> F  </i>
   <i type="logical" name="LTRIPLET"> F  </i>
   <i type="logical" name="LFXCEPS"> F  </i>
   <i type="logical" name="LFXHEG"> F  </i>
   <i type="int" name="NATURALO">     2</i>
   <i type="logical" name="L2ORDER"> F  </i>
   <i type="logical" name="LMP2LT"> F  </i>
   <i type="logical" name="LUSEW"> F  </i>
   <i name="ENCUTGW">     -2.00000000</i>
   <i name="ENCUTGWSOFT">     -2.00000000</i>
   <i name="ENCUTLF">     -1.00000000</i>
   <i type="int" name="LMAXMP2">    -1</i>
   <i name="SCISSOR">      0.00000000</i>
   <i type="int" name="NOMEGA">     0</i>
   <i type="int" name="NOMEGAR">     0</i>
   <i type="int" name="NBANDSGW">    -1</i>
   <i type="int" name="NBANDSO">    -1</i>
   <i type="int" name="NBANDSV">    -1</i>
   <i type="int" name="NELM">     1</i>
   <i type="int" name="NELMHF">     1</i>
   <i type="int" name="DIM">     3</i>
   <i type="int" name="ANTIRES">     0</i>
   <i name="OMEGAMAX">    -30.00000000</i>
   <i name="OMEGAMIN">    -30.00000000</i>
   <i name="OMEGATL">   -200.00000000</i>
   <i type="int" name="OMEGAGRID">   140</i>
   <i name="CSHIFT">     -0.10000000</i>
   <i type="logical" name="SELFENERGY"> F  </i>
   <i type="logical" name="LSPECTRAL"> F  </i>
   <i type="logical" name="LSPECTRALGW"> F  </i>
   <i type="logical" name="LSINGLES"> F  </i>
   <i type="logical" name="LFERMIGW"> F  </i>
   <i type="logical" name="ODDONLYGW"> F  </i>
   <i type="logical" name="EVENONLYGW"> F  </i>
   <i type="int" name="NKREDLFX">     1</i>
   <i type="int" name="NKREDLFY">     1</i>
   <i type="int" name="NKREDLFZ">     1</i>
   <i type="int" name="MAXMEM">  2800</i>
   <i type="int" name="TELESCOPE">     0</i>
   <i type="int" name="TAUPAR">     1</i>
   <i type="int" name="OMEGAPAR">    -1</i>
   <i name="LAMBDA">      1.00000000</i>
  </separator>
  <separator name="External order field" >
   <i name="OFIELD_KAPPA">      0.00000000</i>
   <v name="OFIELD_K">      0.00000000      0.00000000      0.00000000</v>
   <i name="OFIELD_Q6_NEAR">      0.00000000</i>
   <i name="OFIELD_Q6_FAR">      0.00000000</i>
   <i name="OFIELD_A">      0.00000000</i>
  </separator>
 </parameters>
 <atominfo>
  <atoms>       5 </atoms>
  <types>       2 </types>
  <array name="atoms" >
   <dimension dim="1">ion</dimension>
   <field type="string">element</field>
   <field type="int">atomtype</field>
   <set>
    <rc><c>Cu</c><c>   1</c></rc>
    <rc><c>Cu</c><c>   1</c></rc>
    <rc><c>Cu</c><c>   1</c></rc>
    <rc><c>Cu</c><c>   1</c></rc>
    <rc><c>H </c><c>   2</c></rc>
   </set>
  </array>
  <array name="atomtypes" >
   <dimension dim="1">type</dimension>
   <field type="int">atomspertype</field>
   <field type="string">element</field>
   <field>mass</field>
   <field>valence</field>
   <field type="string">pseudopotential</field>
   <set>
    <rc><c>   4</c><c>Cu</c><c>     63.54600000</c><c>     11.00000000</c><c> PAW_PBE Cu 05Jan2001                   </c></rc>
    <rc><c>   1</c><c>H </c><c>      1.00000000</c><c>      1.00000000</c><c> PAW_PBE H 15Jun2001                    </c></rc>
   </set>
  </array>
 </atominfo>
 <structure name="initialpos" >
  <crystal>
   <varray name="basis" >
    <v>       2.57386868       0.00000000       0.00000000 </v>
    <v>       1.28693434       2.22903567       0.00000000 </v>
    <v>       0.00000000       0.00000000      30.30466494 </v>
   </varray>
   <i name="volume">    173.86529028 </i>
   <varray name="rec_basis" >
    <v>       0.38852021      -0.22431225       0.00000000 </v>
    <v>       0.00000000       0.44862450       0.00000000 </v>
    <v>       0.00000000       0.00000000       0.03299822 </v>
   </varray>
  </crystal>
  <varray name="positions" >
   <v>       0.00000000       0.00000000       0.39642698 </v>
   <v>       0.33333333       0.33333333       0.46516162 </v>
   <v>       0.66666667       0.66666667       0.53388942 </v>
   <v>       0.00000000       0.00000000       0.60671226 </v>
   <v>       0.66666667       0.66666667       0.63482930 </v>
  </varray>
 </structure>
 <calculation>
  <scstep>
   <time name="dav">    0.28    0.28</time>
   <time name="total">    0.30    0.49</time>
   <energy>
    <i name="alphaZ">    120.87645803 </i>
    <i name="ewald">  37791.78339492 </i>
    <i name="hartreedc"> -42912.70283447 </i>
    <i name="XCdc">    177.44740942 </i>
    <i name="pawpsdc">   4328.99049516 </i>
    <i name="pawaedc">  -4905.09836044 </i>
    <i name="eentropy">     -0.01007647 </i>
    <i name="bandstr">     21.91872991 </i>
    <i name="atom">   5575.94961827 </i>
    <i name="e_fr_energy">    199.15483434 </i>
    <i name="e_wo_entrp">    199.16491082 </i>
    <i name="e_0_energy">    199.15987258 </i>
   </energy>
  </scstep>
  <scstep>
   <time name="dav">    0.28    0.29</time>
   <time name="total">    0.29    0.29</time>
   <energy>
    <i name="e_fr_energy">    -10.61288292 </i>
    <i name="e_wo_entrp">    -10.60470692 </i>
    <i name="e_0_energy">    -10.60879492 </i>
   </energy>
  </scstep>
  <scstep>
   <time name="dav">    0.29    0.29</time>
   <time name="total">    0.29    0.29</time>
   <energy>
    <i name="e_fr_energy">    -21.02294004 </i>
    <i name="e_wo_entrp">    -21.00967399 </i>
    <i name="e_0_energy">    -21.01630701 </i>
   </energy>
  </scstep>
  <scstep>
   <time name="dav">    0.29    0.30</time>
   <time name="total">    0.30    0.30</time>
   <energy>
    <i name="e_fr_energy">    -21.15895805 </i>
    <i name="e_wo_entrp">    -21.14627025 </i>
    <i name="e_0_energy">    -21.15261415 </i>
   </energy>
  </scstep>
  <scstep>
   <time name="dav">    0.30    0.30</time>
   <time name="total">    0.32    0.32</time>
   <energy>
    <i name="e_fr_energy">    -21.16036923 </i>
    <i name="e_wo_entrp">    -21.14768191 </i>
    <i name="e_0_energy">    -21.15402557 </i>
   </energy>
  </scstep>
  <scstep>
   <time name="diag">    0.05    0.05</time>
   <time name="diis">    0.17    0.17</time>
   <time name="orth">    0.01    0.01</time>
   <time name="total">    0.26    0.27</time>
   <energy>
    <i name="e_fr_energy">    -19.12553691 </i>
    <i name="e_wo_entrp">    -19.11584432 </i>
    <i name="e_0_energy">    -19.12069062 </i>
   </energy>
  </scstep>
  <scstep>
   <time name="diag">    0.05    0.05</time>
   <time name="diis">    0.17    0.17</time>
   <time name="orth">    0.01    0.01</time>
   <time name="total">    0.27    0.27</time>
   <energy>
    <i name="e_fr_energy">    -17.56688441 </i>
    <i name="e_wo_entrp">    -17.55280921 </i>
    <i name="e_0_energy">    -17.55984681 </i>
   </energy>
  </scstep>
  <scstep>
   <time name="diag">    0.05    0.05</time>
   <time name="diis">    0.17    0.17</time>
   <time name="orth">    0.01    0.01</time>
   <time name="total">    0.27    0.27</time>
   <energy>
    <i name="e_fr_energy">    -17.33372297 </i>
    <i name="e_wo_entrp">    -17.31785843 </i>
    <i name="e_0_energy">    -17.32579070 </i>
   </energy>
  </scstep>
  <scstep>
   <time name="diag">    0.05    0.05</time>
   <time name="diis">    0.17    0.17</time>
   <time name="orth">    0.01    0.01</time>
   <time name="total">    0.26    0.26</time>
   <energy>
    <i name="e_fr_energy">    -17.27245128 </i>
    <i name="e_wo_entrp">    -17.25760541 </i>
    <i name="e_0_energy">    -17.26502834 </i>
   </energy>
  </scstep>
  <scstep>
   <time name="diag">    0.05    0.05</time>
   <time name="diis">    0.17    0.17</time>
   <time name="orth">    0.01    0.01</time>
   <time name="total">    0.26    0.26</time>
   <energy>
    <i name="e_fr_energy">    -17.25676314 </i>
    <i name="e_wo_entrp">    -17.23995349 </i>
    <i name="e_0_energy">    -17.24835831 </i>
   </energy>
  </scstep>
  <scstep>
   <time name="diag">    0.05    0.05</time>
   <time name="diis">    0.17    0.17</time>
   <time name="orth">    0.01    0.01</time>
   <time name="total">    0.27    0.27</time>
   <energy>
    <i name="e_fr_energy">    -17.25304718 </i>
    <i name="e_wo_entrp">    -17.23570404 </i>
    <i name="e_0_energy">    -17.24437561 </i>
   </energy>
  </scstep>
  <scstep>
   <time name="diag">    0.05    0.05</time>
   <time name="diis">    0.17    0.17</time>
   <time name="orth">    0.01    0.01</time>
   <time name="total">    0.26    0.26</time>
   <energy>
    <i name="e_fr_energy">    -17.25114207 </i>
    <i name="e_wo_entrp">    -17.23506241 </i>
    <i name="e_0_energy">    -17.24310224 </i>
   </energy>
  </scstep>
  <scstep>
   <time name="diag">    0.05    0.05</time>
   <time name="diis">    0.16    0.17</time>
   <time name="orth">    0.01    0.01</time>
   <time name="total">    0.26    0.26</time>
   <energy>
    <i name="e_fr_energy">    -17.25060734 </i>
    <i name="e_wo_entrp">    -17.23370921 </i>
    <i name="e_0_energy">    -17.24215827 </i>
   </energy>
  </scstep>
  <scstep>
   <time name="diag">    0.05    0.05</time>
   <time name="diis">    0.16    0.16</time>
   <time name="orth">    0.01    0.01</time>
   <time name="total">    0.26    0.26</time>
   <energy>
    <i name="e_fr_energy">    -17.25065461 </i>
    <i name="e_wo_entrp">    -17.23377534 </i>
    <i name="e_0_energy">    -17.24221498 </i>
   </energy>
  </scstep>
  <scstep>
   <time name="diag">    0.05    0.05</time>
   <time name="diis">    0.16    0.16</time>
   <time name="orth">    0.01    0.01</time>
   <time name="total">    0.26    0.26</time>
   <energy>
    <i name="e_fr_energy">    -17.25090067 </i>
    <i name="e_wo_entrp">    -17.23425286 </i>
    <i name="e_0_energy">    -17.24257676 </i>
   </energy>
  </scstep>
  <scstep>
   <time name="diag">    0.05    0.05</time>
   <time name="diis">    0.16    0.16</time>
   <time name="orth">    0.01    0.01</time>
   <time name="total">    0.26    0.26</time>
   <energy>
    <i name="e_fr_energy">    -17.25099145 </i>
    <i name="e_wo_entrp">    -17.23417321 </i>
    <i name="e_0_energy">    -17.24258233 </i>
   </energy>
  </scstep>
  <scstep>
   <time name="diag">    0.05    0.05</time>
   <time name="diis">    0.15    0.15</time>
   <time name="orth">    0.01    0.01</time>
   <time name="total">    0.25    0.25</time>
   <energy>
    <i name="e_fr_energy">    -17.25125889 </i>
    <i name="e_wo_entrp">    -17.23433041 </i>
    <i name="e_0_energy">    -17.24279465 </i>
   </energy>
  </scstep>
  <scstep>
   <time name="diag">    0.05    0.05</time>
   <time name="diis">    0.14    0.14</time>
   <time name="orth">    0.01    0.01</time>
   <time name="total">    0.24    0.24</time>
   <energy>
    <i name="e_fr_energy">    -17.25133295 </i>
    <i name="e_wo_entrp">    -17.23447481 </i>
    <i name="e_0_energy">    -17.24290388 </i>
   </energy>
  </scstep>
  <scstep>
   <time name="diag">    0.05    0.05</time>
   <time name="diis">    0.11    0.11</time>
   <time name="orth">    0.01    0.01</time>
   <time name="total">    0.21    0.21</time>
   <energy>
    <i name="e_fr_energy">    -17.25137260 </i>
    <i name="e_wo_entrp">    -17.23451386 </i>
    <i name="e_0_energy">    -17.24294323 </i>
   </energy>
  </scstep>
  <scstep>
   <time name="diag">    0.05    0.05</time>
   <time name="diis">    0.11    0.11</time>
   <time name="orth">    0.01    0.01</time>
   <time name="total">    0.20    0.20</time>
   <energy>
    <i name="e_fr_energy">    -17.25139321 </i>
    <i name="e_wo_entrp">    -17.23449560 </i>
    <i name="e_0_energy">    -17.24294440 </i>
   </energy>
  </scstep>
  <scstep>
   <time name="diag">    0.05    0.06</time>
   <time name="diis">    0.11    0.11</time>
   <time name="orth">    0.01    0.01</time>
   <time name="total">    0.20    0.20</time>
   <energy>
    <i name="e_fr_energy">    -17.25140636 </i>
    <i name="e_wo_entrp">    -17.23452556 </i>
    <i name="e_0_energy">    -17.24296596 </i>
   </energy>
  </scstep>
  <scstep>
   <time name="diag">    0.05    0.05</time>
   <time name="diis">    0.11    0.11</time>
   <time name="orth">    0.01    0.01</time>
   <time name="total">    0.20    0.20</time>
   <energy>
    <i name="e_fr_energy">    -17.25141038 </i>
    <i name="e_wo_entrp">    -17.23451746 </i>
    <i name="e_0_energy">    -17.24296392 </i>
   </energy>
  </scstep>
  <scstep>
   <time name="diag">    0.05    0.05</time>
   <time name="diis">    0.11    0.11</time>
   <time name="orth">    0.01    0.01</time>
   <time name="total">    0.20    0.20</time>
   <energy>
    <i name="e_fr_energy">    -17.25141153 </i>
    <i name="e_wo_entrp">    -17.23452607 </i>
    <i name="e_0_energy">    -17.24296880 </i>
   </energy>
  </scstep>
  <scstep>
   <time name="diag">    0.05    0.05</time>
   <time name="diis">    0.08    0.08</time>
   <time name="orth">    0.01    0.01</time>
   <time name="total">    0.16    0.16</time>
   <energy>
    <i name="alphaZ">    120.87645803 </i>
    <i name="ewald">  37791.78339492 </i>
    <i name="hartreedc"> -42863.87004187 </i>
    <i name="XCdc">    173.44627583 </i>
    <i name="pawpsdc">   4394.02079244 </i>
    <i name="pawaedc">  -4969.87601174 </i>
    <i name="eentropy">     -0.01688681 </i>
    <i name="bandstr">   -239.56501070 </i>
    <i name="atom">   5575.94961827 </i>
    <i name="e_fr_energy">    -17.25141162 </i>
    <i name="e_wo_entrp">    -17.23452481 </i>
    <i name="e_0_energy">    -17.24296822 </i>
   </energy>
  </scstep>
  <structure>
   <crystal>
    <varray name="basis" >
     <v>       2.57386868       0.00000000       0.00000000 </v>
     <v>       1.28693434       2.22903567       0.00000000 </v>
     <v>       0.00000000       0.00000000      30.30466494 </v>
    </varray>
    <i name="volume">    173.86529028 </i>
    <varray name="rec_basis" >
     <v>       0.38852021      -0.22431225       0.00000000 </v>
     <v>       0.00000000       0.44862450       0.00000000 </v>
     <v>       0.00000000       0.00000000       0.03299822 </v>
    </varray>
   </crystal>
   <varray name="positions" >
    <v>       0.00000000       0.00000000       0.39642698 </v>
    <v>       0.33333333       0.33333333       0.46516162 </v>
    <v>       0.66666667       0.66666667       0.53388942 </v>
    <v>       0.00000000       0.00000000       0.60671226 </v>
    <v>       0.66666667       0.66666667       0.63482930 </v>
   </varray>
  </structure>
  <varray name="forces" >
   <v>      -0.00000000      -0.00000000       0.06478216 </v>
   <v>      -0.00000000      -0.00000000      -0.00898721 </v>
   <v>      -0.00000000      -0.00000000       0.02260546 </v>
   <v>       0.00000000       0.00000000      -0.02475494 </v>
   <v>       0.00000000      -0.00000000      -0.05364547 </v>
  </varray>
  <varray name="stress" >
   <v>     -44.99813586       0.00000000       0.00000000 </v>
   <v>       0.00000000     -44.99813586      -0.00000000 </v>
   <v>       0.00000000      -0.00000000     -48.88687045 </v>
  </varray>
  <energy>
   <i name="e_fr_energy">    -17.25141162 </i>
   <i name="e_wo_entrp">    -17.24296822 </i>
   <i name="e_0_energy">     -0.01688681 </i>
  </energy>
  <time name="totalsc">    6.54    6.75</time>
  <eigenvalues>
   <array>
    <dimension dim="1">band</dimension>
    <dimension dim="2">kpoint</dimension>
    <dimension dim="3">spin</dimension>
    <field>eigene</field>
    <field>occ</field>
    <set>
     <set comment="spin 1">
      <set comment="kpoint 1">
       <r>  -11.7514    1.0000 </r>
       <r>  -10.6571    1.0000 </r>
       <r>   -8.9554    1.0000 </r>
       <r>   -7.4669    1.0000 </r>
       <r>   -5.8209    1.0000 </r>
       <r>   -5.5699    1.0000 </r>
       <r>   -5.5696    1.0000 </r>
       <r>   -5.5320    1.0000 </r>
       <r>   -5.2414    1.0000 </r>
       <r>   -5.1947    1.0000 </r>
       <r>   -5.1944    1.0000 </r>
       <r>   -5.1652    1.0000 </r>
       <r>   -5.1649    1.0000 </r>
       <r>   -4.9242    1.0000 </r>
       <r>   -4.9239    1.0000 </r>
       <r>   -4.8050    1.0000 </r>
       <r>   -4.7324    1.0000 </r>
       <r>   -4.7323    1.0000 </r>
       <r>   -4.4231    1.0000 </r>
       <r>   -4.4230    1.0000 </r>
       <r>   -4.2025    1.0000 </r>
       <r>   -4.2025    1.0000 </r>
       <r>   -3.9253    1.0000 </r>
       <r>   -3.9252    1.0000 </r>
       <r>   -2.8504    1.0000 </r>
       <r>    1.6152    0.0000 </r>
       <r>    1.8984    0.0000 </r>
       <r>    2.3004    0.0000 </r>
      </set>
      <set comment="kpoint 2">
       <r>  -11.4561    1.0000 </r>
       <r>  -10.3564    1.0000 </r>
       <r>   -8.6879    1.0000 </r>
       <r>   -7.2467    1.0000 </r>
       <r>   -5.8756    1.0000 </r>
       <r>   -5.6907    1.0000 </r>
       <r>   -5.6088    1.0000 </r>
       <r>   -5.4608    1.0000 </r>
       <r>   -5.3012    1.0000 </r>
       <r>   -5.2678    1.0000 </r>
       <r>   -5.2459    1.0000 </r>
       <r>   -5.0986    1.0000 </r>
       <r>   -5.0852    1.0000 </r>
       <r>   -5.0330    1.0000 </r>
       <r>   -4.9418    1.0000 </r>
       <r>   -4.8433    1.0000 </r>
       <r>   -4.7393    1.0000 </r>
       <r>   -4.6228    1.0000 </r>
       <r>   -4.4402    1.0000 </r>
       <r>   -4.4047    1.0000 </r>
       <r>   -4.2331    1.0000 </r>
       <r>   -4.1987    1.0000 </r>
       <r>   -3.9201    1.0000 </r>
       <r>   -3.7063    1.0000 </r>
       <r>   -2.1627    0.0589 </r>
       <r>    1.8644    0.0000 </r>
       <r>    2.2006    0.0000 </r>
       <r>    2.6028    0.0000 </r>
      </set>
      <set comment="kpoint 3">
       <r>  -10.6208    1.0000 </r>
       <r>   -9.5018    1.0000 </r>
       <r>   -7.9872    1.0000 </r>
       <r>   -6.7305    1.0000 </r>
       <r>   -6.1187    1.0000 </r>
       <r>   -5.8793    1.0000 </r>
       <r>   -5.6960    1.0000 </r>
       <r>   -5.6003    1.0000 </r>
       <r>   -5.4379    1.0000 </r>
       <r>   -5.2096    1.0000 </r>
       <r>   -5.1712    1.0000 </r>
       <r>   -5.1388    1.0000 </r>
       <r>   -5.0123    1.0000 </r>
       <r>   -4.9450    1.0000 </r>
       <r>   -4.8332    1.0000 </r>
       <r>   -4.7877    1.0000 </r>
       <r>   -4.7246    1.0000 </r>
       <r>   -4.5517    1.0000 </r>
       <r>   -4.4958    1.0000 </r>
       <r>   -4.3895    1.0000 </r>
       <r>   -4.2008    1.0000 </r>
       <r>   -4.0194    1.0000 </r>
       <r>   -3.9132    1.0000 </r>
       <r>   -2.8262    1.0000 </r>
       <r>   -0.8301    0.0000 </r>
       <r>    2.6056    0.0000 </r>
       <r>    3.1059    0.0000 </r>
       <r>    3.5093    0.0000 </r>
      </set>
      <set comment="kpoint 4">
       <r>   -9.4635    1.0000 </r>
       <r>   -8.2988    1.0000 </r>
       <r>   -7.2702    1.0000 </r>
       <r>   -6.4902    1.0000 </r>
       <r>   -6.2444    1.0000 </r>
       <r>   -6.1105    1.0000 </r>
       <r>   -5.8104    1.0000 </r>
       <r>   -5.5824    1.0000 </r>
       <r>   -5.4944    1.0000 </r>
       <r>   -5.2257    1.0000 </r>
       <r>   -5.0807    1.0000 </r>
       <r>   -4.9976    1.0000 </r>
       <r>   -4.8775    1.0000 </r>
       <r>   -4.7741    1.0000 </r>
       <r>   -4.7470    1.0000 </r>
       <r>   -4.5640    1.0000 </r>
       <r>   -4.4724    1.0000 </r>
       <r>   -4.3045    1.0000 </r>
       <r>   -4.2619    1.0000 </r>
       <r>   -4.1908    1.0000 </r>
       <r>   -4.0752    1.0000 </r>
       <r>   -3.8981    1.0000 </r>
       <r>   -3.5543    1.0000 </r>
       <r>   -1.6431    0.0000 </r>
       <r>    0.8508    0.0000 </r>
       <r>    3.7941    0.0000 </r>
       <r>    4.5743    0.0000 </r>
       <r>    4.9730    0.0000 </r>
      </set>
      <set comment="kpoint 5">
       <r>   -8.5881    1.0000 </r>
       <r>   -7.2940    1.0000 </r>
       <r>   -6.9370    1.0000 </r>
       <r>   -6.5107    1.0000 </r>
       <r>   -6.4101    1.0000 </r>
       <r>   -6.2427    1.0000 </r>
       <r>   -5.9206    1.0000 </r>
       <r>   -5.3845    1.0000 </r>
       <r>   -5.2546    1.0000 </r>
       <r>   -5.1675    1.0000 </r>
       <r>   -5.1374    1.0000 </r>
       <r>   -4.9111    1.0000 </r>
       <r>   -4.8176    1.0000 </r>
       <r>   -4.4662    1.0000 </r>
       <r>   -4.3555    1.0000 </r>
       <r>   -4.2658    1.0000 </r>
       <r>   -4.0605    1.0000 </r>
       <r>   -4.0397    1.0000 </r>
       <r>   -3.9721    1.0000 </r>
       <r>   -3.8974    1.0000 </r>
       <r>   -3.7584    1.0000 </r>
       <r>   -3.4864    1.0000 </r>
       <r>   -2.4899    0.9989 </r>
       <r>   -0.2514    0.0000 </r>
       <r>    2.1639    0.0000 </r>
       <r>    2.4807    0.0000 </r>
       <r>    3.3282    0.0000 </r>
       <r>    4.6822    0.0000 </r>
      </set>
      <set comment="kpoint 6">
       <r>   -8.3569    1.0000 </r>
       <r>   -7.0074    1.0000 </r>
       <r>   -6.8619    1.0000 </r>
       <r>   -6.5134    1.0000 </r>
       <r>   -6.4783    1.0000 </r>
       <r>   -6.2866    1.0000 </r>
       <r>   -5.9395    1.0000 </r>
       <r>   -5.3441    1.0000 </r>
       <r>   -5.2014    1.0000 </r>
       <r>   -5.1891    1.0000 </r>
       <r>   -4.9316    1.0000 </r>
       <r>   -4.9114    1.0000 </r>
       <r>   -4.5721    1.0000 </r>
       <r>   -4.4118    1.0000 </r>
       <r>   -4.2777    1.0000 </r>
       <r>   -4.0913    1.0000 </r>
       <r>   -3.9812    1.0000 </r>
       <r>   -3.8784    1.0000 </r>
       <r>   -3.8160    1.0000 </r>
       <r>   -3.6607    1.0000 </r>
       <r>   -3.6431    1.0000 </r>
       <r>   -2.1652    0.0632 </r>
       <r>   -1.3046    0.0000 </r>
       <r>   -0.7582    0.0000 </r>
       <r>    1.0898    0.0000 </r>
       <r>    1.7706    0.0000 </r>
       <r>    2.8756    0.0000 </r>
       <r>    4.1073    0.0000 </r>
      </set>
      <set comment="kpoint 7">
       <r>  -10.8889    1.0000 </r>
       <r>   -9.7767    1.0000 </r>
       <r>   -8.1980    1.0000 </r>
       <r>   -6.8657    1.0000 </r>
       <r>   -6.0459    1.0000 </r>
       <r>   -5.7703    1.0000 </r>
       <r>   -5.7425    1.0000 </r>
       <r>   -5.5214    1.0000 </r>
       <r>   -5.4057    1.0000 </r>
       <r>   -5.2759    1.0000 </r>
       <r>   -5.2346    1.0000 </r>
       <r>   -5.0924    1.0000 </r>
       <r>   -5.0385    1.0000 </r>
       <r>   -5.0195    1.0000 </r>
       <r>   -4.8802    1.0000 </r>
       <r>   -4.8044    1.0000 </r>
       <r>   -4.6435    1.0000 </r>
       <r>   -4.5621    1.0000 </r>
       <r>   -4.5345    1.0000 </r>
       <r>   -4.3912    1.0000 </r>
       <r>   -4.2845    1.0000 </r>
       <r>   -4.0207    1.0000 </r>
       <r>   -3.9600    1.0000 </r>
       <r>   -3.0783    1.0000 </r>
       <r>   -1.2211    0.0000 </r>
       <r>    2.3607    0.0000 </r>
       <r>    2.8046    0.0000 </r>
       <r>    3.2073    0.0000 </r>
      </set>
      <set comment="kpoint 8">
       <r>   -9.8745    1.0000 </r>
       <r>   -8.7266    1.0000 </r>
       <r>   -7.4566    1.0000 </r>
       <r>   -6.4656    1.0000 </r>
       <r>   -6.1369    1.0000 </r>
       <r>   -5.9846    1.0000 </r>
       <r>   -5.8069    1.0000 </r>
       <r>   -5.7066    1.0000 </r>
       <r>   -5.5618    1.0000 </r>
       <r>   -5.2446    1.0000 </r>
       <r>   -5.2104    1.0000 </r>
       <r>   -5.0944    1.0000 </r>
       <r>   -4.9893    1.0000 </r>
       <r>   -4.8922    1.0000 </r>
       <r>   -4.8215    1.0000 </r>
       <r>   -4.7044    1.0000 </r>
       <r>   -4.5482    1.0000 </r>
       <r>   -4.4154    1.0000 </r>
       <r>   -4.2983    1.0000 </r>
       <r>   -4.2285    1.0000 </r>
       <r>   -4.0850    1.0000 </r>
       <r>   -3.9764    1.0000 </r>
       <r>   -3.6674    1.0000 </r>
       <r>   -2.0694    0.0020 </r>
       <r>    0.2377    0.0000 </r>
       <r>    3.3547    0.0000 </r>
       <r>    4.0062    0.0000 </r>
       <r>    4.4331    0.0000 </r>
      </set>
      <set comment="kpoint 9">
       <r>   -8.8147    1.0000 </r>
       <r>   -7.5580    1.0000 </r>
       <r>   -6.9466    1.0000 </r>
       <r>   -6.4467    1.0000 </r>
       <r>   -6.2582    1.0000 </r>
       <r>   -6.1227    1.0000 </r>
       <r>   -5.8731    1.0000 </r>
       <r>   -5.5846    1.0000 </r>
       <r>   -5.4919    1.0000 </r>
       <r>   -5.2380    1.0000 </r>
       <r>   -5.1970    1.0000 </r>
       <r>   -5.0306    1.0000 </r>
       <r>   -4.8823    1.0000 </r>
       <r>   -4.6836    1.0000 </r>
       <r>   -4.5904    1.0000 </r>
       <r>   -4.4497    1.0000 </r>
       <r>   -4.3335    1.0000 </r>
       <r>   -4.2004    1.0000 </r>
       <r>   -4.1020    1.0000 </r>
       <r>   -3.9196    1.0000 </r>
       <r>   -3.8777    1.0000 </r>
       <r>   -3.5654    1.0000 </r>
       <r>   -2.7919    1.0000 </r>
       <r>   -0.6587    0.0000 </r>
       <r>    2.0061    0.0000 </r>
       <r>    3.8837    0.0000 </r>
       <r>    4.4619    0.0000 </r>
       <r>    5.2901    0.0000 </r>
      </set>
      <set comment="kpoint 10">
       <r>   -8.3199    1.0000 </r>
       <r>   -6.9313    1.0000 </r>
       <r>   -6.7703    1.0000 </r>
       <r>   -6.4262    1.0000 </r>
       <r>   -6.3809    1.0000 </r>
       <r>   -6.1882    1.0000 </r>
       <r>   -5.9398    1.0000 </r>
       <r>   -5.4512    1.0000 </r>
       <r>   -5.3235    1.0000 </r>
       <r>   -5.1765    1.0000 </r>
       <r>   -5.1364    1.0000 </r>
       <r>   -5.0085    1.0000 </r>
       <r>   -4.7700    1.0000 </r>
       <r>   -4.4726    1.0000 </r>
       <r>   -4.3676    1.0000 </r>
       <r>   -4.1971    1.0000 </r>
       <r>   -4.0688    1.0000 </r>
       <r>   -4.0099    1.0000 </r>
       <r>   -3.9555    1.0000 </r>
       <r>   -3.8048    1.0000 </r>
       <r>   -3.3827    1.0000 </r>
       <r>   -2.2819    0.5485 </r>
       <r>   -1.2987    0.0000 </r>
       <r>    0.1427    0.0000 </r>
       <r>    1.6178    0.0000 </r>
       <r>    2.0515    0.0000 </r>
       <r>    3.1425    0.0000 </r>
       <r>    4.5417    0.0000 </r>
      </set>
      <set comment="kpoint 11">
       <r>   -8.9071    1.0000 </r>
       <r>   -7.6518    1.0000 </r>
       <r>   -6.9075    1.0000 </r>
       <r>   -6.3990    1.0000 </r>
       <r>   -6.0615    1.0000 </r>
       <r>   -5.9571    1.0000 </r>
       <r>   -5.8842    1.0000 </r>
       <r>   -5.7958    1.0000 </r>
       <r>   -5.5227    1.0000 </r>
       <r>   -5.3819    1.0000 </r>
       <r>   -5.2820    1.0000 </r>
       <r>   -5.2392    1.0000 </r>
       <r>   -4.9280    1.0000 </r>
       <r>   -4.8648    1.0000 </r>
       <r>   -4.7416    1.0000 </r>
       <r>   -4.5530    1.0000 </r>
       <r>   -4.3752    1.0000 </r>
       <r>   -4.2307    1.0000 </r>
       <r>   -4.1396    1.0000 </r>
       <r>   -3.9145    1.0000 </r>
       <r>   -3.8696    1.0000 </r>
       <r>   -3.5139    1.0000 </r>
       <r>   -2.7933    1.0000 </r>
       <r>   -0.7876    0.0000 </r>
       <r>    1.8074    0.0000 </r>
       <r>    4.6086    0.0000 </r>
       <r>    5.2404    0.0000 </r>
       <r>    5.6426    0.0000 </r>
      </set>
      <set comment="kpoint 12">
       <r>   -8.2546    1.0000 </r>
       <r>   -6.7692    1.0000 </r>
       <r>   -6.5671    1.0000 </r>
       <r>   -6.3264    1.0000 </r>
       <r>   -6.1537    1.0000 </r>
       <r>   -6.0291    1.0000 </r>
       <r>   -5.8778    1.0000 </r>
       <r>   -5.7086    1.0000 </r>
       <r>   -5.5336    1.0000 </r>
       <r>   -5.4343    1.0000 </r>
       <r>   -5.3111    1.0000 </r>
       <r>   -5.0068    1.0000 </r>
       <r>   -4.9314    1.0000 </r>
       <r>   -4.7788    1.0000 </r>
       <r>   -4.6008    1.0000 </r>
       <r>   -4.4799    1.0000 </r>
       <r>   -4.3190    1.0000 </r>
       <r>   -4.1401    1.0000 </r>
       <r>   -3.9682    1.0000 </r>
       <r>   -3.8234    1.0000 </r>
       <r>   -3.1559    1.0000 </r>
       <r>   -2.3047    0.6711 </r>
       <r>   -1.1769    0.0000 </r>
       <r>    0.8945    0.0000 </r>
       <r>    2.9975    0.0000 </r>
       <r>    3.2103    0.0000 </r>
       <r>    4.0230    0.0000 </r>
       <r>    5.2134    0.0000 </r>
      </set>
      <set comment="kpoint 13">
       <r>   -8.0881    1.0000 </r>
       <r>   -6.5564    1.0000 </r>
       <r>   -6.4964    1.0000 </r>
       <r>   -6.2350    1.0000 </r>
       <r>   -6.1520    1.0000 </r>
       <r>   -6.0473    1.0000 </r>
       <r>   -5.8889    1.0000 </r>
       <r>   -5.7489    1.0000 </r>
       <r>   -5.5057    1.0000 </r>
       <r>   -5.3705    1.0000 </r>
       <r>   -5.2386    1.0000 </r>
       <r>   -5.0521    1.0000 </r>
       <r>   -4.8821    1.0000 </r>
       <r>   -4.6445    1.0000 </r>
       <r>   -4.5094    1.0000 </r>
       <r>   -4.4397    1.0000 </r>
       <r>   -4.2126    1.0000 </r>
       <r>   -4.0485    1.0000 </r>
       <r>   -3.9968    1.0000 </r>
       <r>   -3.8903    1.0000 </r>
       <r>   -2.3331    0.8008 </r>
       <r>   -0.6695    0.0000 </r>
       <r>   -0.1298    0.0000 </r>
       <r>    0.6295    0.0000 </r>
       <r>    1.9731    0.0000 </r>
       <r>    2.2606    0.0000 </r>
       <r>    3.5628    0.0000 </r>
       <r>    4.6920    0.0000 </r>
      </set>
      <set comment="kpoint 14">
       <r>   -7.9869    1.0000 </r>
       <r>   -6.3147    1.0000 </r>
       <r>   -6.2609    1.0000 </r>
       <r>   -6.1846    1.0000 </r>
       <r>   -6.0447    1.0000 </r>
       <r>   -5.9401    1.0000 </r>
       <r>   -5.8952    1.0000 </r>
       <r>   -5.8205    1.0000 </r>
       <r>   -5.6831    1.0000 </r>
       <r>   -5.5151    1.0000 </r>
       <r>   -5.3619    1.0000 </r>
       <r>   -4.9881    1.0000 </r>
       <r>   -4.9391    1.0000 </r>
       <r>   -4.8184    1.0000 </r>
       <r>   -4.6163    1.0000 </r>
       <r>   -4.4603    1.0000 </r>
       <r>   -4.3837    1.0000 </r>
       <r>   -4.0907    1.0000 </r>
       <r>   -4.0083    1.0000 </r>
       <r>   -3.9145    1.0000 </r>
       <r>   -1.8870    0.0000 </r>
       <r>   -0.3357    0.0000 </r>
       <r>    0.7903    0.0000 </r>
       <r>    2.0427    0.0000 </r>
       <r>    2.4438    0.0000 </r>
       <r>    2.9646    0.0000 </r>
       <r>    3.1983    0.0000 </r>
       <r>    4.0455    0.0000 </r>
      </set>
     </set>
    </set>
   </array>
  </eigenvalues>
  <separator name="orbital magnetization" >
   <v name="MAGDIPOLOUT">      0.00000000      0.00000000      0.00000000</v>
  </separator>
  <dos>
   <i name="efermi">     -2.27333663 </i>
   <total>
    <array>
     <dimension dim="1">gridpoints</dimension>
     <dimension dim="2">spin</dimension>
     <field>energy</field>
     <field>total</field>
     <field>integrated</field>
     <set>
      <set comment="spin 1">
       <r>   -17.0000     0.0000     0.0000 </r>
       <r>   -16.9900     0.0000     0.0000 </r>
       <r>   -16.9800     0.0000     0.0000 </r>
       <r>   -16.9700     0.0000     0.0000 </r>
       <r>   -16.9600     0.0000     0.0000 </r>
       <r>   -16.9500     0.0000     0.0000 </r>
       <r>   -16.9400     0.0000     0.0000 </r>
       <r>   -16.9300     0.0000     0.0000 </r>
       <r>   -16.9200     0.0000     0.0000 </r>
       <r>   -16.9100     0.0000     0.0000 </r>
       <r>   -16.9000     0.0000     0.0000 </r>
       <r>   -16.8900     0.0000     0.0000 </r>
       <r>   -16.8800     0.0000     0.0000 </r>
       <r>   -16.8700     0.0000     0.0000 </r>
       <r>   -16.8600     0.0000     0.0000 </r>
       <r>   -16.8500     0.0000     0.0000 </r>
       <r>   -16.8400     0.0000     0.0000 </r>
       <r>   -16.8300     0.0000     0.0000 </r>
       <r>   -16.8200     0.0000     0.0000 </r>
       <r>   -16.8100     0.0000     0.0000 </r>
       <r>   -16.8000     0.0000     0.0000 </r>
       <r>   -16.7900     0.0000     0.0000 </r>
       <r>   -16.7800     0.0000     0.0000 </r>
       <r>   -16.7700     0.0000     0.0000 </r>
       <r>   -16.7600     0.0000     0.0000 </r>
       <r>   -16.7500     0.0000     0.0000 </r>
       <r>   -16.7400     0.0000     0.0000 </r>
       <r>   -16.7300     0.0000     0.0000 </r>
       <r>   -16.7200     0.0000     0.0000 </r>
       <r>   -16.7100     0.0000     0.0000 </r>
       <r>   -16.7000     0.0000     0.0000 </r>
       <r>   -16.6900     0.0000     0.0000 </r>
       <r>   -16.6800     0.0000     0.0000 </r>
       <r>   -16.6700     0.0000     0.0000 </r>
       <r>   -16.6600     0.0000     0.0000 </r>
       <r>   -16.6500     0.0000     0.0000 </r>
       <r>   -16.6400     0.0000     0.0000 </r>
       <r>   -16.6300     0.0000     0.0000 </r>
       <r>   -16.6200     0.0000     0.0000 </r>
       <r>   -16.6100     0.0000     0.0000 </r>
       <r>   -16.6000     0.0000     0.0000 </r>
       <r>   -16.5900     0.0000     0.0000 </r>
       <r>   -16.5800     0.0000     0.0000 </r>
       <r>   -16.5700     0.0000     0.0000 </r>
       <r>   -16.5600     0.0000     0.0000 </r>
       <r>   -16.5500     0.0000     0.0000 </r>
       <r>   -16.5400     0.0000     0.0000 </r>
       <r>   -16.5300     0.0000     0.0000 </r>
       <r>   -16.5200     0.0000     0.0000 </r>
       <r>   -16.5100     0.0000     0.0000 </r>
       <r>   -16.5000     0.0000     0.0000 </r>
       <r>   -16.4900     0.0000     0.0000 </r>
       <r>   -16.4800     0.0000     0.0000 </r>
       <r>   -16.4700     0.0000     0.0000 </r>
       <r>   -16.4600     0.0000     0.0000 </r>
       <r>   -16.4500     0.0000     0.0000 </r>
       <r>   -16.4400     0.0000     0.0000 </r>
       <r>   -16.4300     0.0000     0.0000 </r>
       <r>   -16.4200     0.0000     0.0000 </r>
       <r>   -16.4100     0.0000     0.0000 </r>
       <r>   -16.4000     0.0000     0.0000 </r>
       <r>   -16.3900     0.0000     0.0000 </r>
       <r>   -16.3800     0.0000     0.0000 </r>
       <r>   -16.3700     0.0000     0.0000 </r>
       <r>   -16.3600     0.0000     0.0000 </r>
       <r>   -16.3500     0.0000     0.0000 </r>
       <r>   -16.3400     0.0000     0.0000 </r>
       <r>   -16.3300     0.0000     0.0000 </r>
       <r>   -16.3200     0.0000     0.0000 </r>
       <r>   -16.3100     0.0000     0.0000 </r>
       <r>   -16.3000     0.0000     0.0000 </r>
       <r>   -16.2900     0.0000     0.0000 </r>
       <r>   -16.2800     0.0000     0.0000 </r>
       <r>   -16.2700     0.0000     0.0000 </r>
       <r>   -16.2600     0.0000     0.0000 </r>
       <r>   -16.2500     0.0000     0.0000 </r>
       <r>   -16.2400     0.0000     0.0000 </r>
       <r>   -16.2300     0.0000     0.0000 </r>
       <r>   -16.2200     0.0000     0.0000 </r>
       <r>   -16.2100     0.0000     0.0000 </r>
       <r>   -16.2000     0.0000     0.0000 </r>
       <r>   -16.1900     0.0000     0.0000 </r>
       <r>   -16.1800     0.0000     0.0000 </r>
       <r>   -16.1700     0.0000     0.0000 </r>
       <r>   -16.1600     0.0000     0.0000 </r>
       <r>   -16.1500     0.0000     0.0000 </r>
       <r>   -16.1400     0.0000     0.0000 </r>
       <r>   -16.1300     0.0000     0.0000 </r>
       <r>   -16.1200     0.0000     0.0000 </r>
       <r>   -16.1100     0.0000     0.0000 </r>
       <r>   -16.1000     0.0000     0.0000 </r>
       <r>   -16.0900     0.0000     0.0000 </r>
       <r>   -16.0800     0.0000     0.0000 </r>
       <r>   -16.0700     0.0000     0.0000 </r>
       <r>   -16.0600     0.0000     0.0000 </r>
       <r>   -16.0500     0.0000     0.0000 </r>
       <r>   -16.0400     0.0000     0.0000 </r>
       <r>   -16.0300     0.0000     0.0000 </r>
       <r>   -16.0200     0.0000     0.0000 </r>
       <r>   -16.0100     0.0000     0.0000 </r>
       <r>   -16.0000     0.0000     0.0000 </r>
       <r>   -15.9900     0.0000     0.0000 </r>
       <r>   -15.9800     0.0000     0.0000 </r>
       <r>   -15.9700     0.0000     0.0000 </r>
       <r>   -15.9600     0.0000     0.0000 </r>
       <r>   -15.9500     0.0000     0.0000 </r>
       <r>   -15.9400     0.0000     0.0000 </r>
       <r>   -15.9300     0.0000     0.0000 </r>
       <r>   -15.9200     0.0000     0.0000 </r>
       <r>   -15.9100     0.0000     0.0000 </r>
       <r>   -15.9000     0.0000     0.0000 </r>
       <r>   -15.8900     0.0000     0.0000 </r>
       <r>   -15.8800     0.0000     0.0000 </r>
       <r>   -15.8700     0.0000     0.0000 </r>
       <r>   -15.8600     0.0000     0.0000 </r>
       <r>   -15.8500     0.0000     0.0000 </r>
       <r>   -15.8400     0.0000     0.0000 </r>
       <r>   -15.8300     0.0000     0.0000 </r>
       <r>   -15.8200     0.0000     0.0000 </r>
       <r>   -15.8100     0.0000     0.0000 </r>
       <r>   -15.8000     0.0000     0.0000 </r>
       <r>   -15.7900     0.0000     0.0000 </r>
       <r>   -15.7800     0.0000     0.0000 </r>
       <r>   -15.7700     0.0000     0.0000 </r>
       <r>   -15.7600     0.0000     0.0000 </r>
       <r>   -15.7500     0.0000     0.0000 </r>
       <r>   -15.7400     0.0000     0.0000 </r>
       <r>   -15.7300     0.0000     0.0000 </r>
       <r>   -15.7200     0.0000     0.0000 </r>
       <r>   -15.7100     0.0000     0.0000 </r>
       <r>   -15.7000     0.0000     0.0000 </r>
       <r>   -15.6900     0.0000     0.0000 </r>
       <r>   -15.6800     0.0000     0.0000 </r>
       <r>   -15.6700     0.0000     0.0000 </r>
       <r>   -15.6600     0.0000     0.0000 </r>
       <r>   -15.6500     0.0000     0.0000 </r>
       <r>   -15.6400     0.0000     0.0000 </r>
       <r>   -15.6300     0.0000     0.0000 </r>
       <r>   -15.6200     0.0000     0.0000 </r>
       <r>   -15.6100     0.0000     0.0000 </r>
       <r>   -15.6000     0.0000     0.0000 </r>
       <r>   -15.5900     0.0000     0.0000 </r>
       <r>   -15.5800     0.0000     0.0000 </r>
       <r>   -15.5700     0.0000     0.0000 </r>
       <r>   -15.5600     0.0000     0.0000 </r>
       <r>   -15.5500     0.0000     0.0000 </r>
       <r>   -15.5400     0.0000     0.0000 </r>
       <r>   -15.5300     0.0000     0.0000 </r>
       <r>   -15.5200     0.0000     0.0000 </r>
       <r>   -15.5100     0.0000     0.0000 </r>
       <r>   -15.5000     0.0000     0.0000 </r>
       <r>   -15.4900     0.0000     0.0000 </r>
       <r>   -15.4800     0.0000     0.0000 </r>
       <r>   -15.4700     0.0000     0.0000 </r>
       <r>   -15.4600     0.0000     0.0000 </r>
       <r>   -15.4500     0.0000     0.0000 </r>
       <r>   -15.4400     0.0000     0.0000 </r>
       <r>   -15.4300     0.0000     0.0000 </r>
       <r>   -15.4200     0.0000     0.0000 </r>
       <r>   -15.4100     0.0000     0.0000 </r>
       <r>   -15.4000     0.0000     0.0000 </r>
       <r>   -15.3900     0.0000     0.0000 </r>
       <r>   -15.3800     0.0000     0.0000 </r>
       <r>   -15.3700     0.0000     0.0000 </r>
       <r>   -15.3600     0.0000     0.0000 </r>
       <r>   -15.3500     0.0000     0.0000 </r>
       <r>   -15.3400     0.0000     0.0000 </r>
       <r>   -15.3300     0.0000     0.0000 </r>
       <r>   -15.3200     0.0000     0.0000 </r>
       <r>   -15.3100     0.0000     0.0000 </r>
       <r>   -15.3000     0.0000     0.0000 </r>
       <r>   -15.2900     0.0000     0.0000 </r>
       <r>   -15.2800     0.0000     0.0000 </r>
       <r>   -15.2700     0.0000     0.0000 </r>
       <r>   -15.2600     0.0000     0.0000 </r>
       <r>   -15.2500     0.0000     0.0000 </r>
       <r>   -15.2400     0.0000     0.0000 </r>
       <r>   -15.2300     0.0000     0.0000 </r>
       <r>   -15.2200     0.0000     0.0000 </r>
       <r>   -15.2100     0.0000     0.0000 </r>
       <r>   -15.2000     0.0000     0.0000 </r>
       <r>   -15.1900     0.0000     0.0000 </r>
       <r>   -15.1800     0.0000     0.0000 </r>
       <r>   -15.1700     0.0000     0.0000 </r>
       <r>   -15.1600     0.0000     0.0000 </r>
       <r>   -15.1500     0.0000     0.0000 </r>
       <r>   -15.1400     0.0000     0.0000 </r>
       <r>   -15.1300     0.0000     0.0000 </r>
       <r>   -15.1200     0.0000     0.0000 </r>
       <r>   -15.1100     0.0000     0.0000 </r>
       <r>   -15.1000     0.0000     0.0000 </r>
       <r>   -15.0900     0.0000     0.0000 </r>
       <r>   -15.0800     0.0000     0.0000 </r>
       <r>   -15.0700     0.0000     0.0000 </r>
       <r>   -15.0600     0.0000     0.0000 </r>
       <r>   -15.0500     0.0000     0.0000 </r>
       <r>   -15.0400     0.0000     0.0000 </r>
       <r>   -15.0300     0.0000     0.0000 </r>
       <r>   -15.0200     0.0000     0.0000 </r>
       <r>   -15.0100     0.0000     0.0000 </r>
       <r>   -15.0000     0.0000     0.0000 </r>
       <r>   -14.9900     0.0000     0.0000 </r>
       <r>   -14.9800     0.0000     0.0000 </r>
       <r>   -14.9700     0.0000     0.0000 </r>
       <r>   -14.9600     0.0000     0.0000 </r>
       <r>   -14.9500     0.0000     0.0000 </r>
       <r>   -14.9400     0.0000     0.0000 </r>
       <r>   -14.9300     0.0000     0.0000 </r>
       <r>   -14.9200     0.0000     0.0000 </r>
       <r>   -14.9100     0.0000     0.0000 </r>
       <r>   -14.9000     0.0000     0.0000 </r>
       <r>   -14.8900     0.0000     0.0000 </r>
       <r>   -14.8800     0.0000     0.0000 </r>
       <r>   -14.8700     0.0000     0.0000 </r>
       <r>   -14.8600     0.0000     0.0000 </r>
       <r>   -14.8500     0.0000     0.0000 </r>
       <r>   -14.8400     0.0000     0.0000 </r>
       <r>   -14.8300     0.0000     0.0000 </r>
       <r>   -14.8200     0.0000     0.0000 </r>
       <r>   -14.8100     0.0000     0.0000 </r>
       <r>   -14.8000     0.0000     0.0000 </r>
       <r>   -14.7900     0.0000     0.0000 </r>
       <r>   -14.7800     0.0000     0.0000 </r>
       <r>   -14.7700     0.0000     0.0000 </r>
       <r>   -14.7600     0.0000     0.0000 </r>
       <r>   -14.7500     0.0000     0.0000 </r>
       <r>   -14.7400     0.0000     0.0000 </r>
       <r>   -14.7300     0.0000     0.0000 </r>
       <r>   -14.7200     0.0000     0.0000 </r>
       <r>   -14.7100     0.0000     0.0000 </r>
       <r>   -14.7000     0.0000     0.0000 </r>
       <r>   -14.6900     0.0000     0.0000 </r>
       <r>   -14.6800     0.0000     0.0000 </r>
       <r>   -14.6700     0.0000     0.0000 </r>
       <r>   -14.6600     0.0000     0.0000 </r>
       <r>   -14.6500     0.0000     0.0000 </r>
       <r>   -14.6400     0.0000     0.0000 </r>
       <r>   -14.6300     0.0000     0.0000 </r>
       <r>   -14.6200     0.0000     0.0000 </r>
       <r>   -14.6100     0.0000     0.0000 </r>
       <r>   -14.6000     0.0000     0.0000 </r>
       <r>   -14.5900     0.0000     0.0000 </r>
       <r>   -14.5800     0.0000     0.0000 </r>
       <r>   -14.5700     0.0000     0.0000 </r>
       <r>   -14.5600     0.0000     0.0000 </r>
       <r>   -14.5500     0.0000     0.0000 </r>
       <r>   -14.5400     0.0000     0.0000 </r>
       <r>   -14.5300     0.0000     0.0000 </r>
       <r>   -14.5200     0.0000     0.0000 </r>
       <r>   -14.5100     0.0000     0.0000 </r>
       <r>   -14.5000     0.0000     0.0000 </r>
       <r>   -14.4900     0.0000     0.0000 </r>
       <r>   -14.4800     0.0000     0.0000 </r>
       <r>   -14.4700     0.0000     0.0000 </r>
       <r>   -14.4600     0.0000     0.0000 </r>
       <r>   -14.4500     0.0000     0.0000 </r>
       <r>   -14.4400     0.0000     0.0000 </r>
       <r>   -14.4300     0.0000     0.0000 </r>
       <r>   -14.4200     0.0000     0.0000 </r>
       <r>   -14.4100     0.0000     0.0000 </r>
       <r>   -14.4000     0.0000     0.0000 </r>
       <r>   -14.3900     0.0000     0.0000 </r>
       <r>   -14.3800     0.0000     0.0000 </r>
       <r>   -14.3700     0.0000     0.0000 </r>
       <r>   -14.3600     0.0000     0.0000 </r>
       <r>   -14.3500     0.0000     0.0000 </r>
       <r>   -14.3400     0.0000     0.0000 </r>
       <r>   -14.3300     0.0000     0.0000 </r>
       <r>   -14.3200     0.0000     0.0000 </r>
       <r>   -14.3100     0.0000     0.0000 </r>
       <r>   -14.3000     0.0000     0.0000 </r>
       <r>   -14.2900     0.0000     0.0000 </r>
       <r>   -14.2800     0.0000     0.0000 </r>
       <r>   -14.2700     0.0000     0.0000 </r>
       <r>   -14.2600     0.0000     0.0000 </r>
       <r>   -14.2500     0.0000     0.0000 </r>
       <r>   -14.2400     0.0000     0.0000 </r>
       <r>   -14.2300     0.0000     0.0000 </r>
       <r>   -14.2200     0.0000     0.0000 </r>
       <r>   -14.2100     0.0000     0.0000 </r>
       <r>   -14.2000     0.0000     0.0000 </r>
       <r>   -14.1900     0.0000     0.0000 </r>
       <r>   -14.1800     0.0000     0.0000 </r>
       <r>   -14.1700     0.0000     0.0000 </r>
       <r>   -14.1600     0.0000     0.0000 </r>
       <r>   -14.1500     0.0000     0.0000 </r>
       <r>   -14.1400     0.0000     0.0000 </r>
       <r>   -14.1300     0.0000     0.0000 </r>
       <r>   -14.1200     0.0000     0.0000 </r>
       <r>   -14.1100     0.0000     0.0000 </r>
       <r>   -14.1000     0.0000     0.0000 </r>
       <r>   -14.0900     0.0000     0.0000 </r>
       <r>   -14.0800     0.0000     0.0000 </r>
       <r>   -14.0700     0.0000     0.0000 </r>
       <r>   -14.0600     0.0000     0.0000 </r>
       <r>   -14.0500     0.0000     0.0000 </r>
       <r>   -14.0400     0.0000     0.0000 </r>
       <r>   -14.0300     0.0000     0.0000 </r>
       <r>   -14.0200     0.0000     0.0000 </r>
       <r>   -14.0100     0.0000     0.0000 </r>
       <r>   -14.0000     0.0000     0.0000 </r>
       <r>   -13.9900     0.0000     0.0000 </r>
       <r>   -13.9800     0.0000     0.0000 </r>
       <r>   -13.9700     0.0000     0.0000 </r>
       <r>   -13.9600     0.0000     0.0000 </r>
       <r>   -13.9500     0.0000     0.0000 </r>
       <r>   -13.9400     0.0000     0.0000 </r>
       <r>   -13.9300     0.0000     0.0000 </r>
       <r>   -13.9200     0.0000     0.0000 </r>
       <r>   -13.9100     0.0000     0.0000 </r>
       <r>   -13.9000     0.0000     0.0000 </r>
       <r>   -13.8900     0.0000     0.0000 </r>
       <r>   -13.8800     0.0000     0.0000 </r>
       <r>   -13.8700     0.0000     0.0000 </r>
       <r>   -13.8600     0.0000     0.0000 </r>
       <r>   -13.8500     0.0000     0.0000 </r>
       <r>   -13.8400     0.0000     0.0000 </r>
       <r>   -13.8300     0.0000     0.0000 </r>
       <r>   -13.8200     0.0000     0.0000 </r>
       <r>   -13.8100     0.0000     0.0000 </r>
       <r>   -13.8000     0.0000     0.0000 </r>
       <r>   -13.7900     0.0000     0.0000 </r>
       <r>   -13.7800     0.0000     0.0000 </r>
       <r>   -13.7700     0.0000     0.0000 </r>
       <r>   -13.7600     0.0000     0.0000 </r>
       <r>   -13.7500     0.0000     0.0000 </r>
       <r>   -13.7400     0.0000     0.0000 </r>
       <r>   -13.7300     0.0000     0.0000 </r>
       <r>   -13.7200     0.0000     0.0000 </r>
       <r>   -13.7100     0.0000     0.0000 </r>
       <r>   -13.7000     0.0000     0.0000 </r>
       <r>   -13.6900     0.0000     0.0000 </r>
       <r>   -13.6800     0.0000     0.0000 </r>
       <r>   -13.6700     0.0000     0.0000 </r>
       <r>   -13.6600     0.0000     0.0000 </r>
       <r>   -13.6500     0.0000     0.0000 </r>
       <r>   -13.6400     0.0000     0.0000 </r>
       <r>   -13.6300     0.0000     0.0000 </r>
       <r>   -13.6200     0.0000     0.0000 </r>
       <r>   -13.6100     0.0000     0.0000 </r>
       <r>   -13.6000     0.0000     0.0000 </r>
       <r>   -13.5900     0.0000     0.0000 </r>
       <r>   -13.5800     0.0000     0.0000 </r>
       <r>   -13.5700     0.0000     0.0000 </r>
       <r>   -13.5600     0.0000     0.0000 </r>
       <r>   -13.5500     0.0000     0.0000 </r>
       <r>   -13.5400     0.0000     0.0000 </r>
       <r>   -13.5300     0.0000     0.0000 </r>
       <r>   -13.5200     0.0000     0.0000 </r>
       <r>   -13.5100     0.0000     0.0000 </r>
       <r>   -13.5000     0.0000     0.0000 </r>
       <r>   -13.4900     0.0000     0.0000 </r>
       <r>   -13.4800     0.0000     0.0000 </r>
       <r>   -13.4700     0.0000     0.0000 </r>
       <r>   -13.4600     0.0000     0.0000 </r>
       <r>   -13.4500     0.0000     0.0000 </r>
       <r>   -13.4400     0.0000     0.0000 </r>
       <r>   -13.4300     0.0000     0.0000 </r>
       <r>   -13.4200     0.0000     0.0000 </r>
       <r>   -13.4100     0.0000     0.0000 </r>
       <r>   -13.4000     0.0000     0.0000 </r>
       <r>   -13.3900     0.0000     0.0000 </r>
       <r>   -13.3800     0.0000     0.0000 </r>
       <r>   -13.3700     0.0000     0.0000 </r>
       <r>   -13.3600     0.0000     0.0000 </r>
       <r>   -13.3500     0.0000     0.0000 </r>
       <r>   -13.3400     0.0000     0.0000 </r>
       <r>   -13.3300     0.0000     0.0000 </r>
       <r>   -13.3200     0.0000     0.0000 </r>
       <r>   -13.3100     0.0000     0.0000 </r>
       <r>   -13.3000     0.0000     0.0000 </r>
       <r>   -13.2900     0.0000     0.0000 </r>
       <r>   -13.2800     0.0000     0.0000 </r>
       <r>   -13.2700     0.0000     0.0000 </r>
       <r>   -13.2600     0.0000     0.0000 </r>
       <r>   -13.2500     0.0000     0.0000 </r>
       <r>   -13.2400     0.0000     0.0000 </r>
       <r>   -13.2300     0.0000     0.0000 </r>
       <r>   -13.2200     0.0000     0.0000 </r>
       <r>   -13.2100     0.0000     0.0000 </r>
       <r>   -13.2000     0.0000     0.0000 </r>
       <r>   -13.1900     0.0000     0.0000 </r>
       <r>   -13.1800     0.0000     0.0000 </r>
       <r>   -13.1700     0.0000     0.0000 </r>
       <r>   -13.1600     0.0000     0.0000 </r>
       <r>   -13.1500     0.0000     0.0000 </r>
       <r>   -13.1400     0.0000     0.0000 </r>
       <r>   -13.1300     0.0000     0.0000 </r>
       <r>   -13.1200     0.0000     0.0000 </r>
       <r>   -13.1100     0.0000     0.0000 </r>
       <r>   -13.1000     0.0000     0.0000 </r>
       <r>   -13.0900     0.0000     0.0000 </r>
       <r>   -13.0800     0.0000     0.0000 </r>
       <r>   -13.0700     0.0000     0.0000 </r>
       <r>   -13.0600     0.0000     0.0000 </r>
       <r>   -13.0500     0.0000     0.0000 </r>
       <r>   -13.0400     0.0000     0.0000 </r>
       <r>   -13.0300     0.0000     0.0000 </r>
       <r>   -13.0200     0.0000     0.0000 </r>
       <r>   -13.0100     0.0000     0.0000 </r>
       <r>   -13.0000     0.0000     0.0000 </r>
       <r>   -12.9900     0.0000     0.0000 </r>
       <r>   -12.9800     0.0000     0.0000 </r>
       <r>   -12.9700     0.0000     0.0000 </r>
       <r>   -12.9600     0.0000     0.0000 </r>
       <r>   -12.9500     0.0000     0.0000 </r>
       <r>   -12.9400     0.0000     0.0000 </r>
       <r>   -12.9300     0.0000     0.0000 </r>
       <r>   -12.9200     0.0000     0.0000 </r>
       <r>   -12.9100     0.0000     0.0000 </r>
       <r>   -12.9000     0.0000     0.0000 </r>
       <r>   -12.8900     0.0000     0.0000 </r>
       <r>   -12.8800     0.0000     0.0000 </r>
       <r>   -12.8700     0.0000     0.0000 </r>
       <r>   -12.8600     0.0000     0.0000 </r>
       <r>   -12.8500     0.0000     0.0000 </r>
       <r>   -12.8400     0.0000     0.0000 </r>
       <r>   -12.8300     0.0000     0.0000 </r>
       <r>   -12.8200     0.0000     0.0000 </r>
       <r>   -12.8100     0.0000     0.0000 </r>
       <r>   -12.8000     0.0000     0.0000 </r>
       <r>   -12.7900     0.0000     0.0000 </r>
       <r>   -12.7800     0.0000     0.0000 </r>
       <r>   -12.7700     0.0000     0.0000 </r>
       <r>   -12.7600     0.0000     0.0000 </r>
       <r>   -12.7500     0.0000     0.0000 </r>
       <r>   -12.7400     0.0000     0.0000 </r>
       <r>   -12.7300     0.0000     0.0000 </r>
       <r>   -12.7200     0.0000     0.0000 </r>
       <r>   -12.7100     0.0000     0.0000 </r>
       <r>   -12.7000     0.0000     0.0000 </r>
       <r>   -12.6900     0.0000     0.0000 </r>
       <r>   -12.6800     0.0000     0.0000 </r>
       <r>   -12.6700     0.0000     0.0000 </r>
       <r>   -12.6600     0.0000     0.0000 </r>
       <r>   -12.6500     0.0000     0.0000 </r>
       <r>   -12.6400     0.0000     0.0000 </r>
       <r>   -12.6300     0.0000     0.0000 </r>
       <r>   -12.6200     0.0000     0.0000 </r>
       <r>   -12.6100     0.0000     0.0000 </r>
       <r>   -12.6000     0.0000     0.0000 </r>
       <r>   -12.5900     0.0000     0.0000 </r>
       <r>   -12.5800     0.0000     0.0000 </r>
       <r>   -12.5700     0.0000     0.0000 </r>
       <r>   -12.5600     0.0000     0.0000 </r>
       <r>   -12.5500     0.0000     0.0000 </r>
       <r>   -12.5400     0.0000     0.0000 </r>
       <r>   -12.5300     0.0000     0.0000 </r>
       <r>   -12.5200     0.0000     0.0000 </r>
       <r>   -12.5100     0.0000     0.0000 </r>
       <r>   -12.5000     0.0000     0.0000 </r>
       <r>   -12.4900     0.0000     0.0000 </r>
       <r>   -12.4800     0.0000     0.0000 </r>
       <r>   -12.4700     0.0000     0.0000 </r>
       <r>   -12.4600     0.0000     0.0000 </r>
       <r>   -12.4500     0.0000     0.0000 </r>
       <r>   -12.4400     0.0000     0.0000 </r>
       <r>   -12.4300     0.0000     0.0000 </r>
       <r>   -12.4200     0.0000     0.0000 </r>
       <r>   -12.4100     0.0000     0.0000 </r>
       <r>   -12.4000     0.0000     0.0000 </r>
       <r>   -12.3900     0.0000     0.0000 </r>
       <r>   -12.3800     0.0000     0.0000 </r>
       <r>   -12.3700     0.0000     0.0000 </r>
       <r>   -12.3600     0.0000     0.0000 </r>
       <r>   -12.3500     0.0000     0.0000 </r>
       <r>   -12.3400     0.0000     0.0000 </r>
       <r>   -12.3300     0.0000     0.0000 </r>
       <r>   -12.3200     0.0000     0.0000 </r>
       <r>   -12.3100     0.0000     0.0000 </r>
       <r>   -12.3000     0.0000     0.0000 </r>
       <r>   -12.2900     0.0000     0.0000 </r>
       <r>   -12.2800     0.0000     0.0000 </r>
       <r>   -12.2700     0.0000     0.0000 </r>
       <r>   -12.2600     0.0000     0.0000 </r>
       <r>   -12.2500     0.0000     0.0000 </r>
       <r>   -12.2400     0.0000     0.0000 </r>
       <r>   -12.2300     0.0000     0.0000 </r>
       <r>   -12.2200     0.0000     0.0000 </r>
       <r>   -12.2100     0.0000     0.0000 </r>
       <r>   -12.2000     0.0000     0.0000 </r>
       <r>   -12.1900     0.0000     0.0000 </r>
       <r>   -12.1800     0.0000     0.0000 </r>
       <r>   -12.1700     0.0000     0.0000 </r>
       <r>   -12.1600     0.0000     0.0000 </r>
       <r>   -12.1500     0.0000     0.0000 </r>
       <r>   -12.1400     0.0000     0.0000 </r>
       <r>   -12.1300     0.0000     0.0000 </r>
       <r>   -12.1200     0.0000     0.0000 </r>
       <r>   -12.1100     0.0000     0.0000 </r>
       <r>   -12.1000     0.0000     0.0000 </r>
       <r>   -12.0900     0.0000     0.0000 </r>
       <r>   -12.0800     0.0000     0.0000 </r>
       <r>   -12.0700     0.0000     0.0000 </r>
       <r>   -12.0600     0.0000     0.0000 </r>
       <r>   -12.0500     0.0000     0.0000 </r>
       <r>   -12.0400     0.0000     0.0000 </r>
       <r>   -12.0300     0.0000     0.0000 </r>
       <r>   -12.0200     0.0001     0.0000 </r>
       <r>   -12.0100     0.0001     0.0000 </r>
       <r>   -12.0000     0.0002     0.0000 </r>
       <r>   -11.9900     0.0003     0.0000 </r>
       <r>   -11.9800     0.0005     0.0000 </r>
       <r>   -11.9700     0.0008     0.0000 </r>
       <r>   -11.9600     0.0012     0.0000 </r>
       <r>   -11.9500     0.0018     0.0000 </r>
       <r>   -11.9400     0.0027     0.0001 </r>
       <r>   -11.9300     0.0039     0.0001 </r>
       <r>   -11.9200     0.0056     0.0002 </r>
       <r>   -11.9100     0.0078     0.0002 </r>
       <r>   -11.9000     0.0107     0.0004 </r>
       <r>   -11.8900     0.0144     0.0005 </r>
       <r>   -11.8800     0.0190     0.0007 </r>
       <r>   -11.8700     0.0245     0.0009 </r>
       <r>   -11.8600     0.0311     0.0012 </r>
       <r>   -11.8500     0.0386     0.0016 </r>
       <r>   -11.8400     0.0470     0.0021 </r>
       <r>   -11.8300     0.0561     0.0027 </r>
       <r>   -11.8200     0.0656     0.0033 </r>
       <r>   -11.8100     0.0753     0.0041 </r>
       <r>   -11.8000     0.0846     0.0049 </r>
       <r>   -11.7900     0.0932     0.0058 </r>
       <r>   -11.7800     0.1007     0.0069 </r>
       <r>   -11.7700     0.1067     0.0079 </r>
       <r>   -11.7600     0.1107     0.0090 </r>
       <r>   -11.7500     0.1127     0.0102 </r>
       <r>   -11.7400     0.1125     0.0113 </r>
       <r>   -11.7300     0.1101     0.0124 </r>
       <r>   -11.7200     0.1057     0.0134 </r>
       <r>   -11.7100     0.0996     0.0144 </r>
       <r>   -11.7000     0.0924     0.0154 </r>
       <r>   -11.6900     0.0844     0.0162 </r>
       <r>   -11.6800     0.0763     0.0170 </r>
       <r>   -11.6700     0.0687     0.0177 </r>
       <r>   -11.6600     0.0622     0.0183 </r>
       <r>   -11.6500     0.0577     0.0188 </r>
       <r>   -11.6400     0.0557     0.0194 </r>
       <r>   -11.6300     0.0569     0.0200 </r>
       <r>   -11.6200     0.0621     0.0206 </r>
       <r>   -11.6100     0.0721     0.0213 </r>
       <r>   -11.6000     0.0873     0.0222 </r>
       <r>   -11.5900     0.1085     0.0233 </r>
       <r>   -11.5800     0.1360     0.0246 </r>
       <r>   -11.5700     0.1701     0.0263 </r>
       <r>   -11.5600     0.2107     0.0284 </r>
       <r>   -11.5500     0.2573     0.0310 </r>
       <r>   -11.5400     0.3091     0.0341 </r>
       <r>   -11.5300     0.3646     0.0378 </r>
       <r>   -11.5200     0.4220     0.0420 </r>
       <r>   -11.5100     0.4790     0.0468 </r>
       <r>   -11.5000     0.5332     0.0521 </r>
       <r>   -11.4900     0.5819     0.0579 </r>
       <r>   -11.4800     0.6226     0.0641 </r>
       <r>   -11.4700     0.6529     0.0707 </r>
       <r>   -11.4600     0.6712     0.0774 </r>
       <r>   -11.4500     0.6764     0.0841 </r>
       <r>   -11.4400     0.6682     0.0908 </r>
       <r>   -11.4300     0.6470     0.0973 </r>
       <r>   -11.4200     0.6141     0.1034 </r>
       <r>   -11.4100     0.5713     0.1092 </r>
       <r>   -11.4000     0.5211     0.1144 </r>
       <r>   -11.3900     0.4658     0.1190 </r>
       <r>   -11.3800     0.4082     0.1231 </r>
       <r>   -11.3700     0.3506     0.1266 </r>
       <r>   -11.3600     0.2952     0.1296 </r>
       <r>   -11.3500     0.2437     0.1320 </r>
       <r>   -11.3400     0.1971     0.1340 </r>
       <r>   -11.3300     0.1563     0.1355 </r>
       <r>   -11.3200     0.1215     0.1367 </r>
       <r>   -11.3100     0.0926     0.1377 </r>
       <r>   -11.3000     0.0692     0.1384 </r>
       <r>   -11.2900     0.0506     0.1389 </r>
       <r>   -11.2800     0.0363     0.1392 </r>
       <r>   -11.2700     0.0256     0.1395 </r>
       <r>   -11.2600     0.0176     0.1397 </r>
       <r>   -11.2500     0.0119     0.1398 </r>
       <r>   -11.2400     0.0079     0.1399 </r>
       <r>   -11.2300     0.0051     0.1399 </r>
       <r>   -11.2200     0.0033     0.1399 </r>
       <r>   -11.2100     0.0021     0.1400 </r>
       <r>   -11.2000     0.0013     0.1400 </r>
       <r>   -11.1900     0.0008     0.1400 </r>
       <r>   -11.1800     0.0005     0.1400 </r>
       <r>   -11.1700     0.0004     0.1400 </r>
       <r>   -11.1600     0.0005     0.1400 </r>
       <r>   -11.1500     0.0007     0.1400 </r>
       <r>   -11.1400     0.0010     0.1400 </r>
       <r>   -11.1300     0.0016     0.1400 </r>
       <r>   -11.1200     0.0026     0.1401 </r>
       <r>   -11.1100     0.0041     0.1401 </r>
       <r>   -11.1000     0.0064     0.1402 </r>
       <r>   -11.0900     0.0097     0.1403 </r>
       <r>   -11.0800     0.0146     0.1404 </r>
       <r>   -11.0700     0.0213     0.1406 </r>
       <r>   -11.0600     0.0306     0.1409 </r>
       <r>   -11.0500     0.0431     0.1414 </r>
       <r>   -11.0400     0.0594     0.1420 </r>
       <r>   -11.0300     0.0803     0.1428 </r>
       <r>   -11.0200     0.1065     0.1438 </r>
       <r>   -11.0100     0.1383     0.1452 </r>
       <r>   -11.0000     0.1762     0.1470 </r>
       <r>   -10.9900     0.2199     0.1492 </r>
       <r>   -10.9800     0.2691     0.1519 </r>
       <r>   -10.9700     0.3228     0.1551 </r>
       <r>   -10.9600     0.3795     0.1589 </r>
       <r>   -10.9500     0.4374     0.1633 </r>
       <r>   -10.9400     0.4942     0.1682 </r>
       <r>   -10.9300     0.5473     0.1737 </r>
       <r>   -10.9200     0.5941     0.1796 </r>
       <r>   -10.9100     0.6323     0.1859 </r>
       <r>   -10.9000     0.6597     0.1925 </r>
       <r>   -10.8900     0.6747     0.1993 </r>
       <r>   -10.8800     0.6767     0.2060 </r>
       <r>   -10.8700     0.6656     0.2127 </r>
       <r>   -10.8600     0.6422     0.2191 </r>
       <r>   -10.8500     0.6082     0.2252 </r>
       <r>   -10.8400     0.5658     0.2309 </r>
       <r>   -10.8300     0.5178     0.2360 </r>
       <r>   -10.8200     0.4672     0.2407 </r>
       <r>   -10.8100     0.4171     0.2449 </r>
       <r>   -10.8000     0.3705     0.2486 </r>
       <r>   -10.7900     0.3301     0.2519 </r>
       <r>   -10.7800     0.2981     0.2549 </r>
       <r>   -10.7700     0.2764     0.2576 </r>
       <r>   -10.7600     0.2662     0.2603 </r>
       <r>   -10.7500     0.2683     0.2630 </r>
       <r>   -10.7400     0.2828     0.2658 </r>
       <r>   -10.7300     0.3091     0.2689 </r>
       <r>   -10.7200     0.3463     0.2724 </r>
       <r>   -10.7100     0.3927     0.2763 </r>
       <r>   -10.7000     0.4462     0.2808 </r>
       <r>   -10.6900     0.5041     0.2858 </r>
       <r>   -10.6800     0.5633     0.2914 </r>
       <r>   -10.6700     0.6209     0.2976 </r>
       <r>   -10.6600     0.6733     0.3044 </r>
       <r>   -10.6500     0.7177     0.3115 </r>
       <r>   -10.6400     0.7512     0.3191 </r>
       <r>   -10.6300     0.7718     0.3268 </r>
       <r>   -10.6200     0.7782     0.3346 </r>
       <r>   -10.6100     0.7699     0.3423 </r>
       <r>   -10.6000     0.7474     0.3497 </r>
       <r>   -10.5900     0.7121     0.3569 </r>
       <r>   -10.5800     0.6660     0.3635 </r>
       <r>   -10.5700     0.6119     0.3696 </r>
       <r>   -10.5600     0.5528     0.3752 </r>
       <r>   -10.5500     0.4920     0.3801 </r>
       <r>   -10.5400     0.4327     0.3844 </r>
       <r>   -10.5300     0.3778     0.3882 </r>
       <r>   -10.5200     0.3299     0.3915 </r>
       <r>   -10.5100     0.2911     0.3944 </r>
       <r>   -10.5000     0.2631     0.3970 </r>
       <r>   -10.4900     0.2469     0.3995 </r>
       <r>   -10.4800     0.2429     0.4019 </r>
       <r>   -10.4700     0.2512     0.4044 </r>
       <r>   -10.4600     0.2712     0.4071 </r>
       <r>   -10.4500     0.3017     0.4102 </r>
       <r>   -10.4400     0.3412     0.4136 </r>
       <r>   -10.4300     0.3875     0.4174 </r>
       <r>   -10.4200     0.4382     0.4218 </r>
       <r>   -10.4100     0.4904     0.4267 </r>
       <r>   -10.4000     0.5411     0.4321 </r>
       <r>   -10.3900     0.5873     0.4380 </r>
       <r>   -10.3800     0.6262     0.4443 </r>
       <r>   -10.3700     0.6552     0.4508 </r>
       <r>   -10.3600     0.6725     0.4576 </r>
       <r>   -10.3500     0.6769     0.4643 </r>
       <r>   -10.3400     0.6681     0.4710 </r>
       <r>   -10.3300     0.6464     0.4775 </r>
       <r>   -10.3200     0.6131     0.4836 </r>
       <r>   -10.3100     0.5701     0.4893 </r>
       <r>   -10.3000     0.5196     0.4945 </r>
       <r>   -10.2900     0.4642     0.4991 </r>
       <r>   -10.2800     0.4066     0.5032 </r>
       <r>   -10.2700     0.3491     0.5067 </r>
       <r>   -10.2600     0.2937     0.5096 </r>
       <r>   -10.2500     0.2423     0.5121 </r>
       <r>   -10.2400     0.1959     0.5140 </r>
       <r>   -10.2300     0.1553     0.5156 </r>
       <r>   -10.2200     0.1207     0.5168 </r>
       <r>   -10.2100     0.0919     0.5177 </r>
       <r>   -10.2000     0.0686     0.5184 </r>
       <r>   -10.1900     0.0502     0.5189 </r>
       <r>   -10.1800     0.0361     0.5192 </r>
       <r>   -10.1700     0.0255     0.5195 </r>
       <r>   -10.1600     0.0177     0.5197 </r>
       <r>   -10.1500     0.0123     0.5198 </r>
       <r>   -10.1400     0.0087     0.5199 </r>
       <r>   -10.1300     0.0066     0.5200 </r>
       <r>   -10.1200     0.0058     0.5200 </r>
       <r>   -10.1100     0.0062     0.5201 </r>
       <r>   -10.1000     0.0080     0.5202 </r>
       <r>   -10.0900     0.0113     0.5203 </r>
       <r>   -10.0800     0.0167     0.5204 </r>
       <r>   -10.0700     0.0248     0.5207 </r>
       <r>   -10.0600     0.0364     0.5210 </r>
       <r>   -10.0500     0.0526     0.5216 </r>
       <r>   -10.0400     0.0747     0.5223 </r>
       <r>   -10.0300     0.1041     0.5234 </r>
       <r>   -10.0200     0.1423     0.5248 </r>
       <r>   -10.0100     0.1907     0.5267 </r>
       <r>   -10.0000     0.2506     0.5292 </r>
       <r>    -9.9900     0.3230     0.5324 </r>
       <r>    -9.9800     0.4084     0.5365 </r>
       <r>    -9.9700     0.5065     0.5416 </r>
       <r>    -9.9600     0.6165     0.5477 </r>
       <r>    -9.9500     0.7363     0.5551 </r>
       <r>    -9.9400     0.8633     0.5637 </r>
       <r>    -9.9300     0.9938     0.5737 </r>
[...]
        <r>  0.0001  0.0003  0.0008  0.0002  0.0196  0.0097  0.4052  0.0042  0.0194 </r>
        <r>  0.0000  0.0002  0.0003  0.0005  0.0264  0.0086  0.0152  0.0154  0.0513 </r>
        <r>  0.0002  0.0000  0.0000  0.0000  0.0000  0.0000  0.0000  0.0000  0.0000 </r>
       </set>
       <set comment="band 19">
        <r>  0.0011  0.0004  0.0013  0.0007  0.0314  0.0067  0.4733  0.0184  0.0657 </r>
        <r>  0.0000  0.0000  0.0000  0.0001  0.0228  0.0486  0.0635  0.0907  0.0678 </r>
        <r>  0.0000  0.0000  0.0000  0.0000  0.0087  0.0133  0.0116  0.0214  0.0256 </r>
        <r>  0.0001  0.0000  0.0001  0.0000  0.0009  0.0002  0.0034  0.0004  0.0026 </r>
        <r>  0.0001  0.0000  0.0000  0.0000  0.0000  0.0000  0.0000  0.0000  0.0000 </r>
       </set>
       <set comment="band 20">
        <r>  0.0003  0.0002  0.0005  0.0004  0.0488  0.0301  0.1112  0.0303  0.0874 </r>
        <r>  0.0001  0.0002  0.0001  0.0001  0.0462  0.0038  0.3882  0.0091  0.0159 </r>
        <r>  0.0000  0.0000  0.0002  0.0000  0.0347  0.0283  0.0554  0.0269  0.0546 </r>
        <r>  0.0000  0.0000  0.0000  0.0000  0.0034  0.0051  0.0016  0.0020  0.0040 </r>
        <r>  0.0000  0.0000  0.0000  0.0000  0.0000  0.0000  0.0000  0.0000  0.0000 </r>
       </set>
       <set comment="band 21">
        <r>  0.0000  0.0000  0.0000  0.0001  0.0001  0.0001  0.0004  0.0002  0.0003 </r>
        <r>  0.0003  0.0002  0.0002  0.0006  0.0008  0.0003  0.0014  0.0010  0.0021 </r>
        <r>  0.0065  0.0011  0.0052  0.0030  0.0127  0.0041  0.0334  0.0052  0.0112 </r>
        <r>  0.0036  0.0346  0.0017  0.0972  0.1442  0.0363  0.0014  0.0605  0.2427 </r>
        <r>  0.1141  0.0005  0.0000  0.0003  0.0000  0.0000  0.0000  0.0000  0.0000 </r>
       </set>
       <set comment="band 22">
        <r>  0.0176  0.0061  0.0072  0.0162  0.0141  0.0031  0.0189  0.0043  0.0163 </r>
        <r>  0.0058  0.0338  0.0059  0.1002  0.0271  0.0011  0.0047  0.0012  0.0715 </r>
        <r>  0.0191  0.0304  0.0030  0.0883  0.0322  0.0007  0.0165  0.0012  0.0673 </r>
        <r>  0.0323  0.0029  0.0045  0.0015  0.0203  0.0013  0.0157  0.0032  0.0069 </r>
        <r>  0.0022  0.0001  0.0000  0.0004  0.0000  0.0000  0.0000  0.0000  0.0000 </r>
       </set>
       <set comment="band 23">
        <r>  0.0022  0.0242  0.0007  0.0720  0.0153  0.0025  0.0016  0.0067  0.0428 </r>
        <r>  0.0806  0.0192  0.0006  0.0418  0.0478  0.0017  0.0411  0.0035  0.0355 </r>
        <r>  0.0190  0.0212  0.0098  0.0602  0.0202  0.0030  0.0102  0.0018  0.0360 </r>
        <r>  0.0316  0.0048  0.0013  0.0032  0.0212  0.0016  0.0081  0.0045  0.0074 </r>
        <r>  0.0034  0.0002  0.0000  0.0006  0.0000  0.0000  0.0000  0.0000  0.0000 </r>
       </set>
       <set comment="band 24">
        <r>  0.0490  0.0441  0.0089  0.1191  0.0424  0.0037  0.0152  0.0019  0.0606 </r>
        <r>  0.0284  0.0163  0.0411  0.0428  0.0171  0.0089  0.0079  0.0031  0.0210 </r>
        <r>  0.0168  0.0076  0.0036  0.0165  0.0112  0.0035  0.0044  0.0066  0.0099 </r>
        <r>  0.0251  0.0054  0.0000  0.0053  0.0148  0.0011  0.0028  0.0030  0.0057 </r>
        <r>  0.0034  0.0003  0.0000  0.0009  0.0000  0.0000  0.0000  0.0000  0.0000 </r>
       </set>
       <set comment="band 25">
        <r>  0.0001  0.0051  0.0000  0.0148  0.0017  0.0003  0.0000  0.0008  0.0044 </r>
        <r>  0.0327  0.0045  0.0211  0.0028  0.0117  0.0030  0.0027  0.0017  0.0043 </r>
        <r>  0.0114  0.0119  0.0084  0.0331  0.0068  0.0100  0.0009  0.0240  0.0103 </r>
        <r>  0.1552  0.0375  0.0270  0.0587  0.0562  0.0060  0.0041  0.0023  0.0279 </r>
        <r>  0.0067  0.0038  0.0003  0.0113  0.0000  0.0000  0.0000  0.0000  0.0000 </r>
       </set>
       <set comment="band 26">
        <r>  0.0722  0.0100  0.0014  0.0129  0.0217  0.0004  0.0067  0.0009  0.0097 </r>
        <r>  0.0285  0.0036  0.0005  0.0051  0.0084  0.0112  0.0019  0.0335  0.0038 </r>
        <r>  0.1646  0.0254  0.0054  0.0169  0.0583  0.0040  0.0106  0.0079  0.0216 </r>
        <r>  0.0084  0.0042  0.0378  0.0087  0.0015  0.0207  0.0043  0.0346  0.0013 </r>
        <r>  0.0315  0.0002  0.0006  0.0006  0.0000  0.0000  0.0000  0.0000  0.0000 </r>
       </set>
       <set comment="band 27">
        <r>  0.1743  0.0247  0.0148  0.0235  0.0444  0.0028  0.0039  0.0056  0.0178 </r>
        <r>  0.0049  0.0140  0.0026  0.0368  0.0054  0.0052  0.0000  0.0154  0.0082 </r>
        <r>  0.0104  0.0057  0.0469  0.0041  0.0065  0.0058  0.0000  0.0059  0.0026 </r>
        <r>  0.0433  0.0010  0.0068  0.0030  0.0007  0.0133  0.0028  0.0297  0.0004 </r>
        <r>  0.0206  0.0003  0.0007  0.0003  0.0000  0.0000  0.0000  0.0000  0.0000 </r>
       </set>
       <set comment="band 28">
        <r>  0.0267  0.0185  0.0639  0.0166  0.0158  0.0040  0.0001  0.0090  0.0070 </r>
        <r>  0.0617  0.0516  0.0001  0.0207  0.0501  0.0014  0.0017  0.0041  0.0173 </r>
        <r>  0.0013  0.0141  0.0215  0.0267  0.0035  0.0048  0.0009  0.0130  0.0047 </r>
        <r>  0.0389  0.0029  0.0158  0.0020  0.0001  0.0075  0.0014  0.0223  0.0001 </r>
        <r>  0.0099  0.0018  0.0002  0.0027  0.0000  0.0000  0.0000  0.0000  0.0000 </r>
       </set>
      </set>
      <set comment="kpoint 14">
       <set comment="band 1">
        <r>  0.0000  0.0000  0.0000  0.0000  0.0000  0.0000  0.0000  0.0000  0.0000 </r>
        <r>  0.0000  0.0000  0.0000  0.0000  0.0000  0.0000  0.0000  0.0001  0.0000 </r>
        <r>  0.0007  0.0000  0.0003  0.0000  0.0001  0.0002  0.0033  0.0000  0.0000 </r>
        <r>  0.0059  0.0384  0.0004  0.0605  0.1956  0.0566  0.0004  0.1196  0.1275 </r>
        <r>  0.2079  0.0000  0.0022  0.0000  0.0000  0.0000  0.0000  0.0000  0.0000 </r>
       </set>
       <set comment="band 2">
        <r>  0.0003  0.0009  0.0002  0.0001  0.0044  0.0077  0.0025  0.0003  0.0008 </r>
        <r>  0.0050  0.0024  0.0004  0.0075  0.0259  0.0069  0.0129  0.1539  0.0288 </r>
        <r>  0.0350  0.0004  0.0000  0.0118  0.0035  0.0113  0.1500  0.0012  0.0422 </r>
        <r>  0.0015  0.0016  0.0004  0.0082  0.0190  0.0125  0.0003  0.2695  0.0443 </r>
        <r>  0.0005  0.0002  0.0001  0.0000  0.0000  0.0000  0.0000  0.0000  0.0000 </r>
       </set>
       <set comment="band 3">
        <r>  0.0005  0.0021  0.0001  0.0034  0.0170  0.0084  0.0003  0.0269  0.0107 </r>
        <r>  0.0212  0.0029  0.0004  0.0060  0.0212  0.0270  0.0937  0.0233  0.0223 </r>
        <r>  0.0000  0.0002  0.0012  0.0017  0.0001  0.0060  0.0009  0.3954  0.0067 </r>
        <r>  0.0040  0.0012  0.0009  0.0054  0.0123  0.0445  0.0093  0.0723  0.0305 </r>
        <r>  0.0001  0.0002  0.0000  0.0000  0.0000  0.0000  0.0000  0.0000  0.0000 </r>
       </set>
       <set comment="band 4">
        <r>  0.0062  0.0001  0.0017  0.0149  0.0000  0.0030  0.0066  0.1286  0.0489 </r>
        <r>  0.0159  0.0050  0.0004  0.0027  0.0370  0.0001  0.0929  0.2478  0.0121 </r>
        <r>  0.0000  0.0160  0.0002  0.0013  0.1375  0.0382  0.0001  0.0061  0.0065 </r>
        <r>  0.0002  0.0004  0.0000  0.0018  0.0073  0.0065  0.0006  0.0105  0.0130 </r>
        <r>  0.0001  0.0000  0.0000  0.0000  0.0000  0.0000  0.0000  0.0000  0.0000 </r>
       </set>
       <set comment="band 5">
        <r>  0.0000  0.0053  0.0000  0.0004  0.0477  0.0265  0.0005  0.0056  0.0010 </r>
        <r>  0.0015  0.0130  0.0001  0.0022  0.1354  0.0003  0.0344  0.0285  0.0105 </r>
        <r>  0.0008  0.0036  0.0000  0.0154  0.0386  0.0379  0.0501  0.0001  0.0612 </r>
        <r>  0.0004  0.0088  0.0000  0.0055  0.1459  0.1521  0.0009  0.0000  0.0405 </r>
        <r>  0.0016  0.0000  0.0000  0.0000  0.0000  0.0000  0.0000  0.0000  0.0000 </r>
       </set>
       <set comment="band 6">
        <r>  0.0080  0.0025  0.0033  0.0011  0.0209  0.0171  0.0556  0.0162  0.0033 </r>
        <r>  0.0003  0.0104  0.0005  0.0269  0.1436  0.0226  0.0180  0.0533  0.1309 </r>
        <r>  0.0003  0.0130  0.0009  0.0095  0.1701  0.0132  0.0016  0.0042  0.0445 </r>
        <r>  0.0035  0.0001  0.0011  0.0002  0.0013  0.0017  0.0463  0.0218  0.0015 </r>
        <r>  0.0000  0.0001  0.0000  0.0000  0.0000  0.0000  0.0000  0.0000  0.0000 </r>
       </set>
       <set comment="band 7">
        <r>  0.0040  0.0075  0.0017  0.0008  0.0705  0.0453  0.0351  0.0294  0.0013 </r>
        <r>  0.0010  0.0064  0.0000  0.0022  0.0917  0.2592  0.0202  0.0141  0.0045 </r>
        <r>  0.0006  0.0000  0.0005  0.0000  0.0005  0.1539  0.0015  0.0232  0.0021 </r>
        <r>  0.0019  0.0018  0.0009  0.0007  0.0335  0.0459  0.0382  0.0006  0.0048 </r>
        <r>  0.0003  0.0000  0.0000  0.0000  0.0000  0.0000  0.0000  0.0000  0.0000 </r>
       </set>
       <set comment="band 8">
        <r>  0.0013  0.0002  0.0007  0.0009  0.0015  0.0019  0.0194  0.0106  0.0047 </r>
        <r>  0.0012  0.0081  0.0001  0.0001  0.1011  0.0001  0.0080  0.0447  0.0020 </r>
        <r>  0.0018  0.0072  0.0029  0.0088  0.0858  0.0691  0.0004  0.0348  0.0537 </r>
        <r>  0.0104  0.0056  0.0017  0.0005  0.1233  0.0044  0.1387  0.1401  0.0043 </r>
        <r>  0.0001  0.0001  0.0001  0.0006  0.0000  0.0000  0.0000  0.0000  0.0000 </r>
       </set>
       <set comment="band 9">
        <r>  0.0031  0.0017  0.0013  0.0009  0.0277  0.0011  0.0418  0.0244  0.0030 </r>
        <r>  0.0000  0.0003  0.0007  0.0121  0.0027  0.0890  0.0298  0.0008  0.0850 </r>
        <r>  0.0013  0.0009  0.0011  0.0031  0.0157  0.0029  0.0358  0.0139  0.0129 </r>
        <r>  0.0001  0.0060  0.0007  0.0100  0.1545  0.0891  0.0626  0.0668  0.1075 </r>
        <r>  0.0001  0.0005  0.0000  0.0006  0.0000  0.0000  0.0000  0.0000  0.0000 </r>
       </set>
       <set comment="band 10">
        <r>  0.0024  0.0000  0.0007  0.0002  0.0001  0.0097  0.0186  0.0008  0.0041 </r>
        <r>  0.0016  0.0012  0.0001  0.0153  0.0299  0.1310  0.0019  0.0194  0.1364 </r>
        <r>  0.0002  0.0003  0.0120  0.0004  0.0008  0.0081  0.0077  0.0008  0.0039 </r>
        <r>  0.0029  0.0000  0.0001  0.0121  0.0008  0.3029  0.0001  0.0135  0.1756 </r>
        <r>  0.0000  0.0001  0.0001  0.0005  0.0000  0.0000  0.0000  0.0000  0.0000 </r>
       </set>
       <set comment="band 11">
        <r>  0.0008  0.0155  0.0001  0.0043  0.2945  0.0129  0.0000  0.0956  0.0332 </r>
        <r>  0.0000  0.0000  0.0178  0.0001  0.0001  0.0002  0.0004  0.0006  0.0002 </r>
        <r>  0.0009  0.0040  0.0000  0.0145  0.0965  0.0783  0.0083  0.0314  0.1438 </r>
        <r>  0.0004  0.0003  0.0001  0.0008  0.0061  0.0036  0.0337  0.0000  0.0107 </r>
        <r>  0.0000  0.0000  0.0000  0.0000  0.0000  0.0000  0.0000  0.0000  0.0000 </r>
       </set>
       <set comment="band 12">
        <r>  0.0002  0.0091  0.0000  0.0032  0.3109  0.4013  0.0040  0.0312  0.0484 </r>
        <r>  0.0003  0.0006  0.0027  0.0020  0.0125  0.0072  0.0190  0.0044  0.0194 </r>
        <r>  0.0003  0.0005  0.0001  0.0012  0.0203  0.0011  0.0007  0.0035  0.0195 </r>
        <r>  0.0000  0.0000  0.0000  0.0001  0.0001  0.0000  0.0052  0.0019  0.0030 </r>
        <r>  0.0000  0.0000  0.0000  0.0000  0.0000  0.0000  0.0000  0.0000  0.0000 </r>
       </set>
       <set comment="band 13">
        <r>  0.0033  0.0000  0.0001  0.0318  0.0012  0.0103  0.0163  0.3508  0.4623 </r>
        <r>  0.0001  0.0000  0.0000  0.0000  0.0027  0.0003  0.0021  0.0063  0.0002 </r>
        <r>  0.0001  0.0002  0.0001  0.0000  0.0118  0.0002  0.0021  0.0043  0.0002 </r>
        <r>  0.0000  0.0000  0.0000  0.0000  0.0001  0.0004  0.0018  0.0024  0.0023 </r>
        <r>  0.0000  0.0000  0.0000  0.0000  0.0000  0.0000  0.0000  0.0000  0.0000 </r>
       </set>
       <set comment="band 14">
        <r>  0.0001  0.0000  0.0000  0.0022  0.0000  0.0027  0.0011  0.0013  0.0373 </r>
        <r>  0.0002  0.0003  0.0015  0.0007  0.0170  0.0090  0.0046  0.0143  0.0109 </r>
        <r>  0.0001  0.0022  0.0000  0.0004  0.1900  0.1668  0.0003  0.1520  0.0143 </r>
        <r>  0.0000  0.0000  0.0001  0.0000  0.0324  0.1295  0.0430  0.0801  0.0492 </r>
        <r>  0.0000  0.0004  0.0000  0.0004  0.0000  0.0000  0.0000  0.0000  0.0000 </r>
       </set>
       <set comment="band 15">
        <r>  0.0001  0.0000  0.0000  0.0004  0.0004  0.0044  0.0066  0.0001  0.0077 </r>
        <r>  0.0002  0.0006  0.0000  0.0002  0.0704  0.0415  0.0009  0.0253  0.0132 </r>
        <r>  0.0006  0.0004  0.0000  0.0056  0.0565  0.0497  0.0505  0.0092  0.3103 </r>
        <r>  0.0009  0.0000  0.0005  0.0000  0.0146  0.0217  0.2628  0.0058  0.0079 </r>
        <r>  0.0001  0.0001  0.0000  0.0000  0.0000  0.0000  0.0000  0.0000  0.0000 </r>
       </set>
       <set comment="band 16">
        <r>  0.0006  0.0000  0.0000  0.0004  0.0043  0.0668  0.0622  0.0245  0.0183 </r>
        <r>  0.0000  0.0001  0.0001  0.0001  0.1161  0.0029  0.0013  0.0769  0.0152 </r>
        <r>  0.0002  0.0000  0.0002  0.0001  0.0001  0.1841  0.0048  0.1173  0.0021 </r>
        <r>  0.0000  0.0000  0.0018  0.0002  0.0001  0.0019  0.2639  0.0008  0.0077 </r>
        <r>  0.0001  0.0000  0.0000  0.0000  0.0000  0.0000  0.0000  0.0000  0.0000 </r>
       </set>
       <set comment="band 17">
        <r>  0.0006  0.0002  0.0001  0.0003  0.0346  0.2397  0.0011  0.0648  0.0286 </r>
        <r>  0.0007  0.0000  0.0000  0.0005  0.0236  0.1528  0.0284  0.0059  0.2146 </r>
        <r>  0.0009  0.0000  0.0002  0.0000  0.0070  0.0578  0.0621  0.0159  0.0021 </r>
        <r>  0.0001  0.0000  0.0002  0.0000  0.0034  0.0018  0.0162  0.0049  0.0052 </r>
        <r>  0.0001  0.0000  0.0000  0.0000  0.0000  0.0000  0.0000  0.0000  0.0000 </r>
       </set>
       <set comment="band 18">
        <r>  0.0001  0.0001  0.0003  0.0000  0.0015  0.0041  0.1383  0.0629  0.0191 </r>
        <r>  0.0001  0.0000  0.0000  0.0000  0.0001  0.1580  0.1275  0.0087  0.0219 </r>
        <r>  0.0000  0.0001  0.0003  0.0003  0.0050  0.0001  0.3086  0.0408  0.0000 </r>
        <r>  0.0001  0.0000  0.0003  0.0002  0.0069  0.0040  0.0198  0.0176  0.0376 </r>
        <r>  0.0001  0.0000  0.0000  0.0000  0.0000  0.0000  0.0000  0.0000  0.0000 </r>
       </set>
       <set comment="band 19">
        <r>  0.0005  0.0000  0.0009  0.0001  0.0090  0.0399  0.3796  0.0001  0.0068 </r>
        <r>  0.0000  0.0000  0.0000  0.0000  0.0253  0.0022  0.0460  0.1600  0.0002 </r>
        <r>  0.0000  0.0001  0.0004  0.0000  0.0000  0.0055  0.2068  0.0196  0.0444 </r>
        <r>  0.0000  0.0000  0.0000  0.0001  0.0078  0.0062  0.0004  0.0063  0.0152 </r>
        <r>  0.0001  0.0000  0.0000  0.0000  0.0000  0.0000  0.0000  0.0000  0.0000 </r>
       </set>
       <set comment="band 20">
        <r>  0.0005  0.0000  0.0005  0.0005  0.0162  0.0316  0.1510  0.0340  0.0864 </r>
        <r>  0.0002  0.0000  0.0001  0.0002  0.0012  0.0159  0.3921  0.0066  0.0941 </r>
        <r>  0.0000  0.0000  0.0001  0.0001  0.0168  0.0409  0.0267  0.0192  0.0451 </r>
        <r>  0.0000  0.0001  0.0000  0.0000  0.0020  0.0048  0.0008  0.0000  0.0009 </r>
        <r>  0.0000  0.0000  0.0000  0.0000  0.0000  0.0000  0.0000  0.0000  0.0000 </r>
       </set>
       <set comment="band 21">
        <r>  0.0000  0.0000  0.0000  0.0000  0.0000  0.0000  0.0000  0.0000  0.0000 </r>
        <r>  0.0004  0.0000  0.0002  0.0000  0.0004  0.0003  0.0009  0.0000  0.0001 </r>
        <r>  0.0105  0.0001  0.0046  0.0033  0.0005  0.0006  0.0238  0.0037  0.0168 </r>
        <r>  0.0198  0.0128  0.0006  0.0996  0.1063  0.0341  0.0024  0.0588  0.2955 </r>
        <r>  0.1310  0.0000  0.0000  0.0009  0.0000  0.0000  0.0000  0.0000  0.0000 </r>
       </set>
       <set comment="band 22">
        <r>  0.0308  0.0002  0.0055  0.0344  0.0003  0.0005  0.0142  0.0096  0.0494 </r>
        <r>  0.0653  0.0001  0.0003  0.1070  0.0001  0.0000  0.0189  0.0005  0.1324 </r>
        <r>  0.0354  0.0004  0.0064  0.0695  0.0007  0.0000  0.0096  0.0047  0.0843 </r>
        <r>  0.0068  0.0056  0.0046  0.0000  0.0120  0.0006  0.0053  0.0110  0.0000 </r>
        <r>  0.0087  0.0000  0.0000  0.0001  0.0000  0.0000  0.0000  0.0000  0.0000 </r>
       </set>
       <set comment="band 23">
        <r>  0.0355  0.0001  0.0003  0.1039  0.0003  0.0001  0.0021  0.0040  0.0837 </r>
        <r>  0.0025  0.0041  0.0315  0.0149  0.0042  0.0005  0.0000  0.0219  0.0105 </r>
        <r>  0.0059  0.0010  0.0021  0.1068  0.0012  0.0010  0.0011  0.0052  0.0714 </r>
        <r>  0.0289  0.0262  0.0071  0.0061  0.0333  0.0021  0.0070  0.0199  0.0032 </r>
        <r>  0.0192  0.0002  0.0001  0.0012  0.0000  0.0000  0.0000  0.0000  0.0000 </r>
       </set>
       <set comment="band 24">
        <r>  0.0002  0.0132  0.0087  0.0817  0.0117  0.0036  0.0036  0.0000  0.0369 </r>
        <r>  0.0319  0.0045  0.0041  0.0761  0.0036  0.0010  0.0205  0.0070  0.0245 </r>
        <r>  0.0161  0.0500  0.0040  0.0003  0.0410  0.0000  0.0039  0.0093  0.0000 </r>
        <r>  0.0013  0.0629  0.0024  0.0353  0.0502  0.0006  0.0006  0.0017  0.0103 </r>
        <r>  0.0071  0.0015  0.0000  0.0029  0.0000  0.0000  0.0000  0.0000  0.0000 </r>
       </set>
       <set comment="band 25">
        <r>  0.0466  0.0239  0.0021  0.0037  0.0190  0.0043  0.0061  0.0027  0.0045 </r>
        <r>  0.0026  0.1141  0.0195  0.0076  0.0880  0.0023  0.0000  0.0040  0.0038 </r>
        <r>  0.0689  0.0686  0.0153  0.0045  0.0539  0.0000  0.0150  0.0031  0.0001 </r>
        <r>  0.0828  0.0000  0.0018  0.0033  0.0000  0.0001  0.0114  0.0016  0.0000 </r>
        <r>  0.0001  0.0011  0.0000  0.0009  0.0000  0.0000  0.0000  0.0000  0.0000 </r>
       </set>
       <set comment="band 26">
        <r>  0.0004  0.0520  0.0019  0.0079  0.0372  0.0053  0.0007  0.0002  0.0025 </r>
        <r>  0.1086  0.0367  0.0038  0.0081  0.0258  0.0017  0.0181  0.0005  0.0002 </r>
        <r>  0.0044  0.0317  0.0009  0.0224  0.0231  0.0006  0.0031  0.0322  0.0065 </r>
        <r>  0.1314  0.0282  0.0019  0.0070  0.0221  0.0114  0.0073  0.0000  0.0047 </r>
        <r>  0.0115  0.0002  0.0000  0.0076  0.0000  0.0000  0.0000  0.0000  0.0000 </r>
       </set>
       <set comment="band 27">
        <r>  0.0450  0.0042  0.0185  0.0407  0.0030  0.0003  0.0142  0.0001  0.0090 </r>
        <r>  0.0038  0.0376  0.0010  0.0539  0.0260  0.0060  0.0052  0.0116  0.0167 </r>
        <r>  0.0431  0.0157  0.0048  0.0191  0.0113  0.0234  0.0015  0.0034  0.0108 </r>
        <r>  0.0278  0.0688  0.0167  0.0343  0.0396  0.0003  0.0075  0.0111  0.0061 </r>
        <r>  0.0004  0.0034  0.0001  0.0019  0.0000  0.0000  0.0000  0.0000  0.0000 </r>
       </set>
       <set comment="band 28">
        <r>  0.0478  0.0073  0.0025  0.0040  0.0045  0.0001  0.0021  0.0086  0.0031 </r>
        <r>  0.0671  0.0106  0.0011  0.0050  0.0067  0.0000  0.0025  0.0017  0.0042 </r>
        <r>  0.0533  0.0042  0.0475  0.0001  0.0026  0.0074  0.0034  0.0061  0.0007 </r>
        <r>  0.1118  0.0023  0.0515  0.0436  0.0008  0.0127  0.0081  0.0331  0.0047 </r>
        <r>  0.0113  0.0066  0.0014  0.0055  0.0000  0.0000  0.0000  0.0000  0.0000 </r>
       </set>
      </set>
     </set>
    </set>
   </array>
  </projected>
 </calculation>
 <structure name="finalpos" >
  <crystal>
   <varray name="basis" >
    <v>       2.57386868       0.00000000       0.00000000 </v>
    <v>       1.28693434       2.22903567       0.00000000 </v>
    <v>       0.00000000       0.00000000      30.30466494 </v>
   </varray>
   <i name="volume">    173.86529028 </i>
   <varray name="rec_basis" >
    <v>       0.38852021      -0.22431225       0.00000000 </v>
    <v>       0.00000000       0.44862450       0.00000000 </v>
    <v>       0.00000000       0.00000000       0.03299822 </v>
   </varray>
  </crystal>
  <varray name="positions" >
   <v>       0.00000000       0.00000000       0.39642698 </v>
   <v>       0.33333333       0.33333333       0.46516162 </v>
   <v>       0.66666667       0.66666667       0.53388942 </v>
   <v>       0.00000000       0.00000000       0.60671226 </v>
   <v>       0.66666667       0.66666667       0.63482930 </v>
  </varray>
 </structure>
</modeling>
