unknown system                          
           1
     2.573869    0.000000    0.000000
     1.286934    2.229036    0.000000
     0.000000    0.000000   30.304665
   Cu   H 
   4   1
Direct configuration=     1
   0.00000000  0.00000000  0.39642698
   0.33333333  0.33333333  0.46516162
   0.66666667  0.66666667  0.53388942
   0.00000000  0.00000000  0.60671226
   0.66666667  0.66666667  0.63482930
