  20  20   0   0
  0.1231718E+02  0.3946846E-09  0.3946846E-09  0.1581396E-08  0.5000000E-15
  1.000000000000000E-004
  CAR 
 unknown system                          
     11.97194197    -32.43798193  301      2.42380833      1.00000000
    -32.438  0.0000E+00  0.0000E+00
    -32.290  0.0000E+00  0.0000E+00
    -32.142  0.0000E+00  0.0000E+00
    -31.994  0.0000E+00  0.0000E+00
    -31.846  0.0000E+00  0.0000E+00
    -31.698  0.0000E+00  0.0000E+00
    -31.550  0.0000E+00  0.0000E+00
    -31.402  0.0000E+00  0.0000E+00
    -31.254  0.0000E+00  0.0000E+00
    -31.106  0.0000E+00  0.0000E+00
    -30.958  0.0000E+00  0.0000E+00
    -30.810  0.0000E+00  0.0000E+00
    -30.662  0.0000E+00  0.0000E+00
    -30.514  0.0000E+00  0.0000E+00
    -30.366  0.1385E+03  0.6960E+01
    -30.217  0.0000E+00  0.8000E+01
    -30.069  0.0000E+00  0.8000E+01
    -29.921  0.0000E+00  0.8000E+01
    -29.773  0.0000E+00  0.8000E+01
    -29.625  0.0000E+00  0.8000E+01
    -29.477  0.0000E+00  0.8000E+01
    -29.329  0.0000E+00  0.8000E+01
    -29.181  0.0000E+00  0.8000E+01
    -29.033  0.0000E+00  0.8000E+01
    -28.885  0.0000E+00  0.8000E+01
    -28.737  0.0000E+00  0.8000E+01
    -28.589  0.0000E+00  0.8000E+01
    -28.441  0.0000E+00  0.8000E+01
    -28.293  0.0000E+00  0.8000E+01
    -28.145  0.0000E+00  0.8000E+01
    -27.997  0.0000E+00  0.8000E+01
    -27.849  0.0000E+00  0.8000E+01
    -27.701  0.0000E+00  0.8000E+01
    -27.553  0.0000E+00  0.8000E+01
    -27.405  0.0000E+00  0.8000E+01
    -27.257  0.0000E+00  0.8000E+01
    -27.109  0.0000E+00  0.8000E+01
    -26.961  0.0000E+00  0.8000E+01
    -26.813  0.0000E+00  0.8000E+01
    -26.665  0.0000E+00  0.8000E+01
    -26.517  0.0000E+00  0.8000E+01
    -26.369  0.0000E+00  0.8000E+01
    -26.221  0.0000E+00  0.8000E+01
    -26.073  0.0000E+00  0.8000E+01
    -25.925  0.0000E+00  0.8000E+01
    -25.776  0.0000E+00  0.8000E+01
    -25.628  0.0000E+00  0.8000E+01
    -25.480  0.0000E+00  0.8000E+01
    -25.332  0.0000E+00  0.8000E+01
    -25.184  0.0000E+00  0.8000E+01
    -25.036  0.0000E+00  0.8000E+01
    -24.888  0.0000E+00  0.8000E+01
    -24.740  0.0000E+00  0.8000E+01
    -24.592  0.0000E+00  0.8000E+01
    -24.444  0.0000E+00  0.8000E+01
    -24.296  0.0000E+00  0.8000E+01
    -24.148  0.0000E+00  0.8000E+01
    -24.000  0.0000E+00  0.8000E+01
    -23.852  0.0000E+00  0.8000E+01
    -23.704  0.0000E+00  0.8000E+01
    -23.556  0.0000E+00  0.8000E+01
    -23.408  0.0000E+00  0.8000E+01
    -23.260  0.0000E+00  0.8000E+01
    -23.112  0.0000E+00  0.8000E+01
    -22.964  0.0000E+00  0.8000E+01
    -22.816  0.0000E+00  0.8000E+01
    -22.668  0.0000E+00  0.8000E+01
    -22.520  0.0000E+00  0.8000E+01
    -22.372  0.0000E+00  0.8000E+01
    -22.224  0.0000E+00  0.8000E+01
    -22.076  0.0000E+00  0.8000E+01
    -21.928  0.0000E+00  0.8000E+01
    -21.780  0.0000E+00  0.8000E+01
    -21.632  0.0000E+00  0.8000E+01
    -21.484  0.0000E+00  0.8000E+01
    -21.336  0.0000E+00  0.8000E+01
    -21.187  0.0000E+00  0.8000E+01
    -21.039  0.0000E+00  0.8000E+01
    -20.891  0.0000E+00  0.8000E+01
    -20.743  0.0000E+00  0.8000E+01
    -20.595  0.0000E+00  0.8000E+01
    -20.447  0.0000E+00  0.8000E+01
    -20.299  0.0000E+00  0.8000E+01
    -20.151  0.0000E+00  0.8000E+01
    -20.003  0.0000E+00  0.8000E+01
    -19.855  0.0000E+00  0.8000E+01
    -19.707  0.0000E+00  0.8000E+01
    -19.559  0.0000E+00  0.8000E+01
    -19.411  0.0000E+00  0.8000E+01
    -19.263  0.0000E+00  0.8000E+01
    -19.115  0.0000E+00  0.8000E+01
    -18.967  0.0000E+00  0.8000E+01
    -18.819  0.0000E+00  0.8000E+01
    -18.671  0.0000E+00  0.8000E+01
    -18.523  0.0000E+00  0.8000E+01
    -18.375  0.0000E+00  0.8000E+01
    -18.227  0.0000E+00  0.8000E+01
    -18.079  0.0000E+00  0.8000E+01
    -17.931  0.0000E+00  0.8000E+01
    -17.783  0.0000E+00  0.8000E+01
    -17.635  0.0000E+00  0.8000E+01
    -17.487  0.0000E+00  0.8000E+01
    -17.339  0.0000E+00  0.8000E+01
    -17.191  0.0000E+00  0.8000E+01
    -17.043  0.0000E+00  0.8000E+01
    -16.895  0.0000E+00  0.8000E+01
    -16.746  0.0000E+00  0.8000E+01
    -16.598  0.0000E+00  0.8000E+01
    -16.450  0.0000E+00  0.8000E+01
    -16.302  0.0000E+00  0.8000E+01
    -16.154  0.0000E+00  0.8000E+01
    -16.006  0.0000E+00  0.8000E+01
    -15.858  0.0000E+00  0.8000E+01
    -15.710  0.0000E+00  0.8000E+01
    -15.562  0.0000E+00  0.8000E+01
    -15.414  0.0000E+00  0.8000E+01
    -15.266  0.0000E+00  0.8000E+01
    -15.118  0.8674E-01  0.8000E+01
    -14.970  0.1144E+02  0.8887E+01
    -14.822  0.2155E+02  0.1096E+02
    -14.674  0.8348E+01  0.1303E+02
    -14.526  0.6399E+01  0.1409E+02
    -14.378  0.5492E+01  0.1491E+02
    -14.230  0.2544E+01  0.1553E+02
    -14.082  0.2641E+02  0.1747E+02
    -13.934  0.4980E+02  0.2421E+02
    -13.786  0.4337E+01  0.3190E+02
    -13.638  0.0000E+00  0.3200E+02
    -13.490  0.0000E+00  0.3200E+02
    -13.342  0.0000E+00  0.3200E+02
    -13.194  0.0000E+00  0.3200E+02
    -13.046  0.0000E+00  0.3200E+02
    -12.898  0.0000E+00  0.3200E+02
    -12.750  0.0000E+00  0.3200E+02
    -12.602  0.7263E+01  0.3237E+02
    -12.454  0.6486E+02  0.3606E+02
    -12.305  0.3187E+02  0.4432E+02
    -12.157  0.5743E+02  0.4984E+02
    -12.009  0.1072E+02  0.5535E+02
    -11.861  0.0000E+00  0.5600E+02
    -11.713  0.0000E+00  0.5600E+02
    -11.565  0.0000E+00  0.5600E+02
    -11.417  0.0000E+00  0.5600E+02
    -11.269  0.0000E+00  0.5600E+02
    -11.121  0.0000E+00  0.5600E+02
    -10.973  0.0000E+00  0.5600E+02
    -10.825  0.0000E+00  0.5600E+02
    -10.677  0.0000E+00  0.5600E+02
    -10.529  0.0000E+00  0.5600E+02
    -10.381  0.0000E+00  0.5600E+02
    -10.233  0.0000E+00  0.5600E+02
    -10.085  0.0000E+00  0.5600E+02
     -9.937  0.0000E+00  0.5600E+02
     -9.789  0.0000E+00  0.5600E+02
     -9.641  0.0000E+00  0.5600E+02
     -9.493  0.0000E+00  0.5600E+02
     -9.345  0.0000E+00  0.5600E+02
     -9.197  0.0000E+00  0.5600E+02
     -9.049  0.0000E+00  0.5600E+02
     -8.901  0.0000E+00  0.5600E+02
     -8.753  0.0000E+00  0.5600E+02
     -8.605  0.0000E+00  0.5600E+02
     -8.457  0.0000E+00  0.5600E+02
     -8.309  0.0000E+00  0.5600E+02
     -8.161  0.0000E+00  0.5600E+02
     -8.013  0.0000E+00  0.5600E+02
     -7.864  0.0000E+00  0.5600E+02
     -7.716  0.0000E+00  0.5600E+02
     -7.568  0.0000E+00  0.5600E+02
     -7.420  0.0000E+00  0.5600E+02
     -7.272  0.0000E+00  0.5600E+02
     -7.124  0.0000E+00  0.5600E+02
     -6.976  0.0000E+00  0.5600E+02
     -6.828  0.0000E+00  0.5600E+02
     -6.680  0.0000E+00  0.5600E+02
     -6.532  0.0000E+00  0.5600E+02
     -6.384  0.0000E+00  0.5600E+02
     -6.236  0.0000E+00  0.5600E+02
     -6.088  0.0000E+00  0.5600E+02
     -5.940  0.0000E+00  0.5600E+02
     -5.792  0.0000E+00  0.5600E+02
     -5.644  0.0000E+00  0.5600E+02
     -5.496  0.0000E+00  0.5600E+02
     -5.348  0.0000E+00  0.5600E+02
     -5.200  0.0000E+00  0.5600E+02
     -5.052  0.0000E+00  0.5600E+02
     -4.904  0.0000E+00  0.5600E+02
     -4.756  0.0000E+00  0.5600E+02
     -4.608  0.0000E+00  0.5600E+02
     -4.460  0.0000E+00  0.5600E+02
     -4.312  0.0000E+00  0.5600E+02
     -4.164  0.0000E+00  0.5600E+02
     -4.016  0.0000E+00  0.5600E+02
     -3.868  0.0000E+00  0.5600E+02
     -3.720  0.0000E+00  0.5600E+02
     -3.572  0.0000E+00  0.5600E+02
     -3.423  0.0000E+00  0.5600E+02
     -3.275  0.0000E+00  0.5600E+02
     -3.127  0.0000E+00  0.5600E+02
     -2.979  0.0000E+00  0.5600E+02
     -2.831  0.0000E+00  0.5600E+02
     -2.683  0.0000E+00  0.5600E+02
     -2.535  0.0000E+00  0.5600E+02
     -2.387  0.0000E+00  0.5600E+02
     -2.239  0.0000E+00  0.5600E+02
     -2.091  0.0000E+00  0.5600E+02
     -1.943  0.1085E+02  0.5716E+02
     -1.795  0.8978E+01  0.6030E+02
     -1.647  0.1044E+02  0.6198E+02
     -1.499  0.1560E+02  0.6490E+02
     -1.351  0.2034E+02  0.6729E+02
     -1.203  0.1522E+02  0.6952E+02
     -1.055  0.1620E+02  0.7204E+02
     -0.907  0.1920E+02  0.7541E+02
     -0.759  0.2091E+02  0.7893E+02
     -0.611  0.2787E+02  0.8247E+02
     -0.463  0.3459E+02  0.8696E+02
     -0.315  0.1174E+02  0.9076E+02
     -0.167  0.1236E+02  0.9258E+02
     -0.019  0.1050E+02  0.9427E+02
      0.129  0.1243E+02  0.9599E+02
      0.277  0.7815E+01  0.9739E+02
      0.425  0.9046E+01  0.9865E+02
      0.573  0.1237E+02  0.1005E+03
      0.721  0.1389E+02  0.1022E+03
      0.869  0.7555E+01  0.1035E+03
      1.017  0.1466E+02  0.1053E+03
      1.166  0.2057E+02  0.1078E+03
      1.314  0.2707E+02  0.1113E+03
      1.462  0.1950E+02  0.1144E+03
      1.610  0.2424E+02  0.1180E+03
      1.758  0.1504E+02  0.1213E+03
      1.906  0.1367E+02  0.1242E+03
      2.054  0.6802E+01  0.1258E+03
      2.202  0.5634E+01  0.1267E+03
      2.350  0.4627E+01  0.1279E+03
      2.498  0.0000E+00  0.1280E+03
      2.646  0.0000E+00  0.1280E+03
      2.794  0.0000E+00  0.1280E+03
      2.942  0.0000E+00  0.1280E+03
      3.090  0.0000E+00  0.1280E+03
      3.238  0.0000E+00  0.1280E+03
      3.386  0.0000E+00  0.1280E+03
      3.534  0.0000E+00  0.1280E+03
      3.682  0.0000E+00  0.1280E+03
      3.830  0.0000E+00  0.1280E+03
      3.978  0.0000E+00  0.1280E+03
      4.126  0.1608E+01  0.1281E+03
      4.274  0.3412E+01  0.1285E+03
      4.422  0.4012E+01  0.1291E+03
      4.570  0.3746E+01  0.1298E+03
      4.718  0.3759E+01  0.1303E+03
      4.866  0.4023E+01  0.1309E+03
      5.014  0.4483E+01  0.1315E+03
      5.162  0.1717E+02  0.1335E+03
      5.310  0.1235E+02  0.1357E+03
      5.458  0.1237E+02  0.1375E+03
      5.607  0.1339E+02  0.1394E+03
      5.755  0.2711E+02  0.1416E+03
      5.903  0.2721E+02  0.1454E+03
      6.051  0.9683E+01  0.1481E+03
      6.199  0.2915E+01  0.1490E+03
      6.347  0.5242E+00  0.1494E+03
      6.495  0.5222E+00  0.1494E+03
      6.643  0.5202E+00  0.1495E+03
      6.791  0.5183E+00  0.1496E+03
      6.939  0.5163E+00  0.1497E+03
      7.087  0.5143E+00  0.1497E+03
      7.235  0.5123E+00  0.1498E+03
      7.383  0.5103E+00  0.1499E+03
      7.531  0.5083E+00  0.1500E+03
      7.679  0.5063E+00  0.1500E+03
      7.827  0.5550E+00  0.1501E+03
      7.975  0.7256E+00  0.1502E+03
      8.123  0.8962E+00  0.1503E+03
      8.271  0.9366E+00  0.1505E+03
      8.419  0.9469E+00  0.1506E+03
      8.567  0.9573E+00  0.1508E+03
      8.715  0.9677E+00  0.1509E+03
      8.863  0.9782E+00  0.1510E+03
      9.011  0.9439E+00  0.1512E+03
      9.159  0.8532E+00  0.1513E+03
      9.307  0.7626E+00  0.1514E+03
      9.455  0.4962E+00  0.1516E+03
      9.603  0.8017E+00  0.1517E+03
      9.751  0.7768E+00  0.1518E+03
      9.899  0.7519E+00  0.1520E+03
     10.048  0.0000E+00  0.1520E+03
     10.196  0.0000E+00  0.1520E+03
     10.344  0.0000E+00  0.1520E+03
     10.492  0.0000E+00  0.1520E+03
     10.640  0.0000E+00  0.1520E+03
     10.788  0.0000E+00  0.1520E+03
     10.936  0.0000E+00  0.1520E+03
     11.084  0.0000E+00  0.1520E+03
     11.232  0.0000E+00  0.1520E+03
     11.380  0.0000E+00  0.1520E+03
     11.528  0.0000E+00  0.1520E+03
     11.676  0.0000E+00  0.1520E+03
     11.824  0.0000E+00  0.1520E+03
     11.972  0.0000E+00  0.1520E+03
