<?xml version="1.0" encoding="ISO-8859-1"?>
<modeling>
 <generator>
  <i name="program" type="string">vasp </i>
  <i name="version" type="string">5.4.4.18Apr17-6-g9f103f2a35  </i>
  <i name="subversion" type="string">(build Jun 30 2017 11:15:00) complex            parallel </i>
  <i name="platform" type="string">STALLO_VASP_5.4.4 </i>
  <i name="date" type="string">2019 11 08 </i>
  <i name="time" type="string">10:18:32 </i>
 </generator>
 <incar>
  <i type="string" name="PREC">normal    ! low/normal/accurate</i>
  <i type="string" name="ALGO"> Fast      ! Algorithm for electronic re</i>
  <i type="int" name="ISPIN">     1</i>
  <i type="int" name="NELMIN">     4</i>
  <i name="EDIFF">      0.00001000</i>
  <i type="int" name="NSW">     0</i>
  <i name="ENCUT">    500.00000000</i>
  <i type="logical" name="LREAL"> F  </i>
  <i type="int" name="ISMEAR">    -5</i>
  <i name="SIGMA">      0.20000000</i>
  <i type="logical" name="LWAVE"> F  </i>
  <v type="int" name="KPOINT_BSE">    -1     0     0     0</v>
 </incar>
 <structure name="primitive_cell" >
  <crystal>
   <varray name="basis" >
    <v>       3.94684634       0.00000000       0.00000000 </v>
    <v>       0.00000000       3.94684634       0.00000000 </v>
    <v>       0.00000000       0.00000000      15.81396220 </v>
   </varray>
   <i name="volume">    246.34351494 </i>
   <varray name="rec_basis" >
    <v>       0.25336684       0.00000000       0.00000000 </v>
    <v>       0.00000000       0.25336684       0.00000000 </v>
    <v>       0.00000000       0.00000000       0.06323526 </v>
   </varray>
  </crystal>
  <varray name="positions" >
   <v>      -0.50000000      -0.50000000       0.06323526 </v>
   <v>      -0.50000000      -0.50000000       0.18802519 </v>
   <v>      -0.50000000      -0.50000000      -0.06323526 </v>
   <v>       0.00000000       0.00000000       0.06323526 </v>
   <v>      -0.50000000       0.00000000       0.18802519 </v>
   <v>       0.00000000      -0.50000000       0.18802519 </v>
   <v>      -0.50000000       0.00000000      -0.06323526 </v>
   <v>       0.00000000      -0.50000000      -0.06323526 </v>
   <v>      -0.50000000      -0.50000000       0.31281511 </v>
   <v>      -0.50000000      -0.50000000      -0.18802519 </v>
   <v>       0.00000000       0.00000000       0.31281511 </v>
   <v>       0.00000000       0.00000000      -0.18802519 </v>
   <v>      -0.50000000      -0.50000000       0.43760504 </v>
   <v>      -0.50000000      -0.50000000      -0.31281511 </v>
   <v>      -0.50000000       0.00000000       0.43760504 </v>
   <v>       0.00000000      -0.50000000       0.43760504 </v>
   <v>      -0.50000000       0.00000000      -0.31281511 </v>
   <v>       0.00000000      -0.50000000      -0.31281511 </v>
   <v>      -0.50000000      -0.50000000      -0.43760504 </v>
   <v>       0.00000000       0.00000000      -0.43760504 </v>
  </varray>
 </structure>
 <varray name="primitive_index" >
  <v type="int" >        1 </v>
  <v type="int" >       17 </v>
  <v type="int" >       20 </v>
  <v type="int" >       13 </v>
  <v type="int" >        2 </v>
  <v type="int" >        3 </v>
  <v type="int" >       11 </v>
  <v type="int" >       12 </v>
  <v type="int" >        4 </v>
  <v type="int" >       10 </v>
  <v type="int" >       14 </v>
  <v type="int" >       16 </v>
  <v type="int" >       18 </v>
  <v type="int" >       19 </v>
  <v type="int" >        5 </v>
  <v type="int" >        6 </v>
  <v type="int" >        8 </v>
  <v type="int" >        9 </v>
  <v type="int" >        7 </v>
  <v type="int" >       15 </v>
 </varray>
 <kpoints>
  <generation param="Gamma">
   <v type="int" name="divisions">       7        7        1 </v>
   <v name="usershift">      0.00000000       0.00000000       0.00000000 </v>
   <v name="genvec1">      0.14285714       0.00000000       0.00000000 </v>
   <v name="genvec2">      0.00000000       0.14285714       0.00000000 </v>
   <v name="genvec3">      0.00000000       0.00000000       1.00000000 </v>
   <v name="shift">      0.00000000       0.00000000       0.00000000 </v>
  </generation>
  <varray name="kpointlist" >
   <v>       0.00000000       0.00000000       0.00000000 </v>
   <v>       0.14285714       0.00000000       0.00000000 </v>
   <v>       0.28571429       0.00000000       0.00000000 </v>
   <v>       0.42857143       0.00000000       0.00000000 </v>
   <v>       0.14285714       0.14285714       0.00000000 </v>
   <v>       0.28571429       0.14285714       0.00000000 </v>
   <v>       0.42857143       0.14285714       0.00000000 </v>
   <v>       0.28571429       0.28571429       0.00000000 </v>
   <v>       0.42857143       0.28571429       0.00000000 </v>
   <v>       0.42857143       0.42857143       0.00000000 </v>
  </varray>
  <varray name="weights" >
   <v>       0.02040816 </v>
   <v>       0.08163265 </v>
   <v>       0.08163265 </v>
   <v>       0.08163265 </v>
   <v>       0.08163265 </v>
   <v>       0.16326531 </v>
   <v>       0.16326531 </v>
   <v>       0.08163265 </v>
   <v>       0.16326531 </v>
   <v>       0.08163265 </v>
  </varray>
  <varray name="tetrahedronlist"  type="int" >
   <v type="int" >        4        1        1        2        5 </v>
   <v type="int" >        4        1        2        2        5 </v>
   <v type="int" >        4        1        2        5        5 </v>
   <v type="int" >        4        2        2        3        6 </v>
   <v type="int" >        4        2        2        5        6 </v>
   <v type="int" >        4        2        5        5        6 </v>
   <v type="int" >        4        2        3        3        6 </v>
   <v type="int" >        4        2        3        6        6 </v>
   <v type="int" >        4        2        5        6        6 </v>
   <v type="int" >        4        3        3        4        7 </v>
   <v type="int" >        4        3        3        6        7 </v>
   <v type="int" >        4        3        6        6        7 </v>
   <v type="int" >        4        3        4        4        7 </v>
   <v type="int" >        4        3        4        7        7 </v>
   <v type="int" >        4        3        6        7        7 </v>
   <v type="int" >        8        4        4        4        7 </v>
   <v type="int" >        8        4        4        7        7 </v>
   <v type="int" >        8        4        7        7        7 </v>
   <v type="int" >        4        3        4        4        6 </v>
   <v type="int" >        4        4        4        6        7 </v>
   <v type="int" >        4        4        6        7        7 </v>
   <v type="int" >        4        3        3        4        6 </v>
   <v type="int" >        4        3        4        6        6 </v>
   <v type="int" >        4        4        6        6        7 </v>
   <v type="int" >        4        2        3        3        5 </v>
   <v type="int" >        4        3        3        5        6 </v>
   <v type="int" >        4        3        5        6        6 </v>
   <v type="int" >        4        2        2        3        5 </v>
   <v type="int" >        4        2        3        5        5 </v>
   <v type="int" >        4        3        5        5        6 </v>
   <v type="int" >        4        1        2        2        2 </v>
   <v type="int" >        4        2        2        2        5 </v>
   <v type="int" >        2        2        2        5        5 </v>
   <v type="int" >        2        1        1        2        2 </v>
   <v type="int" >        4        5        5        6        8 </v>
   <v type="int" >        4        5        6        6        8 </v>
   <v type="int" >        4        5        6        8        8 </v>
   <v type="int" >        4        6        6        7        9 </v>
   <v type="int" >        4        6        6        8        9 </v>
   <v type="int" >        4        6        8        8        9 </v>
   <v type="int" >        4        6        7        7        9 </v>
   <v type="int" >        4        6        7        9        9 </v>
   <v type="int" >        4        6        8        9        9 </v>
   <v type="int" >        8        7        7        7        9 </v>
   <v type="int" >        8        7        7        9        9 </v>
   <v type="int" >        8        7        9        9        9 </v>
   <v type="int" >        4        6        7        7        8 </v>
   <v type="int" >        4        7        7        8        9 </v>
   <v type="int" >        4        7        8        9        9 </v>
   <v type="int" >        4        6        6        7        8 </v>
   <v type="int" >        4        6        7        8        8 </v>
   <v type="int" >        4        7        8        8        9 </v>
   <v type="int" >        4        5        6        6        6 </v>
   <v type="int" >        4        6        6        6        8 </v>
   <v type="int" >        2        6        6        8        8 </v>
   <v type="int" >        2        5        5        6        6 </v>
   <v type="int" >        4        8        8        9       10 </v>
   <v type="int" >        4        8        9        9       10 </v>
   <v type="int" >        4        8        9       10       10 </v>
   <v type="int" >       12        9        9        9       10 </v>
   <v type="int" >       10        9        9       10       10 </v>
   <v type="int" >        8        9       10       10       10 </v>
   <v type="int" >        4        8        9        9        9 </v>
   <v type="int" >        2        8        8        9        9 </v>
   <v type="int" >        6       10       10       10       10 </v>
  </varray>
  <i name="volumeweight">      0.00340136 </i>
 </kpoints>
 <parameters>
  <separator name="general" >
   <i type="string" name="SYSTEM">unknown system</i>
   <i type="logical" name="LCOMPAT"> F  </i>
  </separator>
  <separator name="electronic" >
   <i type="string" name="PREC">normal</i>
   <i name="ENMAX">    500.00000000</i>
   <i name="ENAUG">    605.39200000</i>
   <i name="EDIFF">      0.00001000</i>
   <i type="int" name="IALGO">    68</i>
   <i type="int" name="IWAVPR">    10</i>
   <i type="int" name="NBANDS">    76</i>
   <i name="NELECT">    128.00000000</i>
   <i type="int" name="TURBO">     0</i>
   <i type="int" name="IRESTART">     0</i>
   <i type="int" name="NREBOOT">     0</i>
   <i type="int" name="NMIN">     0</i>
   <i name="EREF">      0.00000000</i>
   <separator name="electronic smearing" >
    <i type="int" name="ISMEAR">    -5</i>
    <i name="SIGMA">      0.20000000</i>
    <i name="KSPACING">      0.50000000</i>
    <i type="logical" name="KGAMMA"> T  </i>
   </separator>
   <separator name="electronic projectors" >
    <i type="logical" name="LREAL"> F  </i>
    <v name="ROPT">      0.00000000      0.00000000      0.00000000</v>
    <i type="int" name="LMAXPAW">  -100</i>
    <i type="int" name="LMAXMIX">     2</i>
    <i type="logical" name="NLSPLINE"> F  </i>
   </separator>
   <separator name="electronic startup" >
    <i type="int" name="ISTART">     0</i>
    <i type="int" name="ICHARG">     2</i>
    <i type="int" name="INIWAV">     1</i>
   </separator>
   <separator name="electronic spin" >
    <i type="int" name="ISPIN">     1</i>
    <i type="logical" name="LNONCOLLINEAR"> F  </i>
    <v name="MAGMOM">      1.00000000      1.00000000      1.00000000      1.00000000      1.00000000      1.00000000      1.00000000      1.00000000      1.00000000      1.00000000      1.00000000      1.00000000      1.00000000      1.00000000      1.00000000      1.00000000      1.00000000      1.00000000      1.00000000      1.00000000
</v>
    <i name="NUPDOWN">     -1.00000000</i>
    <i type="logical" name="LSORBIT"> F  </i>
    <v name="SAXIS">      0.00000000      0.00000000      1.00000000</v>
    <i type="logical" name="LSPIRAL"> F  </i>
    <v name="QSPIRAL">      0.00000000      0.00000000      0.00000000</v>
    <i type="logical" name="LZEROZ"> F  </i>
   </separator>
   <separator name="electronic exchange-correlation" >
    <i type="logical" name="LASPH"> F  </i>
    <i type="logical" name="LMETAGGA"> F  </i>
   </separator>
   <separator name="electronic convergence" >
    <i type="int" name="NELM">    60</i>
    <i type="int" name="NELMDL">    -5</i>
    <i type="int" name="NELMIN">     4</i>
    <i name="ENINI">    500.00000000</i>
    <separator name="electronic convergence detail" >
     <i type="logical" name="LDIAG"> T  </i>
     <i type="logical" name="LSUBROT"> F  </i>
     <i name="WEIMIN">      0.00000000</i>
     <i name="EBREAK">      0.00000003</i>
     <i name="DEPER">      0.30000000</i>
     <i type="int" name="NRMM">     4</i>
     <i name="TIME">      0.40000000</i>
    </separator>
   </separator>
   <separator name="electronic mixer" >
    <i name="AMIX">      0.40000000</i>
    <i name="BMIX">      1.00000000</i>
    <i name="AMIN">      0.10000000</i>
    <i name="AMIX_MAG">      1.60000000</i>
    <i name="BMIX_MAG">      1.00000000</i>
    <separator name="electronic mixer details" >
     <i type="int" name="IMIX">     4</i>
     <i type="logical" name="MIXFIRST"> F  </i>
     <i type="int" name="MAXMIX">   -45</i>
     <i name="WC">    100.00000000</i>
     <i type="int" name="INIMIX">     1</i>
     <i type="int" name="MIXPRE">     1</i>
     <i type="int" name="MREMOVE">     5</i>
    </separator>
   </separator>
   <separator name="electronic dipolcorrection" >
    <i type="logical" name="LDIPOL"> F  </i>
    <i type="logical" name="LMONO"> F  </i>
    <i type="int" name="IDIPOL">     0</i>
    <i name="EPSILON">      1.00000000</i>
    <v name="DIPOL">   -100.00000000   -100.00000000   -100.00000000</v>
    <i name="EFIELD">      0.00000000</i>
   </separator>
  </separator>
  <separator name="grids" >
   <i type="int" name="NGX">    24</i>
   <i type="int" name="NGY">    24</i>
   <i type="int" name="NGZ">    90</i>
   <i type="int" name="NGXF">    48</i>
   <i type="int" name="NGYF">    48</i>
   <i type="int" name="NGZF">   180</i>
   <i type="logical" name="ADDGRID"> F  </i>
  </separator>
  <separator name="ionic" >
   <i type="int" name="NSW">     0</i>
   <i type="int" name="IBRION">    -1</i>
   <i type="int" name="MDALGO">     0</i>
   <i type="int" name="ISIF">     2</i>
   <i name="PSTRESS">      0.00000000</i>
   <i name="EDIFFG">      0.00010000</i>
   <i type="int" name="NFREE">     0</i>
   <i name="POTIM">      0.50000000</i>
   <i name="SMASS">     -3.00000000</i>
   <i name="SCALEE">      1.00000000</i>
  </separator>
  <separator name="ionic md" >
   <i name="TEBEG">      0.00010000</i>
   <i name="TEEND">      0.00010000</i>
   <i type="int" name="NBLOCK">     1</i>
   <i type="int" name="KBLOCK">     1</i>
   <i type="int" name="NPACO">   256</i>
   <i name="APACO">     16.00000000</i>
  </separator>
  <separator name="symmetry" >
   <i type="int" name="ISYM">     2</i>
   <i name="SYMPREC">      0.00001000</i>
  </separator>
  <separator name="dos" >
   <i type="int" name="LORBIT">     0</i>
   <v name="RWIGS">     -1.00000000     -1.00000000     -1.00000000</v>
   <i type="int" name="NEDOS">   301</i>
   <i name="EMIN">     10.00000000</i>
   <i name="EMAX">    -10.00000000</i>
   <i name="EFERMI">      0.00000000</i>
  </separator>
  <separator name="writing" >
   <i type="int" name="NWRITE">     2</i>
   <i type="logical" name="LWAVE"> F  </i>
   <i type="logical" name="LDOWNSAMPLE"> F  </i>
   <i type="logical" name="LCHARG"> T  </i>
   <i type="logical" name="LPARD"> F  </i>
   <i type="logical" name="LVTOT"> F  </i>
   <i type="logical" name="LVHAR"> F  </i>
   <i type="logical" name="LELF"> F  </i>
   <i type="logical" name="LOPTICS"> F  </i>
   <v name="STM">      0.00000000      0.00000000      0.00000000      0.00000000      0.00000000      0.00000000      0.00000000</v>
  </separator>
  <separator name="performance" >
   <i type="int" name="NPAR">     2</i>
   <i type="int" name="NSIM">     4</i>
   <i type="int" name="NBLK">    -1</i>
   <i type="logical" name="LPLANE"> T  </i>
   <i type="logical" name="LSCALAPACK"> T  </i>
   <i type="logical" name="LSCAAWARE"> F  </i>
   <i type="logical" name="LSCALU"> F  </i>
   <i type="logical" name="LASYNC"> F  </i>
   <i type="logical" name="LORBITALREAL"> F  </i>
  </separator>
  <separator name="miscellaneous" >
   <i type="int" name="IDIOT">     3</i>
   <i type="int" name="ISPECIAL">     0</i>
   <i type="logical" name="LMUSIC"> F  </i>
   <v name="POMASS">     16.00000000     87.62000000     47.88000000</v>
   <v name="DARWINR">      0.00000000      0.00000000      0.00000000</v>
   <v name="DARWINV">      1.00000000      1.00000000      1.00000000</v>
   <i type="logical" name="LCORR"> T  </i>
  </separator>
  <i type="logical" name="GGA_COMPAT"> T  </i>
  <i type="logical" name="LBERRY"> F  </i>
  <i type="int" name="ICORELEVEL">     0</i>
  <i type="logical" name="LDAU"> F  </i>
  <i type="int" name="I_CONSTRAINED_M">     0</i>
  <separator name="electronic exchange-correlation" >
   <i type="string" name="GGA">--</i>
   <i type="int" name="VOSKOWN">     0</i>
   <i type="logical" name="LHFCALC"> F  </i>
   <i type="string" name="PRECFOCK"></i>
   <i type="logical" name="LSYMGRAD"> F  </i>
   <i type="logical" name="LHFONE"> F  </i>
   <i type="logical" name="LRHFCALC"> F  </i>
   <i type="logical" name="LTHOMAS"> F  </i>
   <i type="logical" name="LMODELHF"> F  </i>
   <i name="ENCUT4O">     -1.00000000</i>
   <i type="int" name="EXXOEP">     0</i>
   <i type="int" name="FOURORBIT">     0</i>
   <i name="AEXX">      0.00000000</i>
   <i name="HFALPHA">      0.00000000</i>
   <i name="MCALPHA">      0.00000000</i>
   <i name="ALDAX">      1.00000000</i>
   <i name="AGGAX">      1.00000000</i>
   <i name="ALDAC">      1.00000000</i>
   <i name="AGGAC">      1.00000000</i>
   <i type="int" name="NKREDX">     1</i>
   <i type="int" name="NKREDY">     1</i>
   <i type="int" name="NKREDZ">     1</i>
   <i type="logical" name="SHIFTRED"> F  </i>
   <i type="logical" name="ODDONLY"> F  </i>
   <i type="logical" name="EVENONLY"> F  </i>
   <i type="int" name="LMAXFOCK">     0</i>
   <i type="int" name="NMAXFOCKAE">     0</i>
   <i type="logical" name="LFOCKAEDFT"> F  </i>
   <i name="HFSCREEN">      0.00000000</i>
   <i name="HFSCREENC">      0.00000000</i>
   <i type="int" name="NBANDSGWLOW">     0</i>
  </separator>
  <separator name="vdW DFT" >
   <i type="logical" name="LUSE_VDW"> F  </i>
   <i name="Zab_VDW">     -0.84910000</i>
   <i name="PARAM1">      0.12340000</i>
   <i name="PARAM2">      1.00000000</i>
   <i name="PARAM3">      0.00000000</i>
  </separator>
  <separator name="model GW" >
   <i type="int" name="MODEL_GW">     0</i>
   <i name="MODEL_EPS0">      7.39030545</i>
   <i name="MODEL_ALPHA">      1.00000000</i>
  </separator>
  <separator name="linear response parameters" >
   <i type="logical" name="LEPSILON"> F  </i>
   <i type="logical" name="LRPA"> F  </i>
   <i type="logical" name="LNABLA"> F  </i>
   <i type="logical" name="LVEL"> F  </i>
   <i type="int" name="KINTER">     0</i>
   <i name="CSHIFT">      0.10000000</i>
   <i name="OMEGAMAX">     -1.00000000</i>
   <i name="DEG_THRESHOLD">      0.00200000</i>
   <i name="RTIME">     -0.10000000</i>
   <i name="WPLASMAI">      0.00000000</i>
   <v name="DFIELD">      0.00000000      0.00000000      0.00000000</v>
   <v name="WPLASMA">      0.00000000      0.00000000      0.00000000      0.00000000      0.00000000      0.00000000      0.00000000      0.00000000      0.00000000</v>
  </separator>
  <separator name="orbital magnetization" >
   <i type="logical" name="NUCIND"> F  </i>
   <v name="MAGPOS">      0.00000000      0.00000000      0.00000000</v>
   <i type="logical" name="LNICSALL"> T  </i>
   <i type="logical" name="ORBITALMAG"> F  </i>
   <i type="logical" name="LMAGBLOCH"> F  </i>
   <i type="logical" name="LCHIMAG"> F  </i>
   <i type="logical" name="LGAUGE"> T  </i>
   <i type="int" name="MAGATOM">     0</i>
   <v name="MAGDIPOL">      0.00000000      0.00000000      0.00000000</v>
   <v name="AVECCONST">      0.00000000      0.00000000      0.00000000</v>
  </separator>
  <separator name="response functions" >
   <i type="logical" name="LADDER"> F  </i>
   <i type="logical" name="LRPAFORCE"> F  </i>
   <i type="logical" name="LFXC"> F  </i>
   <i type="logical" name="LHARTREE"> T  </i>
   <i type="int" name="IBSE">     0</i>
   <v type="int" name="KPOINT">    -1     0     0     0</v>
   <i type="logical" name="LTCTE"> F  </i>
   <i type="logical" name="LTETE"> F  </i>
   <i type="logical" name="LTRIPLET"> F  </i>
   <i type="logical" name="LFXCEPS"> F  </i>
   <i type="logical" name="LFXHEG"> F  </i>
   <i type="int" name="NATURALO">     2</i>
   <i type="logical" name="L2ORDER"> F  </i>
   <i type="logical" name="LMP2LT"> F  </i>
   <i type="logical" name="LUSEW"> F  </i>
   <i name="ENCUTGW">     -2.00000000</i>
   <i name="ENCUTGWSOFT">     -2.00000000</i>
   <i name="ENCUTLF">     -1.00000000</i>
   <i type="int" name="LMAXMP2">    -1</i>
   <i name="SCISSOR">      0.00000000</i>
   <i type="int" name="NOMEGA">     0</i>
   <i type="int" name="NOMEGAR">     0</i>
   <i type="int" name="NBANDSGW">    -1</i>
   <i type="int" name="NBANDSO">    -1</i>
   <i type="int" name="NBANDSV">    -1</i>
   <i type="int" name="NELM">     1</i>
   <i type="int" name="NELMHF">     1</i>
   <i type="int" name="DIM">     3</i>
   <i type="int" name="ANTIRES">     0</i>
   <i name="OMEGAMAX">    -30.00000000</i>
   <i name="OMEGAMIN">    -30.00000000</i>
   <i name="OMEGATL">   -200.00000000</i>
   <i type="int" name="OMEGAGRID">   140</i>
   <i name="CSHIFT">     -0.10000000</i>
   <i type="logical" name="SELFENERGY"> F  </i>
   <i type="logical" name="LSPECTRAL"> F  </i>
   <i type="logical" name="LSPECTRALGW"> F  </i>
   <i type="logical" name="LSINGLES"> F  </i>
   <i type="logical" name="LFERMIGW"> F  </i>
   <i type="logical" name="ODDONLYGW"> F  </i>
   <i type="logical" name="EVENONLYGW"> F  </i>
   <i type="int" name="NKREDLFX">     1</i>
   <i type="int" name="NKREDLFY">     1</i>
   <i type="int" name="NKREDLFZ">     1</i>
   <i type="int" name="MAXMEM">  2800</i>
   <i type="int" name="TELESCOPE">     0</i>
   <i type="int" name="TAUPAR">     1</i>
   <i type="int" name="OMEGAPAR">    -1</i>
   <i name="LAMBDA">      1.00000000</i>
  </separator>
  <separator name="External order field" >
   <i name="OFIELD_KAPPA">      0.00000000</i>
   <v name="OFIELD_K">      0.00000000      0.00000000      0.00000000</v>
   <i name="OFIELD_Q6_NEAR">      0.00000000</i>
   <i name="OFIELD_Q6_FAR">      0.00000000</i>
   <i name="OFIELD_A">      0.00000000</i>
  </separator>
 </parameters>
 <atominfo>
  <atoms>      20 </atoms>
  <types>       3 </types>
  <array name="atoms" >
   <dimension dim="1">ion</dimension>
   <field type="string">element</field>
   <field type="int">atomtype</field>
   <set>
    <rc><c>O </c><c>   1</c></rc>
    <rc><c>O </c><c>   1</c></rc>
    <rc><c>O </c><c>   1</c></rc>
    <rc><c>O </c><c>   1</c></rc>
    <rc><c>O </c><c>   1</c></rc>
    <rc><c>O </c><c>   1</c></rc>
    <rc><c>O </c><c>   1</c></rc>
    <rc><c>O </c><c>   1</c></rc>
    <rc><c>O </c><c>   1</c></rc>
    <rc><c>O </c><c>   1</c></rc>
    <rc><c>O </c><c>   1</c></rc>
    <rc><c>O </c><c>   1</c></rc>
    <rc><c>Sr</c><c>   2</c></rc>
    <rc><c>Sr</c><c>   2</c></rc>
    <rc><c>Sr</c><c>   2</c></rc>
    <rc><c>Sr</c><c>   2</c></rc>
    <rc><c>Ti</c><c>   3</c></rc>
    <rc><c>Ti</c><c>   3</c></rc>
    <rc><c>Ti</c><c>   3</c></rc>
    <rc><c>Ti</c><c>   3</c></rc>
   </set>
  </array>
  <array name="atomtypes" >
   <dimension dim="1">type</dimension>
   <field type="int">atomspertype</field>
   <field type="string">element</field>
   <field>mass</field>
   <field>valence</field>
   <field type="string">pseudopotential</field>
   <set>
    <rc><c>  12</c><c>O </c><c>     16.00000000</c><c>      6.00000000</c><c> PAW_PBE O 08Apr2002                    </c></rc>
    <rc><c>   4</c><c>Sr</c><c>     87.62000000</c><c>     10.00000000</c><c> PAW_PBE Sr_sv 07Sep2000                </c></rc>
    <rc><c>   4</c><c>Ti</c><c>     47.88000000</c><c>      4.00000000</c><c> PAW_PBE Ti 08Apr2002                   </c></rc>
   </set>
  </array>
 </atominfo>
 <structure name="initialpos" >
  <crystal>
   <varray name="basis" >
    <v>       3.94684634       0.00000000       0.00000000 </v>
    <v>       0.00000000       3.94684634       0.00000000 </v>
    <v>       0.00000000       0.00000000      15.81396220 </v>
   </varray>
   <i name="volume">    246.34351494 </i>
   <varray name="rec_basis" >
    <v>       0.25336684       0.00000000       0.00000000 </v>
    <v>       0.00000000       0.25336684       0.00000000 </v>
    <v>       0.00000000       0.00000000       0.06323526 </v>
   </varray>
  </crystal>
  <varray name="positions" >
   <v>       0.50000000       0.50000000       0.06323526 </v>
   <v>       0.50000000       0.00000000       0.18802519 </v>
   <v>       0.00000000       0.50000000       0.18802519 </v>
   <v>       0.50000000       0.50000000       0.31281511 </v>
   <v>       0.50000000       0.00000000       0.43760504 </v>
   <v>       0.00000000       0.50000000       0.43760504 </v>
   <v>       0.50000000       0.50000000       0.56239496 </v>
   <v>       0.50000000       0.00000000       0.68718489 </v>
   <v>       0.00000000       0.50000000       0.68718489 </v>
   <v>       0.50000000       0.50000000       0.81197481 </v>
   <v>       0.50000000       0.00000000       0.93676474 </v>
   <v>       0.00000000       0.50000000       0.93676474 </v>
   <v>       0.00000000       0.00000000       0.06323526 </v>
   <v>       0.00000000       0.00000000       0.31281511 </v>
   <v>       0.00000000       0.00000000       0.56239496 </v>
   <v>       0.00000000       0.00000000       0.81197481 </v>
   <v>       0.50000000       0.50000000       0.18802519 </v>
   <v>       0.50000000       0.50000000       0.43760504 </v>
   <v>       0.50000000       0.50000000       0.68718489 </v>
   <v>       0.50000000       0.50000000       0.93676474 </v>
  </varray>
 </structure>
 <calculation>
  <scstep>
   <time name="dav">    2.78    2.79</time>
   <time name="total">    2.87    3.73</time>
   <energy>
    <i name="alphaZ">    717.20081308 </i>
    <i name="ewald">  -7650.19210432 </i>
    <i name="hartreedc">  -1649.65737688 </i>
    <i name="XCdc">    327.96185133 </i>
    <i name="pawpsdc">   5334.45189010 </i>
    <i name="pawaedc">  -5139.13784255 </i>
    <i name="eentropy">      0.00000000 </i>
    <i name="bandstr">    723.79685399 </i>
    <i name="atom">   8937.26825017 </i>
    <i name="e_fr_energy">   1601.69233493 </i>
    <i name="e_wo_entrp">   1601.69233493 </i>
    <i name="e_0_energy">   1601.69233493 </i>
   </energy>
  </scstep>
  <scstep>
   <time name="dav">    2.83    2.83</time>
   <time name="total">    2.83    2.84</time>
   <energy>
    <i name="e_fr_energy">    179.15651796 </i>
    <i name="e_wo_entrp">    179.15651796 </i>
    <i name="e_0_energy">    179.15651796 </i>
   </energy>
  </scstep>
  <scstep>
   <time name="dav">    3.40    3.40</time>
   <time name="total">    3.40    3.40</time>
   <energy>
    <i name="e_fr_energy">   -171.90076004 </i>
    <i name="e_wo_entrp">   -171.90076004 </i>
    <i name="e_0_energy">   -171.90076004 </i>
   </energy>
  </scstep>
  <scstep>
   <time name="dav">    3.39    3.39</time>
   <time name="total">    3.39    3.39</time>
   <energy>
    <i name="e_fr_energy">   -200.24110864 </i>
    <i name="e_wo_entrp">   -200.24110864 </i>
    <i name="e_0_energy">   -200.24110864 </i>
   </energy>
  </scstep>
  <scstep>
   <time name="dav">    4.38    4.38</time>
   <time name="total">    4.51    4.51</time>
   <energy>
    <i name="e_fr_energy">   -201.64182061 </i>
    <i name="e_wo_entrp">   -201.64182061 </i>
    <i name="e_0_energy">   -201.64182061 </i>
   </energy>
  </scstep>
  <scstep>
   <time name="diag">    0.36    0.36</time>
   <time name="diis">    2.22    2.22</time>
   <time name="orth">    0.07    0.07</time>
   <time name="total">    2.85    2.85</time>
   <energy>
    <i name="e_fr_energy">   -162.04131697 </i>
    <i name="e_wo_entrp">   -162.04131697 </i>
    <i name="e_0_energy">   -162.04131697 </i>
   </energy>
  </scstep>
  <scstep>
   <time name="diag">    0.36    0.36</time>
   <time name="diis">    2.39    2.39</time>
   <time name="orth">    0.07    0.07</time>
   <time name="total">    3.02    3.02</time>
   <energy>
    <i name="e_fr_energy">   -159.36916981 </i>
    <i name="e_wo_entrp">   -159.36916981 </i>
    <i name="e_0_energy">   -159.36916981 </i>
   </energy>
  </scstep>
  <scstep>
   <time name="diag">    0.37    0.37</time>
   <time name="diis">    2.40    2.40</time>
   <time name="orth">    0.07    0.07</time>
   <time name="total">    3.03    3.03</time>
   <energy>
    <i name="e_fr_energy">   -158.98555881 </i>
    <i name="e_wo_entrp">   -158.98555881 </i>
    <i name="e_0_energy">   -158.98555881 </i>
   </energy>
  </scstep>
  <scstep>
   <time name="diag">    0.36    0.36</time>
   <time name="diis">    2.85    2.85</time>
   <time name="orth">    0.07    0.07</time>
   <time name="total">    3.48    3.48</time>
   <energy>
    <i name="e_fr_energy">   -158.92889069 </i>
    <i name="e_wo_entrp">   -158.92889069 </i>
    <i name="e_0_energy">   -158.92889069 </i>
   </energy>
  </scstep>
  <scstep>
   <time name="diag">    0.36    0.37</time>
   <time name="diis">    2.71    2.71</time>
   <time name="orth">    0.07    0.07</time>
   <time name="total">    3.34    3.34</time>
   <energy>
    <i name="e_fr_energy">   -158.89930584 </i>
    <i name="e_wo_entrp">   -158.89930584 </i>
    <i name="e_0_energy">   -158.89930584 </i>
   </energy>
  </scstep>
  <scstep>
   <time name="diag">    0.36    0.36</time>
   <time name="diis">    2.78    2.77</time>
   <time name="orth">    0.07    0.07</time>
   <time name="total">    3.41    3.41</time>
   <energy>
    <i name="e_fr_energy">   -158.90461179 </i>
    <i name="e_wo_entrp">   -158.90461179 </i>
    <i name="e_0_energy">   -158.90461179 </i>
   </energy>
  </scstep>
  <scstep>
   <time name="diag">    0.36    0.36</time>
   <time name="diis">    3.30    3.30</time>
   <time name="orth">    0.07    0.07</time>
   <time name="total">    3.93    3.93</time>
   <energy>
    <i name="e_fr_energy">   -158.90479541 </i>
    <i name="e_wo_entrp">   -158.90479541 </i>
    <i name="e_0_energy">   -158.90479541 </i>
   </energy>
  </scstep>
  <scstep>
   <time name="diag">    0.36    0.36</time>
   <time name="diis">    2.81    2.81</time>
   <time name="orth">    0.07    0.07</time>
   <time name="total">    3.44    3.44</time>
   <energy>
    <i name="e_fr_energy">   -158.90491190 </i>
    <i name="e_wo_entrp">   -158.90491190 </i>
    <i name="e_0_energy">   -158.90491190 </i>
   </energy>
  </scstep>
  <scstep>
   <time name="diag">    0.36    0.36</time>
   <time name="diis">    3.16    3.16</time>
   <time name="orth">    0.07    0.07</time>
   <time name="total">    3.79    3.79</time>
   <energy>
    <i name="e_fr_energy">   -158.90478265 </i>
    <i name="e_wo_entrp">   -158.90478265 </i>
    <i name="e_0_energy">   -158.90478265 </i>
   </energy>
  </scstep>
  <scstep>
   <time name="diag">    0.36    0.36</time>
   <time name="diis">    3.40    3.40</time>
   <time name="orth">    0.07    0.07</time>
   <time name="total">    4.03    4.03</time>
   <energy>
    <i name="e_fr_energy">   -158.90496331 </i>
    <i name="e_wo_entrp">   -158.90496331 </i>
    <i name="e_0_energy">   -158.90496331 </i>
   </energy>
  </scstep>
  <scstep>
   <time name="diag">    0.37    0.37</time>
   <time name="diis">    3.01    3.01</time>
   <time name="orth">    0.07    0.07</time>
   <time name="total">    3.65    3.65</time>
   <energy>
    <i name="e_fr_energy">   -158.90503491 </i>
    <i name="e_wo_entrp">   -158.90503491 </i>
    <i name="e_0_energy">   -158.90503491 </i>
   </energy>
  </scstep>
  <scstep>
   <time name="diag">    0.37    0.37</time>
   <time name="diis">    3.10    3.10</time>
   <time name="orth">    0.07    0.07</time>
   <time name="total">    3.73    3.73</time>
   <energy>
    <i name="e_fr_energy">   -158.90503206 </i>
    <i name="e_wo_entrp">   -158.90503206 </i>
    <i name="e_0_energy">   -158.90503206 </i>
   </energy>
  </scstep>
  <scstep>
   <time name="diag">    0.37    0.37</time>
   <time name="diis">    2.27    2.27</time>
   <time name="orth">    0.07    0.07</time>
   <time name="total">    2.78    2.78</time>
   <energy>
    <i name="alphaZ">    717.20081308 </i>
    <i name="ewald">  -7650.19210432 </i>
    <i name="hartreedc">  -1800.30925064 </i>
    <i name="XCdc">    343.22609033 </i>
    <i name="pawpsdc">   6181.02229514 </i>
    <i name="pawaedc">  -6011.31935525 </i>
    <i name="eentropy">      0.00000000 </i>
    <i name="bandstr">   -875.80177650 </i>
    <i name="atom">   8937.26825017 </i>
    <i name="e_fr_energy">   -158.90503798 </i>
    <i name="e_wo_entrp">   -158.90503798 </i>
    <i name="e_0_energy">   -158.90503798 </i>
   </energy>
  </scstep>
  <structure>
   <crystal>
    <varray name="basis" >
     <v>       3.94684634       0.00000000       0.00000000 </v>
     <v>       0.00000000       3.94684634       0.00000000 </v>
     <v>       0.00000000       0.00000000      15.81396220 </v>
    </varray>
    <i name="volume">    246.34351494 </i>
    <varray name="rec_basis" >
     <v>       0.25336684       0.00000000       0.00000000 </v>
     <v>       0.00000000       0.25336684       0.00000000 </v>
     <v>       0.00000000       0.00000000       0.06323526 </v>
    </varray>
   </crystal>
   <varray name="positions" >
    <v>       0.50000000       0.50000000       0.06323526 </v>
    <v>       0.50000000       0.00000000       0.18802519 </v>
    <v>       0.00000000       0.50000000       0.18802519 </v>
    <v>       0.50000000       0.50000000       0.31281511 </v>
    <v>       0.50000000       0.00000000       0.43760504 </v>
    <v>       0.00000000       0.50000000       0.43760504 </v>
    <v>       0.50000000       0.50000000       0.56239496 </v>
    <v>       0.50000000       0.00000000       0.68718489 </v>
    <v>       0.00000000       0.50000000       0.68718489 </v>
    <v>       0.50000000       0.50000000       0.81197481 </v>
    <v>       0.50000000       0.00000000       0.93676474 </v>
    <v>       0.00000000       0.50000000       0.93676474 </v>
    <v>       0.00000000       0.00000000       0.06323526 </v>
    <v>       0.00000000       0.00000000       0.31281511 </v>
    <v>       0.00000000       0.00000000       0.56239496 </v>
    <v>       0.00000000       0.00000000       0.81197481 </v>
    <v>       0.50000000       0.50000000       0.18802519 </v>
    <v>       0.50000000       0.50000000       0.43760504 </v>
    <v>       0.50000000       0.50000000       0.68718489 </v>
    <v>       0.50000000       0.50000000       0.93676474 </v>
   </varray>
  </structure>
  <varray name="forces" >
   <v>      -0.00000000      -0.00000000      -0.25138814 </v>
   <v>      -0.00000000       0.00000000       0.01116910 </v>
   <v>      -0.00000000       0.00000000       0.01116910 </v>
   <v>      -0.00000000       0.00000000       0.03401329 </v>
   <v>      -0.00000000       0.00000000       0.01183441 </v>
   <v>      -0.00000000       0.00000000       0.01183441 </v>
   <v>      -0.00000000       0.00000000       0.03450015 </v>
   <v>      -0.00000000       0.00000000       0.00980266 </v>
   <v>      -0.00000000      -0.00000000       0.00980266 </v>
   <v>       0.00000000       0.00000000       0.06631503 </v>
   <v>      -0.00000000       0.00000000       0.03472855 </v>
   <v>      -0.00000000       0.00000000       0.03472855 </v>
   <v>      -0.00000000       0.00000000      -0.01954994 </v>
   <v>      -0.00000000       0.00000000      -0.01153411 </v>
   <v>      -0.00000000       0.00000000      -0.01265612 </v>
   <v>      -0.00000000       0.00000000       0.01728765 </v>
   <v>      -0.00000000       0.00000000      -0.07563416 </v>
   <v>      -0.00000000      -0.00000000      -0.04235816 </v>
   <v>      -0.00000000       0.00000000      -0.04556288 </v>
   <v>      -0.00000000       0.00000000       0.17149793 </v>
  </varray>
  <varray name="stress" >
   <v>       0.96822362       0.00000000      -0.00000000 </v>
   <v>       0.00000000       0.96822362       0.00000000 </v>
   <v>      -0.00000000       0.00000000      -1.65145033 </v>
  </varray>
  <energy>
   <i name="e_fr_energy">   -158.90503798 </i>
   <i name="e_wo_entrp">   -158.90503798 </i>
   <i name="e_0_energy">      0.00000000 </i>
  </energy>
  <time name="totalsc">   66.00   66.94</time>
  <eigenvalues>
   <array>
    <dimension dim="1">band</dimension>
    <dimension dim="2">kpoint</dimension>
    <dimension dim="3">spin</dimension>
    <field>eigene</field>
    <field>occ</field>
    <set>
     <set comment="spin 1">
      <set comment="kpoint 1">
       <r>  -30.4193    1.0000 </r>
       <r>  -30.4070    1.0000 </r>
       <r>  -30.4039    1.0000 </r>
       <r>  -30.3829    1.0000 </r>
       <r>  -15.1230    1.0000 </r>
       <r>  -14.9916    1.0000 </r>
       <r>  -14.9876    1.0000 </r>
       <r>  -14.9197    1.0000 </r>
       <r>  -13.9668    1.0000 </r>
       <r>  -13.9614    1.0000 </r>
       <r>  -13.9445    1.0000 </r>
       <r>  -13.9402    1.0000 </r>
       <r>  -13.9332    1.0000 </r>
       <r>  -13.9106    1.0000 </r>
       <r>  -13.9080    1.0000 </r>
       <r>  -13.7730    1.0000 </r>
       <r>  -12.4690    1.0000 </r>
       <r>  -12.4690    1.0000 </r>
       <r>  -12.4673    1.0000 </r>
       <r>  -12.4452    1.0000 </r>
       <r>  -12.4452    1.0000 </r>
       <r>  -12.4433    1.0000 </r>
       <r>  -12.4433    1.0000 </r>
       <r>  -12.4165    1.0000 </r>
       <r>  -12.4165    1.0000 </r>
       <r>  -12.1664    1.0000 </r>
       <r>  -12.1535    1.0000 </r>
       <r>  -11.9215    1.0000 </r>
       <r>   -1.8166    1.0000 </r>
       <r>   -1.1054    1.0000 </r>
       <r>   -1.0725    1.0000 </r>
       <r>   -0.4355    1.0000 </r>
       <r>   -0.4355    1.0000 </r>
       <r>   -0.4214    1.0000 </r>
       <r>   -0.4214    1.0000 </r>
       <r>   -0.4109    1.0000 </r>
       <r>   -0.3982    1.0000 </r>
       <r>   -0.3982    1.0000 </r>
       <r>   -0.3834    1.0000 </r>
       <r>   -0.3834    1.0000 </r>
       <r>    0.0007    1.0000 </r>
       <r>    0.1290    1.0000 </r>
       <r>    0.1290    1.0000 </r>
       <r>    0.5314    1.0000 </r>
       <r>    0.6582    1.0000 </r>
       <r>    0.6582    1.0000 </r>
       <r>    0.6869    1.0000 </r>
       <r>    0.6869    1.0000 </r>
       <r>    0.7770    1.0000 </r>
       <r>    0.7909    1.0000 </r>
       <r>    0.8798    1.0000 </r>
       <r>    0.8874    1.0000 </r>
       <r>    1.2967    1.0000 </r>
       <r>    1.3070    1.0000 </r>
       <r>    1.3070    1.0000 </r>
       <r>    1.6967    1.0000 </r>
       <r>    1.6967    1.0000 </r>
       <r>    1.8249    1.0000 </r>
       <r>    1.8249    1.0000 </r>
       <r>    1.8313    1.0000 </r>
       <r>    1.8313    1.0000 </r>
       <r>    2.0695    1.0000 </r>
       <r>    2.0695    1.0000 </r>
       <r>    2.0704    1.0000 </r>
       <r>    4.0398    0.0000 </r>
       <r>    4.0402    0.0000 </r>
       <r>    4.0402    0.0000 </r>
       <r>    4.1075    0.0000 </r>
       <r>    4.1192    0.0000 </r>
       <r>    4.1903    0.0000 </r>
       <r>    5.0240    0.0000 </r>
       <r>    5.0240    0.0000 </r>
       <r>    5.0585    0.0000 </r>
       <r>    5.0585    0.0000 </r>
       <r>    7.7802    0.0000 </r>
       <r>    7.7838    0.0000 </r>
      </set>
      <set comment="kpoint 2">
       <r>  -30.4157    1.0000 </r>
       <r>  -30.4036    1.0000 </r>
       <r>  -30.4005    1.0000 </r>
       <r>  -30.3795    1.0000 </r>
       <r>  -15.0267    1.0000 </r>
       <r>  -14.9486    1.0000 </r>
       <r>  -14.9343    1.0000 </r>
       <r>  -14.9182    1.0000 </r>
       <r>  -14.0297    1.0000 </r>
       <r>  -14.0113    1.0000 </r>
       <r>  -13.9759    1.0000 </r>
       <r>  -13.9447    1.0000 </r>
       <r>  -13.9202    1.0000 </r>
       <r>  -13.9173    1.0000 </r>
       <r>  -13.8964    1.0000 </r>
       <r>  -13.8635    1.0000 </r>
       <r>  -12.4610    1.0000 </r>
       <r>  -12.4594    1.0000 </r>
       <r>  -12.4366    1.0000 </r>
       <r>  -12.4348    1.0000 </r>
       <r>  -12.4076    1.0000 </r>
       <r>  -12.3661    1.0000 </r>
       <r>  -12.3579    1.0000 </r>
       <r>  -12.3412    1.0000 </r>
       <r>  -12.3301    1.0000 </r>
       <r>  -12.1712    1.0000 </r>
       <r>  -12.1603    1.0000 </r>
       <r>  -11.9638    1.0000 </r>
       <r>   -1.8280    1.0000 </r>
       <r>   -1.1684    1.0000 </r>
       <r>   -1.1453    1.0000 </r>
       <r>   -0.8416    1.0000 </r>
       <r>   -0.6697    1.0000 </r>
       <r>   -0.6375    1.0000 </r>
       <r>   -0.6317    1.0000 </r>
       <r>   -0.5597    1.0000 </r>
       <r>   -0.4401    1.0000 </r>
       <r>   -0.4249    1.0000 </r>
       <r>   -0.4189    1.0000 </r>
       <r>   -0.4023    1.0000 </r>
       <r>   -0.3790    1.0000 </r>
       <r>    0.0070    1.0000 </r>
       <r>    0.0209    1.0000 </r>
       <r>    0.0377    1.0000 </r>
       <r>    0.4014    1.0000 </r>
       <r>    0.5277    1.0000 </r>
       <r>    0.5530    1.0000 </r>
       <r>    0.8431    1.0000 </r>
       <r>    0.8505    1.0000 </r>
       <r>    1.0366    1.0000 </r>
       <r>    1.0460    1.0000 </r>
       <r>    1.1386    1.0000 </r>
       <r>    1.2142    1.0000 </r>
       <r>    1.2870    1.0000 </r>
       <r>    1.2947    1.0000 </r>
       <r>    1.3152    1.0000 </r>
       <r>    1.4276    1.0000 </r>
       <r>    1.4839    1.0000 </r>
       <r>    1.5271    1.0000 </r>
       <r>    1.5368    1.0000 </r>
       <r>    1.5931    1.0000 </r>
       <r>    1.6020    1.0000 </r>
       <r>    1.9486    1.0000 </r>
       <r>    1.9492    1.0000 </r>
       <r>    4.0665    0.0000 </r>
       <r>    4.4642    0.0000 </r>
       <r>    4.4670    0.0000 </r>
       <r>    4.5034    0.0000 </r>
       <r>    4.5161    0.0000 </r>
       <r>    4.5703    0.0000 </r>
       <r>    5.0373    0.0000 </r>
       <r>    5.0716    0.0000 </r>
       <r>    5.1191    0.0000 </r>
       <r>    5.1501    0.0000 </r>
       <r>    5.8492    0.0000 </r>
       <r>    8.1654    0.0000 </r>
      </set>
      <set comment="kpoint 3">
       <r>  -30.4075    1.0000 </r>
       <r>  -30.3960    1.0000 </r>
       <r>  -30.3928    1.0000 </r>
       <r>  -30.3720    1.0000 </r>
       <r>  -15.0098    1.0000 </r>
       <r>  -14.8534    1.0000 </r>
       <r>  -14.8411    1.0000 </r>
       <r>  -14.7630    1.0000 </r>
       <r>  -14.1125    1.0000 </r>
       <r>  -14.1029    1.0000 </r>
       <r>  -14.0566    1.0000 </r>
       <r>  -13.9401    1.0000 </r>
       <r>  -13.9311    1.0000 </r>
       <r>  -13.9232    1.0000 </r>
       <r>  -13.8849    1.0000 </r>
       <r>  -13.8688    1.0000 </r>
       <r>  -12.4427    1.0000 </r>
       <r>  -12.4415    1.0000 </r>
       <r>  -12.4174    1.0000 </r>
       <r>  -12.4154    1.0000 </r>
       <r>  -12.3872    1.0000 </r>
       <r>  -12.2514    1.0000 </r>
       <r>  -12.2415    1.0000 </r>
       <r>  -12.1938    1.0000 </r>
       <r>  -12.1307    1.0000 </r>
       <r>  -12.1268    1.0000 </r>
       <r>  -12.0947    1.0000 </r>
       <r>  -12.0414    1.0000 </r>
       <r>   -1.8648    1.0000 </r>
       <r>   -1.6028    1.0000 </r>
       <r>   -1.4433    1.0000 </r>
       <r>   -1.4370    1.0000 </r>
       <r>   -1.2592    1.0000 </r>
       <r>   -1.1617    1.0000 </r>
       <r>   -0.9987    1.0000 </r>
       <r>   -0.9827    1.0000 </r>
       <r>   -0.7204    1.0000 </r>
       <r>   -0.7160    1.0000 </r>
       <r>   -0.4410    1.0000 </r>
       <r>   -0.4247    1.0000 </r>
       <r>   -0.4228    1.0000 </r>
       <r>   -0.3998    1.0000 </r>
       <r>   -0.3645    1.0000 </r>
       <r>   -0.1582    1.0000 </r>
       <r>    0.2136    1.0000 </r>
       <r>    0.2299    1.0000 </r>
       <r>    0.5304    1.0000 </r>
       <r>    0.5381    1.0000 </r>
       <r>    0.5848    1.0000 </r>
       <r>    0.6516    1.0000 </r>
       <r>    0.7127    1.0000 </r>
       <r>    0.7171    1.0000 </r>
       <r>    0.8065    1.0000 </r>
       <r>    0.9395    1.0000 </r>
       <r>    0.9783    1.0000 </r>
       <r>    1.0584    1.0000 </r>
       <r>    1.0622    1.0000 </r>
       <r>    1.2673    1.0000 </r>
       <r>    1.2806    1.0000 </r>
       <r>    1.7292    1.0000 </r>
       <r>    1.7421    1.0000 </r>
       <r>    1.7973    1.0000 </r>
       <r>    1.7994    1.0000 </r>
       <r>    1.9362    1.0000 </r>
       <r>    4.1269    0.0000 </r>
       <r>    5.0347    0.0000 </r>
       <r>    5.0656    0.0000 </r>
       <r>    5.2301    0.0000 </r>
       <r>    5.2330    0.0000 </r>
       <r>    5.2553    0.0000 </r>
       <r>    5.2726    0.0000 </r>
       <r>    5.2913    0.0000 </r>
       <r>    5.4872    0.0000 </r>
       <r>    5.5108    0.0000 </r>
       <r>    5.8313    0.0000 </r>
       <r>    8.9458    0.0000 </r>
      </set>
      <set comment="kpoint 4">
       <r>  -30.4010    1.0000 </r>
       <r>  -30.3898    1.0000 </r>
       <r>  -30.3866    1.0000 </r>
       <r>  -30.3659    1.0000 </r>
       <r>  -15.1009    1.0000 </r>
       <r>  -14.8414    1.0000 </r>
       <r>  -14.8222    1.0000 </r>
       <r>  -14.4234    1.0000 </r>
       <r>  -14.1915    1.0000 </r>
       <r>  -14.1067    1.0000 </r>
       <r>  -14.0519    1.0000 </r>
       <r>  -14.0511    1.0000 </r>
       <r>  -13.9231    1.0000 </r>
       <r>  -13.9006    1.0000 </r>
       <r>  -13.8799    1.0000 </r>
       <r>  -13.8145    1.0000 </r>
       <r>  -12.4280    1.0000 </r>
       <r>  -12.4270    1.0000 </r>
       <r>  -12.4018    1.0000 </r>
       <r>  -12.3998    1.0000 </r>
       <r>  -12.3707    1.0000 </r>
       <r>  -12.2408    1.0000 </r>
       <r>  -12.2306    1.0000 </r>
       <r>  -12.0923    1.0000 </r>
       <r>  -12.0789    1.0000 </r>
       <r>  -12.0332    1.0000 </r>
       <r>  -12.0331    1.0000 </r>
       <r>  -11.9383    1.0000 </r>
       <r>   -2.0193    1.0000 </r>
       <r>   -1.9923    1.0000 </r>
       <r>   -1.8156    1.0000 </r>
       <r>   -1.8098    1.0000 </r>
       <r>   -1.7603    1.0000 </r>
       <r>   -1.6403    1.0000 </r>
       <r>   -1.3905    1.0000 </r>
       <r>   -1.3666    1.0000 </r>
       <r>   -0.9764    1.0000 </r>
       <r>   -0.9415    1.0000 </r>
       <r>   -0.4111    1.0000 </r>
       <r>   -0.3991    1.0000 </r>
       <r>   -0.3881    1.0000 </r>
       <r>   -0.3644    1.0000 </r>
       <r>   -0.3493    1.0000 </r>
       <r>   -0.2956    1.0000 </r>
       <r>   -0.0730    1.0000 </r>
       <r>   -0.0709    1.0000 </r>
       <r>    0.0726    1.0000 </r>
       <r>    0.1614    1.0000 </r>
       <r>    0.1660    1.0000 </r>
       <r>    0.5642    1.0000 </r>
       <r>    0.5974    1.0000 </r>
       <r>    0.6032    1.0000 </r>
       <r>    0.6949    1.0000 </r>
       <r>    0.8481    1.0000 </r>
       <r>    0.8789    1.0000 </r>
       <r>    0.9959    1.0000 </r>
       <r>    1.0078    1.0000 </r>
       <r>    1.0989    1.0000 </r>
       <r>    1.1147    1.0000 </r>
       <r>    1.7112    1.0000 </r>
       <r>    1.7136    1.0000 </r>
       <r>    1.7738    1.0000 </r>
       <r>    1.7911    1.0000 </r>
       <r>    2.2700    1.0000 </r>
       <r>    4.1770    0.0000 </r>
       <r>    5.0686    0.0000 </r>
       <r>    5.1037    0.0000 </r>
       <r>    5.7514    0.0000 </r>
       <r>    5.7572    0.0000 </r>
       <r>    5.7644    0.0000 </r>
       <r>    5.7778    0.0000 </r>
       <r>    5.7983    0.0000 </r>
       <r>    5.8326    0.0000 </r>
       <r>    5.8829    0.0000 </r>
       <r>    5.9036    0.0000 </r>
       <r>    9.9020    0.0000 </r>
      </set>
      <set comment="kpoint 5">
       <r>  -30.4122    1.0000 </r>
       <r>  -30.4003    1.0000 </r>
       <r>  -30.3971    1.0000 </r>
       <r>  -30.3762    1.0000 </r>
       <r>  -14.9333    1.0000 </r>
       <r>  -14.9216    1.0000 </r>
       <r>  -14.8779    1.0000 </r>
       <r>  -14.8701    1.0000 </r>
       <r>  -14.0233    1.0000 </r>
       <r>  -14.0163    1.0000 </r>
       <r>  -14.0008    1.0000 </r>
       <r>  -13.9557    1.0000 </r>
       <r>  -13.9522    1.0000 </r>
       <r>  -13.9378    1.0000 </r>
       <r>  -13.9076    1.0000 </r>
       <r>  -13.8877    1.0000 </r>
       <r>  -12.4768    1.0000 </r>
       <r>  -12.4513    1.0000 </r>
       <r>  -12.4297    1.0000 </r>
       <r>  -12.4262    1.0000 </r>
       <r>  -12.3818    1.0000 </r>
       <r>  -12.3423    1.0000 </r>
       <r>  -12.3354    1.0000 </r>
       <r>  -12.2951    1.0000 </r>
       <r>  -12.2536    1.0000 </r>
       <r>  -12.1519    1.0000 </r>
       <r>  -12.1450    1.0000 </r>
       <r>  -12.0144    1.0000 </r>
       <r>   -1.8364    1.0000 </r>
       <r>   -1.2480    1.0000 </r>
       <r>   -1.2348    1.0000 </r>
       <r>   -0.9804    1.0000 </r>
       <r>   -0.8102    1.0000 </r>
       <r>   -0.7171    1.0000 </r>
       <r>   -0.7077    1.0000 </r>
       <r>   -0.6586    1.0000 </r>
       <r>   -0.5549    1.0000 </r>
       <r>   -0.5434    1.0000 </r>
       <r>   -0.5237    1.0000 </r>
       <r>   -0.5026    1.0000 </r>
       <r>   -0.4355    1.0000 </r>
       <r>   -0.4254    1.0000 </r>
       <r>    0.0057    1.0000 </r>
       <r>    0.0148    1.0000 </r>
       <r>    0.0180    1.0000 </r>
       <r>    0.0314    1.0000 </r>
       <r>    0.5209    1.0000 </r>
       <r>    0.6971    1.0000 </r>
       <r>    0.6998    1.0000 </r>
       <r>    0.8085    1.0000 </r>
       <r>    0.8433    1.0000 </r>
       <r>    1.0577    1.0000 </r>
       <r>    1.3053    1.0000 </r>
       <r>    1.3196    1.0000 </r>
       <r>    1.3256    1.0000 </r>
       <r>    1.3891    1.0000 </r>
       <r>    1.4185    1.0000 </r>
       <r>    1.4230    1.0000 </r>
       <r>    1.4926    1.0000 </r>
       <r>    1.4953    1.0000 </r>
       <r>    1.5152    1.0000 </r>
       <r>    1.5286    1.0000 </r>
       <r>    1.6533    1.0000 </r>
       <r>    1.7728    1.0000 </r>
       <r>    4.4349    0.0000 </r>
       <r>    4.5319    0.0000 </r>
       <r>    4.7042    0.0000 </r>
       <r>    4.7577    0.0000 </r>
       <r>    4.7698    0.0000 </r>
       <r>    4.8341    0.0000 </r>
       <r>    5.1387    0.0000 </r>
       <r>    5.1544    0.0000 </r>
       <r>    5.1702    0.0000 </r>
       <r>    5.1847    0.0000 </r>
       <r>    5.8733    0.0000 </r>
       <r>    8.5774    0.0000 </r>
      </set>
      <set comment="kpoint 6">
       <r>  -30.4042    1.0000 </r>
       <r>  -30.3928    1.0000 </r>
       <r>  -30.3896    1.0000 </r>
       <r>  -30.3688    1.0000 </r>
       <r>  -14.9440    1.0000 </r>
       <r>  -14.7817    1.0000 </r>
       <r>  -14.7683    1.0000 </r>
       <r>  -14.6698    1.0000 </r>
       <r>  -14.0715    1.0000 </r>
       <r>  -14.0622    1.0000 </r>
       <r>  -14.0328    1.0000 </r>
       <r>  -14.0122    1.0000 </r>
       <r>  -13.9215    1.0000 </r>
       <r>  -13.9119    1.0000 </r>
       <r>  -13.8968    1.0000 </r>
       <r>  -13.8829    1.0000 </r>
       <r>  -12.4847    1.0000 </r>
       <r>  -12.4398    1.0000 </r>
       <r>  -12.4357    1.0000 </r>
       <r>  -12.4308    1.0000 </r>
       <r>  -12.3552    1.0000 </r>
       <r>  -12.2955    1.0000 </r>
       <r>  -12.2900    1.0000 </r>
       <r>  -12.1836    1.0000 </r>
       <r>  -12.1221    1.0000 </r>
       <r>  -12.1169    1.0000 </r>
       <r>  -12.0979    1.0000 </r>
       <r>  -12.0955    1.0000 </r>
       <r>   -1.8654    1.0000 </r>
       <r>   -1.5308    1.0000 </r>
       <r>   -1.4947    1.0000 </r>
       <r>   -1.4833    1.0000 </r>
       <r>   -1.3064    1.0000 </r>
       <r>   -1.1570    1.0000 </r>
       <r>   -0.9976    1.0000 </r>
       <r>   -0.9838    1.0000 </r>
       <r>   -0.6888    1.0000 </r>
       <r>   -0.6806    1.0000 </r>
       <r>   -0.6721    1.0000 </r>
       <r>   -0.6262    1.0000 </r>
       <r>   -0.6126    1.0000 </r>
       <r>   -0.5883    1.0000 </r>
       <r>   -0.5583    1.0000 </r>
       <r>   -0.4277    1.0000 </r>
       <r>   -0.1803    1.0000 </r>
       <r>   -0.1679    1.0000 </r>
       <r>   -0.1367    1.0000 </r>
       <r>    0.2728    1.0000 </r>
       <r>    0.2979    1.0000 </r>
       <r>    0.3063    1.0000 </r>
       <r>    0.4139    1.0000 </r>
       <r>    0.7303    1.0000 </r>
       <r>    1.1917    1.0000 </r>
       <r>    1.2782    1.0000 </r>
       <r>    1.2836    1.0000 </r>
       <r>    1.3337    1.0000 </r>
       <r>    1.3379    1.0000 </r>
       <r>    1.3778    1.0000 </r>
       <r>    1.3820    1.0000 </r>
       <r>    1.4844    1.0000 </r>
       <r>    1.5573    1.0000 </r>
       <r>    1.7442    1.0000 </r>
       <r>    1.7570    1.0000 </r>
       <r>    1.9466    1.0000 </r>
       <r>    4.5196    0.0000 </r>
       <r>    5.1798    0.0000 </r>
       <r>    5.2082    0.0000 </r>
       <r>    5.2422    0.0000 </r>
       <r>    5.2976    0.0000 </r>
       <r>    5.3641    0.0000 </r>
       <r>    5.3745    0.0000 </r>
       <r>    5.4163    0.0000 </r>
       <r>    5.5206    0.0000 </r>
       <r>    5.5448    0.0000 </r>
       <r>    5.8986    0.0000 </r>
       <r>    9.4025    0.0000 </r>
      </set>
      <set comment="kpoint 7">
       <r>  -30.3978    1.0000 </r>
       <r>  -30.3867    1.0000 </r>
       <r>  -30.3835    1.0000 </r>
       <r>  -30.3629    1.0000 </r>
       <r>  -15.0068    1.0000 </r>
       <r>  -14.7500    1.0000 </r>
       <r>  -14.7303    1.0000 </r>
       <r>  -14.3360    1.0000 </r>
       <r>  -14.1309    1.0000 </r>
       <r>  -14.0450    1.0000 </r>
       <r>  -14.0328    1.0000 </r>
       <r>  -14.0281    1.0000 </r>
       <r>  -13.9289    1.0000 </r>
       <r>  -13.8897    1.0000 </r>
       <r>  -13.8808    1.0000 </r>
       <r>  -13.8596    1.0000 </r>
       <r>  -12.4832    1.0000 </r>
       <r>  -12.4804    1.0000 </r>
       <r>  -12.4432    1.0000 </r>
       <r>  -12.4173    1.0000 </r>
       <r>  -12.3471    1.0000 </r>
       <r>  -12.2182    1.0000 </r>
       <r>  -12.2139    1.0000 </r>
       <r>  -12.1712    1.0000 </r>
       <r>  -12.1693    1.0000 </r>
       <r>  -12.0866    1.0000 </r>
       <r>  -12.0849    1.0000 </r>
       <r>  -11.9787    1.0000 </r>
       <r>   -1.9848    1.0000 </r>
       <r>   -1.8733    1.0000 </r>
       <r>   -1.8201    1.0000 </r>
       <r>   -1.8144    1.0000 </r>
       <r>   -1.7727    1.0000 </r>
       <r>   -1.6367    1.0000 </r>
       <r>   -1.3531    1.0000 </r>
       <r>   -1.3340    1.0000 </r>
       <r>   -0.9698    1.0000 </r>
       <r>   -0.9429    1.0000 </r>
       <r>   -0.8213    1.0000 </r>
       <r>   -0.6369    1.0000 </r>
       <r>   -0.6355    1.0000 </r>
       <r>   -0.6159    1.0000 </r>
       <r>   -0.6098    1.0000 </r>
       <r>   -0.5235    1.0000 </r>
       <r>   -0.4752    1.0000 </r>
       <r>   -0.4551    1.0000 </r>
       <r>   -0.3954    1.0000 </r>
       <r>    0.0693    1.0000 </r>
       <r>    0.0990    1.0000 </r>
       <r>    0.3497    1.0000 </r>
       <r>    0.3566    1.0000 </r>
       <r>    0.4454    1.0000 </r>
       <r>    1.1888    1.0000 </r>
       <r>    1.1951    1.0000 </r>
       <r>    1.2208    1.0000 </r>
       <r>    1.2569    1.0000 </r>
       <r>    1.2713    1.0000 </r>
       <r>    1.3116    1.0000 </r>
       <r>    1.3190    1.0000 </r>
       <r>    1.3426    1.0000 </r>
       <r>    1.4490    1.0000 </r>
       <r>    1.7883    1.0000 </r>
       <r>    1.8040    1.0000 </r>
       <r>    2.2849    1.0000 </r>
       <r>    4.5575    0.0000 </r>
       <r>    5.2296    0.0000 </r>
       <r>    5.2621    0.0000 </r>
       <r>    5.7653    0.0000 </r>
       <r>    5.7852    0.0000 </r>
       <r>    5.8232    0.0000 </r>
       <r>    5.8375    0.0000 </r>
       <r>    5.8761    0.0000 </r>
       <r>    5.9120    0.0000 </r>
       <r>    5.9214    0.0000 </r>
       <r>    5.9323    0.0000 </r>
       <r>    6.2573    0.0000 </r>
      </set>
      <set comment="kpoint 8">
       <r>  -30.3967    1.0000 </r>
       <r>  -30.3856    1.0000 </r>
       <r>  -30.3824    1.0000 </r>
       <r>  -30.3617    1.0000 </r>
       <r>  -14.8142    1.0000 </r>
       <r>  -14.6234    1.0000 </r>
       <r>  -14.6069    1.0000 </r>
       <r>  -14.4237    1.0000 </r>
       <r>  -14.1287    1.0000 </r>
       <r>  -14.0023    1.0000 </r>
       <r>  -13.9951    1.0000 </r>
       <r>  -13.9914    1.0000 </r>
       <r>  -13.9461    1.0000 </r>
       <r>  -13.9270    1.0000 </r>
       <r>  -13.8668    1.0000 </r>
       <r>  -13.8243    1.0000 </r>
       <r>  -12.5910    1.0000 </r>
       <r>  -12.4449    1.0000 </r>
       <r>  -12.4388    1.0000 </r>
       <r>  -12.4105    1.0000 </r>
       <r>  -12.3935    1.0000 </r>
       <r>  -12.3852    1.0000 </r>
       <r>  -12.2781    1.0000 </r>
       <r>  -12.2482    1.0000 </r>
       <r>  -12.2216    1.0000 </r>
       <r>  -12.1274    1.0000 </r>
       <r>  -12.1016    1.0000 </r>
       <r>  -12.0953    1.0000 </r>
       <r>   -1.8768    1.0000 </r>
       <r>   -1.6207    1.0000 </r>
       <r>   -1.6135    1.0000 </r>
       <r>   -1.5176    1.0000 </r>
       <r>   -1.4302    1.0000 </r>
       <r>   -1.2003    1.0000 </r>
       <r>   -1.0903    1.0000 </r>
       <r>   -1.0697    1.0000 </r>
       <r>   -1.0565    1.0000 </r>
       <r>   -1.0098    1.0000 </r>
       <r>   -1.0075    1.0000 </r>
       <r>   -0.9585    1.0000 </r>
       <r>   -0.9395    1.0000 </r>
       <r>   -0.9149    1.0000 </r>
       <r>   -0.7419    1.0000 </r>
       <r>   -0.7369    1.0000 </r>
       <r>   -0.5984    1.0000 </r>
       <r>   -0.5785    1.0000 </r>
       <r>   -0.5717    1.0000 </r>
       <r>   -0.4830    1.0000 </r>
       <r>   -0.4782    1.0000 </r>
       <r>   -0.4241    1.0000 </r>
       <r>    0.1333    1.0000 </r>
       <r>    0.7023    1.0000 </r>
       <r>    1.0336    1.0000 </r>
       <r>    1.1988    1.0000 </r>
       <r>    1.5328    1.0000 </r>
       <r>    1.5449    1.0000 </r>
       <r>    1.5763    1.0000 </r>
       <r>    1.5854    1.0000 </r>
       <r>    1.6451    1.0000 </r>
       <r>    1.7826    1.0000 </r>
       <r>    1.8023    1.0000 </r>
       <r>    1.8961    1.0000 </r>
       <r>    1.9020    1.0000 </r>
       <r>    2.0529    1.0000 </r>
       <r>    5.1958    0.0000 </r>
       <r>    5.3110    0.0000 </r>
       <r>    5.5612    0.0000 </r>
       <r>    5.5859    0.0000 </r>
       <r>    5.5972    0.0000 </r>
       <r>    5.6153    0.0000 </r>
       <r>    5.6401    0.0000 </r>
       <r>    5.6871    0.0000 </r>
       <r>    5.6983    0.0000 </r>
       <r>    5.7776    0.0000 </r>
       <r>    6.0852    0.0000 </r>
       <r>    6.1171    0.0000 </r>
      </set>
      <set comment="kpoint 9">
       <r>  -30.3907    1.0000 </r>
       <r>  -30.3798    1.0000 </r>
       <r>  -30.3766    1.0000 </r>
       <r>  -30.3560    1.0000 </r>
       <r>  -14.7584    1.0000 </r>
       <r>  -14.5123    1.0000 </r>
       <r>  -14.4915    1.0000 </r>
       <r>  -14.1156    1.0000 </r>
       <r>  -14.0978    1.0000 </r>
       <r>  -14.0168    1.0000 </r>
       <r>  -14.0141    1.0000 </r>
       <r>  -13.9741    1.0000 </r>
       <r>  -13.9114    1.0000 </r>
       <r>  -13.8776    1.0000 </r>
       <r>  -13.8503    1.0000 </r>
       <r>  -13.8277    1.0000 </r>
       <r>  -12.5908    1.0000 </r>
       <r>  -12.5537    1.0000 </r>
       <r>  -12.5512    1.0000 </r>
       <r>  -12.4021    1.0000 </r>
       <r>  -12.3944    1.0000 </r>
       <r>  -12.3788    1.0000 </r>
       <r>  -12.2955    1.0000 </r>
       <r>  -12.2897    1.0000 </r>
       <r>  -12.2008    1.0000 </r>
       <r>  -12.1767    1.0000 </r>
       <r>  -12.1715    1.0000 </r>
       <r>  -12.0542    1.0000 </r>
       <r>   -1.9838    1.0000 </r>
       <r>   -1.8457    1.0000 </r>
       <r>   -1.8341    1.0000 </r>
       <r>   -1.8141    1.0000 </r>
       <r>   -1.6285    1.0000 </r>
       <r>   -1.5437    1.0000 </r>
       <r>   -1.5396    1.0000 </r>
       <r>   -1.4123    1.0000 </r>
       <r>   -1.4053    1.0000 </r>
       <r>   -1.1565    1.0000 </r>
       <r>   -1.1259    1.0000 </r>
       <r>   -1.1140    1.0000 </r>
       <r>   -1.0505    1.0000 </r>
       <r>   -1.0119    1.0000 </r>
       <r>   -0.9571    1.0000 </r>
       <r>   -0.9518    1.0000 </r>
       <r>   -0.9134    1.0000 </r>
       <r>   -0.8530    1.0000 </r>
       <r>   -0.8427    1.0000 </r>
       <r>   -0.4151    1.0000 </r>
       <r>   -0.4131    1.0000 </r>
       <r>   -0.3867    1.0000 </r>
       <r>   -0.1313    1.0000 </r>
       <r>    0.6652    1.0000 </r>
       <r>    0.9621    1.0000 </r>
       <r>    1.0089    1.0000 </r>
       <r>    1.5532    1.0000 </r>
       <r>    1.5651    1.0000 </r>
       <r>    1.6662    1.0000 </r>
       <r>    1.6789    1.0000 </r>
       <r>    1.8763    1.0000 </r>
       <r>    1.9029    1.0000 </r>
       <r>    1.9200    1.0000 </r>
       <r>    1.9889    1.0000 </r>
       <r>    1.9913    1.0000 </r>
       <r>    2.3206    1.0000 </r>
       <r>    5.2663    0.0000 </r>
       <r>    5.6446    0.0000 </r>
       <r>    5.6720    0.0000 </r>
       <r>    5.7688    0.0000 </r>
       <r>    5.9477    0.0000 </r>
       <r>    5.9727    0.0000 </r>
       <r>    5.9921    0.0000 </r>
       <r>    6.0334    0.0000 </r>
       <r>    6.0448    0.0000 </r>
       <r>    6.1259    0.0000 </r>
       <r>    6.1580    0.0000 </r>
       <r>    9.9533    0.0000 </r>
      </set>
      <set comment="kpoint 10">
       <r>  -30.3850    1.0000 </r>
       <r>  -30.3743    1.0000 </r>
       <r>  -30.3710    1.0000 </r>
       <r>  -30.3505    1.0000 </r>
       <r>  -14.4723    1.0000 </r>
       <r>  -14.2410    1.0000 </r>
       <r>  -14.2192    1.0000 </r>
       <r>  -14.2061    1.0000 </r>
       <r>  -14.0388    1.0000 </r>
       <r>  -14.0265    1.0000 </r>
       <r>  -14.0208    1.0000 </r>
       <r>  -13.8947    1.0000 </r>
       <r>  -13.8784    1.0000 </r>
       <r>  -13.8644    1.0000 </r>
       <r>  -13.8002    1.0000 </r>
       <r>  -13.7680    1.0000 </r>
       <r>  -12.6824    1.0000 </r>
       <r>  -12.6175    1.0000 </r>
       <r>  -12.6014    1.0000 </r>
       <r>  -12.5573    1.0000 </r>
       <r>  -12.5524    1.0000 </r>
       <r>  -12.3800    1.0000 </r>
       <r>  -12.3614    1.0000 </r>
       <r>  -12.3498    1.0000 </r>
       <r>  -12.2866    1.0000 </r>
       <r>  -12.2782    1.0000 </r>
       <r>  -12.1015    1.0000 </r>
       <r>  -12.0883    1.0000 </r>
       <r>   -2.0837    1.0000 </r>
       <r>   -2.0041    1.0000 </r>
       <r>   -1.9455    1.0000 </r>
       <r>   -1.9404    1.0000 </r>
       <r>   -1.9153    1.0000 </r>
       <r>   -1.6313    1.0000 </r>
       <r>   -1.6280    1.0000 </r>
       <r>   -1.6173    1.0000 </r>
       <r>   -1.6075    1.0000 </r>
       <r>   -1.6025    1.0000 </r>
       <r>   -1.6006    1.0000 </r>
       <r>   -1.5804    1.0000 </r>
       <r>   -1.2921    1.0000 </r>
       <r>   -1.2199    1.0000 </r>
       <r>   -1.2007    1.0000 </r>
       <r>   -0.9633    1.0000 </r>
       <r>   -0.9555    1.0000 </r>
       <r>   -0.8966    1.0000 </r>
       <r>   -0.8761    1.0000 </r>
       <r>   -0.6772    1.0000 </r>
       <r>   -0.6454    1.0000 </r>
       <r>   -0.3697    1.0000 </r>
       <r>   -0.2971    1.0000 </r>
       <r>    0.7392    1.0000 </r>
       <r>    0.8313    1.0000 </r>
       <r>    0.9050    1.0000 </r>
       <r>    1.7044    1.0000 </r>
       <r>    1.7200    1.0000 </r>
       <r>    1.7415    1.0000 </r>
       <r>    1.7576    1.0000 </r>
       <r>    2.2296    1.0000 </r>
       <r>    2.2661    1.0000 </r>
       <r>    2.2734    1.0000 </r>
       <r>    2.2904    1.0000 </r>
       <r>    2.3052    1.0000 </r>
       <r>    2.3627    1.0000 </r>
       <r>    5.7608    0.0000 </r>
       <r>    5.7807    0.0000 </r>
       <r>    6.0171    0.0000 </r>
       <r>    6.0339    0.0000 </r>
       <r>    6.0431    0.0000 </r>
       <r>    6.0556    0.0000 </r>
       <r>    6.2147    0.0000 </r>
       <r>    6.2877    0.0000 </r>
       <r>    6.2949    0.0000 </r>
       <r>    9.4022    0.0000 </r>
       <r>    9.5240    0.0000 </r>
       <r>    9.5806    0.0000 </r>
      </set>
     </set>
    </set>
   </array>
  </eigenvalues>
  <separator name="orbital magnetization" >
   <v name="MAGDIPOLOUT">      0.00000000      0.00000000      0.00000000</v>
  </separator>
  <dos>
   <i name="efermi">      2.42380833 </i>
   <total>
    <array>
     <dimension dim="1">gridpoints</dimension>
     <dimension dim="2">spin</dimension>
     <field>energy</field>
     <field>total</field>
     <field>integrated</field>
     <set>
      <set comment="spin 1">
       <r>   -32.4380     0.0000     0.0000 </r>
       <r>   -32.2899     0.0000     0.0000 </r>
       <r>   -32.1419     0.0000     0.0000 </r>
       <r>   -31.9939     0.0000     0.0000 </r>
       <r>   -31.8458     0.0000     0.0000 </r>
       <r>   -31.6978     0.0000     0.0000 </r>
       <r>   -31.5498     0.0000     0.0000 </r>
       <r>   -31.4018     0.0000     0.0000 </r>
       <r>   -31.2537     0.0000     0.0000 </r>
       <r>   -31.1057     0.0000     0.0000 </r>
       <r>   -30.9577     0.0000     0.0000 </r>
       <r>   -30.8096     0.0000     0.0000 </r>
       <r>   -30.6616     0.0000     0.0000 </r>
       <r>   -30.5136     0.0000     0.0000 </r>
       <r>   -30.3655   138.4772     6.9601 </r>
       <r>   -30.2175     0.0000     8.0000 </r>
       <r>   -30.0695     0.0000     8.0000 </r>
       <r>   -29.9214     0.0000     8.0000 </r>
       <r>   -29.7734     0.0000     8.0000 </r>
       <r>   -29.6254     0.0000     8.0000 </r>
       <r>   -29.4773     0.0000     8.0000 </r>
       <r>   -29.3293     0.0000     8.0000 </r>
       <r>   -29.1813     0.0000     8.0000 </r>
       <r>   -29.0332     0.0000     8.0000 </r>
       <r>   -28.8852     0.0000     8.0000 </r>
       <r>   -28.7372     0.0000     8.0000 </r>
       <r>   -28.5891     0.0000     8.0000 </r>
       <r>   -28.4411     0.0000     8.0000 </r>
       <r>   -28.2931     0.0000     8.0000 </r>
       <r>   -28.1450     0.0000     8.0000 </r>
       <r>   -27.9970     0.0000     8.0000 </r>
       <r>   -27.8490     0.0000     8.0000 </r>
       <r>   -27.7009     0.0000     8.0000 </r>
       <r>   -27.5529     0.0000     8.0000 </r>
       <r>   -27.4049     0.0000     8.0000 </r>
       <r>   -27.2568     0.0000     8.0000 </r>
       <r>   -27.1088     0.0000     8.0000 </r>
       <r>   -26.9608     0.0000     8.0000 </r>
       <r>   -26.8127     0.0000     8.0000 </r>
       <r>   -26.6647     0.0000     8.0000 </r>
       <r>   -26.5167     0.0000     8.0000 </r>
       <r>   -26.3686     0.0000     8.0000 </r>
       <r>   -26.2206     0.0000     8.0000 </r>
       <r>   -26.0726     0.0000     8.0000 </r>
       <r>   -25.9245     0.0000     8.0000 </r>
       <r>   -25.7765     0.0000     8.0000 </r>
       <r>   -25.6285     0.0000     8.0000 </r>
       <r>   -25.4804     0.0000     8.0000 </r>
       <r>   -25.3324     0.0000     8.0000 </r>
       <r>   -25.1844     0.0000     8.0000 </r>
       <r>   -25.0363     0.0000     8.0000 </r>
       <r>   -24.8883     0.0000     8.0000 </r>
       <r>   -24.7403     0.0000     8.0000 </r>
       <r>   -24.5922     0.0000     8.0000 </r>
       <r>   -24.4442     0.0000     8.0000 </r>
       <r>   -24.2962     0.0000     8.0000 </r>
       <r>   -24.1481     0.0000     8.0000 </r>
       <r>   -24.0001     0.0000     8.0000 </r>
       <r>   -23.8521     0.0000     8.0000 </r>
       <r>   -23.7040     0.0000     8.0000 </r>
       <r>   -23.5560     0.0000     8.0000 </r>
       <r>   -23.4080     0.0000     8.0000 </r>
       <r>   -23.2599     0.0000     8.0000 </r>
       <r>   -23.1119     0.0000     8.0000 </r>
       <r>   -22.9639     0.0000     8.0000 </r>
       <r>   -22.8158     0.0000     8.0000 </r>
       <r>   -22.6678     0.0000     8.0000 </r>
       <r>   -22.5198     0.0000     8.0000 </r>
       <r>   -22.3717     0.0000     8.0000 </r>
       <r>   -22.2237     0.0000     8.0000 </r>
       <r>   -22.0757     0.0000     8.0000 </r>
       <r>   -21.9276     0.0000     8.0000 </r>
       <r>   -21.7796     0.0000     8.0000 </r>
       <r>   -21.6316     0.0000     8.0000 </r>
       <r>   -21.4835     0.0000     8.0000 </r>
       <r>   -21.3355     0.0000     8.0000 </r>
       <r>   -21.1875     0.0000     8.0000 </r>
       <r>   -21.0394     0.0000     8.0000 </r>
       <r>   -20.8914     0.0000     8.0000 </r>
       <r>   -20.7434     0.0000     8.0000 </r>
       <r>   -20.5953     0.0000     8.0000 </r>
       <r>   -20.4473     0.0000     8.0000 </r>
       <r>   -20.2993     0.0000     8.0000 </r>
       <r>   -20.1512     0.0000     8.0000 </r>
       <r>   -20.0032     0.0000     8.0000 </r>
       <r>   -19.8552     0.0000     8.0000 </r>
       <r>   -19.7071     0.0000     8.0000 </r>
       <r>   -19.5591     0.0000     8.0000 </r>
       <r>   -19.4111     0.0000     8.0000 </r>
       <r>   -19.2630     0.0000     8.0000 </r>
       <r>   -19.1150     0.0000     8.0000 </r>
       <r>   -18.9670     0.0000     8.0000 </r>
       <r>   -18.8189     0.0000     8.0000 </r>
       <r>   -18.6709     0.0000     8.0000 </r>
       <r>   -18.5229     0.0000     8.0000 </r>
       <r>   -18.3748     0.0000     8.0000 </r>
       <r>   -18.2268     0.0000     8.0000 </r>
       <r>   -18.0788     0.0000     8.0000 </r>
       <r>   -17.9307     0.0000     8.0000 </r>
       <r>   -17.7827     0.0000     8.0000 </r>
       <r>   -17.6347     0.0000     8.0000 </r>
       <r>   -17.4866     0.0000     8.0000 </r>
       <r>   -17.3386     0.0000     8.0000 </r>
       <r>   -17.1906     0.0000     8.0000 </r>
       <r>   -17.0425     0.0000     8.0000 </r>
       <r>   -16.8945     0.0000     8.0000 </r>
       <r>   -16.7465     0.0000     8.0000 </r>
       <r>   -16.5984     0.0000     8.0000 </r>
       <r>   -16.4504     0.0000     8.0000 </r>
       <r>   -16.3024     0.0000     8.0000 </r>
       <r>   -16.1543     0.0000     8.0000 </r>
       <r>   -16.0063     0.0000     8.0000 </r>
       <r>   -15.8583     0.0000     8.0000 </r>
       <r>   -15.7102     0.0000     8.0000 </r>
       <r>   -15.5622     0.0000     8.0000 </r>
       <r>   -15.4142     0.0000     8.0000 </r>
       <r>   -15.2661     0.0000     8.0000 </r>
       <r>   -15.1181     0.0867     8.0002 </r>
       <r>   -14.9701    11.4423     8.8872 </r>
       <r>   -14.8220    21.5547    10.9574 </r>
       <r>   -14.6740     8.3478    13.0333 </r>
       <r>   -14.5260     6.3988    14.0942 </r>
       <r>   -14.3779     5.4924    14.9099 </r>
       <r>   -14.2299     2.5442    15.5318 </r>
       <r>   -14.0819    26.4118    17.4653 </r>
       <r>   -13.9338    49.7976    24.2060 </r>
       <r>   -13.7858     4.3366    31.8969 </r>
       <r>   -13.6378     0.0000    32.0000 </r>
       <r>   -13.4897     0.0000    32.0000 </r>
       <r>   -13.3417     0.0000    32.0000 </r>
       <r>   -13.1937     0.0000    32.0000 </r>
       <r>   -13.0456     0.0000    32.0000 </r>
       <r>   -12.8976     0.0000    32.0000 </r>
       <r>   -12.7496     0.0000    32.0000 </r>
       <r>   -12.6015     7.2631    32.3665 </r>
       <r>   -12.4535    64.8605    36.0618 </r>
       <r>   -12.3055    31.8696    44.3236 </r>
       <r>   -12.1575    57.4292    49.8423 </r>
       <r>   -12.0094    10.7204    55.3460 </r>
       <r>   -11.8614     0.0000    56.0000 </r>
       <r>   -11.7134     0.0000    56.0000 </r>
       <r>   -11.5653     0.0000    56.0000 </r>
       <r>   -11.4173     0.0000    56.0000 </r>
       <r>   -11.2693     0.0000    56.0000 </r>
       <r>   -11.1212     0.0000    56.0000 </r>
       <r>   -10.9732     0.0000    56.0000 </r>
       <r>   -10.8252     0.0000    56.0000 </r>
       <r>   -10.6771     0.0000    56.0000 </r>
       <r>   -10.5291     0.0000    56.0000 </r>
       <r>   -10.3811     0.0000    56.0000 </r>
       <r>   -10.2330     0.0000    56.0000 </r>
       <r>   -10.0850     0.0000    56.0000 </r>
       <r>    -9.9370     0.0000    56.0000 </r>
       <r>    -9.7889     0.0000    56.0000 </r>
       <r>    -9.6409     0.0000    56.0000 </r>
       <r>    -9.4929     0.0000    56.0000 </r>
       <r>    -9.3448     0.0000    56.0000 </r>
       <r>    -9.1968     0.0000    56.0000 </r>
       <r>    -9.0488     0.0000    56.0000 </r>
       <r>    -8.9007     0.0000    56.0000 </r>
       <r>    -8.7527     0.0000    56.0000 </r>
       <r>    -8.6047     0.0000    56.0000 </r>
       <r>    -8.4566     0.0000    56.0000 </r>
       <r>    -8.3086     0.0000    56.0000 </r>
       <r>    -8.1606     0.0000    56.0000 </r>
       <r>    -8.0125     0.0000    56.0000 </r>
       <r>    -7.8645     0.0000    56.0000 </r>
       <r>    -7.7165     0.0000    56.0000 </r>
       <r>    -7.5684     0.0000    56.0000 </r>
       <r>    -7.4204     0.0000    56.0000 </r>
       <r>    -7.2724     0.0000    56.0000 </r>
       <r>    -7.1243     0.0000    56.0000 </r>
       <r>    -6.9763     0.0000    56.0000 </r>
       <r>    -6.8283     0.0000    56.0000 </r>
       <r>    -6.6802     0.0000    56.0000 </r>
       <r>    -6.5322     0.0000    56.0000 </r>
       <r>    -6.3842     0.0000    56.0000 </r>
       <r>    -6.2361     0.0000    56.0000 </r>
       <r>    -6.0881     0.0000    56.0000 </r>
       <r>    -5.9401     0.0000    56.0000 </r>
       <r>    -5.7920     0.0000    56.0000 </r>
       <r>    -5.6440     0.0000    56.0000 </r>
       <r>    -5.4960     0.0000    56.0000 </r>
       <r>    -5.3479     0.0000    56.0000 </r>
       <r>    -5.1999     0.0000    56.0000 </r>
       <r>    -5.0519     0.0000    56.0000 </r>
       <r>    -4.9038     0.0000    56.0000 </r>
       <r>    -4.7558     0.0000    56.0000 </r>
       <r>    -4.6078     0.0000    56.0000 </r>
       <r>    -4.4597     0.0000    56.0000 </r>
       <r>    -4.3117     0.0000    56.0000 </r>
       <r>    -4.1637     0.0000    56.0000 </r>
       <r>    -4.0156     0.0000    56.0000 </r>
       <r>    -3.8676     0.0000    56.0000 </r>
       <r>    -3.7196     0.0000    56.0000 </r>
       <r>    -3.5715     0.0000    56.0000 </r>
       <r>    -3.4235     0.0000    56.0000 </r>
       <r>    -3.2755     0.0000    56.0000 </r>
       <r>    -3.1274     0.0000    56.0000 </r>
       <r>    -2.9794     0.0000    56.0000 </r>
       <r>    -2.8314     0.0000    56.0000 </r>
       <r>    -2.6833     0.0000    56.0000 </r>
       <r>    -2.5353     0.0000    56.0000 </r>
       <r>    -2.3873     0.0000    56.0000 </r>
       <r>    -2.2392     0.0000    56.0000 </r>
       <r>    -2.0912     0.0000    56.0000 </r>
       <r>    -1.9432    10.8453    57.1552 </r>
       <r>    -1.7951     8.9783    60.2967 </r>
       <r>    -1.6471    10.4352    61.9764 </r>
       <r>    -1.4991    15.5953    64.8961 </r>
       <r>    -1.3510    20.3398    67.2902 </r>
       <r>    -1.2030    15.2202    69.5177 </r>
       <r>    -1.0550    16.2008    72.0416 </r>
       <r>    -0.9069    19.1988    75.4128 </r>
       <r>    -0.7589    20.9131    78.9268 </r>
       <r>    -0.6109    27.8725    82.4690 </r>
       <r>    -0.4628    34.5943    86.9632 </r>
       <r>    -0.3148    11.7376    90.7626 </r>
       <r>    -0.1668    12.3605    92.5801 </r>
       <r>    -0.0187    10.4975    94.2736 </r>
       <r>     0.1293    12.4271    95.9899 </r>
       <r>     0.2773     7.8149    97.3930 </r>
       <r>     0.4254     9.0457    98.6501 </r>
       <r>     0.5734    12.3750   100.4541 </r>
       <r>     0.7214    13.8900   102.1913 </r>
       <r>     0.8695     7.5553   103.4712 </r>
       <r>     1.0175    14.6648   105.2528 </r>
       <r>     1.1655    20.5650   107.8188 </r>
       <r>     1.3136    27.0662   111.3310 </r>
       <r>     1.4616    19.5045   114.3839 </r>
       <r>     1.6096    24.2396   118.0253 </r>
       <r>     1.7577    15.0417   121.3133 </r>
       <r>     1.9057    13.6684   124.2190 </r>
       <r>     2.0537     6.8017   125.8480 </r>
       <r>     2.2018     5.6342   126.7471 </r>
       <r>     2.3498     4.6270   127.9041 </r>
       <r>     2.4978     0.0000   128.0000 </r>
       <r>     2.6459     0.0000   128.0000 </r>
       <r>     2.7939     0.0000   128.0000 </r>
       <r>     2.9419     0.0000   128.0000 </r>
       <r>     3.0900     0.0000   128.0000 </r>
       <r>     3.2380     0.0000   128.0000 </r>
       <r>     3.3860     0.0000   128.0000 </r>
       <r>     3.5341     0.0000   128.0000 </r>
       <r>     3.6821     0.0000   128.0000 </r>
       <r>     3.8301     0.0000   128.0000 </r>
       <r>     3.9782     0.0000   128.0000 </r>
       <r>     4.1262     1.6080   128.1152 </r>
       <r>     4.2742     3.4118   128.5349 </r>
       <r>     4.4223     4.0123   129.0844 </r>
       <r>     4.5703     3.7460   129.7592 </r>
       <r>     4.7183     3.7589   130.3209 </r>
       <r>     4.8664     4.0226   130.8905 </r>
       <r>     5.0144     4.4835   131.5201 </r>
       <r>     5.1624    17.1679   133.5476 </r>
       <r>     5.3105    12.3456   135.6827 </r>
       <r>     5.4585    12.3700   137.4964 </r>
       <r>     5.6065    13.3893   139.3908 </r>
       <r>     5.7546    27.1107   141.6156 </r>
       <r>     5.9026    27.2095   145.4027 </r>
       <r>     6.0506     9.6827   148.1493 </r>
       <r>     6.1987     2.9149   149.0146 </r>
       <r>     6.3467     0.5242   149.3611 </r>
       <r>     6.4947     0.5222   149.4385 </r>
       <r>     6.6428     0.5202   149.5157 </r>
       <r>     6.7908     0.5183   149.5925 </r>
       <r>     6.9388     0.5163   149.6691 </r>
       <r>     7.0869     0.5143   149.7454 </r>
       <r>     7.2349     0.5123   149.8214 </r>
       <r>     7.3829     0.5103   149.8971 </r>
       <r>     7.5309     0.5083   149.9724 </r>
       <r>     7.6790     0.5063   150.0476 </r>
       <r>     7.8270     0.5550   150.1235 </r>
       <r>     7.9750     0.7256   150.2182 </r>
       <r>     8.1231     0.8962   150.3383 </r>
       <r>     8.2711     0.9366   150.4759 </r>
       <r>     8.4191     0.9469   150.6153 </r>
       <r>     8.5672     0.9573   150.7562 </r>
       <r>     8.7152     0.9677   150.8987 </r>
       <r>     8.8632     0.9782   151.0427 </r>
       <r>     9.0113     0.9439   151.1868 </r>
       <r>     9.1593     0.8532   151.3199 </r>
       <r>     9.3073     0.7626   151.4394 </r>
       <r>     9.4554     0.4962   151.5772 </r>
       <r>     9.6034     0.8017   151.7315 </r>
       <r>     9.7514     0.7768   151.8483 </r>
       <r>     9.8995     0.7519   151.9614 </r>
       <r>    10.0475     0.0000   152.0000 </r>
       <r>    10.1955     0.0000   152.0000 </r>
       <r>    10.3436     0.0000   152.0000 </r>
       <r>    10.4916     0.0000   152.0000 </r>
       <r>    10.6396     0.0000   152.0000 </r>
       <r>    10.7877     0.0000   152.0000 </r>
       <r>    10.9357     0.0000   152.0000 </r>
       <r>    11.0837     0.0000   152.0000 </r>
       <r>    11.2318     0.0000   152.0000 </r>
       <r>    11.3798     0.0000   152.0000 </r>
       <r>    11.5278     0.0000   152.0000 </r>
       <r>    11.6759     0.0000   152.0000 </r>
       <r>    11.8239     0.0000   152.0000 </r>
       <r>    11.9719     0.0000   152.0000 </r>
      </set>
     </set>
    </array>
   </total>
  </dos>
 </calculation>
 <structure name="finalpos" >
  <crystal>
   <varray name="basis" >
    <v>       3.94684634       0.00000000       0.00000000 </v>
    <v>       0.00000000       3.94684634       0.00000000 </v>
    <v>       0.00000000       0.00000000      15.81396220 </v>
   </varray>
   <i name="volume">    246.34351494 </i>
   <varray name="rec_basis" >
    <v>       0.25336684       0.00000000       0.00000000 </v>
    <v>       0.00000000       0.25336684       0.00000000 </v>
    <v>       0.00000000       0.00000000       0.06323526 </v>
   </varray>
  </crystal>
  <varray name="positions" >
   <v>       0.50000000       0.50000000       0.06323526 </v>
   <v>       0.50000000       0.00000000       0.18802519 </v>
   <v>       0.00000000       0.50000000       0.18802519 </v>
   <v>       0.50000000       0.50000000       0.31281511 </v>
   <v>       0.50000000       0.00000000       0.43760504 </v>
   <v>       0.00000000       0.50000000       0.43760504 </v>
   <v>       0.50000000       0.50000000       0.56239496 </v>
   <v>       0.50000000       0.00000000       0.68718489 </v>
   <v>       0.00000000       0.50000000       0.68718489 </v>
   <v>       0.50000000       0.50000000       0.81197481 </v>
   <v>       0.50000000       0.00000000       0.93676474 </v>
   <v>       0.00000000       0.50000000       0.93676474 </v>
   <v>       0.00000000       0.00000000       0.06323526 </v>
   <v>       0.00000000       0.00000000       0.31281511 </v>
   <v>       0.00000000       0.00000000       0.56239496 </v>
   <v>       0.00000000       0.00000000       0.81197481 </v>
   <v>       0.50000000       0.50000000       0.18802519 </v>
   <v>       0.50000000       0.50000000       0.43760504 </v>
   <v>       0.50000000       0.50000000       0.68718489 </v>
   <v>       0.50000000       0.50000000       0.93676474 </v>
  </varray>
 </structure>
</modeling>
