unknown system                          
           1
     3.946846    0.000000    0.000000
     0.000000    3.946846    0.000000
     0.000000    0.000000   15.813962
   O    Sr   Ti
  12   4   4
Direct configuration=     1
   0.50000000  0.50000000  0.06323526
   0.50000000  0.00000000  0.18802519
   0.00000000  0.50000000  0.18802519
   0.50000000  0.50000000  0.31281511
   0.50000000  0.00000000  0.43760504
   0.00000000  0.50000000  0.43760504
   0.50000000  0.50000000  0.56239496
   0.50000000  0.00000000  0.68718489
   0.00000000  0.50000000  0.68718489
   0.50000000  0.50000000  0.81197481
   0.50000000  0.00000000  0.93676474
   0.00000000  0.50000000  0.93676474
   0.00000000  0.00000000  0.06323526
   0.00000000  0.00000000  0.31281511
   0.00000000  0.00000000  0.56239496
   0.00000000  0.00000000  0.81197481
   0.50000000  0.50000000  0.18802519
   0.50000000  0.50000000  0.43760504
   0.50000000  0.50000000  0.68718489
   0.50000000  0.50000000  0.93676474
