  20  20   0   0
  0.1957362E+02  0.3905268E-09  0.3905268E-09  0.2566844E-08  0.5000000E-15
  1.000000000000000E-004
  CAR 
 unknown system                          
      9.96879637    -35.86815318  301      0.57222171      1.00000000
    -35.868  0.0000E+00  0.0000E+00
    -35.715  0.0000E+00  0.0000E+00
    -35.563  0.0000E+00  0.0000E+00
    -35.410  0.0000E+00  0.0000E+00
    -35.257  0.0000E+00  0.0000E+00
    -35.104  0.0000E+00  0.0000E+00
    -34.951  0.0000E+00  0.0000E+00
    -34.799  0.0000E+00  0.0000E+00
    -34.646  0.0000E+00  0.0000E+00
    -34.493  0.0000E+00  0.0000E+00
    -34.340  0.0000E+00  0.0000E+00
    -34.187  0.0000E+00  0.0000E+00
    -34.035  0.0000E+00  0.0000E+00
    -33.882  0.0000E+00  0.0000E+00
    -33.729  0.0000E+00  0.2000E+01
    -33.576  0.0000E+00  0.2000E+01
    -33.424  0.0000E+00  0.2000E+01
    -33.271  0.0000E+00  0.2000E+01
    -33.118  0.0000E+00  0.2000E+01
    -32.965  0.0000E+00  0.2000E+01
    -32.812  0.0000E+00  0.2000E+01
    -32.660  0.3406E+02  0.6059E+01
    -32.507  0.0000E+00  0.8000E+01
    -32.354  0.0000E+00  0.8000E+01
    -32.201  0.0000E+00  0.8000E+01
    -32.048  0.0000E+00  0.8000E+01
    -31.896  0.0000E+00  0.8000E+01
    -31.743  0.0000E+00  0.8000E+01
    -31.590  0.0000E+00  0.8000E+01
    -31.437  0.0000E+00  0.8000E+01
    -31.284  0.0000E+00  0.8000E+01
    -31.132  0.0000E+00  0.8000E+01
    -30.979  0.0000E+00  0.8000E+01
    -30.826  0.0000E+00  0.8000E+01
    -30.673  0.0000E+00  0.8000E+01
    -30.521  0.0000E+00  0.8000E+01
    -30.368  0.0000E+00  0.8000E+01
    -30.215  0.0000E+00  0.8000E+01
    -30.062  0.0000E+00  0.8000E+01
    -29.909  0.0000E+00  0.8000E+01
    -29.757  0.0000E+00  0.8000E+01
    -29.604  0.0000E+00  0.8000E+01
    -29.451  0.0000E+00  0.8000E+01
    -29.298  0.0000E+00  0.8000E+01
    -29.145  0.0000E+00  0.8000E+01
    -28.993  0.0000E+00  0.8000E+01
    -28.840  0.0000E+00  0.8000E+01
    -28.687  0.0000E+00  0.8000E+01
    -28.534  0.0000E+00  0.8000E+01
    -28.381  0.0000E+00  0.8000E+01
    -28.229  0.0000E+00  0.8000E+01
    -28.076  0.0000E+00  0.8000E+01
    -27.923  0.0000E+00  0.8000E+01
    -27.770  0.0000E+00  0.8000E+01
    -27.618  0.0000E+00  0.8000E+01
    -27.465  0.0000E+00  0.8000E+01
    -27.312  0.0000E+00  0.8000E+01
    -27.159  0.0000E+00  0.8000E+01
    -27.006  0.0000E+00  0.8000E+01
    -26.854  0.0000E+00  0.8000E+01
    -26.701  0.0000E+00  0.8000E+01
    -26.548  0.0000E+00  0.8000E+01
    -26.395  0.0000E+00  0.8000E+01
    -26.242  0.0000E+00  0.8000E+01
    -26.090  0.0000E+00  0.8000E+01
    -25.937  0.0000E+00  0.8000E+01
    -25.784  0.0000E+00  0.8000E+01
    -25.631  0.0000E+00  0.8000E+01
    -25.478  0.0000E+00  0.8000E+01
    -25.326  0.0000E+00  0.8000E+01
    -25.173  0.0000E+00  0.8000E+01
    -25.020  0.0000E+00  0.8000E+01
    -24.867  0.0000E+00  0.8000E+01
    -24.714  0.0000E+00  0.8000E+01
    -24.562  0.0000E+00  0.8000E+01
    -24.409  0.0000E+00  0.8000E+01
    -24.256  0.0000E+00  0.8000E+01
    -24.103  0.0000E+00  0.8000E+01
    -23.951  0.0000E+00  0.8000E+01
    -23.798  0.0000E+00  0.8000E+01
    -23.645  0.0000E+00  0.8000E+01
    -23.492  0.0000E+00  0.8000E+01
    -23.339  0.0000E+00  0.8000E+01
    -23.187  0.0000E+00  0.8000E+01
    -23.034  0.0000E+00  0.8000E+01
    -22.881  0.0000E+00  0.8000E+01
    -22.728  0.0000E+00  0.8000E+01
    -22.575  0.0000E+00  0.8000E+01
    -22.423  0.0000E+00  0.8000E+01
    -22.270  0.0000E+00  0.8000E+01
    -22.117  0.0000E+00  0.8000E+01
    -21.964  0.0000E+00  0.8000E+01
    -21.811  0.0000E+00  0.8000E+01
    -21.659  0.0000E+00  0.8000E+01
    -21.506  0.0000E+00  0.8000E+01
    -21.353  0.0000E+00  0.8000E+01
    -21.200  0.0000E+00  0.8000E+01
    -21.048  0.0000E+00  0.8000E+01
    -20.895  0.0000E+00  0.8000E+01
    -20.742  0.0000E+00  0.8000E+01
    -20.589  0.0000E+00  0.8000E+01
    -20.436  0.0000E+00  0.8000E+01
    -20.284  0.0000E+00  0.8000E+01
    -20.131  0.0000E+00  0.8000E+01
    -19.978  0.0000E+00  0.8000E+01
    -19.825  0.0000E+00  0.8000E+01
    -19.672  0.0000E+00  0.8000E+01
    -19.520  0.0000E+00  0.8000E+01
    -19.367  0.0000E+00  0.8000E+01
    -19.214  0.0000E+00  0.8000E+01
    -19.061  0.0000E+00  0.8000E+01
    -18.908  0.0000E+00  0.8000E+01
    -18.756  0.0000E+00  0.8000E+01
    -18.603  0.0000E+00  0.8000E+01
    -18.450  0.0000E+00  0.8000E+01
    -18.297  0.0000E+00  0.8000E+01
    -18.145  0.0000E+00  0.8000E+01
    -17.992  0.0000E+00  0.8000E+01
    -17.839  0.0000E+00  0.8000E+01
    -17.686  0.9655E+00  0.8016E+01
    -17.533  0.6426E+01  0.9294E+01
    -17.381  0.1029E+02  0.1103E+02
    -17.228  0.6565E+01  0.1215E+02
    -17.075  0.4069E+01  0.1310E+02
    -16.922  0.8661E+01  0.1457E+02
    -16.769  0.3734E+01  0.1546E+02
    -16.617  0.2641E+02  0.1844E+02
    -16.464  0.1470E+02  0.2366E+02
    -16.311  0.4668E+01  0.2663E+02
    -16.158  0.1003E+02  0.2858E+02
    -16.005  0.3420E+01  0.2978E+02
    -15.853  0.8577E+01  0.3216E+02
    -15.700  0.6216E+01  0.3392E+02
    -15.547  0.9959E-01  0.3600E+02
    -15.394  0.3526E+00  0.3604E+02
    -15.242  0.1944E+01  0.3626E+02
    -15.089  0.3925E+01  0.3662E+02
    -14.936  0.1073E+02  0.3761E+02
    -14.783  0.1852E+02  0.4108E+02
    -14.630  0.2254E+02  0.4679E+02
    -14.478  0.2827E+02  0.5129E+02
    -14.325  0.1164E+02  0.5561E+02
    -14.172  0.0000E+00  0.5600E+02
    -14.019  0.0000E+00  0.5600E+02
    -13.866  0.0000E+00  0.5600E+02
    -13.714  0.0000E+00  0.5600E+02
    -13.561  0.0000E+00  0.5600E+02
    -13.408  0.0000E+00  0.5600E+02
    -13.255  0.0000E+00  0.5600E+02
    -13.102  0.0000E+00  0.5600E+02
    -12.950  0.0000E+00  0.5600E+02
    -12.797  0.0000E+00  0.5600E+02
    -12.644  0.0000E+00  0.5600E+02
    -12.491  0.0000E+00  0.5600E+02
    -12.339  0.0000E+00  0.5600E+02
    -12.186  0.0000E+00  0.5600E+02
    -12.033  0.0000E+00  0.5600E+02
    -11.880  0.0000E+00  0.5600E+02
    -11.727  0.0000E+00  0.5600E+02
    -11.575  0.0000E+00  0.5600E+02
    -11.422  0.0000E+00  0.5600E+02
    -11.269  0.0000E+00  0.5600E+02
    -11.116  0.0000E+00  0.5600E+02
    -10.963  0.0000E+00  0.5600E+02
    -10.811  0.0000E+00  0.5600E+02
    -10.658  0.0000E+00  0.5600E+02
    -10.505  0.0000E+00  0.5600E+02
    -10.352  0.0000E+00  0.5600E+02
    -10.199  0.0000E+00  0.5600E+02
    -10.047  0.0000E+00  0.5600E+02
     -9.894  0.0000E+00  0.5600E+02
     -9.741  0.0000E+00  0.5600E+02
     -9.588  0.0000E+00  0.5600E+02
     -9.436  0.0000E+00  0.5600E+02
     -9.283  0.0000E+00  0.5600E+02
     -9.130  0.0000E+00  0.5600E+02
     -8.977  0.0000E+00  0.5600E+02
     -8.824  0.0000E+00  0.5600E+02
     -8.672  0.0000E+00  0.5600E+02
     -8.519  0.0000E+00  0.5600E+02
     -8.366  0.0000E+00  0.5600E+02
     -8.213  0.0000E+00  0.5600E+02
     -8.060  0.0000E+00  0.5600E+02
     -7.908  0.0000E+00  0.5600E+02
     -7.755  0.0000E+00  0.5600E+02
     -7.602  0.0000E+00  0.5600E+02
     -7.449  0.0000E+00  0.5600E+02
     -7.296  0.0000E+00  0.5600E+02
     -7.144  0.0000E+00  0.5600E+02
     -6.991  0.0000E+00  0.5600E+02
     -6.838  0.0000E+00  0.5600E+02
     -6.685  0.0000E+00  0.5600E+02
     -6.533  0.0000E+00  0.5600E+02
     -6.380  0.0000E+00  0.5600E+02
     -6.227  0.0000E+00  0.5600E+02
     -6.074  0.0000E+00  0.5600E+02
     -5.921  0.0000E+00  0.5600E+02
     -5.769  0.0000E+00  0.5600E+02
     -5.616  0.0000E+00  0.5600E+02
     -5.463  0.0000E+00  0.5600E+02
     -5.310  0.0000E+00  0.5600E+02
     -5.157  0.0000E+00  0.5600E+02
     -5.005  0.0000E+00  0.5600E+02
     -4.852  0.0000E+00  0.5600E+02
     -4.699  0.0000E+00  0.5600E+02
     -4.546  0.2346E+01  0.5617E+02
     -4.393  0.9224E+01  0.5799E+02
     -4.241  0.1167E+02  0.6056E+02
     -4.088  0.1432E+02  0.6290E+02
     -3.935  0.2222E+02  0.6539E+02
     -3.782  0.1554E+02  0.6759E+02
     -3.629  0.1561E+02  0.7012E+02
     -3.477  0.2007E+02  0.7273E+02
     -3.324  0.2052E+02  0.7580E+02
     -3.171  0.2493E+02  0.7911E+02
     -3.018  0.2475E+02  0.8322E+02
     -2.866  0.1656E+02  0.8639E+02
     -2.713  0.1444E+02  0.8851E+02
     -2.560  0.1388E+02  0.9068E+02
     -2.407  0.1216E+02  0.9255E+02
     -2.254  0.1372E+02  0.9454E+02
     -2.102  0.1047E+02  0.9636E+02
     -1.949  0.8149E+01  0.9792E+02
     -1.796  0.8169E+01  0.9950E+02
     -1.643  0.1145E+02  0.1014E+03
     -1.490  0.1151E+02  0.1034E+03
     -1.338  0.3726E+02  0.1063E+03
     -1.185  0.1490E+02  0.1096E+03
     -1.032  0.2119E+02  0.1130E+03
     -0.879  0.1609E+02  0.1165E+03
     -0.726  0.1999E+02  0.1189E+03
     -0.574  0.1884E+02  0.1220E+03
     -0.421  0.1145E+02  0.1245E+03
     -0.268  0.8362E+01  0.1262E+03
     -0.115  0.1620E+01  0.1273E+03
      0.037  0.1131E+01  0.1275E+03
      0.190  0.1184E+01  0.1277E+03
      0.343  0.8072E+00  0.1278E+03
      0.496  0.5579E+00  0.1279E+03
      0.649  0.0000E+00  0.1280E+03
      0.801  0.0000E+00  0.1280E+03
      0.954  0.0000E+00  0.1280E+03
      1.107  0.0000E+00  0.1280E+03
      1.260  0.0000E+00  0.1280E+03
      1.413  0.0000E+00  0.1280E+03
      1.565  0.0000E+00  0.1280E+03
      1.718  0.9749E+00  0.1281E+03
      1.871  0.3469E+01  0.1284E+03
      2.024  0.3984E+01  0.1290E+03
      2.177  0.3923E+01  0.1296E+03
      2.329  0.5216E+01  0.1303E+03
      2.482  0.8077E+01  0.1315E+03
      2.635  0.6647E+01  0.1326E+03
      2.788  0.7314E+01  0.1337E+03
      2.940  0.1059E+02  0.1350E+03
      3.093  0.1100E+02  0.1368E+03
      3.246  0.1206E+02  0.1386E+03
      3.399  0.1572E+02  0.1406E+03
      3.552  0.1614E+02  0.1434E+03
      3.704  0.1130E+02  0.1458E+03
      3.857  0.8800E+01  0.1475E+03
      4.010  0.1981E+01  0.1484E+03
      4.163  0.6057E+00  0.1486E+03
      4.316  0.6005E+00  0.1487E+03
      4.468  0.5952E+00  0.1488E+03
      4.621  0.5900E+00  0.1489E+03
      4.774  0.5847E+00  0.1490E+03
      4.927  0.5795E+00  0.1491E+03
      5.080  0.5743E+00  0.1492E+03
      5.232  0.5690E+00  0.1492E+03
      5.385  0.5638E+00  0.1493E+03
      5.538  0.6425E+00  0.1494E+03
      5.691  0.9153E+00  0.1495E+03
      5.843  0.1197E+01  0.1497E+03
      5.996  0.1256E+01  0.1499E+03
      6.149  0.1023E+01  0.1501E+03
      6.302  0.8863E+00  0.1502E+03
      6.455  0.8736E+00  0.1503E+03
      6.607  0.8603E+00  0.1505E+03
      6.760  0.8410E+00  0.1506E+03
      6.913  0.8217E+00  0.1507E+03
      7.066  0.8024E+00  0.1509E+03
      7.219  0.6959E+00  0.1510E+03
      7.371  0.6824E+00  0.1511E+03
      7.524  0.6754E+00  0.1512E+03
      7.677  0.6728E+00  0.1514E+03
      7.830  0.3934E+01  0.1518E+03
      7.983  0.0000E+00  0.1520E+03
      8.135  0.0000E+00  0.1520E+03
      8.288  0.0000E+00  0.1520E+03
      8.441  0.0000E+00  0.1520E+03
      8.594  0.0000E+00  0.1520E+03
      8.746  0.0000E+00  0.1520E+03
      8.899  0.0000E+00  0.1520E+03
      9.052  0.0000E+00  0.1520E+03
      9.205  0.0000E+00  0.1520E+03
      9.358  0.0000E+00  0.1520E+03
      9.510  0.0000E+00  0.1520E+03
      9.663  0.0000E+00  0.1520E+03
      9.816  0.0000E+00  0.1520E+03
      9.969  0.0000E+00  0.1520E+03
