unknown system                          
   3.20000000000000     
     1.000000    0.000000    0.000000
     0.000000    1.000000    0.000000
     0.000000    0.000000    1.000000
   Pt
     2
Direct
  0.000000  0.000000  0.000000
  0.500000  0.500000  0.500000
 
   36   36   36
  125.68      123.00      115.78      106.02      95.779      86.214      77.191      67.819      57.390      46.082    
  34.965      25.392      18.244      13.520      10.483      8.4811      7.2590      6.6116      6.4101      6.6116    
  7.2590      8.4811      10.483      13.520      18.244      25.392      34.965      46.082      57.390      67.819    
  77.191      86.214      95.779      106.02      115.78      123.00      123.00      120.41      113.44      103.98    
  94.034      84.693      75.823      66.573      56.287      45.168      34.278      24.933      17.970      13.368    
  10.394      8.4296      7.2291      6.5923      6.3939      6.5923      7.2291      8.4296      10.394      13.368    
  17.970      24.933      34.278      45.168      56.287      66.573      75.823      84.693      94.034      103.98    
  113.44      120.41      115.78      113.44      107.09      98.441      89.257      80.484      71.994      63.058    
  53.160      42.577      32.335      23.635      17.198      12.937      10.139      8.2820      7.1433      6.5367    
  6.3472      6.5367      7.1433      8.2820      10.139      12.937      17.198      23.635      32.335      42.577    
  53.160      63.058      71.994      80.484      89.257      98.441      107.09      113.44      106.02      103.98    
  98.441      90.818      82.560      74.446      66.385      57.837      48.492      38.713      29.448      21.716    
  16.057      12.290      9.7507      8.0573      7.0127      6.4520      6.2759      6.4520      7.0127      8.0573    
  9.7507      12.290      16.057      21.716      29.448      38.713      48.492      57.837      66.385      74.446    
  82.560      90.818      98.441      103.98      95.779      94.034      89.257      82.560      75.092      67.492    
  59.760      51.590      42.896      34.104      26.033      19.463      14.713      11.506      9.2758      7.7826    
  6.8528      6.3485      6.1890      6.3485      6.8528      7.7826      9.2758      11.506      14.713      19.463    
  26.033      34.104      42.896      51.590      59.760      67.492      75.092      82.560      89.257      94.034    
  86.214      84.693      80.484      74.446      67.492      60.192      52.679      44.895      36.945      29.267    
  22.500      17.154      13.327      10.660      8.7645      7.4873      6.6817      6.2386      6.0971      6.2386    
  6.6817      7.4873      8.7645      10.660      13.327      17.154      22.500      29.267      36.945      44.895    
  52.679      60.192      67.492      74.446      80.484      84.693      77.191      75.823      71.994      66.385    
  59.760      52.679      45.425      38.152      31.089      24.621      19.176      15.002      12.006      9.8243    
  8.2620      7.1983      6.5161      6.1345      6.0115      6.1345      6.5161      7.1983      8.2620      9.8243    
  12.006      15.002      19.176      24.621      31.089      38.152      45.425      52.679      59.760      66.385    
  71.994      75.823      67.819      66.573      63.058      57.837      51.590      44.895      38.152      31.649    
  25.655      20.456      16.269      13.123      10.798      9.0541      7.8016      6.9361      6.3698      6.0473    
  5.9422      6.0473      6.3698      6.9361      7.8016      9.0541      10.798      13.123      16.269      20.456    
  25.655      31.649      38.152      44.895      51.590      57.837      63.058      66.573      57.390      56.287    
  53.160      48.492      42.896      36.945      31.089      25.655      20.885      16.939      13.862      11.532    
  9.7328      8.3821      7.4028      6.7133      6.2523      5.9851      5.8972      5.9851      6.2523      6.7133    
  7.4028      8.3821      9.7328      11.532      13.862      16.939      20.885      25.655      31.089      36.945    
  42.896      48.492      53.160      56.287      46.082      45.168      42.577      38.713      34.104      29.267    
  24.621      20.456      16.939      14.119      11.924      10.187      8.8360      7.8200      7.0725      6.5351    
  6.1686      5.9531      5.8816      5.9531      6.1686      6.5351      7.0725      7.8200      8.8360      10.187    
  11.924      14.119      16.939      20.456      24.621      29.267      34.104      38.713      42.577      45.168    
  34.965      34.278      32.335      29.448      26.033      22.500      19.176      16.269      13.862      11.924    
  10.346      9.0842      8.1064      7.3643      6.8086      6.4015      6.1198      5.9527      5.8972      5.9527    
  6.1198      6.4015      6.8086      7.3643      8.1064      9.0842      10.346      11.924      13.862      16.269    
  19.176      22.500      26.033      29.448      32.335      34.278      25.392      24.933      23.635      21.716    
  19.463      17.154      15.002      13.123      11.532      10.187      9.0842      8.2081      7.5265      7.0025    
  6.6043      6.3092      6.1040      5.9825      5.9422      5.9825      6.1040      6.3092      6.6043      7.0025    
  7.5265      8.2081      9.0842      10.187      11.532      13.123      15.002      17.154      19.463      21.716    
  23.635      24.933      18.244      17.970      17.198      16.057      14.713      13.327      12.006      10.798    
  9.7328      8.8360      8.1064      7.5265      7.0722      6.7199      6.4512      6.2530      6.1169      6.0376    
  6.0115      6.0376      6.1169      6.2530      6.4512      6.7199      7.0722      7.5265      8.1064      8.8360    
  9.7328      10.798      12.006      13.327      14.713      16.057      17.198      17.970      13.520      13.368    
  12.937      12.290      11.506      10.660      9.8243      9.0541      8.3821      7.8200      7.3643      7.0025    
  6.7199      6.5031      6.3416      6.2270      6.1521      6.1104      6.0971      6.1104      6.1521      6.2270    
  6.3416      6.5031      6.7199      7.0025      7.3643      7.8200      8.3821      9.0541      9.8243      10.660    
  11.506      12.290      12.937      13.368      10.483      10.394      10.139      9.7507      9.2758      8.7645    
  8.2620      7.8016      7.4028      7.0725      6.8086      6.6043      6.4512      6.3416      6.2684      6.2243    
  6.2013      6.1915      6.1890      6.1915      6.2013      6.2243      6.2684      6.3416      6.4512      6.6043    
  6.8086      7.0725      7.4028      7.8016      8.2620      8.7645      9.2758      9.7507      10.139      10.394    
  8.4811      8.4296      8.2820      8.0573      7.7826      7.4873      7.1983      6.9361      6.7133      6.5351    
  6.4015      6.3092      6.2530      6.2270      6.2243      6.2366      6.2548      6.2700      6.2759      6.2700    
  6.2548      6.2366      6.2243      6.2270      6.2530      6.3092      6.4015      6.5351      6.7133      6.9361    
  7.1983      7.4873      7.7826      8.0573      8.2820      8.4296      7.2590      7.2291      7.1433      7.0127    
  6.8528      6.6817      6.5161      6.3698      6.2523      6.1686      6.1198      6.1040      6.1169      6.1521    
  6.2013      6.2548      6.3025      6.3354      6.3472      6.3354      6.3025      6.2548      6.2013      6.1521    
  6.1169      6.1040      6.1198      6.1686      6.2523      6.3698      6.5161      6.6817      6.8528      7.0127    
  7.1433      7.2291      6.6116      6.5923      6.5367      6.4520      6.3485      6.2386      6.1345      6.0473    
  5.9851      5.9531      5.9527      5.9825      6.0376      6.1104      6.1915      6.2700      6.3354      6.3787    
  6.3939      6.3787      6.3354      6.2700      6.1915      6.1104      6.0376      5.9825      5.9527      5.9531    
  5.9851      6.0473      6.1345      6.2386      6.3485      6.4520      6.5367      6.5923      6.4101      6.3939    
  6.3472      6.2759      6.1890      6.0971      6.0115      5.9422      5.8972      5.8816      5.8972      5.9422    
  6.0115      6.0971      6.1890      6.2759      6.3472      6.3939      6.4101      6.3939      6.3472      6.2759    
  6.1890      6.0971      6.0115      5.9422      5.8972      5.8816      5.8972      5.9422      6.0115      6.0971    
  6.1890      6.2759      6.3472      6.3939      6.6116      6.5923      6.5367      6.4520      6.3485      6.2386    
  6.1345      6.0473      5.9851      5.9531      5.9527      5.9825      6.0376      6.1104      6.1915      6.2700    
  6.3354      6.3787      6.3939      6.3787      6.3354      6.2700      6.1915      6.1104      6.0376      5.9825    
  5.9527      5.9531      5.9851      6.0473      6.1345      6.2386      6.3485      6.4520      6.5367      6.5923    
  7.2590      7.2291      7.1433      7.0127      6.8528      6.6817      6.5161      6.3698      6.2523      6.1686    
  6.1198      6.1040      6.1169      6.1521      6.2013      6.2548      6.3025      6.3354      6.3472      6.3354    
  6.3025      6.2548      6.2013      6.1521      6.1169      6.1040      6.1198      6.1686      6.2523      6.3698    
  6.5161      6.6817      6.8528      7.0127      7.1433      7.2291      8.4811      8.4296      8.2820      8.0573    
  7.7826      7.4873      7.1983      6.9361      6.7133      6.5351      6.4015      6.3092      6.2530      6.2270    
  6.2243      6.2366      6.2548      6.2700      6.2759      6.2700      6.2548      6.2366      6.2243      6.2270    
  6.2530      6.3092      6.4015      6.5351      6.7133      6.9361      7.1983      7.4873      7.7826      8.0573    
  8.2820      8.4296      10.483      10.394      10.139      9.7507      9.2758      8.7645      8.2620      7.8016    
  7.4028      7.0725      6.8086      6.6043      6.4512      6.3416      6.2684      6.2243      6.2013      6.1915    
  6.1890      6.1915      6.2013      6.2243      6.2684      6.3416      6.4512      6.6043      6.8086      7.0725    
  7.4028      7.8016      8.2620      8.7645      9.2758      9.7507      10.139      10.394      13.520      13.368    
  12.937      12.290      11.506      10.660      9.8243      9.0541      8.3821      7.8200      7.3643      7.0025    
  6.7199      6.5031      6.3416      6.2270      6.1521      6.1104      6.0971      6.1104      6.1521      6.2270    
  6.3416      6.5031      6.7199      7.0025      7.3643      7.8200      8.3821      9.0541      9.8243      10.660    
  11.506      12.290      12.937      13.368      18.244      17.970      17.198      16.057      14.713      13.327    
  12.006      10.798      9.7328      8.8360      8.1064      7.5265      7.0722      6.7199      6.4512      6.2530    
  6.1169      6.0376      6.0115      6.0376      6.1169      6.2530      6.4512      6.7199      7.0722      7.5265    
  8.1064      8.8360      9.7328      10.798      12.006      13.327      14.713      16.057      17.198      17.970    
  25.392      24.933      23.635      21.716      19.463      17.154      15.002      13.123      11.532      10.187    
  9.0842      8.2081      7.5265      7.0025      6.6043      6.3092      6.1040      5.9825      5.9422      5.9825    
  6.1040      6.3092      6.6043      7.0025      7.5265      8.2081      9.0842      10.187      11.532      13.123    
  15.002      17.154      19.463      21.716      23.635      24.933      34.965      34.278      32.335      29.448    
  26.033      22.500      19.176      16.269      13.862      11.924      10.346      9.0842      8.1064      7.3643    
  6.8086      6.4015      6.1198      5.9527      5.8972      5.9527      6.1198      6.4015      6.8086      7.3643    
  8.1064      9.0842      10.346      11.924      13.862      16.269      19.176      22.500      26.033      29.448    
  32.335      34.278      46.082      45.168      42.577      38.713      34.104      29.267      24.621      20.456    
  16.939      14.119      11.924      10.187      8.8360      7.8200      7.0725      6.5351      6.1686      5.9531    
  5.8816      5.9531      6.1686      6.5351      7.0725      7.8200      8.8360      10.187      11.924      14.119    
  16.939      20.456      24.621      29.267      34.104      38.713      42.577      45.168      57.390      56.287    
  53.160      48.492      42.896      36.945      31.089      25.655      20.885      16.939      13.862      11.532    
  9.7328      8.3821      7.4028      6.7133      6.2523      5.9851      5.8972      5.9851      6.2523      6.7133    
  7.4028      8.3821      9.7328      11.532      13.862      16.939      20.885      25.655      31.089      36.945    
  42.896      48.492      53.160      56.287      67.819      66.573      63.058      57.837      51.590      44.895    
  38.152      31.649      25.655      20.456      16.269      13.123      10.798      9.0541      7.8016      6.9361    
  6.3698      6.0473      5.9422      6.0473      6.3698      6.9361      7.8016      9.0541      10.798      13.123    
  16.269      20.456      25.655      31.649      38.152      44.895      51.590      57.837      63.058      66.573    
  77.191      75.823      71.994      66.385      59.760      52.679      45.425      38.152      31.089      24.621    
  19.176      15.002      12.006      9.8243      8.2620      7.1983      6.5161      6.1345      6.0115      6.1345    
  6.5161      7.1983      8.2620      9.8243      12.006      15.002      19.176      24.621      31.089      38.152    
  45.425      52.679      59.760      66.385      71.994      75.823      86.214      84.693      80.484      74.446    
  67.492      60.192      52.679      44.895      36.945      29.267      22.500      17.154      13.327      10.660    
  8.7645      7.4873      6.6817      6.2386      6.0971      6.2386      6.6817      7.4873      8.7645      10.660    
  13.327      17.154      22.500      29.267      36.945      44.895      52.679      60.192      67.492      74.446    
  80.484      84.693      95.779      94.034      89.257      82.560      75.092      67.492      59.760      51.590    
  42.896      34.104      26.033      19.463      14.713      11.506      9.2758      7.7826      6.8528      6.3485    
  6.1890      6.3485      6.8528      7.7826      9.2758      11.506      14.713      19.463      26.033      34.104    
  42.896      51.590      59.760      67.492      75.092      82.560      89.257      94.034      106.02      103.98    
  98.441      90.818      82.560      74.446      66.385      57.837      48.492      38.713      29.448      21.716    
  16.057      12.290      9.7507      8.0573      7.0127      6.4520      6.2759      6.4520      7.0127      8.0573    
  9.7507      12.290      16.057      21.716      29.448      38.713      48.492      57.837      66.385      74.446    
  82.560      90.818      98.441      103.98      115.78      113.44      107.09      98.441      89.257      80.484    
  71.994      63.058      53.160      42.577      32.335      23.635      17.198      12.937      10.139      8.2820    
  7.1433      6.5367      6.3472      6.5367      7.1433      8.2820      10.139      12.937      17.198      23.635    
  32.335      42.577      53.160      63.058      71.994      80.484      89.257      98.441      107.09      113.44    
  123.00      120.41      113.44      103.98      94.034      84.693      75.823      66.573      56.287      45.168    
  34.278      24.933      17.970      13.368      10.394      8.4296      7.2291      6.5923      6.3939      6.5923    
  7.2291      8.4296      10.394      13.368      17.970      24.933      34.278      45.168      56.287      66.573    
  75.823      84.693      94.034      103.98      113.44      120.41      123.00      120.41      113.44      103.98    
  94.034      84.693      75.823      66.573      56.287      45.168      34.278      24.933      17.970      13.368    
  10.394      8.4296      7.2291      6.5923      6.3939      6.5923      7.2291      8.4296      10.394      13.368    
  17.970      24.933      34.278      45.168      56.287      66.573      75.823      84.693      94.034      103.98    
  113.44      120.41      120.41      117.91      111.16      102.00      92.338      83.212      74.488      65.357    
  55.210      44.278      33.611      24.488      17.706      13.221      10.308      8.3801      7.2007      6.5741    
  6.3787      6.5741      7.2007      8.3801      10.308      13.221      17.706      24.488      33.611      44.278    
  55.210      65.357      74.488      83.212      92.338      102.00      111.16      117.91      113.44      111.16    
  105.02      96.630      87.692      79.106      70.748      61.923      52.159      41.756      31.724      23.231    
  16.960      12.805      10.061      8.2385      7.1193      6.5222      6.3354      6.5222      7.1193      8.2385    
  10.061      12.805      16.960      23.231      31.724      41.756      52.159      61.923      70.748      79.106    
  87.692      96.630      105.02      111.16      103.98      102.00      96.630      89.220      81.164      73.206    
  65.260      56.818      47.603      37.993      28.920      21.373      15.856      12.178      9.6866      8.0234    
  6.9959      6.4437      6.2700      6.4437      6.9959      8.0234      9.6866      12.178      15.856      21.373    
  28.920      37.993      47.603      56.818      65.260      73.206      81.164      89.220      96.630      102.00    
  94.034      92.338      87.692      81.164      73.859      66.391      58.765      50.702      42.137      33.503    
  25.604      19.190      14.558      11.419      9.2291      7.7614      6.8462      6.3490      6.1915      6.3490    
  6.8462      7.7614      9.2291      11.419      14.558      19.190      25.604      33.503      42.137      50.702    
  58.765      66.391      73.859      81.164      87.692      92.338      84.693      83.212      79.106      73.206    
  66.391      59.214      51.811      44.141      36.322      28.791      22.173      16.954      13.217      10.600    
  8.7379      7.4814      6.6876      6.2502      6.1104      6.2502      6.6876      7.4814      8.7379      10.600    
  13.217      16.954      22.173      28.791      36.322      44.141      51.811      59.214      66.391      73.206    
  79.106      83.212      75.823      74.488      70.748      65.260      58.765      51.811      44.680      37.532    
  30.599      24.266      18.945      14.869      11.937      9.7928      8.2566      7.2093      6.5363      6.1593    
  6.0376      6.1593      6.5363      7.2093      8.2566      9.7928      11.937      14.869      18.945      24.266    
  30.599      37.532      44.680      51.811      58.765      65.260      70.748      74.488      66.573      65.357    
  61.923      56.818      50.702      44.141      37.532      31.158      25.291      20.209      16.120      13.045    
  10.763      9.0498      7.8174      6.9646      6.4055      6.0865      5.9825      6.0865      6.4055      6.9646    
  7.8174      9.0498      10.763      13.045      16.120      20.209      25.291      31.158      37.532      44.141    
  50.702      56.818      61.923      65.357      56.287      55.210      52.159      47.603      42.137      36.322    
  30.599      25.291      20.634      16.783      13.779      11.497      9.7301      8.4026      7.4389      6.7592    
  6.3039      6.0397      5.9527      6.0397      6.3039      6.7592      7.4389      8.4026      9.7301      11.497    
  13.779      16.783      20.634      25.291      30.599      36.322      42.137      47.603      52.159      55.210    
  45.168      44.278      41.756      37.993      33.503      28.791      24.266      20.209      16.783      14.035    
  11.889      10.186      8.8607      7.8627      7.1275      6.5981      6.2364      6.0236      5.9531      6.0236    
  6.2364      6.5981      7.1275      7.8627      8.8607      10.186      11.889      14.035      16.783      20.209    
  24.266      28.791      33.503      37.993      41.756      44.278      34.278      33.611      31.724      28.920    
  25.604      22.173      18.945      16.120      13.779      11.889      10.346      9.1112      8.1538      7.4263    
  6.8810      6.4810      6.2040      6.0397      5.9851      6.0397      6.2040      6.4810      6.8810      7.4263    
  8.1538      9.1112      10.346      11.889      13.779      16.120      18.945      22.173      25.604      28.920    
  31.724      33.611      24.933      24.488      23.231      21.373      19.190      16.954      14.869      13.045    
  11.497      10.186      9.1112      8.2572      7.5924      7.0812      6.6926      6.4048      6.2049      6.0865    
  6.0473      6.0865      6.2049      6.4048      6.6926      7.0812      7.5924      8.2572      9.1112      10.186    
  11.497      13.045      14.869      16.954      19.190      21.373      23.231      24.488      17.970      17.706    
  16.960      15.856      14.558      13.217      11.937      10.763      9.7301      8.8607      8.1538      7.5924    
  7.1532      6.8132      6.5546      6.3646      6.2347      6.1593      6.1345      6.1593      6.2347      6.3646    
  6.5546      6.8132      7.1532      7.5924      8.1538      8.8607      9.7301      10.763      11.937      13.217    
  14.558      15.856      16.960      17.706      13.368      13.221      12.805      12.178      11.419      10.600    
  9.7928      9.0498      8.4026      7.8627      7.4263      7.0812      6.8132      6.6094      6.4592      6.3543    
  6.2870      6.2502      6.2386      6.2502      6.2870      6.3543      6.4592      6.6094      6.8132      7.0812    
  7.4263      7.8627      8.4026      9.0498      9.7928      10.600      11.419      12.178      12.805      13.221    
  10.394      10.308      10.061      9.6866      9.2291      8.7379      8.2566      7.8174      7.4389      7.1275    
  6.8810      6.6926      6.5546      6.4592      6.3992      6.3666      6.3528      6.3490      6.3485      6.3490    
  6.3528      6.3666      6.3992      6.4592      6.5546      6.6926      6.8810      7.1275      7.4389      7.8174    
  8.2566      8.7379      9.2291      9.6866      10.061      10.308      8.4296      8.3801      8.2385      8.0234    
  7.7614      7.4814      7.2093      6.9646      6.7592      6.5981      6.4810      6.4048      6.3646      6.3543    
  6.3666      6.3924      6.4214      6.4437      6.4520      6.4437      6.4214      6.3924      6.3666      6.3543    
  6.3646      6.4048      6.4810      6.5981      6.7592      6.9646      7.2093      7.4814      7.7614      8.0234    
  8.2385      8.3801      7.2291      7.2007      7.1193      6.9959      6.8462      6.6876      6.5363      6.4055    
  6.3039      6.2364      6.2040      6.2049      6.2347      6.2870      6.3528      6.4214      6.4813      6.5222    
  6.5367      6.5222      6.4813      6.4214      6.3528      6.2870      6.2347      6.2049      6.2040      6.2364    
  6.3039      6.4055      6.5363      6.6876      6.8462      6.9959      7.1193      7.2007      6.5923      6.5741    
  6.5222      6.4437      6.3490      6.2502      6.1593      6.0865      6.0397      6.0236      6.0397      6.0865    
  6.1593      6.2502      6.3490      6.4437      6.5222      6.5741      6.5923      6.5741      6.5222      6.4437    
  6.3490      6.2502      6.1593      6.0865      6.0397      6.0236      6.0397      6.0865      6.1593      6.2502    
  6.3490      6.4437      6.5222      6.5741      6.3939      6.3787      6.3354      6.2700      6.1915      6.1104    
  6.0376      5.9825      5.9527      5.9531      5.9851      6.0473      6.1345      6.2386      6.3485      6.4520    
  6.5367      6.5923      6.6116      6.5923      6.5367      6.4520      6.3485      6.2386      6.1345      6.0473    
  5.9851      5.9531      5.9527      5.9825      6.0376      6.1104      6.1915      6.2700      6.3354      6.3787    
  6.5923      6.5741      6.5222      6.4437      6.3490      6.2502      6.1593      6.0865      6.0397      6.0236    
  6.0397      6.0865      6.1593      6.2502      6.3490      6.4437      6.5222      6.5741      6.5923      6.5741    
  6.5222      6.4437      6.3490      6.2502      6.1593      6.0865      6.0397      6.0236      6.0397      6.0865    
  6.1593      6.2502      6.3490      6.4437      6.5222      6.5741      7.2291      7.2007      7.1193      6.9959    
  6.8462      6.6876      6.5363      6.4055      6.3039      6.2364      6.2040      6.2049      6.2347      6.2870    
  6.3528      6.4214      6.4813      6.5222      6.5367      6.5222      6.4813      6.4214      6.3528      6.2870    
  6.2347      6.2049      6.2040      6.2364      6.3039      6.4055      6.5363      6.6876      6.8462      6.9959    
  7.1193      7.2007      8.4296      8.3801      8.2385      8.0234      7.7614      7.4814      7.2093      6.9646    
  6.7592      6.5981      6.4810      6.4048      6.3646      6.3543      6.3666      6.3924      6.4214      6.4437    
  6.4520      6.4437      6.4214      6.3924      6.3666      6.3543      6.3646      6.4048      6.4810      6.5981    
  6.7592      6.9646      7.2093      7.4814      7.7614      8.0234      8.2385      8.3801      10.394      10.308    
  10.061      9.6866      9.2291      8.7379      8.2566      7.8174      7.4389      7.1275      6.8810      6.6926    
  6.5546      6.4592      6.3992      6.3666      6.3528      6.3490      6.3485      6.3490      6.3528      6.3666    
  6.3992      6.4592      6.5546      6.6926      6.8810      7.1275      7.4389      7.8174      8.2566      8.7379    
  9.2291      9.6866      10.061      10.308      13.368      13.221      12.805      12.178      11.419      10.600    
  9.7928      9.0498      8.4026      7.8627      7.4263      7.0812      6.8132      6.6094      6.4592      6.3543    
  6.2870      6.2502      6.2386      6.2502      6.2870      6.3543      6.4592      6.6094      6.8132      7.0812    
  7.4263      7.8627      8.4026      9.0498      9.7928      10.600      11.419      12.178      12.805      13.221    
  17.970      17.706      16.960      15.856      14.558      13.217      11.937      10.763      9.7301      8.8607    
  8.1538      7.5924      7.1532      6.8132      6.5546      6.3646      6.2347      6.1593      6.1345      6.1593    
  6.2347      6.3646      6.5546      6.8132      7.1532      7.5924      8.1538      8.8607      9.7301      10.763    
  11.937      13.217      14.558      15.856      16.960      17.706      24.933      24.488      23.231      21.373    
  19.190      16.954      14.869      13.045      11.497      10.186      9.1112      8.2572      7.5924      7.0812    
  6.6926      6.4048      6.2049      6.0865      6.0473      6.0865      6.2049      6.4048      6.6926      7.0812    
  7.5924      8.2572      9.1112      10.186      11.497      13.045      14.869      16.954      19.190      21.373    
  23.231      24.488      34.278      33.611      31.724      28.920      25.604      22.173      18.945      16.120    
  13.779      11.889      10.346      9.1112      8.1538      7.4263      6.8810      6.4810      6.2040      6.0397    
  5.9851      6.0397      6.2040      6.4810      6.8810      7.4263      8.1538      9.1112      10.346      11.889    
  13.779      16.120      18.945      22.173      25.604      28.920      31.724      33.611      45.168      44.278    
  41.756      37.993      33.503      28.791      24.266      20.209      16.783      14.035      11.889      10.186    
  8.8607      7.8627      7.1275      6.5981      6.2364      6.0236      5.9531      6.0236      6.2364      6.5981    
  7.1275      7.8627      8.8607      10.186      11.889      14.035      16.783      20.209      24.266      28.791    
  33.503      37.993      41.756      44.278      56.287      55.210      52.159      47.603      42.137      36.322    
  30.599      25.291      20.634      16.783      13.779      11.497      9.7301      8.4026      7.4389      6.7592    
  6.3039      6.0397      5.9527      6.0397      6.3039      6.7592      7.4389      8.4026      9.7301      11.497    
  13.779      16.783      20.634      25.291      30.599      36.322      42.137      47.603      52.159      55.210    
  66.573      65.357      61.923      56.818      50.702      44.141      37.532      31.158      25.291      20.209    
  16.120      13.045      10.763      9.0498      7.8174      6.9646      6.4055      6.0865      5.9825      6.0865    
  6.4055      6.9646      7.8174      9.0498      10.763      13.045      16.120      20.209      25.291      31.158    
  37.532      44.141      50.702      56.818      61.923      65.357      75.823      74.488      70.748      65.260    
  58.765      51.811      44.680      37.532      30.599      24.266      18.945      14.869      11.937      9.7928    
  8.2566      7.2093      6.5363      6.1593      6.0376      6.1593      6.5363      7.2093      8.2566      9.7928    
  11.937      14.869      18.945      24.266      30.599      37.532      44.680      51.811      58.765      65.260    
  70.748      74.488      84.693      83.212      79.106      73.206      66.391      59.214      51.811      44.141    
  36.322      28.791      22.173      16.954      13.217      10.600      8.7379      7.4814      6.6876      6.2502    
  6.1104      6.2502      6.6876      7.4814      8.7379      10.600      13.217      16.954      22.173      28.791    
  36.322      44.141      51.811      59.214      66.391      73.206      79.106      83.212      94.034      92.338    