unknown system                          
   3.20000000000000     
     1.000000    0.000000    0.000000
     0.000000    1.000000    0.000000
     0.000000    0.000000    1.000000
   Pt
     2
Direct
  0.000000  0.000000  0.000000
  0.500000  0.500000  0.500000
 
   36   36   36
 0.12568125690E+03 0.12300295714E+03 0.11578458280E+03 0.10601678231E+03 0.95779022826E+02
 0.86213735716E+02 0.77190819283E+02 0.67819012729E+02 0.57390303489E+02 0.46081694070E+02
 0.34964645123E+02 0.25392438296E+02 0.18243874965E+02 0.13519612576E+02 0.10483214305E+02
 0.84811172471E+01 0.72589699960E+01 0.66116111458E+01 0.64101159353E+01 0.66116111458E+01
 0.72589699960E+01 0.84811172471E+01 0.10483214305E+02 0.13519612576E+02 0.18243874965E+02
 0.25392438296E+02 0.34964645123E+02 0.46081694070E+02 0.57390303489E+02 0.67819012729E+02
 0.77190819283E+02 0.86213735716E+02 0.95779022826E+02 0.10601678231E+03 0.11578458280E+03
 0.12300295714E+03 0.12300295714E+03 0.12041475885E+03 0.11343541285E+03 0.10397746059E+03
 0.94034013530E+02 0.84693275820E+02 0.75823304051E+02 0.66573456594E+02 0.56286653947E+02
 0.45167686181E+02 0.34277941618E+02 0.24932901621E+02 0.17970342309E+02 0.13367960679E+02
 0.10394185723E+02 0.84296283192E+01 0.72290893093E+01 0.65922761429E+01 0.63938671306E+01
 0.65922761429E+01 0.72290893093E+01 0.84296283192E+01 0.10394185723E+02 0.13367960679E+02
 0.17970342309E+02 0.24932901621E+02 0.34277941618E+02 0.45167686181E+02 0.56286653947E+02
 0.66573456594E+02 0.75823304051E+02 0.84693275820E+02 0.94034013530E+02 0.10397746059E+03
 0.11343541285E+03 0.12041475885E+03 0.11578458280E+03 0.11343541285E+03 0.10708765616E+03
 0.98441315835E+02 0.89257433549E+02 0.80483997711E+02 0.71994441869E+02 0.63057981116E+02
 0.53159942318E+02 0.42577167356E+02 0.32334686706E+02 0.23635234582E+02 0.17198223313E+02
 0.12936988272E+02 0.10139024861E+02 0.82820210599E+01 0.71433477809E+01 0.65367377909E+01
 0.63471719697E+01 0.65367377909E+01 0.71433477809E+01 0.82820210599E+01 0.10139024861E+02
 0.12936988272E+02 0.17198223313E+02 0.23635234582E+02 0.32334686706E+02 0.42577167356E+02
 0.53159942318E+02 0.63057981116E+02 0.71994441869E+02 0.80483997711E+02 0.89257433549E+02
 0.98441315835E+02 0.10708765616E+03 0.11343541285E+03 0.10601678231E+03 0.10397746059E+03
 0.98441315835E+02 0.90818050779E+02 0.82560242789E+02 0.74445690322E+02 0.66385030595E+02
 0.57837399599E+02 0.48492293112E+02 0.38713058309E+02 0.29447861508E+02 0.21716213685E+02
 0.16056582716E+02 0.12289714983E+02 0.97507027811E+01 0.80573221067E+01 0.70126643791E+01
 0.64520039798E+01 0.62759094410E+01 0.64520039798E+01 0.70126643791E+01 0.80573221067E+01
 0.97507027811E+01 0.12289714983E+02 0.16056582716E+02 0.21716213685E+02 0.29447861508E+02
 0.38713058309E+02 0.48492293112E+02 0.57837399599E+02 0.66385030595E+02 0.74445690322E+02
 0.82560242789E+02 0.90818050779E+02 0.98441315835E+02 0.10397746059E+03 0.95779022826E+02
 0.94034013530E+02 0.89257433549E+02 0.82560242789E+02 0.75092241698E+02 0.67492404946E+02
 0.59759517939E+02 0.51590064930E+02 0.42895702234E+02 0.34103589865E+02 0.26032644832E+02
 0.19462501602E+02 0.14713447113E+02 0.11505523811E+02 0.92757547905E+01 0.77825616193E+01
 0.68528460885E+01 0.63485209670E+01 0.61889907750E+01 0.63485209670E+01 0.68528460885E+01
 0.77825616193E+01 0.92757547905E+01 0.11505523811E+02 0.14713447113E+02 0.19462501602E+02
 0.26032644832E+02 0.34103589865E+02 0.42895702234E+02 0.51590064930E+02 0.59759517939E+02
 0.67492404946E+02 0.75092241698E+02 0.82560242789E+02 0.89257433549E+02 0.94034013530E+02
 0.86213735716E+02 0.84693275820E+02 0.80483997711E+02 0.74445690322E+02 0.67492404946E+02
 0.60192161661E+02 0.52678585827E+02 0.44894677073E+02 0.36944585824E+02 0.29266699692E+02
 0.22499750493E+02 0.17153623011E+02 0.13326795978E+02 0.10659855207E+02 0.87645185081E+01
 0.74872832169E+01 0.66816927338E+01 0.62385769505E+01 0.60971482015E+01 0.62385769505E+01
 0.66816927338E+01 0.74872832169E+01 0.87645185081E+01 0.10659855207E+02 0.13326795978E+02
 0.17153623011E+02 0.22499750493E+02 0.29266699692E+02 0.36944585824E+02 0.44894677073E+02
 0.52678585827E+02 0.60192161661E+02 0.67492404946E+02 0.74445690322E+02 0.80483997711E+02
 0.84693275820E+02 0.77190819283E+02 0.75823304051E+02 0.71994441869E+02 0.66385030595E+02
 0.59759517939E+02 0.52678585827E+02 0.45425462916E+02 0.38152421881E+02 0.31088703745E+02
 0.24620865019E+02 0.19176227167E+02 0.15001932034E+02 0.12006066354E+02 0.98243461908E+01
 0.82619847101E+01 0.71983138114E+01 0.65160956751E+01 0.61345421491E+01 0.60115073811E+01
 0.61345421491E+01 0.65160956751E+01 0.71983138114E+01 0.82619847101E+01 0.98243461908E+01
 0.12006066354E+02 0.15001932034E+02 0.19176227167E+02 0.24620865019E+02 0.31088703745E+02
 0.38152421881E+02 0.45425462916E+02 0.52678585827E+02 0.59759517939E+02 0.66385030595E+02
 0.71994441869E+02 0.75823304051E+02 0.67819012729E+02 0.66573456594E+02 0.63057981116E+02
 0.57837399599E+02 0.51590064930E+02 0.44894677073E+02 0.38152421881E+02 0.31648839392E+02
 0.25655204529E+02 0.20456013302E+02 0.16269048743E+02 0.13122846971E+02 0.10797534536E+02
 0.90541434944E+01 0.78015616854E+01 0.69361036284E+01 0.63698117349E+01 0.60472992473E+01
 0.59421973950E+01 0.60472992473E+01 0.63698117349E+01 0.69361036284E+01 0.78015616854E+01
 0.90541434944E+01 0.10797534536E+02 0.13122846971E+02 0.16269048743E+02 0.20456013302E+02
 0.25655204529E+02 0.31648839392E+02 0.38152421881E+02 0.44894677073E+02 0.51590064930E+02
 0.57837399599E+02 0.63057981116E+02 0.66573456594E+02 0.57390303489E+02 0.56286653947E+02
 0.53159942318E+02 0.48492293112E+02 0.42895702234E+02 0.36944585824E+02 0.31088703745E+02
 0.25655204529E+02 0.20884746954E+02 0.16938853620E+02 0.13861504132E+02 0.11531959676E+02
 0.97328042020E+01 0.83820504634E+01 0.74027665636E+01 0.67132585680E+01 0.62522940180E+01
 0.59851187054E+01 0.58972140377E+01 0.59851187054E+01 0.62522940180E+01 0.67132585680E+01
 0.74027665636E+01 0.83820504634E+01 0.97328042020E+01 0.11531959676E+02 0.13861504132E+02
 0.16938853620E+02 0.20884746954E+02 0.25655204529E+02 0.31088703745E+02 0.36944585824E+02
 0.42895702234E+02 0.48492293112E+02 0.53159942318E+02 0.56286653947E+02 0.46081694070E+02
 0.45167686181E+02 0.42577167356E+02 0.38713058309E+02 0.34103589865E+02 0.29266699692E+02
 0.24620865019E+02 0.20456013302E+02 0.16938853620E+02 0.14118911104E+02 0.11923535698E+02
 0.10187094405E+02 0.88360496832E+01 0.78199771856E+01 0.70725015426E+01 0.65351034021E+01
 0.61685637600E+01 0.59530511948E+01 0.58816399262E+01 0.59530511948E+01 0.61685637600E+01
 0.65351034021E+01 0.70725015426E+01 0.78199771856E+01 0.88360496832E+01 0.10187094405E+02
 0.11923535698E+02 0.14118911104E+02 0.16938853620E+02 0.20456013302E+02 0.24620865019E+02
 0.29266699692E+02 0.34103589865E+02 0.38713058309E+02 0.42577167356E+02 0.45167686181E+02
 0.34964645123E+02 0.34277941618E+02 0.32334686706E+02 0.29447861508E+02 0.26032644832E+02
 0.22499750493E+02 0.19176227167E+02 0.16269048743E+02 0.13861504132E+02 0.11923535698E+02
 0.10346416406E+02 0.90842084463E+01 0.81064018297E+01 0.73642602894E+01 0.68086365746E+01
 0.64015308273E+01 0.61197789671E+01 0.59527427319E+01 0.58972140377E+01 0.59527427319E+01
 0.61197789671E+01 0.64015308273E+01 0.68086365746E+01 0.73642602894E+01 0.81064018297E+01
 0.90842084463E+01 0.10346416406E+02 0.11923535698E+02 0.13861504132E+02 0.16269048743E+02
 0.19176227167E+02 0.22499750493E+02 0.26032644832E+02 0.29447861508E+02 0.32334686706E+02
 0.34277941618E+02 0.25392438296E+02 0.24932901621E+02 0.23635234582E+02 0.21716213685E+02
 0.19462501602E+02 0.17153623011E+02 0.15001932034E+02 0.13122846971E+02 0.11531959676E+02
 0.10187094405E+02 0.90842084463E+01 0.82081361177E+01 0.75265242217E+01 0.70025361795E+01
 0.66042656517E+01 0.63091616491E+01 0.61040249335E+01 0.59825116670E+01 0.59421973950E+01
 0.59825116670E+01 0.61040249335E+01 0.63091616491E+01 0.66042656517E+01 0.70025361795E+01
 0.75265242217E+01 0.82081361177E+01 0.90842084463E+01 0.10187094405E+02 0.11531959676E+02
 0.13122846971E+02 0.15001932034E+02 0.17153623011E+02 0.19462501602E+02 0.21716213685E+02
 0.23635234582E+02 0.24932901621E+02 0.18243874965E+02 0.17970342309E+02 0.17198223313E+02
 0.16056582716E+02 0.14713447113E+02 0.13326795978E+02 0.12006066354E+02 0.10797534536E+02
 0.97328042020E+01 0.88360496832E+01 0.81064018297E+01 0.75265242217E+01 0.70722030527E+01
 0.67199493977E+01 0.64511707998E+01 0.62529782992E+01 0.61169497372E+01 0.60375768455E+01
 0.60115073811E+01 0.60375768455E+01 0.61169497372E+01 0.62529782992E+01 0.64511707998E+01
 0.67199493977E+01 0.70722030527E+01 0.75265242217E+01 0.81064018297E+01 0.88360496832E+01
 0.97328042020E+01 0.10797534536E+02 0.12006066354E+02 0.13326795978E+02 0.14713447113E+02
 0.16056582716E+02 0.17198223313E+02 0.17970342309E+02 0.13519612576E+02 0.13367960679E+02
 0.12936988272E+02 0.12289714983E+02 0.11505523811E+02 0.10659855207E+02 0.98243461908E+01
 0.90541434944E+01 0.83820504634E+01 0.78199771856E+01 0.73642602894E+01 0.70025361795E+01
 0.67199493977E+01 0.65031490078E+01 0.63416137979E+01 0.62270220829E+01 0.61521235932E+01
 0.61104381836E+01 0.60971482015E+01 0.61104381836E+01 0.61521235932E+01 0.62270220829E+01
 0.63416137979E+01 0.65031490078E+01 0.67199493977E+01 0.70025361795E+01 0.73642602894E+01
 0.78199771856E+01 0.83820504634E+01 0.90541434944E+01 0.98243461908E+01 0.10659855207E+02
 0.11505523811E+02 0.12289714983E+02 0.12936988272E+02 0.13367960679E+02 0.10483214305E+02
 0.10394185723E+02 0.10139024861E+02 0.97507027811E+01 0.92757547905E+01 0.87645185081E+01
 0.82619847101E+01 0.78015616854E+01 0.74027665636E+01 0.70725015426E+01 0.68086365746E+01
 0.66042656517E+01 0.64511707998E+01 0.63416137979E+01 0.62684394596E+01 0.62243122867E+01
 0.62012816911E+01 0.61915000142E+01 0.61889907750E+01 0.61915000142E+01 0.62012816911E+01
 0.62243122867E+01 0.62684394596E+01 0.63416137979E+01 0.64511707998E+01 0.66042656517E+01
 0.68086365746E+01 0.70725015426E+01 0.74027665636E+01 0.78015616854E+01 0.82619847101E+01
 0.87645185081E+01 0.92757547905E+01 0.97507027811E+01 0.10139024861E+02 0.10394185723E+02
 0.84811172471E+01 0.84296283192E+01 0.82820210599E+01 0.80573221067E+01 0.77825616193E+01
 0.74872832169E+01 0.71983138114E+01 0.69361036284E+01 0.67132585680E+01 0.65351034021E+01
 0.64015308273E+01 0.63091616491E+01 0.62529782992E+01 0.62270220829E+01 0.62243122867E+01
 0.62366126475E+01 0.62547755974E+01 0.62700283602E+01 0.62759094410E+01 0.62700283602E+01
 0.62547755974E+01 0.62366126475E+01 0.62243122867E+01 0.62270220829E+01 0.62529782992E+01
 0.63091616491E+01 0.64015308273E+01 0.65351034021E+01 0.67132585680E+01 0.69361036284E+01
 0.71983138114E+01 0.74872832169E+01 0.77825616193E+01 0.80573221067E+01 0.82820210599E+01
 0.84296283192E+01 0.72589699960E+01 0.72290893093E+01 0.71433477809E+01 0.70126643791E+01
 0.68528460885E+01 0.66816927338E+01 0.65160956751E+01 0.63698117349E+01 0.62522940180E+01
 0.61685637600E+01 0.61197789671E+01 0.61040249335E+01 0.61169497372E+01 0.61521235932E+01
 0.62012816911E+01 0.62547755974E+01 0.63025152595E+01 0.63354341589E+01 0.63471719697E+01
 0.63354341589E+01 0.63025152595E+01 0.62547755974E+01 0.62012816911E+01 0.61521235932E+01
 0.61169497372E+01 0.61040249335E+01 0.61197789671E+01 0.61685637600E+01 0.62522940180E+01
 0.63698117349E+01 0.65160956751E+01 0.66816927338E+01 0.68528460885E+01 0.70126643791E+01
 0.71433477809E+01 0.72290893093E+01 0.66116111458E+01 0.65922761429E+01 0.65367377909E+01
 0.64520039798E+01 0.63485209670E+01 0.62385769505E+01 0.61345421491E+01 0.60472992473E+01
 0.59851187054E+01 0.59530511948E+01 0.59527427319E+01 0.59825116670E+01 0.60375768455E+01
 0.61104381836E+01 0.61915000142E+01 0.62700283602E+01 0.63354341589E+01 0.63787267748E+01
 0.63938671306E+01 0.63787267748E+01 0.63354341589E+01 0.62700283602E+01 0.61915000142E+01
 0.61104381836E+01 0.60375768455E+01 0.59825116670E+01 0.59527427319E+01 0.59530511948E+01
 0.59851187054E+01 0.60472992473E+01 0.61345421491E+01 0.62385769505E+01 0.63485209670E+01
 0.64520039798E+01 0.65367377909E+01 0.65922761429E+01 0.64101159353E+01 0.63938671306E+01
 0.63471719697E+01 0.62759094410E+01 0.61889907750E+01 0.60971482015E+01 0.60115073811E+01
 0.59421973950E+01 0.58972140377E+01 0.58816399262E+01 0.58972140377E+01 0.59421973950E+01
 0.60115073811E+01 0.60971482015E+01 0.61889907750E+01 0.62759094410E+01 0.63471719697E+01
 0.63938671306E+01 0.64101159353E+01 0.63938671306E+01 0.63471719697E+01 0.62759094410E+01
 0.61889907750E+01 0.60971482015E+01 0.60115073811E+01 0.59421973950E+01 0.58972140377E+01
 0.58816399262E+01 0.58972140377E+01 0.59421973950E+01 0.60115073811E+01 0.60971482015E+01
 0.61889907750E+01 0.62759094410E+01 0.63471719697E+01 0.63938671306E+01 0.66116111458E+01
 0.65922761429E+01 0.65367377909E+01 0.64520039798E+01 0.63485209670E+01 0.62385769505E+01
 0.61345421491E+01 0.60472992473E+01 0.59851187054E+01 0.59530511948E+01 0.59527427319E+01
 0.59825116670E+01 0.60375768455E+01 0.61104381836E+01 0.61915000142E+01 0.62700283602E+01
 0.63354341589E+01 0.63787267748E+01 0.63938671306E+01 0.63787267748E+01 0.63354341589E+01
 0.62700283602E+01 0.61915000142E+01 0.61104381836E+01 0.60375768455E+01 0.59825116670E+01
 0.59527427319E+01 0.59530511948E+01 0.59851187054E+01 0.60472992473E+01 0.61345421491E+01
 0.62385769505E+01 0.63485209670E+01 0.64520039798E+01 0.65367377909E+01 0.65922761429E+01
 0.72589699960E+01 0.72290893093E+01 0.71433477809E+01 0.70126643791E+01 0.68528460885E+01
 0.66816927338E+01 0.65160956751E+01 0.63698117349E+01 0.62522940180E+01 0.61685637600E+01
 0.61197789671E+01 0.61040249335E+01 0.61169497372E+01 0.61521235932E+01 0.62012816911E+01
 0.62547755974E+01 0.63025152595E+01 0.63354341589E+01 0.63471719697E+01 0.63354341589E+01
 0.63025152595E+01 0.62547755974E+01 0.62012816911E+01 0.61521235932E+01 0.61169497372E+01
 0.61040249335E+01 0.61197789671E+01 0.61685637600E+01 0.62522940180E+01 0.63698117349E+01
 0.65160956751E+01 0.66816927338E+01 0.68528460885E+01 0.70126643791E+01 0.71433477809E+01
 0.72290893093E+01 0.84811172471E+01 0.84296283192E+01 0.82820210599E+01 0.80573221067E+01
 0.77825616193E+01 0.74872832169E+01 0.71983138114E+01 0.69361036284E+01 0.67132585680E+01
 0.65351034021E+01 0.64015308273E+01 0.63091616491E+01 0.62529782992E+01 0.62270220829E+01
 0.62243122867E+01 0.62366126475E+01 0.62547755974E+01 0.62700283602E+01 0.62759094410E+01
 0.62700283602E+01 0.62547755974E+01 0.62366126475E+01 0.62243122867E+01 0.62270220829E+01
 0.62529782992E+01 0.63091616491E+01 0.64015308273E+01 0.65351034021E+01 0.67132585680E+01
 0.69361036284E+01 0.71983138114E+01 0.74872832169E+01 0.77825616193E+01 0.80573221067E+01
 0.82820210599E+01 0.84296283192E+01 0.10483214305E+02 0.10394185723E+02 0.10139024861E+02
 0.97507027811E+01 0.92757547905E+01 0.87645185081E+01 0.82619847101E+01 0.78015616854E+01
 0.74027665636E+01 0.70725015426E+01 0.68086365746E+01 0.66042656517E+01 0.64511707998E+01
 0.63416137979E+01 0.62684394596E+01 0.62243122867E+01 0.62012816911E+01 0.61915000142E+01
 0.61889907750E+01 0.61915000142E+01 0.62012816911E+01 0.62243122867E+01 0.62684394596E+01
 0.63416137979E+01 0.64511707998E+01 0.66042656517E+01 0.68086365746E+01 0.70725015426E+01
 0.74027665636E+01 0.78015616854E+01 0.82619847101E+01 0.87645185081E+01 0.92757547905E+01
 0.97507027811E+01 0.10139024861E+02 0.10394185723E+02 0.13519612576E+02 0.13367960679E+02
 0.12936988272E+02 0.12289714983E+02 0.11505523811E+02 0.10659855207E+02 0.98243461908E+01
 0.90541434944E+01 0.83820504634E+01 0.78199771856E+01 0.73642602894E+01 0.70025361795E+01
 0.67199493977E+01 0.65031490078E+01 0.63416137979E+01 0.62270220829E+01 0.61521235932E+01
 0.61104381836E+01 0.60971482015E+01 0.61104381836E+01 0.61521235932E+01 0.62270220829E+01
 0.63416137979E+01 0.65031490078E+01 0.67199493977E+01 0.70025361795E+01 0.73642602894E+01
 0.78199771856E+01 0.83820504634E+01 0.90541434944E+01 0.98243461908E+01 0.10659855207E+02
 0.11505523811E+02 0.12289714983E+02 0.12936988272E+02 0.13367960679E+02 0.18243874965E+02
 0.17970342309E+02 0.17198223313E+02 0.16056582716E+02 0.14713447113E+02 0.13326795978E+02
 0.12006066354E+02 0.10797534536E+02 0.97328042020E+01 0.88360496832E+01 0.81064018297E+01
 0.75265242217E+01 0.70722030527E+01 0.67199493977E+01 0.64511707998E+01 0.62529782992E+01
 0.61169497372E+01 0.60375768455E+01 0.60115073811E+01 0.60375768455E+01 0.61169497372E+01
 0.62529782992E+01 0.64511707998E+01 0.67199493977E+01 0.70722030527E+01 0.75265242217E+01
 0.81064018297E+01 0.88360496832E+01 0.97328042020E+01 0.10797534536E+02 0.12006066354E+02
 0.13326795978E+02 0.14713447113E+02 0.16056582716E+02 0.17198223313E+02 0.17970342309E+02
 0.25392438296E+02 0.24932901621E+02 0.23635234582E+02 0.21716213685E+02 0.19462501602E+02
 0.17153623011E+02 0.15001932034E+02 0.13122846971E+02 0.11531959676E+02 0.10187094405E+02
 0.90842084463E+01 0.82081361177E+01 0.75265242217E+01 0.70025361795E+01 0.66042656517E+01
 0.63091616491E+01 0.61040249335E+01 0.59825116670E+01 0.59421973950E+01 0.59825116670E+01
 0.61040249335E+01 0.63091616491E+01 0.66042656517E+01 0.70025361795E+01 0.75265242217E+01
 0.82081361177E+01 0.90842084463E+01 0.10187094405E+02 0.11531959676E+02 0.13122846971E+02
 0.15001932034E+02 0.17153623011E+02 0.19462501602E+02 0.21716213685E+02 0.23635234582E+02
 0.24932901621E+02 0.34964645123E+02 0.34277941618E+02 0.32334686706E+02 0.29447861508E+02
 0.26032644832E+02 0.22499750493E+02 0.19176227167E+02 0.16269048743E+02 0.13861504132E+02
 0.11923535698E+02 0.10346416406E+02 0.90842084463E+01 0.81064018297E+01 0.73642602894E+01
 0.68086365746E+01 0.64015308273E+01 0.61197789671E+01 0.59527427319E+01 0.58972140377E+01
 0.59527427319E+01 0.61197789671E+01 0.64015308273E+01 0.68086365746E+01 0.73642602894E+01
 0.81064018297E+01 0.90842084463E+01 0.10346416406E+02 0.11923535698E+02 0.13861504132E+02
 0.16269048743E+02 0.19176227167E+02 0.22499750493E+02 0.26032644832E+02 0.29447861508E+02
 0.32334686706E+02 0.34277941618E+02 0.46081694070E+02 0.45167686181E+02 0.42577167356E+02
 0.38713058309E+02 0.34103589865E+02 0.29266699692E+02 0.24620865019E+02 0.20456013302E+02
 0.16938853620E+02 0.14118911104E+02 0.11923535698E+02 0.10187094405E+02 0.88360496832E+01
 0.78199771856E+01 0.70725015426E+01 0.65351034021E+01 0.61685637600E+01 0.59530511948E+01
 0.58816399262E+01 0.59530511948E+01 0.61685637600E+01 0.65351034021E+01 0.70725015426E+01
 0.78199771856E+01 0.88360496832E+01 0.10187094405E+02 0.11923535698E+02 0.14118911104E+02
 0.16938853620E+02 0.20456013302E+02 0.24620865019E+02 0.29266699692E+02 0.34103589865E+02
 0.38713058309E+02 0.42577167356E+02 0.45167686181E+02 0.57390303489E+02 0.56286653947E+02
 0.53159942318E+02 0.48492293112E+02 0.42895702234E+02 0.36944585824E+02 0.31088703745E+02
 0.25655204529E+02 0.20884746954E+02 0.16938853620E+02 0.13861504132E+02 0.11531959676E+02
 0.97328042020E+01 0.83820504634E+01 0.74027665636E+01 0.67132585680E+01 0.62522940180E+01
 0.59851187054E+01 0.58972140377E+01 0.59851187054E+01 0.62522940180E+01 0.67132585680E+01
 0.74027665636E+01 0.83820504634E+01 0.97328042020E+01 0.11531959676E+02 0.13861504132E+02
 0.16938853620E+02 0.20884746954E+02 0.25655204529E+02 0.31088703745E+02 0.36944585824E+02
 0.42895702234E+02 0.48492293112E+02 0.53159942318E+02 0.56286653947E+02 0.67819012729E+02
 0.66573456594E+02 0.63057981116E+02 0.57837399599E+02 0.51590064930E+02 0.44894677073E+02
 0.38152421881E+02 0.31648839392E+02 0.25655204529E+02 0.20456013302E+02 0.16269048743E+02
 0.13122846971E+02 0.10797534536E+02 0.90541434944E+01 0.78015616854E+01 0.69361036284E+01
 0.63698117349E+01 0.60472992473E+01 0.59421973950E+01 0.60472992473E+01 0.63698117349E+01
 0.69361036284E+01 0.78015616854E+01 0.90541434944E+01 0.10797534536E+02 0.13122846971E+02
 0.16269048743E+02 0.20456013302E+02 0.25655204529E+02 0.31648839392E+02 0.38152421881E+02
 0.44894677073E+02 0.51590064930E+02 0.57837399599E+02 0.63057981116E+02 0.66573456594E+02
 0.77190819283E+02 0.75823304051E+02 0.71994441869E+02 0.66385030595E+02 0.59759517939E+02
 0.52678585827E+02 0.45425462916E+02 0.38152421881E+02 0.31088703745E+02 0.24620865019E+02
 0.19176227167E+02 0.15001932034E+02 0.12006066354E+02 0.98243461908E+01 0.82619847101E+01
 0.71983138114E+01 0.65160956751E+01 0.61345421491E+01 0.60115073811E+01 0.61345421491E+01
 0.65160956751E+01 0.71983138114E+01 0.82619847101E+01 0.98243461908E+01 0.12006066354E+02
 0.15001932034E+02 0.19176227167E+02 0.24620865019E+02 0.31088703745E+02 0.38152421881E+02
 0.45425462916E+02 0.52678585827E+02 0.59759517939E+02 0.66385030595E+02 0.71994441869E+02
 0.75823304051E+02 0.86213735716E+02 0.84693275820E+02 0.80483997711E+02 0.74445690322E+02
 0.67492404946E+02 0.60192161661E+02 0.52678585827E+02 0.44894677073E+02 0.36944585824E+02
 0.29266699692E+02 0.22499750493E+02 0.17153623011E+02 0.13326795978E+02 0.10659855207E+02
 0.87645185081E+01 0.74872832169E+01 0.66816927338E+01 0.62385769505E+01 0.60971482015E+01
 0.62385769505E+01 0.66816927338E+01 0.74872832169E+01 0.87645185081E+01 0.10659855207E+02
 0.13326795978E+02 0.17153623011E+02 0.22499750493E+02 0.29266699692E+02 0.36944585824E+02
 0.44894677073E+02 0.52678585827E+02 0.60192161661E+02 0.67492404946E+02 0.74445690322E+02
 0.80483997711E+02 0.84693275820E+02 0.95779022826E+02 0.94034013530E+02 0.89257433549E+02
 0.82560242789E+02 0.75092241698E+02 0.67492404946E+02 0.59759517939E+02 0.51590064930E+02
 0.42895702234E+02 0.34103589865E+02 0.26032644832E+02 0.19462501602E+02 0.14713447113E+02
 0.11505523811E+02 0.92757547905E+01 0.77825616193E+01 0.68528460885E+01 0.63485209670E+01
 0.61889907750E+01 0.63485209670E+01 0.68528460885E+01 0.77825616193E+01 0.92757547905E+01
 0.11505523811E+02 0.14713447113E+02 0.19462501602E+02 0.26032644832E+02 0.34103589865E+02
 0.42895702234E+02 0.51590064930E+02 0.59759517939E+02 0.67492404946E+02 0.75092241698E+02
 0.82560242789E+02 0.89257433549E+02 0.94034013530E+02 0.10601678231E+03 0.10397746059E+03
 0.98441315835E+02 0.90818050779E+02 0.82560242789E+02 0.74445690322E+02 0.66385030595E+02
 0.57837399599E+02 0.48492293112E+02 0.38713058309E+02 0.29447861508E+02 0.21716213685E+02
 0.16056582716E+02 0.12289714983E+02 0.97507027811E+01 0.80573221067E+01 0.70126643791E+01
 0.64520039798E+01 0.62759094410E+01 0.64520039798E+01 0.70126643791E+01 0.80573221067E+01
 0.97507027811E+01 0.12289714983E+02 0.16056582716E+02 0.21716213685E+02 0.29447861508E+02
 0.38713058309E+02 0.48492293112E+02 0.57837399599E+02 0.66385030595E+02 0.74445690322E+02
 0.82560242789E+02 0.90818050779E+02 0.98441315835E+02 0.10397746059E+03 0.11578458280E+03
 0.11343541285E+03 0.10708765616E+03 0.98441315835E+02 0.89257433549E+02 0.80483997711E+02
 0.71994441869E+02 0.63057981116E+02 0.53159942318E+02 0.42577167356E+02 0.32334686706E+02
 0.23635234582E+02 0.17198223313E+02 0.12936988272E+02 0.10139024861E+02 0.82820210599E+01
 0.71433477809E+01 0.65367377909E+01 0.63471719697E+01 0.65367377909E+01 0.71433477809E+01
 0.82820210599E+01 0.10139024861E+02 0.12936988272E+02 0.17198223313E+02 0.23635234582E+02
 0.32334686706E+02 0.42577167356E+02 0.53159942318E+02 0.63057981116E+02 0.71994441869E+02
 0.80483997711E+02 0.89257433549E+02 0.98441315835E+02 0.10708765616E+03 0.11343541285E+03
 0.12300295714E+03 0.12041475885E+03 0.11343541285E+03 0.10397746059E+03 0.94034013530E+02
 0.84693275820E+02 0.75823304051E+02 0.66573456594E+02 0.56286653947E+02 0.45167686181E+02
 0.34277941618E+02 0.24932901621E+02 0.17970342309E+02 0.13367960679E+02 0.10394185723E+02
 0.84296283192E+01 0.72290893093E+01 0.65922761429E+01 0.63938671306E+01 0.65922761429E+01
 0.72290893093E+01 0.84296283192E+01 0.10394185723E+02 0.13367960679E+02 0.17970342309E+02
 0.24932901621E+02 0.34277941618E+02 0.45167686181E+02 0.56286653947E+02 0.66573456594E+02
 0.75823304051E+02 0.84693275820E+02 0.94034013530E+02 0.10397746059E+03 0.11343541285E+03
 0.12041475885E+03 0.12300295714E+03 0.12041475885E+03 0.11343541285E+03 0.10397746059E+03
 0.94034013530E+02 0.84693275820E+02 0.75823304051E+02 0.66573456594E+02 0.56286653947E+02
 0.45167686181E+02 0.34277941618E+02 0.24932901621E+02 0.17970342309E+02 0.13367960679E+02
 0.10394185723E+02 0.84296283192E+01 0.72290893093E+01 0.65922761429E+01 0.63938671306E+01
 0.65922761429E+01 0.72290893093E+01 0.84296283192E+01 0.10394185723E+02 0.13367960679E+02
 0.17970342309E+02 0.24932901621E+02 0.34277941618E+02 0.45167686181E+02 0.56286653947E+02
 0.66573456594E+02 0.75823304051E+02 0.84693275820E+02 0.94034013530E+02 0.10397746059E+03
 0.11343541285E+03 0.12041475885E+03 0.12041475885E+03 0.11791288504E+03 0.11116239552E+03
 0.10200071815E+03 0.92338217889E+02 0.83211666407E+02 0.74488274027E+02 0.65357122587E+02
 0.55210084086E+02 0.44277892158E+02 0.33611092226E+02 0.24487831318E+02 0.17705996364E+02
 0.13221346339E+02 0.10308066892E+02 0.83801396364E+01 0.72006658210E+01 0.65741289805E+01
 0.63787267748E+01 0.65741289805E+01 0.72006658210E+01 0.83801396364E+01 0.10308066892E+02
 0.13221346339E+02 0.17705996364E+02 0.24487831318E+02 0.33611092226E+02 0.44277892158E+02
 0.55210084086E+02 0.65357122587E+02 0.74488274027E+02 0.83211666407E+02 0.92338217889E+02
 0.10200071815E+03 0.11116239552E+03 0.11791288504E+03 0.11343541285E+03 0.11116239552E+03
 0.10501619215E+03 0.96629979366E+02 0.87691954158E+02 0.79106185016E+02 0.70747675461E+02
 0.61922531190E+02 0.52159322178E+02 0.41755725221E+02 0.31723983700E+02 0.23231048495E+02
 0.16959811419E+02 0.12804614859E+02 0.10061420993E+02 0.82384617099E+01 0.71193136112E+01
 0.65222175611E+01 0.63354341589E+01 0.65222175611E+01 0.71193136112E+01 0.82384617099E+01
 0.10061420993E+02 0.12804614859E+02 0.16959811419E+02 0.23231048495E+02 0.31723983700E+02
 0.41755725221E+02 0.52159322178E+02 0.61922531190E+02 0.70747675461E+02 0.79106185016E+02
 0.87691954158E+02 0.96629979366E+02 0.10501619215E+03 0.11116239552E+03 0.10397746059E+03
 0.10200071815E+03 0.96629979366E+02 0.89219827654E+02 0.81163733919E+02 0.73205529269E+02
 0.65259829086E+02 0.56817632871E+02 0.47602986460E+02 0.37992865570E+02 0.28920480670E+02
 0.21372557272E+02 0.15856461265E+02 0.12178421581E+02 0.96865804694E+01 0.80233740381E+01
 0.69959487138E+01 0.64436720697E+01 0.62700283602E+01 0.64436720697E+01 0.69959487138E+01
 0.80233740381E+01 0.96865804694E+01 0.12178421581E+02 0.15856461265E+02 0.21372557272E+02
 0.28920480670E+02 0.37992865570E+02 0.47602986460E+02 0.56817632871E+02 0.65259829086E+02
 0.73205529269E+02 0.81163733919E+02 0.89219827654E+02 0.96629979366E+02 0.10200071815E+03
 0.94034013530E+02 0.92338217889E+02 0.87691954158E+02 0.81163733919E+02 0.73858670596E+02
 0.66391366644E+02 0.58765429537E+02 0.50702018854E+02 0.42136915226E+02 0.33503248849E+02
 0.25603744077E+02 0.19189950526E+02 0.14558058772E+02 0.11418989526E+02 0.92290531458E+01
 0.77614222477E+01 0.68462317655E+01 0.63489658396E+01 0.61915000142E+01 0.63489658396E+01
 0.68462317655E+01 0.77614222477E+01 0.92290531458E+01 0.11418989526E+02 0.14558058772E+02
 0.19189950526E+02 0.25603744077E+02 0.33503248849E+02 0.42136915226E+02 0.50702018854E+02
 0.58765429537E+02 0.66391366644E+02 0.73858670596E+02 0.81163733919E+02 0.87691954158E+02
 0.92338217889E+02 0.84693275820E+02 0.83211666407E+02 0.79106185016E+02 0.73205529269E+02
 0.66391366644E+02 0.59214344077E+02 0.51811327126E+02 0.44141298744E+02 0.36322038801E+02
 0.28791456897E+02 0.22172652759E+02 0.16953659200E+02 0.13216632230E+02 0.10600369003E+02
 0.87378681259E+01 0.74814150183E+01 0.66875828323E+01 0.62501891234E+01 0.61104381836E+01
 0.62501891234E+01 0.66875828323E+01 0.74814150183E+01 0.87378681259E+01 0.10600369003E+02
 0.13216632230E+02 0.16953659200E+02 0.22172652759E+02 0.28791456897E+02 0.36322038801E+02
 0.44141298744E+02 0.51811327126E+02 0.59214344077E+02 0.66391366644E+02 0.73205529269E+02
 0.79106185016E+02 0.83211666407E+02 0.75823304051E+02 0.74488274027E+02 0.70747675461E+02
 0.65259829086E+02 0.58765429537E+02 0.51811327126E+02 0.44680270706E+02 0.37531667695E+02
 0.30599490530E+02 0.24265761833E+02 0.18944705024E+02 0.14868647583E+02 0.11936814116E+02
 0.97928422361E+01 0.82566161318E+01 0.72092793724E+01 0.65362991636E+01 0.61592737473E+01
 0.60375768455E+01 0.61592737473E+01 0.65362991636E+01 0.72092793724E+01 0.82566161318E+01
 0.97928422361E+01 0.11936814116E+02 0.14868647583E+02 0.18944705024E+02 0.24265761833E+02
 0.30599490530E+02 0.37531667695E+02 0.44680270706E+02 0.51811327126E+02 0.58765429537E+02
 0.65259829086E+02 0.70747675461E+02 0.74488274027E+02 0.66573456594E+02 0.65357122587E+02
 0.61922531190E+02 0.56817632871E+02 0.50702018854E+02 0.44141298744E+02 0.37531667695E+02
 0.31158369628E+02 0.25291310739E+02 0.20209102245E+02 0.16120326582E+02 0.13045440014E+02
 0.10763302582E+02 0.90497609435E+01 0.78174424599E+01 0.69645690510E+01 0.64054605242E+01
 0.60865360620E+01 0.59825116670E+01 0.60865360620E+01 0.64054605242E+01 0.69645690510E+01
 0.78174424599E+01 0.90497609435E+01 0.10763302582E+02 0.13045440014E+02 0.16120326582E+02
 0.20209102245E+02 0.25291310739E+02 0.31158369628E+02 0.37531667695E+02 0.44141298744E+02
 0.50702018854E+02 0.56817632871E+02 0.61922531190E+02 0.65357122587E+02 0.56286653947E+02
 0.55210084086E+02 0.52159322178E+02 0.47602986460E+02 0.42136915226E+02 0.36322038801E+02
 0.30599490530E+02 0.25291310739E+02 0.20633808827E+02 0.16783393365E+02 0.13779011614E+02
 0.11497242970E+02 0.97301214997E+01 0.84026467111E+01 0.74389359190E+01 0.67591821432E+01
 0.63039408558E+01 0.60397318246E+01 0.59527427319E+01 0.60397318246E+01 0.63039408558E+01
 0.67591821432E+01 0.74389359190E+01 0.84026467111E+01 0.97301214997E+01 0.11497242970E+02
 0.13779011614E+02 0.16783393365E+02 0.20633808827E+02 0.25291310739E+02 0.30599490530E+02
 0.36322038801E+02 0.42136915226E+02 0.47602986460E+02 0.52159322178E+02 0.55210084086E+02
 0.45167686181E+02 0.44277892158E+02 0.41755725221E+02 0.37992865570E+02 0.33503248849E+02
 0.28791456897E+02 0.24265761833E+02 0.20209102245E+02 0.16783393365E+02 0.14034845980E+02