   2   2   0   0
  0.1638400E+02  0.3200000E-09  0.3200000E-09  0.3200000E-09  0.5000000E-15
  1.000000000000000E-004
  CAR 
 unknown system                          
     23.47604360     -4.64601640  301      6.47047331      1.00000000
     -4.646  0.0000E+00  0.0000E+00
     -4.552  0.0000E+00  0.0000E+00
     -4.459  0.0000E+00  0.0000E+00
     -4.365  0.0000E+00  0.0000E+00
     -4.271  0.0000E+00  0.0000E+00
     -4.177  0.0000E+00  0.0000E+00
     -4.084  0.0000E+00  0.0000E+00
     -3.990  0.0000E+00  0.0000E+00
     -3.896  0.0000E+00  0.0000E+00
     -3.802  0.0000E+00  0.0000E+00
     -3.709  0.0000E+00  0.0000E+00
     -3.615  0.0000E+00  0.0000E+00
     -3.521  0.0000E+00  0.0000E+00
     -3.427  0.0000E+00  0.0000E+00
     -3.334  0.0000E+00  0.0000E+00
     -3.240  0.0000E+00  0.0000E+00
     -3.146  0.0000E+00  0.0000E+00
     -3.052  0.0000E+00  0.0000E+00
     -2.959  0.0000E+00  0.0000E+00
     -2.865  0.0000E+00  0.0000E+00
     -2.771  0.0000E+00  0.0000E+00
     -2.677  0.0000E+00  0.0000E+00
     -2.584  0.3053E-02  0.6338E-04
     -2.490  0.1916E-01  0.9963E-03
     -2.396  0.4916E-01  0.4087E-02
     -2.303  0.7867E-01  0.1019E-01
     -2.209  0.9377E-01  0.1839E-01
     -2.115  0.9727E-01  0.2737E-01
     -2.021  0.1044E+00  0.3677E-01
     -1.928  0.1172E+00  0.4711E-01
     -1.834  0.1327E+00  0.5882E-01
     -1.740  0.1491E+00  0.7203E-01
     -1.646  0.1650E+00  0.8677E-01
     -1.553  0.1750E+00  0.1028E+00
     -1.459  0.1813E+00  0.1194E+00
     -1.365  0.1917E+00  0.1369E+00
     -1.271  0.2048E+00  0.1555E+00
     -1.178  0.2172E+00  0.1752E+00
     -1.084  0.2296E+00  0.1962E+00
     -0.990  0.2421E+00  0.2183E+00
     -0.896  0.2550E+00  0.2416E+00
     -0.803  0.2721E+00  0.2662E+00
     -0.709  0.2939E+00  0.2927E+00
     -0.615  0.3184E+00  0.3214E+00
     -0.521  0.3424E+00  0.3524E+00
     -0.428  0.3653E+00  0.3856E+00
     -0.334  0.3882E+00  0.4209E+00
     -0.240  0.4112E+00  0.4584E+00
     -0.146  0.4483E+00  0.4983E+00
     -0.053  0.5109E+00  0.5432E+00
      0.041  0.5778E+00  0.5943E+00
      0.135  0.6408E+00  0.6512E+00
      0.228  0.7715E+00  0.7167E+00
      0.322  0.1275E+01  0.8102E+00
      0.416  0.1755E+01  0.9570E+00
      0.510  0.1813E+01  0.1128E+01
      0.603  0.2996E+01  0.1315E+01
      0.697  0.1489E+01  0.1535E+01
      0.791  0.1466E+01  0.1673E+01
      0.885  0.1630E+01  0.1816E+01
      0.978  0.1863E+01  0.1980E+01
      1.072  0.2208E+01  0.2171E+01
      1.166  0.2329E+01  0.2380E+01
      1.260  0.3036E+01  0.2634E+01
      1.353  0.3191E+01  0.2925E+01
      1.447  0.4243E+01  0.3241E+01
      1.541  0.3253E+01  0.3593E+01
      1.635  0.2547E+01  0.3870E+01
      1.728  0.1605E+01  0.4059E+01
      1.822  0.1079E+01  0.4183E+01
      1.916  0.1994E+01  0.4349E+01
      2.010  0.3488E+01  0.4644E+01
      2.103  0.5285E+01  0.5062E+01
      2.197  0.4654E+01  0.5526E+01
      2.291  0.4739E+01  0.5962E+01
      2.384  0.5180E+01  0.6421E+01
      2.478  0.4696E+01  0.6957E+01
      2.572  0.2397E+01  0.7255E+01
      2.666  0.2091E+01  0.7463E+01
      2.759  0.2186E+01  0.7668E+01
      2.853  0.2757E+01  0.7894E+01
      2.947  0.3751E+01  0.8213E+01
      3.041  0.4285E+01  0.8581E+01
      3.134  0.5690E+01  0.9049E+01
      3.228  0.4470E+01  0.9612E+01
      3.322  0.3304E+01  0.9963E+01
      3.416  0.2868E+01  0.1024E+02
      3.509  0.2529E+01  0.1049E+02
      3.603  0.2285E+01  0.1072E+02
      3.697  0.1860E+01  0.1091E+02
      3.791  0.1753E+01  0.1108E+02
      3.884  0.1628E+01  0.1124E+02
      3.978  0.1477E+01  0.1139E+02
      4.072  0.1288E+01  0.1152E+02
      4.166  0.1343E+01  0.1163E+02
      4.259  0.1223E+01  0.1176E+02
      4.353  0.1323E+01  0.1187E+02
      4.447  0.1566E+01  0.1200E+02
      4.541  0.2025E+01  0.1217E+02
      4.634  0.2479E+01  0.1238E+02
      4.728  0.2833E+01  0.1263E+02
      4.822  0.3323E+01  0.1292E+02
      4.915  0.3863E+01  0.1325E+02
      5.009  0.4475E+01  0.1365E+02
      5.103  0.4563E+01  0.1408E+02
      5.197  0.4575E+01  0.1450E+02
      5.290  0.4446E+01  0.1492E+02
      5.384  0.4537E+01  0.1539E+02
      5.478  0.4231E+01  0.1581E+02
      5.572  0.3914E+01  0.1621E+02
      5.665  0.3784E+01  0.1655E+02
      5.759  0.5602E+01  0.1700E+02
      5.853  0.1643E+02  0.1771E+02
      5.947  0.4859E+01  0.1853E+02
      6.040  0.3564E+01  0.1891E+02
      6.134  0.3032E+01  0.1922E+02
      6.228  0.2050E+01  0.1946E+02
      6.322  0.2637E+01  0.1967E+02
      6.415  0.1994E+01  0.1989E+02
      6.509  0.1969E+01  0.2008E+02
      6.603  0.1902E+01  0.2026E+02
      6.697  0.2418E+01  0.2045E+02
      6.790  0.1972E+01  0.2066E+02
      6.884  0.1737E+01  0.2084E+02
      6.978  0.1237E+01  0.2098E+02
      7.072  0.9560E+00  0.2108E+02
      7.165  0.7793E+00  0.2116E+02
      7.259  0.7367E+00  0.2123E+02
      7.353  0.7186E+00  0.2130E+02
      7.446  0.6978E+00  0.2136E+02
      7.540  0.6302E+00  0.2143E+02
      7.634  0.5857E+00  0.2148E+02
      7.728  0.5834E+00  0.2154E+02
      7.821  0.5935E+00  0.2159E+02
      7.915  0.6090E+00  0.2165E+02
      8.009  0.6324E+00  0.2171E+02
      8.103  0.6396E+00  0.2177E+02
      8.196  0.6269E+00  0.2183E+02
      8.290  0.6141E+00  0.2188E+02
      8.384  0.6025E+00  0.2194E+02
      8.478  0.5935E+00  0.2200E+02
      8.571  0.5913E+00  0.2205E+02
      8.665  0.5886E+00  0.2211E+02
      8.759  0.5856E+00  0.2216E+02
      8.853  0.5826E+00  0.2222E+02
      8.946  0.5797E+00  0.2227E+02
      9.040  0.5742E+00  0.2233E+02
      9.134  0.5559E+00  0.2238E+02
      9.228  0.5523E+00  0.2243E+02
      9.321  0.5484E+00  0.2248E+02
      9.415  0.5452E+00  0.2253E+02
      9.509  0.5432E+00  0.2259E+02
      9.602  0.5408E+00  0.2264E+02
      9.696  0.5382E+00  0.2269E+02
      9.790  0.5527E+00  0.2274E+02
      9.884  0.5593E+00  0.2279E+02
      9.977  0.5552E+00  0.2284E+02
     10.071  0.5465E+00  0.2289E+02
     10.165  0.5389E+00  0.2294E+02
     10.259  0.5327E+00  0.2299E+02
     10.352  0.5213E+00  0.2304E+02
     10.446  0.5190E+00  0.2309E+02
     10.540  0.5174E+00  0.2314E+02
     10.634  0.5175E+00  0.2319E+02
     10.727  0.5191E+00  0.2324E+02
     10.821  0.5212E+00  0.2329E+02
     10.915  0.5388E+00  0.2334E+02
     11.009  0.5373E+00  0.2339E+02
     11.102  0.6212E+00  0.2345E+02
     11.196  0.5735E+00  0.2350E+02
     11.290  0.6030E+00  0.2355E+02
     11.384  0.6979E+00  0.2362E+02
     11.477  0.6615E+00  0.2368E+02
     11.571  0.3600E+00  0.2374E+02
     11.665  0.3288E+00  0.2377E+02
     11.759  0.2984E+00  0.2380E+02
     11.852  0.2688E+00  0.2383E+02
     11.946  0.2381E+00  0.2385E+02
     12.040  0.2849E+00  0.2388E+02
     12.133  0.2880E+00  0.2390E+02
     12.227  0.3196E+00  0.2393E+02
     12.321  0.3771E+00  0.2396E+02
     12.415  0.5795E+00  0.2401E+02
     12.508  0.5418E+00  0.2407E+02
     12.602  0.5661E+00  0.2412E+02
     12.696  0.6133E+00  0.2417E+02
     12.790  0.6670E+00  0.2423E+02
     12.883  0.7921E+00  0.2430E+02
     12.977  0.8657E+00  0.2438E+02
     13.071  0.1125E+01  0.2448E+02
     13.165  0.1213E+01  0.2459E+02
     13.258  0.9675E+00  0.2471E+02
     13.352  0.8625E+00  0.2480E+02
     13.446  0.8029E+00  0.2488E+02
     13.540  0.8038E+00  0.2495E+02
     13.633  0.8061E+00  0.2503E+02
     13.727  0.8192E+00  0.2510E+02
     13.821  0.8376E+00  0.2518E+02
     13.915  0.8241E+00  0.2526E+02
     14.008  0.7410E+00  0.2533E+02
     14.102  0.7157E+00  0.2540E+02
     14.196  0.7226E+00  0.2547E+02
     14.290  0.7213E+00  0.2554E+02
     14.383  0.7080E+00  0.2561E+02
     14.477  0.6968E+00  0.2567E+02
     14.571  0.6879E+00  0.2574E+02
     14.664  0.6811E+00  0.2580E+02
     14.758  0.6765E+00  0.2586E+02
     14.852  0.6067E+00  0.2593E+02
     14.946  0.5896E+00  0.2598E+02
     15.039  0.5920E+00  0.2604E+02
     15.133  0.5833E+00  0.2609E+02
     15.227  0.5808E+00  0.2615E+02
     15.321  0.5752E+00  0.2620E+02
     15.414  0.5698E+00  0.2626E+02
     15.508  0.5542E+00  0.2631E+02
     15.602  0.5549E+00  0.2636E+02
     15.696  0.5566E+00  0.2641E+02
     15.789  0.5590E+00  0.2647E+02
     15.883  0.5738E+00  0.2652E+02
     15.977  0.6126E+00  0.2657E+02
     16.071  0.5559E+00  0.2663E+02
     16.164  0.5553E+00  0.2668E+02
     16.258  0.5495E+00  0.2673E+02
     16.352  0.5384E+00  0.2678E+02
     16.446  0.5290E+00  0.2683E+02
     16.539  0.5204E+00  0.2688E+02
     16.633  0.5128E+00  0.2693E+02
     16.727  0.5064E+00  0.2698E+02
     16.820  0.5004E+00  0.2703E+02
     16.914  0.4962E+00  0.2707E+02
     17.008  0.4932E+00  0.2712E+02
     17.102  0.4910E+00  0.2717E+02
     17.195  0.4898E+00  0.2721E+02
     17.289  0.5061E+00  0.2726E+02
     17.383  0.4878E+00  0.2731E+02
     17.477  0.4779E+00  0.2735E+02
     17.570  0.4679E+00  0.2740E+02
     17.664  0.4579E+00  0.2744E+02
     17.758  0.4488E+00  0.2748E+02
     17.852  0.3878E+00  0.2752E+02
     17.945  0.3748E+00  0.2756E+02
     18.039  0.3613E+00  0.2759E+02
     18.133  0.3473E+00  0.2762E+02
     18.227  0.3327E+00  0.2765E+02
     18.320  0.3175E+00  0.2769E+02
     18.414  0.2856E+00  0.2771E+02
     18.508  0.2700E+00  0.2774E+02
     18.602  0.2541E+00  0.2776E+02
     18.695  0.2379E+00  0.2779E+02
     18.789  0.2220E+00  0.2781E+02
     18.883  0.2103E+00  0.2783E+02
     18.977  0.1933E+00  0.2785E+02
     19.070  0.1760E+00  0.2786E+02
     19.164  0.1599E+00  0.2788E+02
     19.258  0.1450E+00  0.2789E+02
     19.351  0.1318E+00  0.2791E+02
     19.445  0.1184E+00  0.2792E+02
     19.539  0.1065E+00  0.2793E+02
     19.633  0.9609E-01  0.2794E+02
     19.726  0.8703E-01  0.2795E+02
     19.820  0.7937E-01  0.2796E+02
     19.914  0.7310E-01  0.2796E+02
     20.008  0.5325E-01  0.2797E+02
     20.101  0.4792E-01  0.2797E+02
     20.195  0.4282E-01  0.2798E+02
     20.289  0.3796E-01  0.2798E+02
     20.383  0.3333E-01  0.2798E+02
     20.476  0.2894E-01  0.2799E+02
     20.570  0.2479E-01  0.2799E+02
     20.664  0.2087E-01  0.2799E+02
     20.758  0.1735E-01  0.2799E+02
     20.851  0.1454E-01  0.2800E+02
     20.945  0.1189E-01  0.2800E+02
     21.039  0.9404E-02  0.2800E+02
     21.133  0.7085E-02  0.2800E+02
     21.226  0.4931E-02  0.2800E+02
     21.320  0.2943E-02  0.2800E+02
     21.414  0.1120E-02  0.2800E+02
     21.507  0.0000E+00  0.2800E+02
     21.601  0.0000E+00  0.2800E+02
     21.695  0.0000E+00  0.2800E+02
     21.789  0.0000E+00  0.2800E+02
     21.882  0.0000E+00  0.2800E+02
     21.976  0.0000E+00  0.2800E+02
     22.070  0.0000E+00  0.2800E+02
     22.164  0.0000E+00  0.2800E+02
     22.257  0.0000E+00  0.2800E+02
     22.351  0.0000E+00  0.2800E+02
     22.445  0.0000E+00  0.2800E+02
     22.539  0.0000E+00  0.2800E+02
     22.632  0.0000E+00  0.2800E+02
     22.726  0.0000E+00  0.2800E+02
     22.820  0.0000E+00  0.2800E+02
     22.914  0.0000E+00  0.2800E+02
     23.007  0.0000E+00  0.2800E+02
     23.101  0.0000E+00  0.2800E+02
     23.195  0.0000E+00  0.2800E+02
     23.289  0.0000E+00  0.2800E+02
     23.382  0.0000E+00  0.2800E+02
     23.476  0.0000E+00  0.2800E+02
