    2    2    1    1
  0.1638400E+02  0.3200000E-09  0.3200000E-09  0.3200000E-09  0.5000000E-15
  1.000000000000000E-004
  CAR 
 unknown system                          
     20     35     14
 
  0.0000000E+00  0.0000000E+00  0.0000000E+00  0.1371742E-02
    1       -2.646016   1.000000
    2        0.760847   1.000000
    3        0.760847   1.000000
    4        3.176286   1.000000
    5        3.176286   1.000000
    6        3.176286   1.000000
    7        5.545954   1.000000
    8        5.545954   1.000000
    9        6.947332   0.059311
   10        6.947332  -0.233676
   11        6.947332   0.000000
   12       14.172483   0.000000
   13       14.172483   0.000000
   14       14.172483   0.000000
 
  0.1111111E+00  0.0000000E+00  0.0000000E+00  0.8230453E-02
    1       -2.403238   1.000000
    2        0.875912   1.000000
    3        0.915806   1.000000
    4        3.182207   1.000000
    5        3.182207   1.000000
    6        3.271289   1.000000
    7        5.359839   1.000000
    8        5.615627   1.000000
    9        6.566454   0.786536
   10        6.566454   0.589696
   11        6.808176  -0.001238
   12       12.769064   0.000000
   13       14.840090   0.000000
   14       14.840090   0.000000
 
  0.2222222E+00  0.0000000E+00  0.0000000E+00  0.8230453E-02
    1       -1.701555   1.000000
    2        1.214536   1.000000
    3        1.304014   1.000000
    4        3.223792   1.000000
    5        3.223792   1.000000
    6        3.549647   1.000000
    7        4.844397   1.000000
    8        5.735903   1.000000
    9        5.735903   1.000649
   10        5.797492   1.030157
   11        6.419359   0.303688
   12       10.418463   0.000000
   13       16.517983   0.000000
   14       16.517983   0.000000
 
  0.3333333E+00  0.0000000E+00  0.0000000E+00  0.8230453E-02
    1       -0.633524   1.000000
    2        1.658935   1.000000
    3        1.756183   1.000000
    4        3.360042   1.000000
    5        3.360042   1.000000
    6        3.991219   1.000000
    7        4.107035   1.000000
    8        4.868847   1.000000
    9        4.868847   1.000000
   10        5.854562   1.000000
   11        6.026239   1.092428
   12        8.299841   0.000000
   13       18.750141   0.000000
   14       18.750141   0.000000
 
  0.4444444E+00  0.0000000E+00  0.0000000E+00  0.8230453E-02
    1        0.584820   1.000000
    2        1.498422   1.000000
    3        2.462971   1.000000
    4        3.275372   1.000000
    5        3.655703   1.000000
    6        3.655703   1.000000
    7        4.156184   1.000000
    8        4.156184   1.000000
    9        4.560875   1.000000
   10        5.205869   1.000000
   11        6.294370   1.000000
   12        6.893816   0.000000
   13       20.733790   0.000000
   14       21.476044   0.000000
 
  0.1111111E+00  0.1111111E+00  0.0000000E+00  0.1646091E-01
    1       -2.168976   1.000000
    2        0.996374   1.000000
    3        1.058826   1.000000
    4        3.000125   1.000000
    5        3.174257   1.000000
    6        3.555433   1.000000
    7        5.343562   1.000000
    8        5.560801   1.000000
    9        5.968482   1.018058
   10        6.177774   1.007211
   11        7.002435  -0.002033
   12       13.207847   0.000000
   13       13.624820   0.000000
   14       15.383760   0.000000
 
  0.2222222E+00  0.1111111E+00  0.0000000E+00  0.3292181E-01
    1       -1.497674   1.000000
    2        1.292627   1.000000
    3        1.460354   1.000000
    4        2.893759   1.000000
    5        3.181904   1.000000
    6        3.982931   1.000000
    7        4.973775   1.000000
    8        5.095690   1.000000
    9        5.380851   1.000817
   10        5.718968   1.005996
   11        6.853896  -0.057794
   12       11.002307   0.000000
   13       14.912685   0.000000
   14       16.841779   0.000000
 
  0.3333333E+00  0.1111111E+00  0.0000000E+00  0.3292181E-01
    1       -0.496939   1.000000
    2        1.628841   1.000000
    3        1.930025   1.000000
    4        2.933755   1.000000
    5        3.228835   1.000000
    6        4.265799   1.000000
    7        4.439785   1.000000
    8        4.515197   1.000000
    9        4.689222   1.000000
   10        5.968761   1.000000
   11        6.398813   0.596417
   12        8.760411   0.000000
   13       16.675926   0.000000
   14       18.895673   0.000000
 
  0.4444444E+00  0.1111111E+00  0.0000000E+00  0.3292181E-01
    1        0.607741   1.000000
    2        1.445808   1.000000
    3        2.497409   1.000000
    4        3.059076   1.000000
    5        3.161272   1.000000
    6        3.605178   1.000000
    7        4.186620   1.000000
    8        4.347496   1.000000
    9        5.131887   1.000000
   10        5.786127   1.000000
   11        6.296558   0.910119
   12        7.106195   0.000000
   13       18.342491   0.000000
   14       19.968994   0.000000
 
  0.2222222E+00  0.2222222E+00  0.0000000E+00  0.1646091E-01
    1       -0.938045   1.000000
    2        1.403916   1.000000
    3        1.937358   1.000000
    4        2.580175   1.000000
    5        3.175108   1.000000
    6        4.205716   1.000000
    7        4.614093   1.000000
    8        4.766363   1.000000
    9        5.135123   1.000000
   10        5.619754   1.006084
   11        7.144111  -0.026960
   12       12.082896   0.000000
   13       12.543552   0.000000
   14       17.814666   0.000000
 
  0.3333333E+00  0.2222222E+00  0.0000000E+00  0.3292181E-01
    1       -0.185211   1.000000
    2        1.390197   1.000000
    3        2.444120   1.000000
    4        2.530989   1.000000
    5        3.331161   1.000000
    6        3.428550   1.000000
    7        4.492229   1.000000
    8        4.968298   1.000000
    9        5.295008   1.000000
   10        5.819761   1.031112
   11        7.027011  -0.080539
   12        9.727679   0.000000
   13       13.971699   0.000000
   14       19.382217   0.000000
 
  0.4444444E+00  0.2222222E+00  0.0000000E+00  0.3292181E-01
    1        0.535384   1.000000
    2        1.086552   1.000000
    3        2.528878   1.000000
    4        2.857559   1.000000
    5        3.049262   1.000000
    6        3.387882   1.000000
    7        4.691832   1.000000
    8        4.872234   1.000000
    9        5.978046   1.000000
   10        6.302079   0.959898
   11        6.592086   0.061162
   12        7.624799   0.000000
   13       15.647248   0.000000
   14       17.487489   0.000000
 
  0.3333333E+00  0.3333333E+00  0.0000000E+00  0.1646091E-01
    1        0.109415   1.000000
    2        1.019491   1.000000
    3        2.141342   1.000000
    4        2.738091   1.000000
    5        3.346945   1.000000
    6        3.968732   1.000000
    7        4.602410   1.000000
    8        5.290911   1.000000
    9        5.727177   1.000000
   10        6.065393   1.055832
   11        7.309081   0.000000
   12        9.915217   0.000000
   13       12.427873   0.000000
   14       17.251203   0.000000
 
  0.4444444E+00  0.3333333E+00  0.0000000E+00  0.3292181E-01
    1        0.355151   1.000000
    2        0.648220   1.000000
    3        2.078155   1.000000
    4        2.277562   1.000000
    5        4.065151   1.000000
    6        4.430785   1.000000
    7        5.004743   1.000000
    8        5.354360   1.000000
    9        6.282687   1.000000
   10        6.731333   0.052398
   11        7.185566   0.000000
   12        8.056316   0.000000
   13       13.393549   0.000000
   14       15.111868   0.000000
 
  0.4444444E+00  0.4444444E+00  0.0000000E+00  0.1646091E-01
    1        0.258665   1.000000
    2        0.351178   1.000000
    3        1.873560   1.000000
    4        1.940222   1.000000
    5        5.161055   1.000000
    6        5.244100   1.000000
    7        5.296495   1.000000
    8        5.823242   1.000000
    9        6.334262   1.000000
   10        7.249419  -0.127447
   11        7.419149   0.000000
   12        7.620462   0.000000
   13       12.459254   0.000000
   14       13.257410   0.000000
 
  0.1111111E+00  0.1111111E+00  0.1111111E+00  0.1097394E-01
    1       -1.940574   1.000000
    2        1.157529   1.000000
    3        1.157529   1.000000
    4        2.983012   1.000000
    5        2.983012   1.000000
    6        3.853774   1.000000
    7        5.198255   1.000000
    8        5.431850   1.000000
    9        5.431850   1.020207
   10        6.626225   0.790954
   11        6.626225   0.009816
   12       13.356824   0.000000
   13       14.263882   0.000000
   14       14.263882   0.000000
 
  0.2222222E+00  0.1111111E+00  0.1111111E+00  0.3292181E-01
    1       -1.291029   1.000000
    2        1.442830   1.000000
    3        1.549489   1.000000
    4        2.819981   1.000000
    5        2.947389   1.000000
    6        4.304107   1.000000
    7        4.371539   1.000000
    8        5.080145   1.000000
    9        5.653263   1.000217
   10        5.825608   1.008941
   11        6.681141   0.014527
   12       11.501098   0.000000
   13       14.772778   0.000000
   14       15.831358   0.000000
 
  0.3333333E+00  0.1111111E+00  0.1111111E+00  0.3292181E-01
    1       -0.341447   1.000000
    2        1.817997   1.000000
    3        1.877558   1.000000
    4        2.866330   1.000000
    5        2.905673   1.000000
    6        3.686598   1.000000
    7        4.625642   1.000000
    8        4.987603   1.000000
    9        5.032058   1.000000
   10        5.926537   1.000000
   11        6.345514   0.577904
   12        9.268070   0.000000
   13       16.139282   0.000000
   14       17.821710   0.000000
 
  0.4444444E+00  0.1111111E+00  0.1111111E+00  0.3292181E-01
    1        0.675430   1.000000
    2        1.482968   1.000000
    3        2.376663   1.000000
    4        2.763471   1.000000
    5        3.154366   1.000000
    6        3.462789   1.000000
    7        4.327398   1.000000
    8        4.476099   1.000000
    9        5.545084   1.000000
   10        5.899151   1.000000
   11        6.390529   0.586509
   12        7.499662   0.000000
   13       17.636565   0.000000
   14       19.322942   0.000000
 
  0.2222222E+00  0.2222222E+00  0.1111111E+00  0.3292181E-01
    1       -0.725961   1.000000
    2        1.601191   1.000000
    3        1.984970   1.000000
    4        2.544936   1.000000
    5        2.867103   1.000000
    6        3.469305   1.000000
    7        5.053656   1.000000
    8        5.224188   1.000000
    9        5.435052   1.000000
   10        5.578302   1.005780
   11        6.762986  -0.010939
   12       12.558997   0.000000
   13       12.702235   0.000000
   14       16.377278   0.000000
 
  0.3333333E+00  0.2222222E+00  0.1111111E+00  0.6584362E-01
    1        0.018403   1.000000
    2        1.581106   1.000000
    3        2.412555   1.000000
    4        2.428012   1.000000
    5        2.971535   1.000000
    6        3.086311   1.000000
    7        4.931969   1.000000
    8        5.030615   1.000000
    9        5.716154   1.000000
   10        5.911012   1.025543
   11        6.641103   0.019881
   12       10.269160   0.000000
   13       13.971307   0.000000
   14       17.766537   0.000000
 
  0.4444444E+00  0.2222222E+00  0.1111111E+00  0.6584362E-01
    1        0.694948   1.000000
    2        1.224955   1.000000
    3        2.445159   1.000000
    4        2.501281   1.000000
    5        3.207589   1.000000
    6        3.235868   1.000000
    7        4.806545   1.000000
    8        4.857311   1.000000
    9        5.908994   1.000000
   10        6.226819   1.006572
   11        6.895904  -0.057736
   12        8.303545   0.000000
   13       15.502386   0.000000
   14       17.328832   0.000000
 
  0.3333333E+00  0.3333333E+00  0.1111111E+00  0.3292181E-01
    1        0.339722   1.000000
    2        1.183882   1.000000
    3        2.119206   1.000000
    4        2.549934   1.000000
    5        3.297308   1.000000
    6        3.492607   1.000000
    7        4.876051   1.000000
    8        5.304414   1.000000
    9        5.727354   1.000000
   10        6.713906   0.449754
   11        6.828129  -0.000282
   12       10.680371   0.000000
   13       12.325049   0.000000
   14       17.200001   0.000000
 
  0.4444444E+00  0.3333333E+00  0.1111111E+00  0.6584362E-01
    1        0.560848   1.000000
    2        0.819573   1.000000
    3        2.059206   1.000000
    4        2.222218   1.000000
    5        3.956162   1.000000
    6        4.097003   1.000000
    7        5.101316   1.000000
    8        5.301602   1.000000
    9        5.943747   1.000000
   10        6.524397   0.549687
   11        7.671741   0.000000
   12        9.031367   0.000000
   13       13.321045   0.000000
   14       15.038507   0.000000
 
  0.4444444E+00  0.4444444E+00  0.1111111E+00  0.3292181E-01
    1        0.469699   1.000000
    2        0.547387   1.000000
    3        1.868982   1.000000
    4        1.931689   1.000000
    5        4.932702   1.000000
    6        5.171607   1.000000
    7        5.322674   1.000000
    8        5.501831   1.000000
    9        5.830467   1.000000
   10        6.382093   0.673765
   11        8.421156   0.000000
   12        9.100278   0.000000
   13       12.322936   0.000000
   14       13.165466   0.000000
 
  0.2222222E+00  0.2222222E+00  0.2222222E+00  0.1097394E-01
    1       -0.153530   1.000000
    2        2.108044   1.000000
    3        2.108044   1.000000
    4        2.466099   1.000000
    5        2.466099   1.000000
    6        2.629302   1.000000
    7        5.454886   1.000000
    8        5.454886   1.000000
    9        5.884602   1.000000
   10        6.027931   1.004508
   11        6.027931   0.806942
   12       12.565107   0.000000
   13       14.138225   0.000000
   14       14.138225   0.000000
 
  0.3333333E+00  0.2222222E+00  0.2222222E+00  0.3292181E-01
    1        0.534607   1.000000
    2        1.852440   1.000000
    3        2.248775   1.000000
    4        2.397640   1.000000
    5        2.419500   1.000000
    6        2.843607   1.000000
    7        5.272238   1.000000
    8        5.412228   1.000000
    9        5.721203   1.000000
   10        6.165474   1.003012
   11        6.818765  -0.007587
   12       11.235899   0.000000
   13       13.741316   0.000000
   14       15.875925   0.000000
 
  0.4444444E+00  0.2222222E+00  0.2222222E+00  0.3292181E-01
    1        0.997507   1.000000
    2        1.358112   1.000000
    3        2.337547   1.000000
    4        2.366621   1.000000
    5        2.869425   1.000000
    6        3.189173   1.000000
    7        5.108587   1.000000
    8        5.109037   1.000000
    9        5.878017   1.000000
   10        5.997640   1.021060
   11        7.919893  -0.014389
   12        9.371957   0.000000
   13       14.812316   0.000000
   14       16.559672   0.000000
 
  0.3333333E+00  0.3333333E+00  0.2222222E+00  0.3292181E-01
    1        0.987129   1.000000
    2        1.474092   1.000000
    3        2.082289   1.000000
    4        2.408965   1.000000
    5        2.703735   1.000000
    6        3.124486   1.000000
    7        5.382785   1.000000
    8        5.468549   1.000000
    9        5.719211   1.000000
   10        6.149525   1.015544
   11        7.848204  -0.012038
   12       12.093252   0.000000
   13       12.214525   0.000000
   14       16.053224   0.000000
 
  0.4444444E+00  0.3333333E+00  0.2222222E+00  0.6584362E-01
    1        1.091683   1.000000
    2        1.192576   1.000000
    3        2.073228   1.000000
    4        2.230710   1.000000
    5        3.334618   1.000000
    6        3.559446   1.000000
    7        5.367996   1.000000
    8        5.429720   1.000000
    9        5.852915   1.000000
   10        6.022780   1.028158
   11        8.954089   0.000000
   12       10.355306   0.000000
   13       13.217216   0.000000
   14       14.820857   0.000000
 
  0.4444444E+00  0.4444444E+00  0.2222222E+00  0.3292181E-01
    1        1.049255   1.000000
    2        1.056779   1.000000
    3        1.881570   1.000000
    4        1.967216   1.000000
    5        4.108021   1.000000
    6        4.185969   1.000000
    7        5.520132   1.000000
    8        5.566122   1.000000
    9        5.847734   1.000000
   10        5.959362   1.030103
   11        9.954197   0.000000
   12       10.899475   0.000000
   13       11.971505   0.000000
   14       13.004182   0.000000
 
  0.3333333E+00  0.3333333E+00  0.3333333E+00  0.1097394E-01
    1        1.451049   1.000000
    2        1.853096   1.000000
    3        2.096792   1.000000
    4        2.096792   1.000000
    5        2.820760   1.000000
    6        2.820760   1.000000
    7        5.689667   1.000000
    8        5.689667   1.000000
    9        5.757522   1.000000
   10        5.757522   1.000000
   11        8.996645  -0.005220
   12       11.885410   0.000000
   13       13.981873   0.000000
   14       13.981873   0.000000
 
  0.4444444E+00  0.3333333E+00  0.3333333E+00  0.3292181E-01
    1        1.416529   1.000000
    2        1.591683   1.000000
    3        2.223155   1.000000
    4        2.480879   1.000000
    5        2.807934   1.000000
    6        3.157001   1.000000
    7        5.634989   1.000000
    8        5.645946   1.000000
    9        5.839182   1.000000
   10        5.873138   1.000000
   11       10.110909   0.000000
   12       11.273991   0.000000
   13       13.246686   0.000000
   14       14.265449   0.000000
 
  0.4444444E+00  0.4444444E+00  0.3333333E+00  0.3292181E-01
    1        1.572776   1.000000
    2        1.806542   1.000000
    3        1.974928   1.000000
    4        2.246697   1.000000
    5        3.199703   1.000000
    6        3.338564   1.000000
    7        5.739744   1.000000
    8        5.750606   1.000000
    9        5.865168   1.000000
   10        5.879956   1.000000
   11       11.027439   0.000000
   12       11.560569   0.000000
   13       12.830812   0.000000
   14       13.242364   0.000000
 
  0.4444444E+00  0.4444444E+00  0.4444444E+00  0.1097394E-01
    1        1.910978   1.000000
    2        2.219300   1.000000
    3        2.219300   1.000000
    4        2.667345   1.000000
    5        2.667345   1.000000
    6        2.734141   1.000000
    7        5.873237   1.000000
    8        5.873237   1.000000
    9        5.873921   1.000000
   10        5.873921   1.000000
   11       11.236495   0.000000
   12       11.289938   0.000000
   13       14.044893   0.000000
   14       14.815312   0.000000
