       N       E                     dE             d eps       ncg     rms          rms(c)
DAV:   1     0.197812210971E+03    0.19781E+03   -0.92930E+03   988   0.137E+03
DAV:   2    -0.342845143806E+01   -0.20124E+03   -0.18647E+03   998   0.418E+02
DAV:   3    -0.124824061775E+02   -0.90540E+01   -0.84829E+01  1256   0.921E+01
DAV:   4    -0.126214907845E+02   -0.13908E+00   -0.13916E+00  1022   0.126E+01
DAV:   5    -0.126248251467E+02   -0.33344E-02   -0.33463E-02  1232   0.167E+00    0.509E+00
RMM:   6    -0.119604105811E+02    0.66441E+00   -0.12857E+00   980   0.149E+01    0.169E+00
RMM:   7    -0.119098860472E+02    0.50525E-01   -0.35648E-01  1000   0.572E+00    0.506E-01
RMM:   8    -0.119033707124E+02    0.65153E-02   -0.12281E-02  1000   0.169E+00    0.119E-01
RMM:   9    -0.119032712347E+02    0.99478E-04   -0.19246E-03  1067   0.392E-01    0.215E-02
RMM:  10    -0.119032884892E+02   -0.17254E-04   -0.15621E-04   987   0.149E-01    0.180E-02
RMM:  11    -0.119032775874E+02    0.10902E-04   -0.37952E-05   697   0.849E-02    0.113E-03
RMM:  12    -0.119032777337E+02   -0.14631E-06   -0.48441E-06   523   0.227E-02
   1 F= -.11903278E+02 E0= -.11903278E+02  d E =0.000000E+00
