 vasp.5.4.1 05Feb16 (build Mar 02 2016 14:09:44) complex                        
  
 executed on   Abel-impi-ifc-cuda date 2019.09.20  10:38:15
 running on    4 total cores
 distrk:  each k-point on    4 cores,    1 groups
 distr:  one band on NCORES_PER_BAND=   2 cores,    2 groups


--------------------------------------------------------------------------------------------------------


 INCAR:
 POTCAR:   PAW_PBE Pt 05Jan2001                   
 POTCAR:   PAW_PBE Pt 05Jan2001                   
   VRHFIN =Pt: s1d9                                                             
   LEXCH  = PE                                                                  
   EATOM  =   729.1171 eV,   53.5886 Ry                                         
                                                                                
   TITEL  = PAW_PBE Pt 05Jan2001                                                
   LULTRA =        F    use ultrasoft PP ?                                      
   IUNSCR =        1    unscreen: 0-lin 1-nonlin 2-no                           
   RPACOR =    2.330    partial core radius                                     
   POMASS =  195.080; ZVAL   =   10.000    mass and valenz                      
   RCORE  =    2.500    outmost cutoff radius                                   
   RWIGS  =    2.750; RWIGS  =    1.455    wigner-seitz radius (au A)           
   ENMAX  =  230.283; ENMIN  =  172.712 eV                                      
   RCLOC  =    1.896    cutoff for local pot                                    
   LCOR   =        T    correct aug charges                                     
   LPAW   =        T    paw PP                                                  
   EAUG   =  358.966                                                            
   DEXC   =    -.039                                                            
   RMAX   =    3.038    core radius for proj-oper                               
   RAUG   =    1.300    factor for augmentation sphere                          
   RDEP   =    2.590    radius for radial grids                                 
   QCUT   =   -4.114; QGAM   =    8.228    optimization parameters              
                                                                                
   Description                                                                  
     l     E      TYP  RCUT    TYP  RCUT                                        
     2   .000     23  2.500                                                     
     2   .000     23  2.500                                                     
     0   .000     23  2.500                                                     
     0   .000     23  2.500                                                     
     1  -.200     23  2.500                                                     
     1  1.500     23  2.500                                                     
     3   .000      7   .000                                                     
  local pseudopotential read in
  partial core-charges read in
  atomic valenz-charges read in
  non local Contribution for L=           2  read in
    real space projection operators read in
  non local Contribution for L=           2  read in
    real space projection operators read in
  non local Contribution for L=           0  read in
    real space projection operators read in
  non local Contribution for L=           0  read in
    real space projection operators read in
  non local Contribution for L=           1  read in
    real space projection operators read in
  non local Contribution for L=           1  read in
    real space projection operators read in
    PAW grid and wavefunctions read in
 
   number of l-projection  operators is LMAX  =           6
   number of lm-projection operators is LMMAX =          18
 

 ----------------------------------------------------------------------------- 
|                                                                             |
|  ADVICE TO THIS USER RUNNING 'VASP/VAMP'   (HEAR YOUR MASTER'S VOICE ...):  |
|                                                                             |
|      You have a (more or less) 'small supercell' and for smaller cells      |
|      it is recommended  to use the reciprocal-space projection scheme!      |
|      The real space optimization is not  efficient for small cells and it   |
|      is also less accurate ...                                              |
|      Therefore set LREAL=.FALSE. in the  INCAR file                         |
|                                                                             |
 ----------------------------------------------------------------------------- 

 Optimization of the real space projectors (new method)

 maximal supplied QI-value         = 15.12
 optimisation between [QCUT,QGAM] = [ 11.34, 22.83] = [ 36.00,145.93] Ry 
 Optimized for a Real-space Cutoff    1.43 Angstroem

   l    n(q)    QCUT    max X(q) W(low)/X(q) W(high)/X(q)  e(spline) 
   2      9    11.338     3.643    0.45E-04    0.66E-04    0.77E-07
   2      9    11.338    46.462    0.27E-03    0.14E-02    0.90E-06
   0     10    11.338    13.796    0.12E-04    0.76E-05    0.74E-08
   0     10    11.338    57.669    0.14E-03    0.20E-03    0.14E-06
   1      9    11.338     7.440    0.12E-04    0.48E-04    0.44E-07
   1      9    11.338    10.255    0.14E-03    0.98E-04    0.21E-06
 PAW_PBE Pt 05Jan2001                   :
 energy of atom  1       EATOM= -729.1171
 kinetic energy error for atom=    0.0039 (will be added to EATOM!!)
 
 
 POSCAR: Pt_bcc                                  
  positions in direct lattice
  No initial velocities read in
 exchange correlation table for  LEXCH =        8
   RHO(1)=    0.500       N(1)  =     2000
   RHO(2)=  100.500       N(2)  =     4000
 


--------------------------------------------------------------------------------------------------------


 ion  position               nearest neighbor table
   1  0.000  0.000  0.000-   2 2.77   2 2.77   2 2.77   2 2.77   2 2.77   2 2.77   2 2.77   2 2.77

   2  0.500  0.500  0.500-   1 2.77   1 2.77   1 2.77   1 2.77   1 2.77   1 2.77   1 2.77   1 2.77

 
  LATTYP: Found a simple cubic cell.
 ALAT       =     3.2000000000
  
  Lattice vectors:
  
 A1 = (   3.2000000000,   0.0000000000,   0.0000000000)
 A2 = (   0.0000000000,   3.2000000000,   0.0000000000)
 A3 = (   0.0000000000,   0.0000000000,   3.2000000000)


Analysis of symmetry for initial positions (statically):
=====================================================================
 Subroutine PRICEL returns following result:
 
  LATTYP: Found a body centered cubic cell.
 ALAT       =     3.2000000000
  
  Lattice vectors:
  
 A1 = (   1.6000000000,   1.6000000000,   1.6000000000)
 A2 = (   1.6000000000,  -1.6000000000,  -1.6000000000)
 A3 = (  -1.6000000000,   1.6000000000,  -1.6000000000)
 
   2 primitive cells build up your supercell.
 

 Routine SETGRP: Setting up the symmetry group for a 
 simple cubic supercell.


 Subroutine GETGRP returns: Found 48 space group operations
 (whereof 48 operations were pure point group operations)
 out of a pool of 48 trial point group operations.


The static configuration has the point symmetry O_h .


Analysis of symmetry for dynamics (positions and initial velocities):
=====================================================================
 Subroutine PRICEL returns following result:
 
  LATTYP: Found a body centered cubic cell.
 ALAT       =     3.2000000000
  
  Lattice vectors:
  
 A1 = (   1.6000000000,   1.6000000000,   1.6000000000)
 A2 = (   1.6000000000,  -1.6000000000,  -1.6000000000)
 A3 = (  -1.6000000000,   1.6000000000,  -1.6000000000)
 
   2 primitive cells build up your supercell.
 

 Routine SETGRP: Setting up the symmetry group for a 
 simple cubic supercell.


 Subroutine GETGRP returns: Found 48 space group operations
 (whereof 48 operations were pure point group operations)
 out of a pool of 48 trial point group operations.


The dynamic configuration has the point symmetry O_h .


 Subroutine INISYM returns: Found 48 space group operations
 (whereof 48 operations are pure point group operations),
 and found     2 'primitive' translations

 
 
 KPOINTS: k-density: 4.0                          

Automatic generation of k-mesh.
Space group operators:
 irot       det(A)        alpha          n_x          n_y          n_z        tau_x        tau_y        tau_z
    1     1.000000     0.000000     1.000000     0.000000     0.000000     0.000000     0.000000     0.000000
    2    -1.000000     0.000000     1.000000     0.000000     0.000000     0.000000     0.000000     0.000000
    3     1.000000   120.000000    -0.577350    -0.577350    -0.577350     0.000000     0.000000     0.000000
    4    -1.000000   120.000000    -0.577350    -0.577350    -0.577350     0.000000     0.000000     0.000000
    5     1.000000   120.000000     0.577350     0.577350     0.577350     0.000000     0.000000     0.000000
    6    -1.000000   120.000000     0.577350     0.577350     0.577350     0.000000     0.000000     0.000000
    7     1.000000    90.000000     0.000000     0.000000    -1.000000     0.000000     0.000000     0.000000
    8    -1.000000    90.000000     0.000000     0.000000    -1.000000     0.000000     0.000000     0.000000
    9     1.000000   180.000000     0.000000     0.707107     0.707107     0.000000     0.000000     0.000000
   10    -1.000000   180.000000     0.000000     0.707107     0.707107     0.000000     0.000000     0.000000
   11     1.000000    90.000000     0.000000     1.000000     0.000000     0.000000     0.000000     0.000000
   12    -1.000000    90.000000     0.000000     1.000000     0.000000     0.000000     0.000000     0.000000
   13     1.000000   180.000000     0.000000     0.000000     1.000000     0.000000     0.000000     0.000000
   14    -1.000000   180.000000     0.000000     0.000000     1.000000     0.000000     0.000000     0.000000
   15     1.000000   120.000000    -0.577350     0.577350     0.577350     0.000000     0.000000     0.000000
   16    -1.000000   120.000000    -0.577350     0.577350     0.577350     0.000000     0.000000     0.000000
   17     1.000000   120.000000    -0.577350     0.577350    -0.577350     0.000000     0.000000     0.000000
   18    -1.000000   120.000000    -0.577350     0.577350    -0.577350     0.000000     0.000000     0.000000
   19     1.000000    90.000000     0.000000     0.000000     1.000000     0.000000     0.000000     0.000000
   20    -1.000000    90.000000     0.000000     0.000000     1.000000     0.000000     0.000000     0.000000
   21     1.000000    90.000000    -1.000000     0.000000     0.000000     0.000000     0.000000     0.000000
   22    -1.000000    90.000000    -1.000000     0.000000     0.000000     0.000000     0.000000     0.000000
   23     1.000000   180.000000     0.707107     0.000000     0.707107     0.000000     0.000000     0.000000
   24    -1.000000   180.000000     0.707107     0.000000     0.707107     0.000000     0.000000     0.000000
   25     1.000000   120.000000     0.577350    -0.577350     0.577350     0.000000     0.000000     0.000000
   26    -1.000000   120.000000     0.577350    -0.577350     0.577350     0.000000     0.000000     0.000000
   27     1.000000   120.000000    -0.577350    -0.577350     0.577350     0.000000     0.000000     0.000000
   28    -1.000000   120.000000    -0.577350    -0.577350     0.577350     0.000000     0.000000     0.000000
   29     1.000000   180.000000     1.000000     0.000000     0.000000     0.000000     0.000000     0.000000
   30    -1.000000   180.000000     1.000000     0.000000     0.000000     0.000000     0.000000     0.000000
   31     1.000000    90.000000     0.000000    -1.000000     0.000000     0.000000     0.000000     0.000000
   32    -1.000000    90.000000     0.000000    -1.000000     0.000000     0.000000     0.000000     0.000000
   33     1.000000   180.000000     0.707107     0.707107     0.000000     0.000000     0.000000     0.000000
   34    -1.000000   180.000000     0.707107     0.707107     0.000000     0.000000     0.000000     0.000000
   35     1.000000    90.000000     1.000000     0.000000     0.000000     0.000000     0.000000     0.000000
   36    -1.000000    90.000000     1.000000     0.000000     0.000000     0.000000     0.000000     0.000000
   37     1.000000   120.000000     0.577350    -0.577350    -0.577350     0.000000     0.000000     0.000000
   38    -1.000000   120.000000     0.577350    -0.577350    -0.577350     0.000000     0.000000     0.000000
   39     1.000000   180.000000     0.000000     1.000000     0.000000     0.000000     0.000000     0.000000
   40    -1.000000   180.000000     0.000000     1.000000     0.000000     0.000000     0.000000     0.000000
   41     1.000000   120.000000     0.577350     0.577350    -0.577350     0.000000     0.000000     0.000000
   42    -1.000000   120.000000     0.577350     0.577350    -0.577350     0.000000     0.000000     0.000000
   43     1.000000   180.000000     0.000000    -0.707107     0.707107     0.000000     0.000000     0.000000
   44    -1.000000   180.000000     0.000000    -0.707107     0.707107     0.000000     0.000000     0.000000
   45     1.000000   180.000000     0.707107    -0.707107     0.000000     0.000000     0.000000     0.000000
   46    -1.000000   180.000000     0.707107    -0.707107     0.000000     0.000000     0.000000     0.000000
   47     1.000000   180.000000     0.707107     0.000000    -0.707107     0.000000     0.000000     0.000000
   48    -1.000000   180.000000     0.707107     0.000000    -0.707107     0.000000     0.000000     0.000000
 
 Subroutine IBZKPT returns following result:
 ===========================================
 
 Found     35 irreducible k-points:
 
 Following reciprocal coordinates:
            Coordinates               Weight
  0.000000  0.000000  0.000000      1.000000
  0.111111  0.000000  0.000000      6.000000
  0.222222  0.000000  0.000000      6.000000
  0.333333  0.000000  0.000000      6.000000
  0.444444  0.000000  0.000000      6.000000
  0.111111  0.111111  0.000000     12.000000
  0.222222  0.111111  0.000000     24.000000
  0.333333  0.111111  0.000000     24.000000
  0.444444  0.111111  0.000000     24.000000
  0.222222  0.222222  0.000000     12.000000
  0.333333  0.222222  0.000000     24.000000
  0.444444  0.222222  0.000000     24.000000
  0.333333  0.333333  0.000000     12.000000
  0.444444  0.333333  0.000000     24.000000
  0.444444  0.444444  0.000000     12.000000
  0.111111  0.111111  0.111111      8.000000
  0.222222  0.111111  0.111111     24.000000
  0.333333  0.111111  0.111111     24.000000
  0.444444  0.111111  0.111111     24.000000
  0.222222  0.222222  0.111111     24.000000
  0.333333  0.222222  0.111111     48.000000
  0.444444  0.222222  0.111111     48.000000
  0.333333  0.333333  0.111111     24.000000
  0.444444  0.333333  0.111111     48.000000
  0.444444  0.444444  0.111111     24.000000
  0.222222  0.222222  0.222222      8.000000
  0.333333  0.222222  0.222222     24.000000
  0.444444  0.222222  0.222222     24.000000
  0.333333  0.333333  0.222222     24.000000
  0.444444  0.333333  0.222222     48.000000
  0.444444  0.444444  0.222222     24.000000
  0.333333  0.333333  0.333333      8.000000
  0.444444  0.333333  0.333333     24.000000
  0.444444  0.444444  0.333333     24.000000
  0.444444  0.444444  0.444444      8.000000
 
 Following cartesian coordinates:
            Coordinates               Weight
  0.000000  0.000000  0.000000      1.000000
  0.111111  0.000000  0.000000      6.000000
  0.222222  0.000000  0.000000      6.000000
  0.333333  0.000000  0.000000      6.000000
  0.444444  0.000000  0.000000      6.000000
  0.111111  0.111111  0.000000     12.000000
  0.222222  0.111111  0.000000     24.000000
  0.333333  0.111111  0.000000     24.000000
  0.444444  0.111111  0.000000     24.000000
  0.222222  0.222222  0.000000     12.000000
  0.333333  0.222222  0.000000     24.000000
  0.444444  0.222222  0.000000     24.000000
  0.333333  0.333333  0.000000     12.000000
  0.444444  0.333333  0.000000     24.000000
  0.444444  0.444444  0.000000     12.000000
  0.111111  0.111111  0.111111      8.000000
  0.222222  0.111111  0.111111     24.000000
  0.333333  0.111111  0.111111     24.000000
  0.444444  0.111111  0.111111     24.000000
  0.222222  0.222222  0.111111     24.000000
  0.333333  0.222222  0.111111     48.000000
  0.444444  0.222222  0.111111     48.000000
  0.333333  0.333333  0.111111     24.000000
  0.444444  0.333333  0.111111     48.000000
  0.444444  0.444444  0.111111     24.000000
  0.222222  0.222222  0.222222      8.000000
  0.333333  0.222222  0.222222     24.000000
  0.444444  0.222222  0.222222     24.000000
  0.333333  0.333333  0.222222     24.000000
  0.444444  0.333333  0.222222     48.000000
  0.444444  0.444444  0.222222     24.000000
  0.333333  0.333333  0.333333      8.000000
  0.444444  0.333333  0.333333     24.000000
  0.444444  0.444444  0.333333     24.000000
  0.444444  0.444444  0.444444      8.000000
 
 TETIRR: Found    353 inequivalent tetrahedra from     4374


--------------------------------------------------------------------------------------------------------




 Dimension of arrays:
   k-points           NKPTS =     35   k-points in BZ     NKDIM =     35   number of bands    NBANDS=     14
   number of dos      NEDOS =    301   number of ions     NIONS =      2
   non local maximal  LDIM  =      6   non local SUM 2l+1 LMDIM =     18
   total plane-waves  NPLWV =   5832
   max r-space proj   IRMAX =   2236   max aug-charges    IRDMAX=  10978
   dimension x,y,z NGX =    18 NGY =   18 NGZ =   18
   dimension x,y,z NGXF=    36 NGYF=   36 NGZF=   36
   support grid    NGXF=    36 NGYF=   36 NGZF=   36
   ions per type =               2
 NGX,Y,Z   is equivalent  to a cutoff of   9.35,  9.35,  9.35 a.u.
 NGXF,Y,Z  is equivalent  to a cutoff of  18.70, 18.70, 18.70 a.u.


 I would recommend the setting:
   dimension x,y,z NGX =    18 NGY =   18 NGZ =   18
 SYSTEM =  unknown system                          
 POSCAR =  Pt_bcc                                  

 Startparameter for this run:
   NWRITE =      2    write-flag & timer
   PREC   = normal    normal or accurate (medium, high low for compatibility)
   ISTART =      0    job   : 0-new  1-cont  2-samecut
   ICHARG =      2    charge: 1-file 2-atom 10-const
   ISPIN  =      1    spin polarized calculation?
   LNONCOLLINEAR =      F non collinear calculations
   LSORBIT =      F    spin-orbit coupling
   INIWAV =      1    electr: 0-lowe 1-rand  2-diag
   LASPH  =      F    aspherical Exc in radial PAW
   METAGGA=      F    non-selfconsistent MetaGGA calc.

 Electronic Relaxation 1
   ENCUT  =  500.0 eV  36.75 Ry    6.06 a.u.   5.83  5.83  5.83*2*pi/ulx,y,z
   ENINI  =  500.0     initial cutoff
   ENAUG  =  359.0 eV  augmentation charge cutoff
   NELM   =     60;   NELMIN=  4; NELMDL= -5     # of ELM steps 
   EDIFF  = 0.1E-04   stopping-criterion for ELM
   LREAL  =      T    real-space projection
   NLSPLINE    = F    spline interpolate recip. space projectors
   LCOMPAT=      F    compatible to vasp.4.4
   GGA_COMPAT  = T    GGA compatible to vasp.4.4-vasp.4.6
   LMAXPAW     = -100 max onsite density
   LMAXMIX     =    2 max onsite mixed and CHGCAR
   VOSKOWN=      0    Vosko Wilk Nusair interpolation
   ROPT   =   -0.00050
 Ionic relaxation
   EDIFFG = 0.1E-03   stopping-criterion for IOM
   NSW    =      0    number of steps for IOM
   NBLOCK =      1;   KBLOCK =      1    inner block; outer block 
   IBRION =     -1    ionic relax: 0-MD 1-quasi-New 2-CG
   NFREE  =      0    steps in history (QN), initial steepest desc. (CG)
   ISIF   =      2    stress and relaxation
   IWAVPR =     10    prediction:  0-non 1-charg 2-wave 3-comb
   ISYM   =      2    0-nonsym 1-usesym 2-fastsym
   LCORR  =      T    Harris-Foulkes like correction to forces

   POTIM  = 0.5000    time-step for ionic-motion
   TEIN   =    0.0    initial temperature
   TEBEG  =    0.0;   TEEND  =   0.0 temperature during run
   SMASS  =  -3.00    Nose mass-parameter (am)
   estimated Nose-frequenzy (Omega)   =  0.10E-29 period in steps =****** mass=  -0.234E-27a.u.
   SCALEE = 1.0000    scale energy and forces
   NPACO  =    256;   APACO  = 16.0  distance and # of slots for P.C.
   PSTRESS=    0.0 pullay stress

  Mass of Ions in am
   POMASS = 195.08
  Ionic Valenz
   ZVAL   =  10.00
  Atomic Wigner-Seitz radii
   RWIGS  =  -1.00
  virtual crystal weights 
   VCA    =   1.00
   NELECT =      20.0000    total number of electrons
   NUPDOWN=      -1.0000    fix difference up-down

 DOS related values:
   EMIN   =  10.00;   EMAX   =-10.00  energy-range for DOS
   EFERMI =   0.00
   ISMEAR =    -5;   SIGMA  =   0.20  broadening in eV -4-tet -1-fermi 0-gaus

 Electronic relaxation 2 (details)
   IALGO  =     68    algorithm
   LDIAG  =      T    sub-space diagonalisation (order eigenvalues)
   LSUBROT=      F    optimize rotation matrix (better conditioning)
   TURBO    =      0    0=normal 1=particle mesh
   IRESTART =      0    0=no restart 2=restart with 2 vectors
   NREBOOT  =      0    no. of reboots
   NMIN     =      0    reboot dimension
   EREF     =   0.00    reference energy to select bands
   IMIX   =      4    mixing-type and parameters
     AMIX     =   0.40;   BMIX     =  1.00
     AMIX_MAG =   1.60;   BMIX_MAG =  1.00
     AMIN     =   0.10
     WC   =   100.;   INIMIX=   1;  MIXPRE=   1;  MAXMIX= -45

 Intra band minimization:
   WEIMIN = 0.0000     energy-eigenvalue tresh-hold
   EBREAK =  0.18E-06  absolut break condition
   DEPER  =   0.30     relativ break condition  

   TIME   =   0.40     timestep for ELM

  volume/ion in A,a.u.               =      16.38       110.56
  Fermi-wavevector in a.u.,A,eV,Ry     =   1.388678  2.624221 26.237832  1.928426
  Thomas-Fermi vector in A             =   2.512781
 
 Write flags
   LWAVE  =      F    write WAVECAR
   LCHARG =      T    write CHGCAR
   LVTOT  =      F    write LOCPOT, total local potential
   LVHAR  =      F    write LOCPOT, Hartree potential only
   LELF   =      F    write electronic localiz. function (ELF)
   LORBIT =      0    0 simple, 1 ext, 2 COOP (PROOUT)


 Dipole corrections
   LMONO  =      F    monopole corrections only (constant potential shift)
   LDIPOL =      F    correct potential (dipole corrections)
   IDIPOL =      0    1-x, 2-y, 3-z, 4-all directions 
   EPSILON=  1.0000000 bulk dielectric constant

 Exchange correlation treatment:
   GGA     =    --    GGA type
   LEXCH   =     8    internal setting for exchange type
   VOSKOWN=      0    Vosko Wilk Nusair interpolation
   LHFCALC =     F    Hartree Fock is set to
   LHFONE  =     F    Hartree Fock one center treatment
   AEXX    =    0.0000 exact exchange contribution

 Linear response parameters
   LEPSILON=     F    determine dielectric tensor
   LRPA    =     F    only Hartree local field effects (RPA)
   LNABLA  =     F    use nabla operator in PAW spheres
   LVEL    =     F    velocity operator in full k-point grid
   LINTERFAST=   F  fast interpolation
   KINTER  =     0    interpolate to denser k-point grid
   CSHIFT  =0.1000    complex shift for real part using Kramers Kronig
   OMEGAMAX=  -1.0    maximum frequency
   DEG_THRESHOLD= 0.2000000E-02 threshold for treating states as degnerate
   RTIME   =    0.100 relaxation time in fs

 Orbital magnetization related:
   ORBITALMAG=     F  switch on orbital magnetization
   LCHIMAG   =     F  perturbation theory with respect to B field
   DQ        =  0.001000  dq finite difference perturbation B field



--------------------------------------------------------------------------------------------------------


 Static calculation
 charge density and potential will be updated during run
 non-spin polarized calculation
 RMM-DIIS sequential band-by-band and
  variant of blocked Davidson during initial phase
 perform sub-space diagonalisation
    before iterative eigenvector-optimisation
 modified Broyden-mixing scheme, WC =      100.0
 initial mixing is a Kerker type mixing with AMIX =  0.4000 and BMIX =      1.0000
 Hartree-type preconditioning will be used
 using additional bands            4
 real space projection scheme for non local part
 use partial core corrections
 calculate Harris-corrections to forces 
   (improved forces if not selfconsistent)
 use gradient corrections 
 use of overlap-Matrix (Vanderbilt PP)
 Fermi weights with tetrahedron method with Bloechl corrections


--------------------------------------------------------------------------------------------------------


  energy-cutoff  :      500.00
  volume of cell :       32.77
      direct lattice vectors                 reciprocal lattice vectors
     3.200000000  0.000000000  0.000000000     0.312500000  0.000000000  0.000000000
     0.000000000  3.200000000  0.000000000     0.000000000  0.312500000  0.000000000
     0.000000000  0.000000000  3.200000000     0.000000000  0.000000000  0.312500000

  length of vectors
     3.200000000  3.200000000  3.200000000     0.312500000  0.312500000  0.312500000


 
 k-points in units of 2pi/SCALE and weight: k-density: 4.0                          
   0.00000000  0.00000000  0.00000000       0.001
   0.11111111  0.00000000  0.00000000       0.008
   0.22222222  0.00000000  0.00000000       0.008
   0.33333333  0.00000000  0.00000000       0.008
   0.44444444  0.00000000  0.00000000       0.008
   0.11111111  0.11111111  0.00000000       0.016
   0.22222222  0.11111111  0.00000000       0.033
   0.33333333  0.11111111  0.00000000       0.033
   0.44444444  0.11111111  0.00000000       0.033
   0.22222222  0.22222222  0.00000000       0.016
   0.33333333  0.22222222  0.00000000       0.033
   0.44444444  0.22222222  0.00000000       0.033
   0.33333333  0.33333333  0.00000000       0.016
   0.44444444  0.33333333  0.00000000       0.033
   0.44444444  0.44444444  0.00000000       0.016
   0.11111111  0.11111111  0.11111111       0.011
   0.22222222  0.11111111  0.11111111       0.033
   0.33333333  0.11111111  0.11111111       0.033
   0.44444444  0.11111111  0.11111111       0.033
   0.22222222  0.22222222  0.11111111       0.033
   0.33333333  0.22222222  0.11111111       0.066
   0.44444444  0.22222222  0.11111111       0.066
   0.33333333  0.33333333  0.11111111       0.033
   0.44444444  0.33333333  0.11111111       0.066
   0.44444444  0.44444444  0.11111111       0.033
   0.22222222  0.22222222  0.22222222       0.011
   0.33333333  0.22222222  0.22222222       0.033
   0.44444444  0.22222222  0.22222222       0.033
   0.33333333  0.33333333  0.22222222       0.033
   0.44444444  0.33333333  0.22222222       0.066
   0.44444444  0.44444444  0.22222222       0.033
   0.33333333  0.33333333  0.33333333       0.011
   0.44444444  0.33333333  0.33333333       0.033
   0.44444444  0.44444444  0.33333333       0.033
   0.44444444  0.44444444  0.44444444       0.011
 
 k-points in reciprocal lattice and weights: k-density: 4.0                          
   0.00000000  0.00000000  0.00000000       0.001
   0.11111111  0.00000000  0.00000000       0.008
   0.22222222  0.00000000  0.00000000       0.008
   0.33333333  0.00000000  0.00000000       0.008
   0.44444444  0.00000000  0.00000000       0.008
   0.11111111  0.11111111  0.00000000       0.016
   0.22222222  0.11111111  0.00000000       0.033
   0.33333333  0.11111111  0.00000000       0.033
   0.44444444  0.11111111  0.00000000       0.033
   0.22222222  0.22222222  0.00000000       0.016
   0.33333333  0.22222222  0.00000000       0.033
   0.44444444  0.22222222  0.00000000       0.033
   0.33333333  0.33333333  0.00000000       0.016
   0.44444444  0.33333333  0.00000000       0.033
   0.44444444  0.44444444  0.00000000       0.016
   0.11111111  0.11111111  0.11111111       0.011
   0.22222222  0.11111111  0.11111111       0.033
   0.33333333  0.11111111  0.11111111       0.033
   0.44444444  0.11111111  0.11111111       0.033
   0.22222222  0.22222222  0.11111111       0.033
   0.33333333  0.22222222  0.11111111       0.066
   0.44444444  0.22222222  0.11111111       0.066
   0.33333333  0.33333333  0.11111111       0.033
   0.44444444  0.33333333  0.11111111       0.066
   0.44444444  0.44444444  0.11111111       0.033
   0.22222222  0.22222222  0.22222222       0.011
   0.33333333  0.22222222  0.22222222       0.033
   0.44444444  0.22222222  0.22222222       0.033
   0.33333333  0.33333333  0.22222222       0.033
   0.44444444  0.33333333  0.22222222       0.066
   0.44444444  0.44444444  0.22222222       0.033
   0.33333333  0.33333333  0.33333333       0.011
   0.44444444  0.33333333  0.33333333       0.033
   0.44444444  0.44444444  0.33333333       0.033
   0.44444444  0.44444444  0.44444444       0.011
 
 position of ions in fractional coordinates (direct lattice) 
   0.00000000  0.00000000  0.00000000
   0.50000000  0.50000000  0.50000000
 
 position of ions in cartesian coordinates  (Angst):
   0.00000000  0.00000000  0.00000000
   1.60000000  1.60000000  1.60000000
 


--------------------------------------------------------------------------------------------------------


 k-point  1 :   0.0000 0.0000 0.0000  plane waves:     847
 k-point  2 :   0.1111 0.0000 0.0000  plane waves:     831
 k-point  3 :   0.2222 0.0000 0.0000  plane waves:     824
 k-point  4 :   0.3333 0.0000 0.0000  plane waves:     824
 k-point  5 :   0.4444 0.0000 0.0000  plane waves:     824
 k-point  6 :   0.1111 0.1111 0.0000  plane waves:     823
 k-point  7 :   0.2222 0.1111 0.0000  plane waves:     829
 k-point  8 :   0.3333 0.1111 0.0000  plane waves:     835
 k-point  9 :   0.4444 0.1111 0.0000  plane waves:     833
 k-point 10 :   0.2222 0.2222 0.0000  plane waves:     826
 k-point 11 :   0.3333 0.2222 0.0000  plane waves:     837
 k-point 12 :   0.4444 0.2222 0.0000  plane waves:     833
 k-point 13 :   0.3333 0.3333 0.0000  plane waves:     840
 k-point 14 :   0.4444 0.3333 0.0000  plane waves:     826
 k-point 15 :   0.4444 0.4444 0.0000  plane waves:     842
 k-point 16 :   0.1111 0.1111 0.1111  plane waves:     823
 k-point 17 :   0.2222 0.1111 0.1111  plane waves:     827
 k-point 18 :   0.3333 0.1111 0.1111  plane waves:     836
 k-point 19 :   0.4444 0.1111 0.1111  plane waves:     835
 k-point 20 :   0.2222 0.2222 0.1111  plane waves:     829
 k-point 21 :   0.3333 0.2222 0.1111  plane waves:     836
 k-point 22 :   0.4444 0.2222 0.1111  plane waves:     835
 k-point 23 :   0.3333 0.3333 0.1111  plane waves:     838
 k-point 24 :   0.4444 0.3333 0.1111  plane waves:     829
 k-point 25 :   0.4444 0.4444 0.1111  plane waves:     829
 k-point 26 :   0.2222 0.2222 0.2222  plane waves:     844
 k-point 27 :   0.3333 0.2222 0.2222  plane waves:     835
 k-point 28 :   0.4444 0.2222 0.2222  plane waves:     824
 k-point 29 :   0.3333 0.3333 0.2222  plane waves:     832
 k-point 30 :   0.4444 0.3333 0.2222  plane waves:     832
 k-point 31 :   0.4444 0.4444 0.2222  plane waves:     838
 k-point 32 :   0.3333 0.3333 0.3333  plane waves:     838
 k-point 33 :   0.4444 0.3333 0.3333  plane waves:     828
 k-point 34 :   0.4444 0.4444 0.3333  plane waves:     843
 k-point 35 :   0.4444 0.4444 0.4444  plane waves:     855

 maximum and minimum number of plane-waves per node :       435      399

 maximum number of plane-waves:       855
 maximum index in each direction: 
   IXMAX=    5   IYMAX=    5   IZMAX=    5
   IXMIN=   -6   IYMIN=   -6   IZMIN=   -6

 WARNING: aliasing errors must be expected set NGX to  24 to avoid them
 WARNING: aliasing errors must be expected set NGY to  24 to avoid them
 WARNING: aliasing errors must be expected set NGZ to  24 to avoid them
 aliasing errors are usually negligible using standard VASP settings
 and one can safely disregard these warnings

 real space projection operators:
  total allocation   :        591.47 KBytes
  max/ min on nodes  :        295.73        295.73


 parallel 3D FFT for wavefunctions:
    minimum data exchange during FFTs selected (reduces bandwidth)
 parallel 3D FFT for charge:
    minimum data exchange during FFTs selected (reduces bandwidth)


 total amount of memory used by VASP on root node    33433. kBytes
========================================================================

   base      :      30000. kBytes
   nonlr-proj:        437. kBytes
   fftplans  :        503. kBytes
   grid      :        699. kBytes
   one-center:         15. kBytes
   wavefun   :       1779. kBytes
 
     INWAV:  cpu time    0.0000: real time    0.0002
 Broyden mixing: mesh for mixing (old mesh)
   NGX = 11   NGY = 11   NGZ = 11
  (NGX  = 36   NGY  = 36   NGZ  = 36)
  gives a total of   1331 points

 initial charge density was supplied:
 charge density of overlapping atoms calculated
 number of electron      20.0000000 magnetization 
 keeping initial charge density in first step


--------------------------------------------------------------------------------------------------------


 Maximum index for non-local projection operator         1072
 Maximum index for augmentation-charges         2615 (set IRDMAX)


--------------------------------------------------------------------------------------------------------


 First call to EWALD:  gamma=   0.554
 Maximum number of real-space cells 3x 3x 3
 Maximum number of reciprocal cells 3x 3x 3

 FEWALD executed in parallel
    FEWALD:  cpu time    0.0010: real time    0.0015


----------------------------------------- Iteration    1(   1)  ---------------------------------------


    POTLOK:  cpu time    0.0070: real time    0.0075
    SETDIJ:  cpu time    0.0040: real time    0.0039
     EDDAV:  cpu time    0.2130: real time    0.2150
 BZINTS: Fermi energy: 25.317064; 20.000000 electrons
         Band energy: 293.801721;  BLOECHL correction: -0.413950
       DOS:  cpu time    0.0100: real time    0.0093
    --------------------------------------------
      LOOP:  cpu time    0.2370: real time    0.9057

 eigenvalue-minimisations  :   988
 total energy-change (2. order) : 0.1978122E+03  (-0.9293018E+03)
 number of electron      20.0000000 magnetization 
 augmentation part       20.0000000 magnetization 

 Free energy of the ion-electron system (eV)
  ---------------------------------------------------
  alpha Z        PSCENC =       177.60654297
  Ewald energy   TEWEN  =     -1637.63085677
  -Hartree energ DENC   =      -157.69536003
  -exchange      EXHF   =         0.00000000
  -V(xc)+E(xc)   XCENC  =         6.93708527
  PAW double counting   =      1146.49098650    -1089.92424116
  entropy T*S    EENTRO =         0.00000000
  eigenvalues    EBANDS =       293.80172057
  atomic energy  EATOM  =      1458.22633362
  Solvation  Ediel_sol  =         0.00000000
  ---------------------------------------------------
  free energy    TOTEN  =       197.81221097 eV

  energy without entropy =      197.81221097  energy(sigma->0) =      197.81221097


--------------------------------------------------------------------------------------------------------




----------------------------------------- Iteration    1(   2)  ---------------------------------------


     EDDAV:  cpu time    0.2130: real time    0.2129
 BZINTS: Fermi energy:  8.638088; 20.000000 electrons
         Band energy:  92.561058;  BLOECHL correction: -0.179055
       DOS:  cpu time    0.0110: real time    0.0113
    --------------------------------------------
      LOOP:  cpu time    0.2240: real time    0.2273

 eigenvalue-minimisations  :   998
 total energy-change (2. order) :-0.2012407E+03  (-0.1864678E+03)
 number of electron      20.0000000 magnetization 
 augmentation part       20.0000000 magnetization 

 Free energy of the ion-electron system (eV)
  ---------------------------------------------------
  alpha Z        PSCENC =       177.60654297
  Ewald energy   TEWEN  =     -1637.63085677
  -Hartree energ DENC   =      -157.69536003
  -exchange      EXHF   =         0.00000000
  -V(xc)+E(xc)   XCENC  =         6.93708527
  PAW double counting   =      1146.49098650    -1089.92424116
  entropy T*S    EENTRO =         0.00000000
  eigenvalues    EBANDS =        92.56105816
  atomic energy  EATOM  =      1458.22633362
  Solvation  Ediel_sol  =         0.00000000
  ---------------------------------------------------
  free energy    TOTEN  =        -3.42845144 eV

  energy without entropy =       -3.42845144  energy(sigma->0) =       -3.42845144


--------------------------------------------------------------------------------------------------------




----------------------------------------- Iteration    1(   3)  ---------------------------------------


     EDDAV:  cpu time    0.2590: real time    0.2584
 BZINTS: Fermi energy:  7.389783; 20.000000 electrons
         Band energy:  83.507103;  BLOECHL correction: -0.057776
       DOS:  cpu time    0.0100: real time    0.0103
    --------------------------------------------
      LOOP:  cpu time    0.2700: real time    0.2742

 eigenvalue-minimisations  :  1256
 total energy-change (2. order) :-0.9053955E+01  (-0.8482939E+01)
 number of electron      20.0000000 magnetization 
 augmentation part       20.0000000 magnetization 

 Free energy of the ion-electron system (eV)
  ---------------------------------------------------
  alpha Z        PSCENC =       177.60654297
  Ewald energy   TEWEN  =     -1637.63085677
  -Hartree energ DENC   =      -157.69536003
  -exchange      EXHF   =         0.00000000
  -V(xc)+E(xc)   XCENC  =         6.93708527
  PAW double counting   =      1146.49098650    -1089.92424116
  entropy T*S    EENTRO =         0.00000000
  eigenvalues    EBANDS =        83.50710342
  atomic energy  EATOM  =      1458.22633362
  Solvation  Ediel_sol  =         0.00000000
  ---------------------------------------------------
  free energy    TOTEN  =       -12.48240618 eV

  energy without entropy =      -12.48240618  energy(sigma->0) =      -12.48240618


--------------------------------------------------------------------------------------------------------




----------------------------------------- Iteration    1(   4)  ---------------------------------------


     EDDAV:  cpu time    0.2170: real time    0.2171
 BZINTS: Fermi energy:  7.385567; 20.000000 electrons
         Band energy:  83.368019;  BLOECHL correction: -0.057398
       DOS:  cpu time    0.0100: real time    0.0102
    --------------------------------------------
      LOOP:  cpu time    0.2280: real time    0.2458

 eigenvalue-minimisations  :  1022
 total energy-change (2. order) :-0.1390846E+00  (-0.1391620E+00)
 number of electron      20.0000000 magnetization 
 augmentation part       20.0000000 magnetization 

 Free energy of the ion-electron system (eV)
  ---------------------------------------------------
  alpha Z        PSCENC =       177.60654297
  Ewald energy   TEWEN  =     -1637.63085677
  -Hartree energ DENC   =      -157.69536003
  -exchange      EXHF   =         0.00000000
  -V(xc)+E(xc)   XCENC  =         6.93708527
  PAW double counting   =      1146.49098650    -1089.92424116
  entropy T*S    EENTRO =         0.00000000
  eigenvalues    EBANDS =        83.36801881
  atomic energy  EATOM  =      1458.22633362
  Solvation  Ediel_sol  =         0.00000000
  ---------------------------------------------------
  free energy    TOTEN  =       -12.62149078 eV

  energy without entropy =      -12.62149078  energy(sigma->0) =      -12.62149078


--------------------------------------------------------------------------------------------------------




----------------------------------------- Iteration    1(   5)  ---------------------------------------


     EDDAV:  cpu time    0.2540: real time    0.2540
 BZINTS: Fermi energy:  7.385458; 20.000000 electrons
         Band energy:  83.364684;  BLOECHL correction: -0.057382
       DOS:  cpu time    0.0100: real time    0.0105
    CHARGE:  cpu time    0.0140: real time    0.0132
    MIXING:  cpu time    0.0000: real time    0.0005
    --------------------------------------------
      LOOP:  cpu time    0.2790: real time    0.2825

 eigenvalue-minimisations  :  1232
 total energy-change (2. order) :-0.3334362E-02  (-0.3346311E-02)
 number of electron      19.9999995 magnetization 
 augmentation part        5.9128836 magnetization 

 Broyden mixing:
  rms(total) = 0.50925E+00    rms(broyden)= 0.50923E+00
  rms(prec ) = 0.15107E+01
  weight for this iteration     100.00

 Free energy of the ion-electron system (eV)
  ---------------------------------------------------
  alpha Z        PSCENC =       177.60654297
  Ewald energy   TEWEN  =     -1637.63085677
  -Hartree energ DENC   =      -157.69536003
  -exchange      EXHF   =         0.00000000
  -V(xc)+E(xc)   XCENC  =         6.93708527
  PAW double counting   =      1146.49098650    -1089.92424116
  entropy T*S    EENTRO =         0.00000000
  eigenvalues    EBANDS =        83.36468445
  atomic energy  EATOM  =      1458.22633362
  Solvation  Ediel_sol  =         0.00000000
  ---------------------------------------------------
  free energy    TOTEN  =       -12.62482515 eV

  energy without entropy =      -12.62482515  energy(sigma->0) =      -12.62482515


--------------------------------------------------------------------------------------------------------




----------------------------------------- Iteration    1(   6)  ---------------------------------------


    POTLOK:  cpu time    0.0060: real time    0.0065
    SETDIJ:  cpu time    0.0030: real time    0.0028
    EDDIAG:  cpu time    0.0340: real time    0.0339
  RMM-DIIS:  cpu time    0.1240: real time    0.1235
    ORTHCH:  cpu time    0.0040: real time    0.0045
 BZINTS: Fermi energy:  6.688542; 20.000000 electrons
         Band energy:  73.286158;  BLOECHL correction: -0.053425
       DOS:  cpu time    0.0110: real time    0.0115
    CHARGE:  cpu time    0.0140: real time    0.0130
    MIXING:  cpu time    0.0000: real time    0.0008
    --------------------------------------------
      LOOP:  cpu time    0.1970: real time    0.2003

 eigenvalue-minimisations  :   980
 total energy-change (2. order) : 0.6644146E+00  (-0.1285742E+00)
 number of electron      19.9999995 magnetization 
 augmentation part        6.1780812 magnetization 

 Broyden mixing:
  rms(total) = 0.16869E+00    rms(broyden)= 0.16868E+00
  rms(prec ) = 0.47449E+00
  weight for this iteration     100.00

 eigenvalues of (default mixing * dielectric matrix)
  average eigenvalue GAMMA=   1.4035
  1.4035

 Free energy of the ion-electron system (eV)
  ---------------------------------------------------
  alpha Z        PSCENC =       177.60654297
  Ewald energy   TEWEN  =     -1637.63085677
  -Hartree energ DENC   =      -144.07620822
  -exchange      EXHF   =         0.00000000
  -V(xc)+E(xc)   XCENC  =         6.42782527
  PAW double counting   =      1144.51691027    -1090.31711522
  entropy T*S    EENTRO =         0.00000000
  eigenvalues    EBANDS =        73.28615750
  atomic energy  EATOM  =      1458.22633362
  Solvation  Ediel_sol  =         0.00000000
  ---------------------------------------------------
  free energy    TOTEN  =       -11.96041058 eV

  energy without entropy =      -11.96041058  energy(sigma->0) =      -11.96041058


--------------------------------------------------------------------------------------------------------




----------------------------------------- Iteration    1(   7)  ---------------------------------------


    POTLOK:  cpu time    0.0060: real time    0.0064
    SETDIJ:  cpu time    0.0030: real time    0.0028
    EDDIAG:  cpu time    0.0340: real time    0.0335
  RMM-DIIS:  cpu time    0.1270: real time    0.1269
    ORTHCH:  cpu time    0.0040: real time    0.0044
 BZINTS: Fermi energy:  6.424580; 20.000000 electrons
         Band energy:  69.306715;  BLOECHL correction: -0.052929
       DOS:  cpu time    0.0110: real time    0.0112
    CHARGE:  cpu time    0.0130: real time    0.0127
    MIXING:  cpu time    0.0000: real time    0.0003
    --------------------------------------------
      LOOP:  cpu time    0.1990: real time    0.2040

 eigenvalue-minimisations  :  1000
 total energy-change (2. order) : 0.5052453E-01  (-0.3564780E-01)
 number of electron      19.9999995 magnetization 
 augmentation part        6.2894621 magnetization 

 Broyden mixing:
  rms(total) = 0.50633E-01    rms(broyden)= 0.50629E-01
  rms(prec ) = 0.81562E-01
  weight for this iteration     100.00

 eigenvalues of (default mixing * dielectric matrix)
  average eigenvalue GAMMA=   1.8334
  1.4318  2.2351

 Free energy of the ion-electron system (eV)
  ---------------------------------------------------
  alpha Z        PSCENC =       177.60654297
  Ewald energy   TEWEN  =     -1637.63085677
  -Hartree energ DENC   =      -138.38995126
  -exchange      EXHF   =         0.00000000
  -V(xc)+E(xc)   XCENC  =         6.22112846
  PAW double counting   =      1155.00010277    -1102.24990083
  entropy T*S    EENTRO =         0.00000000
  eigenvalues    EBANDS =        69.30671499
  atomic energy  EATOM  =      1458.22633362
  Solvation  Ediel_sol  =         0.00000000
  ---------------------------------------------------
  free energy    TOTEN  =       -11.90988605 eV

  energy without entropy =      -11.90988605  energy(sigma->0) =      -11.90988605


--------------------------------------------------------------------------------------------------------




----------------------------------------- Iteration    1(   8)  ---------------------------------------


    POTLOK:  cpu time    0.0070: real time    0.0064
    SETDIJ:  cpu time    0.0030: real time    0.0028
    EDDIAG:  cpu time    0.0330: real time    0.0334
  RMM-DIIS:  cpu time    0.1280: real time    0.1274
    ORTHCH:  cpu time    0.0040: real time    0.0044
 BZINTS: Fermi energy:  6.486641; 20.000000 electrons
         Band energy:  70.206349;  BLOECHL correction: -0.053194
       DOS:  cpu time    0.0110: real time    0.0112
    CHARGE:  cpu time    0.0130: real time    0.0127
    MIXING:  cpu time    0.0000: real time    0.0005
    --------------------------------------------
      LOOP:  cpu time    0.2000: real time    0.2031

 eigenvalue-minimisations  :  1000
 total energy-change (2. order) : 0.6515335E-02  (-0.1228092E-02)
 number of electron      19.9999995 magnetization 
 augmentation part        6.2729808 magnetization 

 Broyden mixing:
  rms(total) = 0.11882E-01    rms(broyden)= 0.11881E-01
  rms(prec ) = 0.31579E-01
  weight for this iteration     100.00

 eigenvalues of (default mixing * dielectric matrix)
  average eigenvalue GAMMA=   1.6629
  1.2362  1.2362  2.5165

 Free energy of the ion-electron system (eV)
  ---------------------------------------------------
  alpha Z        PSCENC =       177.60654297
  Ewald energy   TEWEN  =     -1637.63085677
  -Hartree energ DENC   =      -138.67412395
  -exchange      EXHF   =         0.00000000
  -V(xc)+E(xc)   XCENC  =         6.23051217
  PAW double counting   =      1173.50565647    -1121.37378462
  entropy T*S    EENTRO =         0.00000000
  eigenvalues    EBANDS =        70.20634941
  atomic energy  EATOM  =      1458.22633362
  Solvation  Ediel_sol  =         0.00000000
  ---------------------------------------------------
  free energy    TOTEN  =       -11.90337071 eV

  energy without entropy =      -11.90337071  energy(sigma->0) =      -11.90337071


--------------------------------------------------------------------------------------------------------




----------------------------------------- Iteration    1(   9)  ---------------------------------------


    POTLOK:  cpu time    0.0060: real time    0.0064
    SETDIJ:  cpu time    0.0030: real time    0.0028
    EDDIAG:  cpu time    0.0340: real time    0.0333
  RMM-DIIS:  cpu time    0.1390: real time    0.1397
    ORTHCH:  cpu time    0.0040: real time    0.0045
 BZINTS: Fermi energy:  6.467668; 20.000000 electrons
         Band energy:  69.922251;  BLOECHL correction: -0.053144
       DOS:  cpu time    0.0120: real time    0.0115
    CHARGE:  cpu time    0.0120: real time    0.0127
    MIXING:  cpu time    0.0010: real time    0.0003
    --------------------------------------------
      LOOP:  cpu time    0.2120: real time    0.2154

 eigenvalue-minimisations  :  1067
 total energy-change (2. order) : 0.9947772E-04  (-0.1924624E-03)
 number of electron      19.9999995 magnetization 
 augmentation part        6.2807108 magnetization 

 Broyden mixing:
  rms(total) = 0.21486E-02    rms(broyden)= 0.21480E-02
  rms(prec ) = 0.39112E-02
  weight for this iteration     100.00

 eigenvalues of (default mixing * dielectric matrix)
  average eigenvalue GAMMA=   2.0775
  3.4339  1.0356  1.3137  2.5268

 Free energy of the ion-electron system (eV)
  ---------------------------------------------------
  alpha Z        PSCENC =       177.60654297
  Ewald energy   TEWEN  =     -1637.63085677
  -Hartree energ DENC   =      -138.25052881
  -exchange      EXHF   =         0.00000000
  -V(xc)+E(xc)   XCENC  =         6.21566030
  PAW double counting   =      1175.79973629    -1123.79241023
  entropy T*S    EENTRO =         0.00000000
  eigenvalues    EBANDS =        69.92225140
  atomic energy  EATOM  =      1458.22633362
  Solvation  Ediel_sol  =         0.00000000
  ---------------------------------------------------
  free energy    TOTEN  =       -11.90327123 eV

  energy without entropy =      -11.90327123  energy(sigma->0) =      -11.90327123


--------------------------------------------------------------------------------------------------------




----------------------------------------- Iteration    1(  10)  ---------------------------------------


    POTLOK:  cpu time    0.0060: real time    0.0064
    SETDIJ:  cpu time    0.0030: real time    0.0028
    EDDIAG:  cpu time    0.0330: real time    0.0333
  RMM-DIIS:  cpu time    0.1300: real time    0.1297
    ORTHCH:  cpu time    0.0040: real time    0.0044
 BZINTS: Fermi energy:  6.466920; 20.000000 electrons
         Band energy:  69.910646;  BLOECHL correction: -0.053147
       DOS:  cpu time    0.0120: real time    0.0115
    CHARGE:  cpu time    0.0120: real time    0.0127
    MIXING:  cpu time    0.0010: real time    0.0004
    --------------------------------------------
      LOOP:  cpu time    0.2020: real time    0.2051

 eigenvalue-minimisations  :   987
 total energy-change (2. order) :-0.1725443E-04  (-0.1562078E-04)
 number of electron      19.9999995 magnetization 
 augmentation part        6.2821058 magnetization 

 Broyden mixing:
  rms(total) = 0.17995E-02    rms(broyden)= 0.17995E-02
  rms(prec ) = 0.46402E-02
  weight for this iteration     100.00

 eigenvalues of (default mixing * dielectric matrix)
  average eigenvalue GAMMA=   1.6938
  2.7228  2.3128  0.9850  1.2243  1.2243

 Free energy of the ion-electron system (eV)
  ---------------------------------------------------
  alpha Z        PSCENC =       177.60654297
  Ewald energy   TEWEN  =     -1637.63085677
  -Hartree energ DENC   =      -138.27619756
  -exchange      EXHF   =         0.00000000
  -V(xc)+E(xc)   XCENC  =         6.21652554
  PAW double counting   =      1176.84024173    -1124.79652357
  entropy T*S    EENTRO =         0.00000000
  eigenvalues    EBANDS =        69.91064555
  atomic energy  EATOM  =      1458.22633362
  Solvation  Ediel_sol  =         0.00000000
  ---------------------------------------------------
  free energy    TOTEN  =       -11.90328849 eV

  energy without entropy =      -11.90328849  energy(sigma->0) =      -11.90328849


--------------------------------------------------------------------------------------------------------




----------------------------------------- Iteration    1(  11)  ---------------------------------------


    POTLOK:  cpu time    0.0060: real time    0.0064
    SETDIJ:  cpu time    0.0030: real time    0.0028
    EDDIAG:  cpu time    0.0330: real time    0.0334
  RMM-DIIS:  cpu time    0.0960: real time    0.0953
    ORTHCH:  cpu time    0.0040: real time    0.0044
 BZINTS: Fermi energy:  6.470487; 20.000000 electrons
         Band energy:  69.963656;  BLOECHL correction: -0.053156
       DOS:  cpu time    0.0110: real time    0.0112
    CHARGE:  cpu time    0.0130: real time    0.0127
    MIXING:  cpu time    0.0010: real time    0.0003
    --------------------------------------------
      LOOP:  cpu time    0.1680: real time    0.1706

 eigenvalue-minimisations  :   697
 total energy-change (2. order) : 0.1090179E-04  (-0.3795213E-05)
 number of electron      19.9999995 magnetization 
 augmentation part        6.2807222 magnetization 

 Broyden mixing:
  rms(total) = 0.11320E-03    rms(broyden)= 0.11281E-03
  rms(prec ) = 0.26731E-03
  weight for this iteration     100.00

 eigenvalues of (default mixing * dielectric matrix)
  average eigenvalue GAMMA=   1.9057
  3.1453  2.7235  2.2636  1.2252  0.9489  1.1276

 Free energy of the ion-electron system (eV)
  ---------------------------------------------------
  alpha Z        PSCENC =       177.60654297
  Ewald energy   TEWEN  =     -1637.63085677
  -Hartree energ DENC   =      -138.32836179
  -exchange      EXHF   =         0.00000000
  -V(xc)+E(xc)   XCENC  =         6.21835592
  PAW double counting   =      1176.88695887    -1124.84590646
  entropy T*S    EENTRO =         0.00000000
  eigenvalues    EBANDS =        69.96365606
  atomic energy  EATOM  =      1458.22633362
  Solvation  Ediel_sol  =         0.00000000
  ---------------------------------------------------
  free energy    TOTEN  =       -11.90327759 eV

  energy without entropy =      -11.90327759  energy(sigma->0) =      -11.90327759


--------------------------------------------------------------------------------------------------------




----------------------------------------- Iteration    1(  12)  ---------------------------------------


    POTLOK:  cpu time    0.0060: real time    0.0064
    SETDIJ:  cpu time    0.0030: real time    0.0028
    EDDIAG:  cpu time    0.0320: real time    0.0332
  RMM-DIIS:  cpu time    0.0780: real time    0.0769
    ORTHCH:  cpu time    0.0040: real time    0.0044
 BZINTS: Fermi energy:  6.470473; 20.000000 electrons
         Band energy:  69.963481;  BLOECHL correction: -0.053155
       DOS:  cpu time    0.0110: real time    0.0109
    --------------------------------------------
      LOOP:  cpu time    0.1350: real time    0.1552

 eigenvalue-minimisations  :   523
 total energy-change (2. order) :-0.1463063E-06  (-0.4844090E-06)
 number of electron      19.9999995 magnetization 
 augmentation part        6.2807222 magnetization 

 Free energy of the ion-electron system (eV)
  ---------------------------------------------------
  alpha Z        PSCENC =       177.60654297
  Ewald energy   TEWEN  =     -1637.63085677
  -Hartree energ DENC   =      -138.32941530
  -exchange      EXHF   =         0.00000000
  -V(xc)+E(xc)   XCENC  =         6.21838828
  PAW double counting   =      1176.85752671    -1124.81527816
  entropy T*S    EENTRO =         0.00000000
  eigenvalues    EBANDS =        69.96348092
  atomic energy  EATOM  =      1458.22633362
  Solvation  Ediel_sol  =         0.00000000
  ---------------------------------------------------
  free energy    TOTEN  =       -11.90327773 eV

  energy without entropy =      -11.90327773  energy(sigma->0) =      -11.90327773


--------------------------------------------------------------------------------------------------------




 average (electrostatic) potential at core
  the test charge radii are     1.2059
  (the norm of the test charge is              1.0000)
       1 -49.8623       2 -49.8623
 
 
 
 E-fermi :   6.4705     XC(G=0): -12.9895     alpha+bet :-12.2023


 k-point     1 :       0.0000    0.0000    0.0000
  band No.  band energies     occupation 
      1      -2.6460      2.00000
      2       0.7608      2.00000
      3       0.7608      2.00000
      4       3.1763      2.00000
      5       3.1763      2.00000
      6       3.1763      2.00000
      7       5.5460      2.00000
      8       5.5460      2.00000
      9       6.9473      0.11862
     10       6.9473     -0.46735
     11       6.9473      0.00000
     12      14.1725      0.00000
     13      14.1725      0.00000
     14      14.1725      0.00000

 k-point     2 :       0.1111    0.0000    0.0000
  band No.  band energies     occupation 
      1      -2.4032      2.00000
      2       0.8759      2.00000
      3       0.9158      2.00000
      4       3.1822      2.00000
      5       3.1822      2.00000
      6       3.2713      2.00000
      7       5.3598      2.00000
      8       5.6156      2.00000
      9       6.5665      1.57307
     10       6.5665      1.17939
     11       6.8082     -0.00248
     12      12.7691      0.00000
     13      14.8401      0.00000
     14      14.8401      0.00000

 k-point     3 :       0.2222    0.0000    0.0000
  band No.  band energies     occupation 
      1      -1.7016      2.00000
      2       1.2145      2.00000
      3       1.3040      2.00000
      4       3.2238      2.00000
      5       3.2238      2.00000
      6       3.5496      2.00000
      7       4.8444      2.00000
      8       5.7359      2.00000
      9       5.7359      2.00130
     10       5.7975      2.06031
     11       6.4194      0.60738
     12      10.4185      0.00000
     13      16.5180      0.00000
     14      16.5180      0.00000

 k-point     4 :       0.3333    0.0000    0.0000
  band No.  band energies     occupation 
      1      -0.6335      2.00000
      2       1.6589      2.00000
      3       1.7562      2.00000
      4       3.3600      2.00000
      5       3.3600      2.00000
      6       3.9912      2.00000
      7       4.1070      2.00000
      8       4.8688      2.00000
      9       4.8688      2.00000
     10       5.8546      2.00000
     11       6.0262      2.18486
     12       8.2998      0.00000
     13      18.7501      0.00000
     14      18.7501      0.00000

 k-point     5 :       0.4444    0.0000    0.0000
  band No.  band energies     occupation 
      1       0.5848      2.00000
      2       1.4984      2.00000
      3       2.4630      2.00000
      4       3.2754      2.00000
      5       3.6557      2.00000
      6       3.6557      2.00000
      7       4.1562      2.00000
      8       4.1562      2.00000
      9       4.5609      2.00000
     10       5.2059      2.00000
     11       6.2944      2.00000
     12       6.8938      0.00000
     13      20.7338      0.00000
     14      21.4760      0.00000

 k-point     6 :       0.1111    0.1111    0.0000
  band No.  band energies     occupation 
      1      -2.1690      2.00000
      2       0.9964      2.00000
      3       1.0588      2.00000
      4       3.0001      2.00000
      5       3.1743      2.00000
      6       3.5554      2.00000
      7       5.3436      2.00000
      8       5.5608      2.00000
      9       5.9685      2.03612
     10       6.1778      2.01442
     11       7.0024     -0.00407
     12      13.2078      0.00000
     13      13.6248      0.00000
     14      15.3838      0.00000

 k-point     7 :       0.2222    0.1111    0.0000
  band No.  band energies     occupation 
      1      -1.4977      2.00000
      2       1.2926      2.00000
      3       1.4604      2.00000
      4       2.8938      2.00000
      5       3.1819      2.00000
      6       3.9829      2.00000
      7       4.9738      2.00000
      8       5.0957      2.00000
      9       5.3809      2.00163
     10       5.7190      2.01199
     11       6.8539     -0.11559
     12      11.0023      0.00000
     13      14.9127      0.00000
     14      16.8418      0.00000

 k-point     8 :       0.3333    0.1111    0.0000
  band No.  band energies     occupation 
      1      -0.4969      2.00000
      2       1.6288      2.00000
      3       1.9300      2.00000
      4       2.9338      2.00000
      5       3.2288      2.00000
      6       4.2658      2.00000
      7       4.4398      2.00000
      8       4.5152      2.00000
      9       4.6892      2.00000
     10       5.9688      2.00000
     11       6.3988      1.19283
     12       8.7604      0.00000
     13      16.6759      0.00000
     14      18.8957      0.00000

 k-point     9 :       0.4444    0.1111    0.0000
  band No.  band energies     occupation 
      1       0.6077      2.00000
      2       1.4458      2.00000
      3       2.4974      2.00000
      4       3.0591      2.00000
      5       3.1613      2.00000
      6       3.6052      2.00000
      7       4.1866      2.00000
      8       4.3475      2.00000
      9       5.1319      2.00000
     10       5.7861      2.00000
     11       6.2966      1.82024
     12       7.1062      0.00000
     13      18.3425      0.00000
     14      19.9690      0.00000

 k-point    10 :       0.2222    0.2222    0.0000
  band No.  band energies     occupation 
      1      -0.9380      2.00000
      2       1.4039      2.00000
      3       1.9374      2.00000
      4       2.5802      2.00000
      5       3.1751      2.00000
      6       4.2057      2.00000
      7       4.6141      2.00000
      8       4.7664      2.00000
      9       5.1351      2.00000
     10       5.6198      2.01217
     11       7.1441     -0.05392
     12      12.0829      0.00000
     13      12.5436      0.00000
     14      17.8147      0.00000

 k-point    11 :       0.3333    0.2222    0.0000
  band No.  band energies     occupation 
      1      -0.1852      2.00000
      2       1.3902      2.00000
      3       2.4441      2.00000
      4       2.5310      2.00000
      5       3.3312      2.00000
      6       3.4285      2.00000
      7       4.4922      2.00000
      8       4.9683      2.00000
      9       5.2950      2.00000
     10       5.8198      2.06222
     11       7.0270     -0.16108
     12       9.7277      0.00000
     13      13.9717      0.00000
     14      19.3822      0.00000

 k-point    12 :       0.4444    0.2222    0.0000
  band No.  band energies     occupation 
      1       0.5354      2.00000
      2       1.0866      2.00000
      3       2.5289      2.00000
      4       2.8576      2.00000
      5       3.0493      2.00000
      6       3.3879      2.00000
      7       4.6918      2.00000
      8       4.8722      2.00000
      9       5.9780      2.00000
     10       6.3021      1.91980
     11       6.5921      0.12232
     12       7.6248      0.00000
     13      15.6472      0.00000
     14      17.4875      0.00000

 k-point    13 :       0.3333    0.3333    0.0000
  band No.  band energies     occupation 
      1       0.1094      2.00000
      2       1.0195      2.00000
      3       2.1413      2.00000
      4       2.7381      2.00000
      5       3.3469      2.00000
      6       3.9687      2.00000
      7       4.6024      2.00000
      8       5.2909      2.00000
      9       5.7272      2.00000
     10       6.0654      2.11166
     11       7.3091      0.00000
     12       9.9152      0.00000
     13      12.4279      0.00000
     14      17.2512      0.00000

 k-point    14 :       0.4444    0.3333    0.0000
  band No.  band energies     occupation 
      1       0.3552      2.00000
      2       0.6482      2.00000
      3       2.0782      2.00000
      4       2.2776      2.00000
      5       4.0652      2.00000
      6       4.4308      2.00000
      7       5.0047      2.00000
      8       5.3544      2.00000
      9       6.2827      2.00000
     10       6.7313      0.10480
     11       7.1856      0.00000
     12       8.0563      0.00000
     13      13.3935      0.00000
     14      15.1119      0.00000

 k-point    15 :       0.4444    0.4444    0.0000
  band No.  band energies     occupation 
      1       0.2587      2.00000
      2       0.3512      2.00000
      3       1.8736      2.00000
      4       1.9402      2.00000
      5       5.1611      2.00000
      6       5.2441      2.00000
      7       5.2965      2.00000
      8       5.8232      2.00000
      9       6.3343      2.00000
     10       7.2494     -0.25489
     11       7.4191      0.00000
     12       7.6205      0.00000
     13      12.4593      0.00000
     14      13.2574      0.00000

 k-point    16 :       0.1111    0.1111    0.1111
  band No.  band energies     occupation 
      1      -1.9406      2.00000
      2       1.1575      2.00000
      3       1.1575      2.00000
      4       2.9830      2.00000
      5       2.9830      2.00000
      6       3.8538      2.00000
      7       5.1983      2.00000
      8       5.4319      2.00000
      9       5.4319      2.04041
     10       6.6262      1.58191
     11       6.6262      0.01963
     12      13.3568      0.00000
     13      14.2639      0.00000
     14      14.2639      0.00000

 k-point    17 :       0.2222    0.1111    0.1111
  band No.  band energies     occupation 
      1      -1.2910      2.00000
      2       1.4428      2.00000
      3       1.5495      2.00000
      4       2.8200      2.00000
      5       2.9474      2.00000
      6       4.3041      2.00000
      7       4.3715      2.00000
      8       5.0801      2.00000
      9       5.6533      2.00043
     10       5.8256      2.01788
     11       6.6811      0.02905
     12      11.5011      0.00000
     13      14.7728      0.00000
     14      15.8314      0.00000

 k-point    18 :       0.3333    0.1111    0.1111
  band No.  band energies     occupation 
      1      -0.3414      2.00000
      2       1.8180      2.00000
      3       1.8776      2.00000
      4       2.8663      2.00000
      5       2.9057      2.00000
      6       3.6866      2.00000
      7       4.6256      2.00000
      8       4.9876      2.00000
      9       5.0321      2.00000
     10       5.9265      2.00000
     11       6.3455      1.15581
     12       9.2681      0.00000
     13      16.1393      0.00000
     14      17.8217      0.00000

 k-point    19 :       0.4444    0.1111    0.1111
  band No.  band energies     occupation 
      1       0.6754      2.00000
      2       1.4830      2.00000
      3       2.3767      2.00000
      4       2.7635      2.00000
      5       3.1544      2.00000
      6       3.4628      2.00000
      7       4.3274      2.00000
      8       4.4761      2.00000
      9       5.5451      2.00000
     10       5.8992      2.00000
     11       6.3905      1.17302
     12       7.4997      0.00000
     13      17.6366      0.00000
     14      19.3229      0.00000

 k-point    20 :       0.2222    0.2222    0.1111
  band No.  band energies     occupation 
      1      -0.7260      2.00000
      2       1.6012      2.00000
      3       1.9850      2.00000
      4       2.5449      2.00000
      5       2.8671      2.00000
      6       3.4693      2.00000
      7       5.0537      2.00000
      8       5.2242      2.00000
      9       5.4351      2.00000
     10       5.5783      2.01156
     11       6.7630     -0.02188
     12      12.5590      0.00000
     13      12.7022      0.00000
     14      16.3773      0.00000

 k-point    21 :       0.3333    0.2222    0.1111
  band No.  band energies     occupation 
      1       0.0184      2.00000
      2       1.5811      2.00000
      3       2.4126      2.00000
      4       2.4280      2.00000
      5       2.9715      2.00000
      6       3.0863      2.00000
      7       4.9320      2.00000
      8       5.0306      2.00000
      9       5.7162      2.00000
     10       5.9110      2.05109
     11       6.6411      0.03976
     12      10.2692      0.00000
     13      13.9713      0.00000
     14      17.7665      0.00000

 k-point    22 :       0.4444    0.2222    0.1111
  band No.  band energies     occupation 
      1       0.6949      2.00000
      2       1.2250      2.00000
      3       2.4452      2.00000
      4       2.5013      2.00000
      5       3.2076      2.00000
      6       3.2359      2.00000
      7       4.8065      2.00000
      8       4.8573      2.00000
      9       5.9090      2.00000
     10       6.2268      2.01314
     11       6.8959     -0.11547
     12       8.3035      0.00000
     13      15.5024      0.00000
     14      17.3288      0.00000

 k-point    23 :       0.3333    0.3333    0.1111
  band No.  band energies     occupation 
      1       0.3397      2.00000
      2       1.1839      2.00000
      3       2.1192      2.00000
      4       2.5499      2.00000
      5       3.2973      2.00000
      6       3.4926      2.00000
      7       4.8761      2.00000
      8       5.3044      2.00000
      9       5.7274      2.00000
     10       6.7139      0.89951
     11       6.8281     -0.00056
     12      10.6804      0.00000
     13      12.3250      0.00000
     14      17.2000      0.00000

 k-point    24 :       0.4444    0.3333    0.1111
  band No.  band energies     occupation 
      1       0.5608      2.00000
      2       0.8196      2.00000
      3       2.0592      2.00000
      4       2.2222      2.00000
      5       3.9562      2.00000
      6       4.0970      2.00000
      7       5.1013      2.00000
      8       5.3016      2.00000
      9       5.9437      2.00000
     10       6.5244      1.09937
     11       7.6717      0.00000
     12       9.0314      0.00000
     13      13.3210      0.00000
     14      15.0385      0.00000

 k-point    25 :       0.4444    0.4444    0.1111
  band No.  band energies     occupation 
      1       0.4697      2.00000
      2       0.5474      2.00000
      3       1.8690      2.00000
      4       1.9317      2.00000
      5       4.9327      2.00000
      6       5.1716      2.00000
      7       5.3227      2.00000
      8       5.5018      2.00000
      9       5.8305      2.00000
     10       6.3821      1.34753
     11       8.4212      0.00000
     12       9.1003      0.00000
     13      12.3229      0.00000
     14      13.1655      0.00000

 k-point    26 :       0.2222    0.2222    0.2222
  band No.  band energies     occupation 
      1      -0.1535      2.00000
      2       2.1080      2.00000
      3       2.1080      2.00000
      4       2.4661      2.00000
      5       2.4661      2.00000
      6       2.6293      2.00000
      7       5.4549      2.00000
      8       5.4549      2.00000
      9       5.8846      2.00000
     10       6.0279      2.00902
     11       6.0279      1.61388
     12      12.5651      0.00000
     13      14.1382      0.00000
     14      14.1382      0.00000

 k-point    27 :       0.3333    0.2222    0.2222
  band No.  band energies     occupation 
      1       0.5346      2.00000
      2       1.8524      2.00000
      3       2.2488      2.00000
      4       2.3976      2.00000
      5       2.4195      2.00000
      6       2.8436      2.00000
      7       5.2722      2.00000
      8       5.4122      2.00000
      9       5.7212      2.00000
     10       6.1655      2.00602
     11       6.8188     -0.01517
     12      11.2359      0.00000
     13      13.7413      0.00000
     14      15.8759      0.00000

 k-point    28 :       0.4444    0.2222    0.2222
  band No.  band energies     occupation 
      1       0.9975      2.00000
      2       1.3581      2.00000
      3       2.3375      2.00000
      4       2.3666      2.00000
      5       2.8694      2.00000
      6       3.1892      2.00000
      7       5.1086      2.00000
      8       5.1090      2.00000
      9       5.8780      2.00000
     10       5.9976      2.04212
     11       7.9199     -0.02878
     12       9.3720      0.00000
     13      14.8123      0.00000
     14      16.5597      0.00000

 k-point    29 :       0.3333    0.3333    0.2222
  band No.  band energies     occupation 
      1       0.9871      2.00000
      2       1.4741      2.00000
      3       2.0823      2.00000
      4       2.4090      2.00000
      5       2.7037      2.00000
      6       3.1245      2.00000
      7       5.3828      2.00000
      8       5.4685      2.00000
      9       5.7192      2.00000
     10       6.1495      2.03109
     11       7.8482     -0.02408
     12      12.0933      0.00000
     13      12.2145      0.00000
     14      16.0532      0.00000

 k-point    30 :       0.4444    0.3333    0.2222
  band No.  band energies     occupation 
      1       1.0917      2.00000
      2       1.1926      2.00000
      3       2.0732      2.00000
      4       2.2307      2.00000
      5       3.3346      2.00000
      6       3.5594      2.00000
      7       5.3680      2.00000
      8       5.4297      2.00000
      9       5.8529      2.00000
     10       6.0228      2.05632
     11       8.9541      0.00000
     12      10.3553      0.00000
     13      13.2172      0.00000
     14      14.8209      0.00000

 k-point    31 :       0.4444    0.4444    0.2222
  band No.  band energies     occupation 
      1       1.0493      2.00000
      2       1.0568      2.00000
      3       1.8816      2.00000
      4       1.9672      2.00000
      5       4.1080      2.00000
      6       4.1860      2.00000
      7       5.5201      2.00000
      8       5.5661      2.00000
      9       5.8477      2.00000
     10       5.9594      2.06021
     11       9.9542      0.00000
     12      10.8995      0.00000
     13      11.9715      0.00000
     14      13.0042      0.00000

 k-point    32 :       0.3333    0.3333    0.3333
  band No.  band energies     occupation 
      1       1.4510      2.00000
      2       1.8531      2.00000
      3       2.0968      2.00000
      4       2.0968      2.00000
      5       2.8208      2.00000
      6       2.8208      2.00000
      7       5.6897      2.00000
      8       5.6897      2.00000
      9       5.7575      2.00000
     10       5.7575      2.00000
     11       8.9966     -0.01044
     12      11.8854      0.00000
     13      13.9819      0.00000
     14      13.9819      0.00000

 k-point    33 :       0.4444    0.3333    0.3333
  band No.  band energies     occupation 
      1       1.4165      2.00000
      2       1.5917      2.00000
      3       2.2232      2.00000
      4       2.4809      2.00000
      5       2.8079      2.00000
      6       3.1570      2.00000
      7       5.6350      2.00000
      8       5.6459      2.00000
      9       5.8392      2.00000
     10       5.8731      2.00000
     11      10.1109      0.00000
     12      11.2740      0.00000
     13      13.2467      0.00000
     14      14.2654      0.00000

 k-point    34 :       0.4444    0.4444    0.3333
  band No.  band energies     occupation 
      1       1.5728      2.00000
      2       1.8065      2.00000
      3       1.9749      2.00000
      4       2.2467      2.00000
      5       3.1997      2.00000
      6       3.3386      2.00000
      7       5.7397      2.00000
      8       5.7506      2.00000
      9       5.8652      2.00000
     10       5.8800      2.00000
     11      11.0274      0.00000
     12      11.5606      0.00000
     13      12.8308      0.00000
     14      13.2424      0.00000

 k-point    35 :       0.4444    0.4444    0.4444
  band No.  band energies     occupation 
      1       1.9110      2.00000
      2       2.2193      2.00000
      3       2.2193      2.00000
      4       2.6673      2.00000
      5       2.6673      2.00000
      6       2.7341      2.00000
      7       5.8732      2.00000
      8       5.8732      2.00000
      9       5.8739      2.00000
     10       5.8739      2.00000
     11      11.2365      0.00000
     12      11.2899      0.00000
     13      14.0449      0.00000
     14      14.8153      0.00000


--------------------------------------------------------------------------------------------------------


 soft charge-density along one line, spin component           1
         0         1         2         3         4         5         6         7         8         9
 total charge-density along one line
 
 pseudopotential strength for first ion, spin component:           1
 -7.835   0.000   0.000  -0.000   0.000  -0.199  -0.000  -0.000
  0.000  -7.835   0.000  -0.000  -0.000  -0.000  -0.199  -0.000
  0.000   0.000  -7.760   0.000   0.000  -0.000  -0.000  -0.206
 -0.000  -0.000   0.000  -7.835   0.000   0.000   0.000  -0.000
  0.000  -0.000   0.000   0.000  -7.760  -0.000   0.000  -0.000
 -0.199  -0.000  -0.000   0.000  -0.000   0.222   0.000   0.000
 -0.000  -0.199  -0.000   0.000   0.000   0.000   0.222   0.000
 -0.000  -0.000  -0.206  -0.000  -0.000   0.000   0.000   0.223
  0.000   0.000  -0.000  -0.199  -0.000  -0.000  -0.000   0.000
 -0.000   0.000  -0.000  -0.000  -0.206   0.000  -0.000   0.000
  0.000  -0.000  -0.000  -0.000   0.000  -0.000   0.000   0.000
 -0.000   0.000   0.000   0.000  -0.000   0.000  -0.000  -0.000
 -0.000   0.000  -0.000  -0.000  -0.000   0.000  -0.000   0.000
 -0.000   0.000   0.000  -0.000   0.000   0.000  -0.000  -0.000
  0.000  -0.000   0.000   0.000  -0.000  -0.000   0.000  -0.000
  0.000  -0.000   0.000   0.000   0.000  -0.000   0.000  -0.000
  0.000  -0.000  -0.000   0.000  -0.000  -0.000   0.000   0.000
 -0.000   0.000  -0.000  -0.000   0.000   0.000  -0.000   0.000
 total augmentation occupancy for first ion, spin component:           1
  1.625   0.000   0.000  -0.000  -0.000   0.169  -0.000  -0.000   0.000  -0.000  -0.000   0.000   0.000   0.000  -0.000  -0.000
 -0.000   1.625  -0.000  -0.000  -0.000  -0.000   0.169   0.000  -0.000  -0.000  -0.000   0.000  -0.000   0.000   0.000   0.000
  0.000   0.000   1.915   0.000   0.000   0.000   0.000  -0.123   0.000  -0.000  -0.000  -0.000  -0.000   0.000   0.000   0.000
 -0.000   0.000  -0.000   1.625   0.000   0.000  -0.000   0.000   0.169   0.000   0.000  -0.000   0.000   0.000   0.000  -0.000
 -0.000   0.000   0.000  -0.000   1.915   0.000  -0.000   0.000   0.000  -0.123   0.000   0.000   0.000   0.000  -0.000  -0.000
  0.169   0.000   0.000   0.000   0.000   0.227  -0.000   0.000  -0.000   0.000  -0.000   0.000   0.000  -0.000   0.000   0.000
  0.000   0.169  -0.000   0.000  -0.000   0.000   0.227   0.000   0.000   0.000   0.000   0.000   0.000   0.000   0.000   0.000
  0.000  -0.000  -0.123  -0.000   0.000   0.000   0.000   0.288   0.000   0.000   0.000   0.000  -0.000  -0.000  -0.000   0.000
 -0.000  -0.000  -0.000   0.169   0.000  -0.000  -0.000   0.000   0.227   0.000  -0.000   0.000   0.000  -0.000   0.000   0.000
 -0.000   0.000  -0.000  -0.000  -0.123  -0.000   0.000   0.000   0.000   0.288   0.000  -0.000  -0.000  -0.000   0.000   0.000
 -0.000   0.000   0.000   0.000  -0.000  -0.000   0.000   0.000  -0.000   0.000   1.078  -0.367   0.000   0.000   0.000   0.000
 -0.000   0.000  -0.000  -0.000   0.000   0.000   0.000  -0.000  -0.000   0.000  -0.367   0.174   0.000  -0.000   0.000   0.000
 -0.000   0.000  -0.000   0.000   0.000   0.000  -0.000  -0.000   0.000   0.000   0.000   0.000   0.175   0.000   0.000  -0.008
  0.000  -0.000   0.000   0.000   0.000   0.000  -0.000   0.000  -0.000  -0.000   0.000  -0.000   0.000   0.175  -0.000   0.000
  0.000   0.000  -0.000  -0.000   0.000  -0.000   0.000  -0.000   0.000   0.000   0.000   0.000   0.000   0.000   0.175  -0.000
 -0.000   0.000   0.000  -0.000  -0.000   0.000   0.000   0.000  -0.000   0.000   0.000  -0.000  -0.008   0.000   0.000   0.000
  0.000   0.000   0.000  -0.000  -0.000   0.000  -0.000   0.000   0.000   0.000   0.000  -0.000   0.000  -0.008  -0.000  -0.000
  0.000  -0.000   0.000   0.000  -0.000  -0.000   0.000   0.000  -0.000   0.000   0.000  -0.000  -0.000  -0.000  -0.008  -0.000


------------------------ aborting loop because EDIFF is reached ----------------------------------------


    CHARGE:  cpu time    0.0120: real time    0.0126
    FORLOC:  cpu time    0.0000: real time    0.0003
    FORNL :  cpu time    0.0750: real time    0.0734
    STRESS:  cpu time    0.2240: real time    0.2238
    FORCOR:  cpu time    0.0060: real time    0.0067
    FORHAR:  cpu time    0.0020: real time    0.0012
    MIXING:  cpu time    0.0000: real time    0.0004
    OFIELD:  cpu time    0.0000: real time    0.0000

  FORCE on cell =-STRESS in cart. coord.  units (eV):
  Direction    XX          YY          ZZ          XY          YZ          ZX
  --------------------------------------------------------------------------------------
  Alpha Z   177.60654   177.60654   177.60654
  Ewald    -545.87691  -545.87691  -545.87691     0.00000    -0.00000    -0.00000
  Hartree    46.10816    46.10816    46.10816    -0.00000    -0.00000    -0.00000
  E(xc)     -88.66609   -88.66609   -88.66609    -0.00000    -0.00000     0.00000
  Local     109.32581   109.32581   109.32581    -0.00000     0.00000     0.00000
  n-local   -69.11352   -67.10724   -69.00619     5.36709    -3.82177     0.72985
  augment    78.58531    78.58531    78.58531    -0.00000    -0.00000     0.00000
  Kinetic   295.78480   290.94169   283.00997     3.85011    -0.21276    -0.94170
  Fock        0.00000     0.00000     0.00000     0.00000     0.00000     0.00000
  -------------------------------------------------------------------------------------
  Total      -1.41402    -1.41402    -1.41402     0.00000     0.00000     0.00000
  in kB     -69.13768   -69.13768   -69.13768     0.00000     0.00000     0.00000
  external pressure =      -69.14 kB  Pullay stress =        0.00 kB


 VOLUME and BASIS-vectors are now :
 -----------------------------------------------------------------------------
  energy-cutoff  :      500.00
  volume of cell :       32.77
      direct lattice vectors                 reciprocal lattice vectors
     3.200000000  0.000000000  0.000000000     0.312500000  0.000000000  0.000000000
     0.000000000  3.200000000  0.000000000     0.000000000  0.312500000  0.000000000
     0.000000000  0.000000000  3.200000000     0.000000000  0.000000000  0.312500000

  length of vectors
     3.200000000  3.200000000  3.200000000     0.312500000  0.312500000  0.312500000


 FORCES acting on ions
    electron-ion (+dipol)            ewald-force                    non-local-force                 convergence-correction
 -----------------------------------------------------------------------------------------------
   0.536E-14 0.981E-14 -.712E-14   -.576E-14 -.739E-15 -.371E-14   0.000E+00 0.000E+00 0.000E+00   0.343E-14 0.758E-14 0.678E-15
   0.113E-12 -.491E-12 0.509E-13   0.446E-14 0.629E-15 0.320E-14   0.000E+00 0.000E+00 0.000E+00   0.102E-13 0.214E-13 -.233E-14
 -----------------------------------------------------------------------------------------------
   0.119E-12 -.481E-12 0.438E-13   -.130E-14 -.110E-15 -.513E-15   0.000E+00 0.000E+00 0.000E+00   0.136E-13 0.290E-13 -.165E-14
 
 
 POSITION                                       TOTAL-FORCE (eV/Angst)
 -----------------------------------------------------------------------------------
      0.00000      0.00000      0.00000         0.000000     -0.000000      0.000000
      1.60000      1.60000      1.60000         0.000000      0.000000     -0.000000
 -----------------------------------------------------------------------------------
    total drift:                                0.000000     -0.000000      0.000000


--------------------------------------------------------------------------------------------------------



  FREE ENERGIE OF THE ION-ELECTRON SYSTEM (eV)
  ---------------------------------------------------
  free  energy   TOTEN  =       -11.90327773 eV

  energy  without entropy=      -11.90327773  energy(sigma->0) =      -11.90327773
 


--------------------------------------------------------------------------------------------------------


    POTLOK:  cpu time    0.0100: real time    0.0094


--------------------------------------------------------------------------------------------------------


     LOOP+:  cpu time    2.9336: real time    3.7032
    4ORBIT:  cpu time    0.0000: real time    0.0000
 BZINTS: Fermi energy:  6.470473; 20.000000 electrons
         Band energy:  69.963481;  BLOECHL correction: -0.053155

 total amount of memory used by VASP on root node    33433. kBytes
========================================================================

   base      :      30000. kBytes
   nonlr-proj:        437. kBytes
   fftplans  :        503. kBytes
   grid      :        699. kBytes
   one-center:         15. kBytes
   wavefun   :       1779. kBytes
 
  
  
 General timing and accounting informations for this job:
 ========================================================
  
                  Total CPU time used (sec):        3.557
                            User time (sec):        3.495
                          System time (sec):        0.062
                         Elapsed time (sec):        4.990
  
                   Maximum memory used (kb):       28056.
                   Average memory used (kb):           0.
  
                          Minor page faults:         7222
                          Major page faults:          183
                 Voluntary context switches:         1933
