Starting job 28218132 ("jobfile") on c15-13 at Fri Sep 20 10:38:14 CEST 2019
 running on    4 total cores
 distrk:  each k-point on    4 cores,    1 groups
 distr:  one band on    2 cores,    2 groups
 using from now: INCAR     
 vasp.5.4.1 05Feb16 (build Mar 02 2016 14:09:44) complex                        
  
 POSCAR found type information on POSCAR  Pt
 POSCAR found :  1 types and       2 ions

 ----------------------------------------------------------------------------- 
|                                                                             |
|  ADVICE TO THIS USER RUNNING 'VASP/VAMP'   (HEAR YOUR MASTER'S VOICE ...):  |
|                                                                             |
|      You have a (more or less) 'small supercell' and for smaller cells      |
|      it is recommended  to use the reciprocal-space projection scheme!      |
|      The real space optimization is not  efficient for small cells and it   |
|      is also less accurate ...                                              |
|      Therefore set LREAL=.FALSE. in the  INCAR file                         |
|                                                                             |
 ----------------------------------------------------------------------------- 

 LDA part: xc-table for Pade appr. of Perdew
 POSCAR, INCAR and KPOINTS ok, starting setup
 WARNING: small aliasing (wrap around) errors must be expected
 FFT: planning ...
 WAVECAR not read
 entering main loop
       N       E                     dE             d eps       ncg     rms          rms(c)
DAV:   1     0.197812210971E+03    0.19781E+03   -0.92930E+03   988   0.137E+03
DAV:   2    -0.342845143806E+01   -0.20124E+03   -0.18647E+03   998   0.418E+02
DAV:   3    -0.124824061775E+02   -0.90540E+01   -0.84829E+01  1256   0.921E+01
DAV:   4    -0.126214907845E+02   -0.13908E+00   -0.13916E+00  1022   0.126E+01
DAV:   5    -0.126248251467E+02   -0.33344E-02   -0.33463E-02  1232   0.167E+00    0.509E+00
RMM:   6    -0.119604105811E+02    0.66441E+00   -0.12857E+00   980   0.149E+01    0.169E+00
RMM:   7    -0.119098860472E+02    0.50525E-01   -0.35648E-01  1000   0.572E+00    0.506E-01
RMM:   8    -0.119033707124E+02    0.65153E-02   -0.12281E-02  1000   0.169E+00    0.119E-01
RMM:   9    -0.119032712347E+02    0.99478E-04   -0.19246E-03  1067   0.392E-01    0.215E-02
RMM:  10    -0.119032884892E+02   -0.17254E-04   -0.15621E-04   987   0.149E-01    0.180E-02
RMM:  11    -0.119032775874E+02    0.10902E-04   -0.37952E-05   697   0.849E-02    0.113E-03
RMM:  12    -0.119032777337E+02   -0.14631E-06   -0.48441E-06   523   0.227E-02
   1 F= -.11903278E+02 E0= -.11903278E+02  d E =0.000000E+00

Currently Loaded Modulefiles:
  1) intel/2016.1       2) vasp/5.4.1.Feb16

Job script resource usage:
       JobID  MaxVMSize     MaxRSS 
------------ ---------- ---------- 
28218132.ba+    216752K      2616K 

Job step resource usage:
       JobID    JobName  AllocCPUS  MaxVMSize     MaxRSS    Elapsed ExitCode 
------------ ---------- ---------- ---------- ---------- ---------- -------- 
28218132        jobfile          4                         00:00:08      0:0 
28218132.0    pmi_proxy          1    279832K       525K   00:00:05      0:0 

Job 28218132 ("jobfile") completed on c15-13 at Fri Sep 20 10:38:20 CEST 2019
