<?xml version="1.0" encoding="ISO-8859-1"?>
<modeling>
 <generator>
  <i name="program" type="string">vasp </i>
  <i name="version" type="string">5.4.1  </i>
  <i name="subversion" type="string">05Feb16 (build Mar 02 2016 14:09:44) complex                          parallel </i>
  <i name="platform" type="string">Abel-impi-ifc-cuda </i>
  <i name="date" type="string">2019 09 20 </i>
  <i name="time" type="string">10:38:15 </i>
 </generator>
 <incar>
  <i type="string" name="PREC">normal    ! low/normal/accurate</i>
  <i type="string" name="ALGO"> Fast      ! Algorithm for electronic re</i>
  <i type="int" name="ISPIN">     1</i>
  <i type="int" name="NELMIN">     4</i>
  <i name="EDIFF">      0.00001000</i>
  <i type="int" name="NSW">     0</i>
  <i name="ENCUT">    500.00000000</i>
  <i type="string" name="LREAL"> Auto      ! Projection in reciprocal sp</i>
  <i type="int" name="ISMEAR">    -5</i>
  <i name="SIGMA">      0.20000000</i>
  <i type="logical" name="LWAVE"> F  </i>
  <v type="int" name="KPOINT_BSE">    -1     0     0     0</v>
 </incar>
 <kpoints>
  <generation param="Gamma">
   <v type="int" name="divisions">       9        9        9 </v>
   <v name="usershift">      0.00000000       0.00000000       0.00000000 </v>
   <v name="genvec1">      0.11111111       0.00000000       0.00000000 </v>
   <v name="genvec2">      0.00000000       0.11111111       0.00000000 </v>
   <v name="genvec3">      0.00000000       0.00000000       0.11111111 </v>
   <v name="shift">      0.00000000       0.00000000       0.00000000 </v>
  </generation>
  <varray name="kpointlist" >
   <v>       0.00000000       0.00000000       0.00000000 </v>
   <v>       0.11111111       0.00000000       0.00000000 </v>
   <v>       0.22222222       0.00000000       0.00000000 </v>
   <v>       0.33333333       0.00000000       0.00000000 </v>
   <v>       0.44444444       0.00000000       0.00000000 </v>
   <v>       0.11111111       0.11111111       0.00000000 </v>
   <v>       0.22222222       0.11111111       0.00000000 </v>
   <v>       0.33333333       0.11111111       0.00000000 </v>
   <v>       0.44444444       0.11111111       0.00000000 </v>
   <v>       0.22222222       0.22222222       0.00000000 </v>
   <v>       0.33333333       0.22222222       0.00000000 </v>
   <v>       0.44444444       0.22222222       0.00000000 </v>
   <v>       0.33333333       0.33333333       0.00000000 </v>
   <v>       0.44444444       0.33333333       0.00000000 </v>
   <v>       0.44444444       0.44444444       0.00000000 </v>
   <v>       0.11111111       0.11111111       0.11111111 </v>
   <v>       0.22222222       0.11111111       0.11111111 </v>
   <v>       0.33333333       0.11111111       0.11111111 </v>
   <v>       0.44444444       0.11111111       0.11111111 </v>
   <v>       0.22222222       0.22222222       0.11111111 </v>
   <v>       0.33333333       0.22222222       0.11111111 </v>
   <v>       0.44444444       0.22222222       0.11111111 </v>
   <v>       0.33333333       0.33333333       0.11111111 </v>
   <v>       0.44444444       0.33333333       0.11111111 </v>
   <v>       0.44444444       0.44444444       0.11111111 </v>
   <v>       0.22222222       0.22222222       0.22222222 </v>
   <v>       0.33333333       0.22222222       0.22222222 </v>
   <v>       0.44444444       0.22222222       0.22222222 </v>
   <v>       0.33333333       0.33333333       0.22222222 </v>
   <v>       0.44444444       0.33333333       0.22222222 </v>
   <v>       0.44444444       0.44444444       0.22222222 </v>
   <v>       0.33333333       0.33333333       0.33333333 </v>
   <v>       0.44444444       0.33333333       0.33333333 </v>
   <v>       0.44444444       0.44444444       0.33333333 </v>
   <v>       0.44444444       0.44444444       0.44444444 </v>
  </varray>
  <varray name="weights" >
   <v>       0.00137174 </v>
   <v>       0.00823045 </v>
   <v>       0.00823045 </v>
   <v>       0.00823045 </v>
   <v>       0.00823045 </v>
   <v>       0.01646091 </v>
   <v>       0.03292181 </v>
   <v>       0.03292181 </v>
   <v>       0.03292181 </v>
   <v>       0.01646091 </v>
   <v>       0.03292181 </v>
   <v>       0.03292181 </v>
   <v>       0.01646091 </v>
   <v>       0.03292181 </v>
   <v>       0.01646091 </v>
   <v>       0.01097394 </v>
   <v>       0.03292181 </v>
   <v>       0.03292181 </v>
   <v>       0.03292181 </v>
   <v>       0.03292181 </v>
   <v>       0.06584362 </v>
   <v>       0.06584362 </v>
   <v>       0.03292181 </v>
   <v>       0.06584362 </v>
   <v>       0.03292181 </v>
   <v>       0.01097394 </v>
   <v>       0.03292181 </v>
   <v>       0.03292181 </v>
   <v>       0.03292181 </v>
   <v>       0.06584362 </v>
   <v>       0.03292181 </v>
   <v>       0.01097394 </v>
   <v>       0.03292181 </v>
   <v>       0.03292181 </v>
   <v>       0.01097394 </v>
  </varray>
  <varray name="tetrahedronlist"  type="int" >
   <v type="int" >       12        1        2        2        6 </v>
   <v type="int" >       12        2        2        6        6 </v>
   <v type="int" >       12        2        6        6       16 </v>
   <v type="int" >       12        2        3        6        7 </v>
   <v type="int" >       12        2        6        6        7 </v>
   <v type="int" >       12        6        6        7       16 </v>
   <v type="int" >       12        3        6        7        7 </v>
   <v type="int" >       24        6        7        7       17 </v>
   <v type="int" >       24        6        7       16       17 </v>
   <v type="int" >       12        3        4        7        8 </v>
   <v type="int" >       12        3        7        7        8 </v>
   <v type="int" >       12        7        7        8       17 </v>
   <v type="int" >       12        4        7        8        8 </v>
   <v type="int" >       12        7        8        8       18 </v>
   <v type="int" >       12        7        8       17       18 </v>
   <v type="int" >       12        4        5        8        9 </v>
   <v type="int" >       12        4        8        8        9 </v>
   <v type="int" >       12        8        8        9       18 </v>
   <v type="int" >       12        5        8        9        9 </v>
   <v type="int" >       12        8        9        9       19 </v>
   <v type="int" >       12        8        9       18       19 </v>
   <v type="int" >        6        5        5        9        9 </v>
   <v type="int" >       12        5        9        9        9 </v>
   <v type="int" >       12        9        9        9       19 </v>
   <v type="int" >        6        9        9       19       19 </v>
   <v type="int" >       12        6        7       10       16 </v>
   <v type="int" >       12        7       10       16       17 </v>
   <v type="int" >       12       10       16       17       20 </v>
   <v type="int" >       12        7        8       11       17 </v>
   <v type="int" >       12        7       10       11       17 </v>
   <v type="int" >       12       10       11       17       20 </v>
   <v type="int" >       12        8       11       17       18 </v>
   <v type="int" >       12       11       17       18       21 </v>
   <v type="int" >       12       11       17       20       21 </v>
   <v type="int" >       12        8        9       12       18 </v>
   <v type="int" >       12        8       11       12       18 </v>
   <v type="int" >       12       11       12       18       21 </v>
   <v type="int" >       12        9       12       18       19 </v>
   <v type="int" >       12       12       18       19       22 </v>
   <v type="int" >       12       12       18       21       22 </v>
   <v type="int" >       12        9        9       12       19 </v>
   <v type="int" >       12        9       12       12       19 </v>
   <v type="int" >       12       12       12       19       22 </v>
   <v type="int" >       12        9       12       19       19 </v>
   <v type="int" >       12       12       19       19       22 </v>
   <v type="int" >       12       12       19       22       22 </v>
   <v type="int" >       12        8        9       11       19 </v>
   <v type="int" >       12        9       11       12       19 </v>
   <v type="int" >       12       11       12       19       22 </v>
   <v type="int" >       12        8       11       18       19 </v>
   <v type="int" >       12       11       18       19       21 </v>
   <v type="int" >       12       11       19       21       22 </v>
   <v type="int" >       12        7        8       10       18 </v>
   <v type="int" >       12        8       10       11       18 </v>
   <v type="int" >       12       10       11       18       21 </v>
   <v type="int" >       12        7       10       17       18 </v>
   <v type="int" >       12       10       17       18       20 </v>
   <v type="int" >       12       10       18       20       21 </v>
   <v type="int" >       12        7        7       10       17 </v>
   <v type="int" >       12        7       10       17       20 </v>
   <v type="int" >       12        7       16       17       17 </v>
   <v type="int" >       12        7       17       17       20 </v>
   <v type="int" >       12        2        3        6       16 </v>
   <v type="int" >       12        3        6        7       16 </v>
   <v type="int" >       12        3        7       16       17 </v>
   <v type="int" >       12       10       11       13       20 </v>
   <v type="int" >       12       11       13       20       21 </v>
   <v type="int" >       12       13       20       21       23 </v>
   <v type="int" >       12       11       12       14       21 </v>
   <v type="int" >       12       11       13       14       21 </v>
   <v type="int" >       12       13       14       21       23 </v>
   <v type="int" >       12       12       14       21       22 </v>
   <v type="int" >       12       14       21       22       24 </v>
   <v type="int" >       12       14       21       23       24 </v>
   <v type="int" >       12       12       12       14       22 </v>
   <v type="int" >       12       12       14       14       22 </v>
   <v type="int" >       12       14       14       22       24 </v>
   <v type="int" >       12       12       14       22       22 </v>
   <v type="int" >       12       14       22       22       24 </v>
   <v type="int" >       12       14       22       24       24 </v>
   <v type="int" >       12       11       12       13       22 </v>
   <v type="int" >       12       12       13       14       22 </v>
   <v type="int" >       12       13       14       22       24 </v>
   <v type="int" >       12       11       13       21       22 </v>
   <v type="int" >       12       13       21       22       23 </v>
   <v type="int" >       12       13       22       23       24 </v>
   <v type="int" >       12       10       11       11       21 </v>
   <v type="int" >       12       11       11       13       21 </v>
   <v type="int" >       12       11       13       21       23 </v>
   <v type="int" >       12       10       11       20       21 </v>
   <v type="int" >       12       11       20       21       21 </v>
   <v type="int" >       12       11       21       21       23 </v>
   <v type="int" >       12        7        8       10       20 </v>
   <v type="int" >       12        8       10       11       20 </v>
   <v type="int" >       12        8       11       20       21 </v>
   <v type="int" >       12        7        8       17       20 </v>
   <v type="int" >       12        8       17       18       20 </v>
   <v type="int" >       12        8       18       20       21 </v>
   <v type="int" >       12        3        4        7       17 </v>
   <v type="int" >       12        4        7        8       17 </v>
   <v type="int" >       12        4        8       17       18 </v>
   <v type="int" >       12       13       14       15       23 </v>
   <v type="int" >       12       14       15       23       24 </v>
   <v type="int" >       12       15       23       24       25 </v>
   <v type="int" >       24       14       14       15       24 </v>
   <v type="int" >       12       14       15       15       24 </v>
   <v type="int" >       12       15       15       24       25 </v>
   <v type="int" >       12       14       15       24       24 </v>
   <v type="int" >       12       15       24       24       25 </v>
   <v type="int" >       12       15       24       25       25 </v>
   <v type="int" >       12       13       14       14       24 </v>
   <v type="int" >       12       14       15       24       25 </v>
   <v type="int" >       12       13       14       23       24 </v>
   <v type="int" >       12       14       23       24       24 </v>
   <v type="int" >       24       14       24       24       25 </v>
   <v type="int" >       12       11       12       13       23 </v>
   <v type="int" >       12       12       13       14       23 </v>
   <v type="int" >       12       12       14       23       24 </v>
   <v type="int" >       12       11       12       21       23 </v>
   <v type="int" >       12       12       21       22       23 </v>
   <v type="int" >       12       12       22       23       24 </v>
   <v type="int" >       12        8        9       11       21 </v>
   <v type="int" >       12        9       11       12       21 </v>
   <v type="int" >       12        9       12       21       22 </v>
   <v type="int" >       12        8        9       18       21 </v>
   <v type="int" >       12        9       18       19       21 </v>
   <v type="int" >       12        9       19       21       22 </v>
   <v type="int" >       12        4        5        8       18 </v>
   <v type="int" >       12        5        8        9       18 </v>
   <v type="int" >       12        5        9       18       19 </v>
   <v type="int" >       12       15       15       15       25 </v>
   <v type="int" >       12       15       15       25       25 </v>
   <v type="int" >       12       15       25       25       25 </v>
   <v type="int" >       12       14       14       15       25 </v>
   <v type="int" >       12       14       15       15       25 </v>
   <v type="int" >       12       14       15       25       25 </v>
   <v type="int" >       12       14       14       24       25 </v>
   <v type="int" >       12       14       24       25       25 </v>
   <v type="int" >       12       12       12       14       24 </v>
   <v type="int" >       12       12       14       14       24 </v>
   <v type="int" >       12       12       14       24       24 </v>
   <v type="int" >       12       12       12       22       24 </v>
   <v type="int" >       12       12       22       22       24 </v>
   <v type="int" >       12       12       22       24       24 </v>
   <v type="int" >       12        9        9       12       22 </v>
   <v type="int" >       12        9       12       12       22 </v>
   <v type="int" >       12        9       12       22       22 </v>
   <v type="int" >       12        9        9       19       22 </v>
   <v type="int" >       12        9       19       19       22 </v>
   <v type="int" >       12        9       19       22       22 </v>
   <v type="int" >       12        5        5        9       19 </v>
   <v type="int" >       12        5        9        9       19 </v>
   <v type="int" >       12        5        9       19       19 </v>
   <v type="int" >       12       13       14       15       25 </v>
   <v type="int" >       12       13       14       24       25 </v>
   <v type="int" >       12       13       23       24       25 </v>
   <v type="int" >       12       11       12       14       24 </v>
   <v type="int" >       12       11       13       14       24 </v>
   <v type="int" >       12       11       13       23       24 </v>
   <v type="int" >       12       11       12       22       24 </v>
   <v type="int" >       12       11       21       22       24 </v>
   <v type="int" >       12       11       21       23       24 </v>
   <v type="int" >       12        8        9       12       22 </v>
   <v type="int" >       12        8       11       12       22 </v>
   <v type="int" >       12        8       11       21       22 </v>
   <v type="int" >       12        8        9       19       22 </v>
   <v type="int" >       12        8       18       19       22 </v>
   <v type="int" >       12        8       18       21       22 </v>
   <v type="int" >       12        4        5        9       19 </v>
   <v type="int" >       12        4        8        9       19 </v>
   <v type="int" >       12        4        8       18       19 </v>
   <v type="int" >       12       10       11       13       23 </v>
   <v type="int" >       12       10       11       21       23 </v>
   <v type="int" >       12       10       20       21       23 </v>
   <v type="int" >       12        7        8       11       21 </v>
   <v type="int" >       12        7       10       11       21 </v>
   <v type="int" >       12        7       10       20       21 </v>
   <v type="int" >       12        7        8       18       21 </v>
   <v type="int" >       12        7       17       18       21 </v>
   <v type="int" >       12        7       17       20       21 </v>
   <v type="int" >       12        3        4        8       18 </v>
   <v type="int" >       12        3        7        8       18 </v>
   <v type="int" >       12        3        7       17       18 </v>
   <v type="int" >       12        6        7       10       20 </v>
   <v type="int" >       12        6        7       17       20 </v>
   <v type="int" >       12        6       16       17       20 </v>
   <v type="int" >       12        2        3        7       17 </v>
   <v type="int" >       12        2        6        7       17 </v>
   <v type="int" >       12        2        6       16       17 </v>
   <v type="int" >       12        1        2        6       16 </v>
   <v type="int" >       12       16       17       17       20 </v>
   <v type="int" >       12       17       17       20       20 </v>
   <v type="int" >       12       17       20       20       26 </v>
   <v type="int" >       12       17       18       20       21 </v>
   <v type="int" >       12       17       20       20       21 </v>
   <v type="int" >       12       20       20       21       26 </v>
   <v type="int" >       12       18       20       21       21 </v>
   <v type="int" >       24       20       21       21       27 </v>
   <v type="int" >       24       20       21       26       27 </v>
   <v type="int" >       12       18       19       21       22 </v>
   <v type="int" >       12       18       21       21       22 </v>
   <v type="int" >       12       21       21       22       27 </v>
   <v type="int" >       12       19       21       22       22 </v>
   <v type="int" >       12       21       22       22       28 </v>
   <v type="int" >       12       21       22       27       28 </v>
   <v type="int" >        6       19       19       22       22 </v>
   <v type="int" >       12       19       22       22       22 </v>
   <v type="int" >       12       22       22       22       28 </v>
   <v type="int" >        6       22       22       28       28 </v>
   <v type="int" >       12       20       21       23       26 </v>
   <v type="int" >       12       21       23       26       27 </v>
   <v type="int" >       12       23       26       27       29 </v>
   <v type="int" >       12       21       22       24       27 </v>
   <v type="int" >       12       21       23       24       27 </v>
   <v type="int" >       12       23       24       27       29 </v>
   <v type="int" >       12       22       24       27       28 </v>
   <v type="int" >       12       24       27       28       30 </v>
   <v type="int" >       12       24       27       29       30 </v>
   <v type="int" >       12       22       22       24       28 </v>
   <v type="int" >       12       22       24       24       28 </v>
   <v type="int" >       12       24       24       28       30 </v>
   <v type="int" >       12       22       24       28       28 </v>
   <v type="int" >       12       24       28       28       30 </v>
   <v type="int" >       12       24       28       30       30 </v>
   <v type="int" >       12       21       22       23       28 </v>
   <v type="int" >       12       22       23       24       28 </v>
   <v type="int" >       12       23       24       28       30 </v>
   <v type="int" >       12       21       23       27       28 </v>
   <v type="int" >       12       23       27       28       29 </v>
   <v type="int" >       12       23       28       29       30 </v>
   <v type="int" >       12       21       21       23       27 </v>
   <v type="int" >       12       21       23       27       29 </v>
   <v type="int" >       12       21       26       27       27 </v>
   <v type="int" >       12       21       27       27       29 </v>
   <v type="int" >       12       17       18       20       26 </v>
   <v type="int" >       12       18       20       21       26 </v>
   <v type="int" >       12       18       21       26       27 </v>
   <v type="int" >       12       23       24       25       29 </v>
   <v type="int" >       12       24       25       29       30 </v>
   <v type="int" >       12       25       29       30       31 </v>
   <v type="int" >       24       24       24       25       30 </v>
   <v type="int" >       12       24       25       25       30 </v>
   <v type="int" >       12       25       25       30       31 </v>
   <v type="int" >       12       24       25       30       30 </v>
   <v type="int" >       12       25       30       30       31 </v>
   <v type="int" >       12       25       30       31       31 </v>
   <v type="int" >       12       23       24       24       30 </v>
   <v type="int" >       12       24       25       30       31 </v>
   <v type="int" >       12       23       24       29       30 </v>
   <v type="int" >       12       24       29       30       30 </v>
   <v type="int" >       24       24       30       30       31 </v>
   <v type="int" >       12       21       22       23       29 </v>
   <v type="int" >       12       22       23       24       29 </v>
   <v type="int" >       12       22       24       29       30 </v>
   <v type="int" >       12       21       22       27       29 </v>
   <v type="int" >       12       22       27       28       29 </v>
   <v type="int" >       12       22       28       29       30 </v>
   <v type="int" >       12       18       19       21       27 </v>
   <v type="int" >       12       19       21       22       27 </v>
   <v type="int" >       12       19       22       27       28 </v>
   <v type="int" >       12       25       25       25       31 </v>
   <v type="int" >       12       25       25       31       31 </v>
   <v type="int" >       12       25       31       31       31 </v>
   <v type="int" >       12       24       24       25       31 </v>
   <v type="int" >       12       24       25       25       31 </v>
   <v type="int" >       12       24       25       31       31 </v>
   <v type="int" >       12       24       24       30       31 </v>
   <v type="int" >       12       24       30       31       31 </v>
   <v type="int" >       12       22       22       24       30 </v>
   <v type="int" >       12       22       24       24       30 </v>
   <v type="int" >       12       22       24       30       30 </v>
   <v type="int" >       12       22       22       28       30 </v>
   <v type="int" >       12       22       28       28       30 </v>
   <v type="int" >       12       22       28       30       30 </v>
   <v type="int" >       12       19       19       22       28 </v>
   <v type="int" >       12       19       22       22       28 </v>
   <v type="int" >       12       19       22       28       28 </v>
   <v type="int" >       12       23       24       25       31 </v>
   <v type="int" >       12       23       24       30       31 </v>
   <v type="int" >       12       23       29       30       31 </v>
   <v type="int" >       12       21       22       24       30 </v>
   <v type="int" >       12       21       23       24       30 </v>
   <v type="int" >       12       21       23       29       30 </v>
   <v type="int" >       12       21       22       28       30 </v>
   <v type="int" >       12       21       27       28       30 </v>
   <v type="int" >       12       21       27       29       30 </v>
   <v type="int" >       12       18       19       22       28 </v>
   <v type="int" >       12       18       21       22       28 </v>
   <v type="int" >       12       18       21       27       28 </v>
   <v type="int" >       12       20       21       23       29 </v>
   <v type="int" >       12       20       21       27       29 </v>
   <v type="int" >       12       20       26       27       29 </v>
   <v type="int" >       12       17       18       21       27 </v>
   <v type="int" >       12       17       20       21       27 </v>
   <v type="int" >       12       17       20       26       27 </v>
   <v type="int" >       12       16       17       20       26 </v>
   <v type="int" >       12       26       27       27       29 </v>
   <v type="int" >       12       27       27       29       29 </v>
   <v type="int" >       12       27       29       29       32 </v>
   <v type="int" >       12       27       28       29       30 </v>
   <v type="int" >       12       27       29       29       30 </v>
   <v type="int" >       12       29       29       30       32 </v>
   <v type="int" >       12       28       29       30       30 </v>
   <v type="int" >       24       29       30       30       33 </v>
   <v type="int" >       24       29       30       32       33 </v>
   <v type="int" >        6       28       28       30       30 </v>
   <v type="int" >       12       28       30       30       30 </v>
   <v type="int" >       12       30       30       30       33 </v>
   <v type="int" >        6       30       30       33       33 </v>
   <v type="int" >       12       29       30       31       32 </v>
   <v type="int" >       12       30       31       32       33 </v>
   <v type="int" >       12       31       32       33       34 </v>
   <v type="int" >       24       30       30       31       33 </v>
   <v type="int" >       12       30       31       31       33 </v>
   <v type="int" >       12       31       31       33       34 </v>
   <v type="int" >       12       30       31       33       33 </v>
   <v type="int" >       12       31       33       33       34 </v>
   <v type="int" >       12       31       33       34       34 </v>
   <v type="int" >       12       30       31       33       34 </v>
   <v type="int" >       12       30       32       33       33 </v>
   <v type="int" >       24       30       33       33       34 </v>
   <v type="int" >       12       27       28       29       32 </v>
   <v type="int" >       12       28       29       30       32 </v>
   <v type="int" >       12       28       30       32       33 </v>
   <v type="int" >       12       31       31       31       34 </v>
   <v type="int" >       12       31       31       34       34 </v>
   <v type="int" >       12       31       34       34       34 </v>
   <v type="int" >       12       30       30       31       34 </v>
   <v type="int" >       12       30       31       31       34 </v>
   <v type="int" >       12       30       31       34       34 </v>
   <v type="int" >       12       30       30       33       34 </v>
   <v type="int" >       12       30       33       34       34 </v>
   <v type="int" >       12       28       28       30       33 </v>
   <v type="int" >       12       28       30       30       33 </v>
   <v type="int" >       12       28       30       33       33 </v>
   <v type="int" >       12       29       30       31       34 </v>
   <v type="int" >       12       29       30       33       34 </v>
   <v type="int" >       12       29       32       33       34 </v>
   <v type="int" >       12       27       28       30       33 </v>
   <v type="int" >       12       27       29       30       33 </v>
   <v type="int" >       12       27       29       32       33 </v>
   <v type="int" >       12       26       27       29       32 </v>
   <v type="int" >       12       32       33       33       34 </v>
   <v type="int" >       18       33       33       34       34 </v>
   <v type="int" >       24       33       34       34       35 </v>
   <v type="int" >       12       33       34       34       34 </v>
   <v type="int" >       24       34       34       34       35 </v>
   <v type="int" >       18       34       34       35       35 </v>
   <v type="int" >       12       34       35       35       35 </v>
   <v type="int" >       12       33       33       34       35 </v>
   <v type="int" >       12       33       34       35       35 </v>
   <v type="int" >       12       32       33       34       35 </v>
   <v type="int" >        6       35       35       35       35 </v>
  </varray>
  <i name="volumeweight">      0.00022862 </i>
 </kpoints>
 <parameters>
  <separator name="general" >
   <i type="string" name="SYSTEM">unknown system</i>
   <i type="logical" name="LCOMPAT"> F  </i>
  </separator>
  <separator name="electronic" >
   <i type="string" name="PREC">normal</i>
   <i name="ENMAX">    500.00000000</i>
   <i name="ENAUG">    358.96600000</i>
   <i name="EDIFF">      0.00001000</i>
   <i type="int" name="IALGO">    68</i>
   <i type="int" name="IWAVPR">    10</i>
   <i type="int" name="NBANDS">    14</i>
   <i name="NELECT">     20.00000000</i>
   <i type="int" name="TURBO">     0</i>
   <i type="int" name="IRESTART">     0</i>
   <i type="int" name="NREBOOT">     0</i>
   <i type="int" name="NMIN">     0</i>
   <i name="EREF">      0.00000000</i>
   <separator name="electronic smearing" >
    <i type="int" name="ISMEAR">    -5</i>
    <i name="SIGMA">      0.20000000</i>
    <i name="KSPACING">      0.50000000</i>
    <i type="logical" name="KGAMMA"> T  </i>
   </separator>
   <separator name="electronic projectors" >
    <i type="logical" name="LREAL"> T  </i>
    <v name="ROPT">     -0.00050000</v>
    <i type="int" name="LMAXPAW">  -100</i>
    <i type="int" name="LMAXMIX">     2</i>
    <i type="logical" name="NLSPLINE"> F  </i>
   </separator>
   <separator name="electronic startup" >
    <i type="int" name="ISTART">     0</i>
    <i type="int" name="ICHARG">     2</i>
    <i type="int" name="INIWAV">     1</i>
   </separator>
   <separator name="electronic spin" >
    <i type="int" name="ISPIN">     1</i>
    <i type="logical" name="LNONCOLLINEAR"> F  </i>
    <v name="MAGMOM">      1.00000000      1.00000000</v>
    <i name="NUPDOWN">     -1.00000000</i>
    <i type="logical" name="LSORBIT"> F  </i>
    <v name="SAXIS">      0.00000000      0.00000000      1.00000000</v>
    <i type="logical" name="LSPIRAL"> F  </i>
    <v name="QSPIRAL">      0.00000000      0.00000000      0.00000000</v>
    <i type="logical" name="LZEROZ"> F  </i>
   </separator>
   <separator name="electronic exchange-correlation" >
    <i type="logical" name="LASPH"> F  </i>
    <i type="logical" name="LMETAGGA"> F  </i>
   </separator>
   <separator name="electronic convergence" >
    <i type="int" name="NELM">    60</i>
    <i type="int" name="NELMDL">    -5</i>
    <i type="int" name="NELMIN">     4</i>
    <i name="ENINI">    500.00000000</i>
    <separator name="electronic convergence detail" >
     <i type="logical" name="LDIAG"> T  </i>
     <i type="logical" name="LSUBROT"> F  </i>
     <i name="WEIMIN">      0.00000000</i>
     <i name="EBREAK">      0.00000018</i>
     <i name="DEPER">      0.30000000</i>
     <i type="int" name="NRMM">     4</i>
     <i name="TIME">      0.40000000</i>
    </separator>
   </separator>
   <separator name="electronic mixer" >
    <i name="AMIX">      0.40000000</i>
    <i name="BMIX">      1.00000000</i>
    <i name="AMIN">      0.10000000</i>
    <i name="AMIX_MAG">      1.60000000</i>
    <i name="BMIX_MAG">      1.00000000</i>
    <separator name="electronic mixer details" >
     <i type="int" name="IMIX">     4</i>
     <i type="logical" name="MIXFIRST"> F  </i>
     <i type="int" name="MAXMIX">   -45</i>
     <i name="WC">    100.00000000</i>
     <i type="int" name="INIMIX">     1</i>
     <i type="int" name="MIXPRE">     1</i>
     <i type="int" name="MREMOVE">     5</i>
    </separator>
   </separator>
   <separator name="electronic dipolcorrection" >
    <i type="logical" name="LDIPOL"> F  </i>
    <i type="logical" name="LMONO"> F  </i>
    <i type="int" name="IDIPOL">     0</i>
    <i name="EPSILON">      1.00000000</i>
    <v name="DIPOL">   -100.00000000   -100.00000000   -100.00000000</v>
    <i name="EFIELD">      0.00000000</i>
   </separator>
  </separator>
  <separator name="grids" >
   <i type="int" name="NGX">    18</i>
   <i type="int" name="NGY">    18</i>
   <i type="int" name="NGZ">    18</i>
   <i type="int" name="NGXF">    36</i>
   <i type="int" name="NGYF">    36</i>
   <i type="int" name="NGZF">    36</i>
   <i type="logical" name="ADDGRID"> F  </i>
  </separator>
  <separator name="ionic" >
   <i type="int" name="NSW">     0</i>
   <i type="int" name="IBRION">    -1</i>
   <i type="int" name="ISIF">     2</i>
   <i name="PSTRESS">      0.00000000</i>
   <i name="EDIFFG">      0.00010000</i>
   <i type="int" name="NFREE">     0</i>
   <i name="POTIM">      0.50000000</i>
   <i name="SMASS">     -3.00000000</i>
   <i name="SCALEE">      1.00000000</i>
  </separator>
  <separator name="ionic md" >
   <i name="TEBEG">      0.00010000</i>
   <i name="TEEND">      0.00010000</i>
   <i type="int" name="NBLOCK">     1</i>
   <i type="int" name="KBLOCK">     1</i>
   <i type="int" name="NPACO">   256</i>
   <i name="APACO">     16.00000000</i>
  </separator>
  <separator name="symmetry" >
   <i type="int" name="ISYM">     2</i>
   <i name="SYMPREC">      0.00001000</i>
  </separator>
  <separator name="dos" >
   <i type="logical" name="LORBIT"> F  </i>
   <v name="RWIGS">     -1.00000000</v>
   <i type="int" name="NEDOS">   301</i>
   <i name="EMIN">     10.00000000</i>
   <i name="EMAX">    -10.00000000</i>
   <i name="EFERMI">      0.00000000</i>
  </separator>
  <separator name="writing" >
   <i type="int" name="NWRITE">     2</i>
   <i type="logical" name="LWAVE"> F  </i>
   <i type="logical" name="LCHARG"> T  </i>
   <i type="logical" name="LPARD"> F  </i>
   <i type="logical" name="LVTOT"> F  </i>
   <i type="logical" name="LVHAR"> F  </i>
   <i type="logical" name="LELF"> F  </i>
   <i type="logical" name="LOPTICS"> F  </i>
   <v name="STM">      0.00000000      0.00000000      0.00000000      0.00000000      0.00000000      0.00000000      0.00000000</v>
  </separator>
  <separator name="performance" >
   <i type="int" name="NPAR">     2</i>
   <i type="int" name="NSIM">     4</i>
   <i type="int" name="NBLK">    -1</i>
   <i type="logical" name="LPLANE"> T  </i>
   <i type="logical" name="LSCALAPACK"> F  </i>
   <i type="logical" name="LSCAAWARE"> F  </i>
   <i type="logical" name="LSCALU"> F  </i>
   <i type="logical" name="LASYNC"> F  </i>
   <i type="logical" name="LORBITALREAL"> F  </i>
  </separator>
  <separator name="miscellaneous" >
   <i type="int" name="IDIOT">     3</i>
   <i type="logical" name="LMUSIC"> F  </i>
   <v name="POMASS">    195.08000000</v>
   <v name="DARWINR">      0.00000000</v>
   <v name="DARWINV">      1.00000000</v>
   <i type="logical" name="LCORR"> T  </i>
  </separator>
  <i type="logical" name="GGA_COMPAT"> T  </i>
  <i type="logical" name="LBERRY"> F  </i>
  <i type="int" name="ICORELEVEL">     0</i>
  <i type="logical" name="LDAU"> F  </i>
  <i type="int" name="I_CONSTRAINED_M">     0</i>
  <separator name="electronic exchange-correlation" >
   <i type="string" name="GGA">--</i>
   <i type="int" name="VOSKOWN">     0</i>
   <i type="logical" name="LHFCALC"> F  </i>
   <i type="string" name="PRECFOCK"></i>
   <i type="logical" name="LSYMGRAD"> F  </i>
   <i type="logical" name="LHFONE"> F  </i>
   <i type="logical" name="LRHFCALC"> F  </i>
   <i type="logical" name="LTHOMAS"> F  </i>
   <i type="logical" name="LMODELHF"> F  </i>
   <i name="ENCUT4O">     -1.00000000</i>
   <i type="int" name="EXXOEP">     0</i>
   <i type="int" name="FOURORBIT">     0</i>
   <i name="AEXX">      0.00000000</i>
   <i name="HFALPHA">      0.00000000</i>
   <i name="MCALPHA">      0.00000000</i>
   <i name="ALDAX">      1.00000000</i>
   <i name="AGGAX">      1.00000000</i>
   <i name="ALDAC">      1.00000000</i>
   <i name="AGGAC">      1.00000000</i>
   <i type="int" name="NKREDX">     1</i>
   <i type="int" name="NKREDY">     1</i>
   <i type="int" name="NKREDZ">     1</i>
   <i type="logical" name="SHIFTRED"> F  </i>
   <i type="logical" name="ODDONLY"> F  </i>
   <i type="logical" name="EVENONLY"> F  </i>
   <i type="int" name="LMAXFOCK">     0</i>
   <i type="int" name="NMAXFOCKAE">     0</i>
   <i type="logical" name="LFOCKAEDFT"> F  </i>
   <i name="HFSCREEN">      0.00000000</i>
   <i name="HFSCREENC">      0.00000000</i>
   <i type="int" name="NBANDSGWLOW">     0</i>
  </separator>
  <separator name="vdW DFT" >
   <i type="logical" name="LUSE_VDW"> F  </i>
   <i name="Zab_VDW">     -0.84910000</i>
   <i name="PARAM1">      0.12340000</i>
   <i name="PARAM2">      1.00000000</i>
   <i name="PARAM3">      0.00000000</i>
  </separator>
  <separator name="model GW" >
   <i type="int" name="MODEL_GW">     0</i>
   <i name="MODEL_EPS0">      9.83040000</i>
   <i name="MODEL_ALPHA">      1.00000000</i>
  </separator>
  <separator name="linear response parameters" >
   <i type="logical" name="LEPSILON"> F  </i>
   <i type="logical" name="LRPA"> F  </i>
   <i type="logical" name="LNABLA"> F  </i>
   <i type="logical" name="LVEL"> F  </i>
   <i type="int" name="KINTER">     0</i>
   <i name="CSHIFT">      0.10000000</i>
   <i name="OMEGAMAX">     -1.00000000</i>
   <i name="DEG_THRESHOLD">      0.00200000</i>
  </separator>
  <separator name="orbital magnetization" >
   <i type="logical" name="NUCIND"> F  </i>
   <v name="MAGPOS">      0.00000000      0.00000000      0.00000000</v>
   <i type="logical" name="LNICSALL"> T  </i>
   <i type="logical" name="ORBITALMAG"> F  </i>
   <i type="logical" name="LMAGBLOCH"> F  </i>
   <i type="logical" name="LCHIMAG"> F  </i>
   <i type="logical" name="LGAUGE"> T  </i>
   <i type="int" name="MAGATOM">     0</i>
   <v name="MAGDIPOL">      0.00000000      0.00000000      0.00000000</v>
   <v name="AVECCONST">      0.00000000      0.00000000      0.00000000</v>
  </separator>
  <separator name="response functions" >
   <i type="logical" name="LADDER"> F  </i>
   <i type="logical" name="LFXC"> F  </i>
   <i type="logical" name="LHARTREE"> T  </i>
   <i type="int" name="IBSE">     0</i>
   <v type="int" name="KPOINT">    -1     0     0     0</v>
   <i type="logical" name="LTCTE"> F  </i>
   <i type="logical" name="LTETE"> F  </i>
   <i type="logical" name="LTRIPLET"> F  </i>
   <i type="logical" name="LFXCEPS"> F  </i>
   <i type="logical" name="LFXHEG"> F  </i>
   <i type="int" name="NATURALO">     0</i>
   <i type="logical" name="L2ORDER"> F  </i>
   <i type="logical" name="LUSEW"> F  </i>
   <i name="ENCUTGW">     -2.00000000</i>
   <i name="ENCUTGWSOFT">     -2.00000000</i>
   <i name="ENCUTLF">     -1.00000000</i>
   <i type="int" name="LMAXMP2">    -1</i>
   <i name="SCISSOR">      0.00000000</i>
   <i type="int" name="NOMEGA">     0</i>
   <i type="int" name="NOMEGAR">     0</i>
   <i type="int" name="NBANDSGW">    -1</i>
   <i type="int" name="NBANDSO">    -1</i>
   <i type="int" name="NBANDSV">    -1</i>
   <i type="int" name="NELM">     1</i>
   <i type="int" name="NELMHF">     1</i>
   <i type="int" name="DIM">     3</i>
   <i type="int" name="ANTIRES">     0</i>
   <i name="OMEGAMAX">    -30.00000000</i>
   <i name="OMEGAMIN">    -30.00000000</i>
   <i name="OMEGATL">   -200.00000000</i>
   <i type="int" name="OMEGAGRID">     0</i>
   <i name="CSHIFT">     -0.10000000</i>
   <i type="logical" name="SELFENERGY"> F  </i>
   <i type="logical" name="LSPECTRAL"> F  </i>
   <i type="logical" name="LSPECTRALGW"> F  </i>
   <i type="logical" name="LSINGLES"> F  </i>
   <i type="logical" name="LFERMIGW"> F  </i>
   <i type="logical" name="ODDONLYGW"> F  </i>
   <i type="logical" name="EVENONLYGW"> F  </i>
   <i type="int" name="NKREDLFX">     1</i>
   <i type="int" name="NKREDLFY">     1</i>
   <i type="int" name="NKREDLFZ">     1</i>
   <i type="int" name="MAXMEM">  1800</i>
   <i type="int" name="TELESCOPE">     0</i>
   <i type="int" name="TAUPAR">     1</i>
   <i type="int" name="OMEGAPAR">    -1</i>
   <i name="LAMBDA">      1.00000000</i>
  </separator>
  <separator name="External order field" >
   <i name="OFIELD_KAPPA">      0.00000000</i>
   <v name="OFIELD_K">      0.00000000      0.00000000      0.00000000</v>
   <i name="OFIELD_Q6_NEAR">      0.00000000</i>
   <i name="OFIELD_Q6_FAR">      0.00000000</i>
   <i name="OFIELD_A">      0.00000000</i>
  </separator>
 </parameters>
 <atominfo>
  <atoms>       2 </atoms>
  <types>       1 </types>
  <array name="atoms" >
   <dimension dim="1">ion</dimension>
   <field type="string">element</field>
   <field type="int">atomtype</field>
   <set>
    <rc><c>Pt</c><c>   1</c></rc>
    <rc><c>Pt</c><c>   1</c></rc>
   </set>
  </array>
  <array name="atomtypes" >
   <dimension dim="1">type</dimension>
   <field type="int">atomspertype</field>
   <field type="string">element</field>
   <field>mass</field>
   <field>valence</field>
   <field type="string">pseudopotential</field>
   <set>
    <rc><c>   2</c><c>Pt</c><c>    195.08000000</c><c>     10.00000000</c><c> PAW_PBE Pt 05Jan2001                   </c></rc>
   </set>
  </array>
 </atominfo>
 <structure name="initialpos" >
  <crystal>
   <varray name="basis" >
    <v>       3.20000000       0.00000000       0.00000000 </v>
    <v>       0.00000000       3.20000000       0.00000000 </v>
    <v>       0.00000000       0.00000000       3.20000000 </v>
   </varray>
   <i name="volume">     32.76800000 </i>
   <varray name="rec_basis" >
    <v>       0.31250000       0.00000000       0.00000000 </v>
    <v>       0.00000000       0.31250000       0.00000000 </v>
    <v>       0.00000000       0.00000000       0.31250000 </v>
   </varray>
  </crystal>
  <varray name="positions" >
   <v>       0.00000000       0.00000000       0.00000000 </v>
   <v>       0.50000000       0.50000000       0.50000000 </v>
  </varray>
 </structure>
 <calculation>
  <scstep>
   <time name="dav">    0.21    0.21</time>
   <time name="total">    0.24    0.91</time>
   <energy>
    <i name="alphaZ">    177.60654297 </i>
    <i name="ewald">  -1637.63085677 </i>
    <i name="hartreedc">   -157.69536003 </i>
    <i name="XCdc">      6.93708527 </i>
    <i name="pawpsdc">   1146.49098650 </i>
    <i name="pawaedc">  -1089.92424116 </i>
    <i name="eentropy">      0.00000000 </i>
    <i name="bandstr">    293.80172057 </i>
    <i name="atom">   1458.22633362 </i>
    <i name="e_fr_energy">    197.81221097 </i>
    <i name="e_wo_entrp">    197.81221097 </i>
    <i name="e_0_energy">    197.81221097 </i>
   </energy>
  </scstep>
  <scstep>
   <time name="dav">    0.21    0.21</time>
   <time name="total">    0.22    0.23</time>
   <energy>
    <i name="e_fr_energy">     -3.42845144 </i>
    <i name="e_wo_entrp">     -3.42845144 </i>
    <i name="e_0_energy">     -3.42845144 </i>
   </energy>
  </scstep>
  <scstep>
   <time name="dav">    0.26    0.26</time>
   <time name="total">    0.27    0.27</time>
   <energy>
    <i name="e_fr_energy">    -12.48240618 </i>
    <i name="e_wo_entrp">    -12.48240618 </i>
    <i name="e_0_energy">    -12.48240618 </i>
   </energy>
  </scstep>
  <scstep>
   <time name="dav">    0.22    0.22</time>
   <time name="total">    0.23    0.25</time>
   <energy>
    <i name="e_fr_energy">    -12.62149078 </i>
    <i name="e_wo_entrp">    -12.62149078 </i>
    <i name="e_0_energy">    -12.62149078 </i>
   </energy>
  </scstep>
  <scstep>
   <time name="dav">    0.25    0.25</time>
   <time name="total">    0.28    0.28</time>
   <energy>
    <i name="e_fr_energy">    -12.62482515 </i>
    <i name="e_wo_entrp">    -12.62482515 </i>
    <i name="e_0_energy">    -12.62482515 </i>
   </energy>
  </scstep>
  <scstep>
   <time name="diag">    0.03    0.03</time>
   <time name="diis">    0.12    0.12</time>
   <time name="orth">    0.00    0.00</time>
   <time name="total">    0.20    0.20</time>
   <energy>
    <i name="e_fr_energy">    -11.96041058 </i>
    <i name="e_wo_entrp">    -11.96041058 </i>
    <i name="e_0_energy">    -11.96041058 </i>
   </energy>
  </scstep>
  <scstep>
   <time name="diag">    0.03    0.03</time>
   <time name="diis">    0.13    0.13</time>
   <time name="orth">    0.00    0.00</time>
   <time name="total">    0.20    0.20</time>
   <energy>
    <i name="e_fr_energy">    -11.90988605 </i>
    <i name="e_wo_entrp">    -11.90988605 </i>
    <i name="e_0_energy">    -11.90988605 </i>
   </energy>
  </scstep>
  <scstep>
   <time name="diag">    0.03    0.03</time>
   <time name="diis">    0.13    0.13</time>
   <time name="orth">    0.00    0.00</time>
   <time name="total">    0.20    0.20</time>
   <energy>
    <i name="e_fr_energy">    -11.90337071 </i>
    <i name="e_wo_entrp">    -11.90337071 </i>
    <i name="e_0_energy">    -11.90337071 </i>
   </energy>
  </scstep>
  <scstep>
   <time name="diag">    0.03    0.03</time>
   <time name="diis">    0.14    0.14</time>
   <time name="orth">    0.00    0.00</time>
   <time name="total">    0.21    0.22</time>
   <energy>
    <i name="e_fr_energy">    -11.90327123 </i>
    <i name="e_wo_entrp">    -11.90327123 </i>
    <i name="e_0_energy">    -11.90327123 </i>
   </energy>
  </scstep>
  <scstep>
   <time name="diag">    0.03    0.03</time>
   <time name="diis">    0.13    0.13</time>
   <time name="orth">    0.00    0.00</time>
   <time name="total">    0.20    0.21</time>
   <energy>
    <i name="e_fr_energy">    -11.90328849 </i>
    <i name="e_wo_entrp">    -11.90328849 </i>
    <i name="e_0_energy">    -11.90328849 </i>
   </energy>
  </scstep>
  <scstep>
   <time name="diag">    0.03    0.03</time>
   <time name="diis">    0.10    0.10</time>
   <time name="orth">    0.00    0.00</time>
   <time name="total">    0.17    0.17</time>
   <energy>
    <i name="e_fr_energy">    -11.90327759 </i>
    <i name="e_wo_entrp">    -11.90327759 </i>
    <i name="e_0_energy">    -11.90327759 </i>
   </energy>
  </scstep>
  <scstep>
   <time name="diag">    0.03    0.03</time>
   <time name="diis">    0.08    0.08</time>
   <time name="orth">    0.00    0.00</time>
   <time name="total">    0.13    0.16</time>
   <energy>
    <i name="alphaZ">    177.60654297 </i>
    <i name="ewald">  -1637.63085677 </i>
    <i name="hartreedc">   -138.32941530 </i>
    <i name="XCdc">      6.21838828 </i>
    <i name="pawpsdc">   1176.85752671 </i>
    <i name="pawaedc">  -1124.81527816 </i>
    <i name="eentropy">      0.00000000 </i>
    <i name="bandstr">     69.96348092 </i>
    <i name="atom">   1458.22633362 </i>
    <i name="e_fr_energy">    -11.90327773 </i>
    <i name="e_wo_entrp">    -11.90327773 </i>
    <i name="e_0_energy">    -11.90327773 </i>
   </energy>
  </scstep>
  <structure>
   <crystal>
    <varray name="basis" >
     <v>       3.20000000       0.00000000       0.00000000 </v>
     <v>       0.00000000       3.20000000       0.00000000 </v>
     <v>       0.00000000       0.00000000       3.20000000 </v>
    </varray>
    <i name="volume">     32.76800000 </i>
    <varray name="rec_basis" >
     <v>       0.31250000       0.00000000       0.00000000 </v>
     <v>       0.00000000       0.31250000       0.00000000 </v>
     <v>       0.00000000       0.00000000       0.31250000 </v>
    </varray>
   </crystal>
   <varray name="positions" >
    <v>       0.00000000       0.00000000       0.00000000 </v>
    <v>       0.50000000       0.50000000       0.50000000 </v>
   </varray>
  </structure>
  <varray name="forces" >
   <v>       0.00000000      -0.00000000       0.00000000 </v>
   <v>       0.00000000       0.00000000      -0.00000000 </v>
  </varray>
  <varray name="stress" >
   <v>     -69.13767571       0.00000000       0.00000000 </v>
   <v>       0.00000000     -69.13767571       0.00000000 </v>
   <v>      -0.00000000       0.00000000     -69.13767571 </v>
  </varray>
  <energy>
   <i name="e_fr_energy">    -11.90327773 </i>
   <i name="e_wo_entrp">    -11.90327773 </i>
   <i name="e_0_energy">      0.00000000 </i>
  </energy>
  <time name="totalsc">    2.93    3.70</time>
  <eigenvalues>
   <array>
    <dimension dim="1">band</dimension>
    <dimension dim="2">kpoint</dimension>
    <dimension dim="3">spin</dimension>
    <field>eigene</field>
    <field>occ</field>
    <set>
     <set comment="spin 1">
      <set comment="kpoint 1">
       <r>   -2.6460    1.0000 </r>
       <r>    0.7608    1.0000 </r>
       <r>    0.7608    1.0000 </r>
       <r>    3.1763    1.0000 </r>
       <r>    3.1763    1.0000 </r>
       <r>    3.1763    1.0000 </r>
       <r>    5.5460    1.0000 </r>
       <r>    5.5460    1.0000 </r>
       <r>    6.9473    0.0593 </r>
       <r>    6.9473   -0.2337 </r>
       <r>    6.9473    0.0000 </r>
       <r>   14.1725    0.0000 </r>
       <r>   14.1725    0.0000 </r>
       <r>   14.1725    0.0000 </r>
      </set>
      <set comment="kpoint 2">
       <r>   -2.4032    1.0000 </r>
       <r>    0.8759    1.0000 </r>
       <r>    0.9158    1.0000 </r>
       <r>    3.1822    1.0000 </r>
       <r>    3.1822    1.0000 </r>
       <r>    3.2713    1.0000 </r>
       <r>    5.3598    1.0000 </r>
       <r>    5.6156    1.0000 </r>
       <r>    6.5665    0.7865 </r>
       <r>    6.5665    0.5897 </r>
       <r>    6.8082   -0.0012 </r>
       <r>   12.7691    0.0000 </r>
       <r>   14.8401    0.0000 </r>
       <r>   14.8401    0.0000 </r>
      </set>
      <set comment="kpoint 3">
       <r>   -1.7016    1.0000 </r>
       <r>    1.2145    1.0000 </r>
       <r>    1.3040    1.0000 </r>
       <r>    3.2238    1.0000 </r>
       <r>    3.2238    1.0000 </r>
       <r>    3.5496    1.0000 </r>
       <r>    4.8444    1.0000 </r>
       <r>    5.7359    1.0000 </r>
       <r>    5.7359    1.0006 </r>
       <r>    5.7975    1.0302 </r>
       <r>    6.4194    0.3037 </r>
       <r>   10.4185    0.0000 </r>
       <r>   16.5180    0.0000 </r>
       <r>   16.5180    0.0000 </r>
      </set>
      <set comment="kpoint 4">
       <r>   -0.6335    1.0000 </r>
       <r>    1.6589    1.0000 </r>
       <r>    1.7562    1.0000 </r>
       <r>    3.3600    1.0000 </r>
       <r>    3.3600    1.0000 </r>
       <r>    3.9912    1.0000 </r>
       <r>    4.1070    1.0000 </r>
       <r>    4.8688    1.0000 </r>
       <r>    4.8688    1.0000 </r>
       <r>    5.8546    1.0000 </r>
       <r>    6.0262    1.0924 </r>
       <r>    8.2998    0.0000 </r>
       <r>   18.7501    0.0000 </r>
       <r>   18.7501    0.0000 </r>
      </set>
      <set comment="kpoint 5">
       <r>    0.5848    1.0000 </r>
       <r>    1.4984    1.0000 </r>
       <r>    2.4630    1.0000 </r>
       <r>    3.2754    1.0000 </r>
       <r>    3.6557    1.0000 </r>
       <r>    3.6557    1.0000 </r>
       <r>    4.1562    1.0000 </r>
       <r>    4.1562    1.0000 </r>
       <r>    4.5609    1.0000 </r>
       <r>    5.2059    1.0000 </r>
       <r>    6.2944    1.0000 </r>
       <r>    6.8938    0.0000 </r>
       <r>   20.7338    0.0000 </r>
       <r>   21.4760    0.0000 </r>
      </set>
      <set comment="kpoint 6">
       <r>   -2.1690    1.0000 </r>
       <r>    0.9964    1.0000 </r>
       <r>    1.0588    1.0000 </r>
       <r>    3.0001    1.0000 </r>
       <r>    3.1743    1.0000 </r>
       <r>    3.5554    1.0000 </r>
       <r>    5.3436    1.0000 </r>
       <r>    5.5608    1.0000 </r>
       <r>    5.9685    1.0181 </r>
       <r>    6.1778    1.0072 </r>
       <r>    7.0024   -0.0020 </r>
       <r>   13.2078    0.0000 </r>
       <r>   13.6248    0.0000 </r>
       <r>   15.3838    0.0000 </r>
      </set>
      <set comment="kpoint 7">
       <r>   -1.4977    1.0000 </r>
       <r>    1.2926    1.0000 </r>
       <r>    1.4604    1.0000 </r>
       <r>    2.8938    1.0000 </r>
       <r>    3.1819    1.0000 </r>
       <r>    3.9829    1.0000 </r>
       <r>    4.9738    1.0000 </r>
       <r>    5.0957    1.0000 </r>
       <r>    5.3809    1.0008 </r>
       <r>    5.7190    1.0060 </r>
       <r>    6.8539   -0.0578 </r>
       <r>   11.0023    0.0000 </r>
       <r>   14.9127    0.0000 </r>
       <r>   16.8418    0.0000 </r>
      </set>
      <set comment="kpoint 8">
       <r>   -0.4969    1.0000 </r>
       <r>    1.6288    1.0000 </r>
       <r>    1.9300    1.0000 </r>
       <r>    2.9338    1.0000 </r>
       <r>    3.2288    1.0000 </r>
       <r>    4.2658    1.0000 </r>
       <r>    4.4398    1.0000 </r>
       <r>    4.5152    1.0000 </r>
       <r>    4.6892    1.0000 </r>
       <r>    5.9688    1.0000 </r>
       <r>    6.3988    0.5964 </r>
       <r>    8.7604    0.0000 </r>
       <r>   16.6759    0.0000 </r>
       <r>   18.8957    0.0000 </r>
      </set>
      <set comment="kpoint 9">
       <r>    0.6077    1.0000 </r>
       <r>    1.4458    1.0000 </r>
       <r>    2.4974    1.0000 </r>
       <r>    3.0591    1.0000 </r>
       <r>    3.1613    1.0000 </r>
       <r>    3.6052    1.0000 </r>
       <r>    4.1866    1.0000 </r>
       <r>    4.3475    1.0000 </r>
       <r>    5.1319    1.0000 </r>
       <r>    5.7861    1.0000 </r>
       <r>    6.2966    0.9101 </r>
       <r>    7.1062    0.0000 </r>
       <r>   18.3425    0.0000 </r>
       <r>   19.9690    0.0000 </r>
      </set>
      <set comment="kpoint 10">
       <r>   -0.9380    1.0000 </r>
       <r>    1.4039    1.0000 </r>
       <r>    1.9374    1.0000 </r>
       <r>    2.5802    1.0000 </r>
       <r>    3.1751    1.0000 </r>
       <r>    4.2057    1.0000 </r>
       <r>    4.6141    1.0000 </r>
       <r>    4.7664    1.0000 </r>
       <r>    5.1351    1.0000 </r>
       <r>    5.6198    1.0061 </r>
       <r>    7.1441   -0.0270 </r>
       <r>   12.0829    0.0000 </r>
       <r>   12.5436    0.0000 </r>
       <r>   17.8147    0.0000 </r>
      </set>
      <set comment="kpoint 11">
       <r>   -0.1852    1.0000 </r>
       <r>    1.3902    1.0000 </r>
       <r>    2.4441    1.0000 </r>
       <r>    2.5310    1.0000 </r>
       <r>    3.3312    1.0000 </r>
       <r>    3.4285    1.0000 </r>
       <r>    4.4922    1.0000 </r>
       <r>    4.9683    1.0000 </r>
       <r>    5.2950    1.0000 </r>
       <r>    5.8198    1.0311 </r>
       <r>    7.0270   -0.0805 </r>
       <r>    9.7277    0.0000 </r>
       <r>   13.9717    0.0000 </r>
       <r>   19.3822    0.0000 </r>
      </set>
      <set comment="kpoint 12">
       <r>    0.5354    1.0000 </r>
       <r>    1.0866    1.0000 </r>
       <r>    2.5289    1.0000 </r>
       <r>    2.8576    1.0000 </r>
       <r>    3.0493    1.0000 </r>
       <r>    3.3879    1.0000 </r>
       <r>    4.6918    1.0000 </r>
       <r>    4.8722    1.0000 </r>
       <r>    5.9780    1.0000 </r>
       <r>    6.3021    0.9599 </r>
       <r>    6.5921    0.0612 </r>
       <r>    7.6248    0.0000 </r>
       <r>   15.6472    0.0000 </r>
       <r>   17.4875    0.0000 </r>
      </set>
      <set comment="kpoint 13">
       <r>    0.1094    1.0000 </r>
       <r>    1.0195    1.0000 </r>
       <r>    2.1413    1.0000 </r>
       <r>    2.7381    1.0000 </r>
       <r>    3.3469    1.0000 </r>
       <r>    3.9687    1.0000 </r>
       <r>    4.6024    1.0000 </r>
       <r>    5.2909    1.0000 </r>
       <r>    5.7272    1.0000 </r>
       <r>    6.0654    1.0558 </r>
       <r>    7.3091    0.0000 </r>
       <r>    9.9152    0.0000 </r>
       <r>   12.4279    0.0000 </r>
       <r>   17.2512    0.0000 </r>
      </set>
      <set comment="kpoint 14">
       <r>    0.3552    1.0000 </r>
       <r>    0.6482    1.0000 </r>
       <r>    2.0782    1.0000 </r>
       <r>    2.2776    1.0000 </r>
       <r>    4.0652    1.0000 </r>
       <r>    4.4308    1.0000 </r>
       <r>    5.0047    1.0000 </r>
       <r>    5.3544    1.0000 </r>
       <r>    6.2827    1.0000 </r>
       <r>    6.7313    0.0524 </r>
       <r>    7.1856    0.0000 </r>
       <r>    8.0563    0.0000 </r>
       <r>   13.3935    0.0000 </r>
       <r>   15.1119    0.0000 </r>
      </set>
      <set comment="kpoint 15">
       <r>    0.2587    1.0000 </r>
       <r>    0.3512    1.0000 </r>
       <r>    1.8736    1.0000 </r>
       <r>    1.9402    1.0000 </r>
       <r>    5.1611    1.0000 </r>
       <r>    5.2441    1.0000 </r>
       <r>    5.2965    1.0000 </r>
       <r>    5.8232    1.0000 </r>
       <r>    6.3343    1.0000 </r>
       <r>    7.2494   -0.1274 </r>
       <r>    7.4191    0.0000 </r>
       <r>    7.6205    0.0000 </r>
       <r>   12.4593    0.0000 </r>
       <r>   13.2574    0.0000 </r>
      </set>
      <set comment="kpoint 16">
       <r>   -1.9406    1.0000 </r>
       <r>    1.1575    1.0000 </r>
       <r>    1.1575    1.0000 </r>
       <r>    2.9830    1.0000 </r>
       <r>    2.9830    1.0000 </r>
       <r>    3.8538    1.0000 </r>
       <r>    5.1983    1.0000 </r>
       <r>    5.4319    1.0000 </r>
       <r>    5.4319    1.0202 </r>
       <r>    6.6262    0.7910 </r>
       <r>    6.6262    0.0098 </r>
       <r>   13.3568    0.0000 </r>
       <r>   14.2639    0.0000 </r>
       <r>   14.2639    0.0000 </r>
      </set>
      <set comment="kpoint 17">
       <r>   -1.2910    1.0000 </r>
       <r>    1.4428    1.0000 </r>
       <r>    1.5495    1.0000 </r>
       <r>    2.8200    1.0000 </r>
       <r>    2.9474    1.0000 </r>
       <r>    4.3041    1.0000 </r>
       <r>    4.3715    1.0000 </r>
       <r>    5.0801    1.0000 </r>
       <r>    5.6533    1.0002 </r>
       <r>    5.8256    1.0089 </r>
       <r>    6.6811    0.0145 </r>
       <r>   11.5011    0.0000 </r>
       <r>   14.7728    0.0000 </r>
       <r>   15.8314    0.0000 </r>
      </set>
      <set comment="kpoint 18">
       <r>   -0.3414    1.0000 </r>
       <r>    1.8180    1.0000 </r>
       <r>    1.8776    1.0000 </r>
       <r>    2.8663    1.0000 </r>
       <r>    2.9057    1.0000 </r>
       <r>    3.6866    1.0000 </r>
       <r>    4.6256    1.0000 </r>
       <r>    4.9876    1.0000 </r>
       <r>    5.0321    1.0000 </r>
       <r>    5.9265    1.0000 </r>
       <r>    6.3455    0.5779 </r>
       <r>    9.2681    0.0000 </r>
       <r>   16.1393    0.0000 </r>
       <r>   17.8217    0.0000 </r>
      </set>
      <set comment="kpoint 19">
       <r>    0.6754    1.0000 </r>
       <r>    1.4830    1.0000 </r>
       <r>    2.3767    1.0000 </r>
       <r>    2.7635    1.0000 </r>
       <r>    3.1544    1.0000 </r>
       <r>    3.4628    1.0000 </r>
       <r>    4.3274    1.0000 </r>
       <r>    4.4761    1.0000 </r>
       <r>    5.5451    1.0000 </r>
       <r>    5.8992    1.0000 </r>
       <r>    6.3905    0.5865 </r>
       <r>    7.4997    0.0000 </r>
       <r>   17.6366    0.0000 </r>
       <r>   19.3229    0.0000 </r>
      </set>
      <set comment="kpoint 20">
       <r>   -0.7260    1.0000 </r>
       <r>    1.6012    1.0000 </r>
       <r>    1.9850    1.0000 </r>
       <r>    2.5449    1.0000 </r>
       <r>    2.8671    1.0000 </r>
       <r>    3.4693    1.0000 </r>
       <r>    5.0537    1.0000 </r>
       <r>    5.2242    1.0000 </r>
       <r>    5.4351    1.0000 </r>
       <r>    5.5783    1.0058 </r>
       <r>    6.7630   -0.0109 </r>
       <r>   12.5590    0.0000 </r>
       <r>   12.7022    0.0000 </r>
       <r>   16.3773    0.0000 </r>
      </set>
      <set comment="kpoint 21">
       <r>    0.0184    1.0000 </r>
       <r>    1.5811    1.0000 </r>
       <r>    2.4126    1.0000 </r>
       <r>    2.4280    1.0000 </r>
       <r>    2.9715    1.0000 </r>
       <r>    3.0863    1.0000 </r>
       <r>    4.9320    1.0000 </r>
       <r>    5.0306    1.0000 </r>
       <r>    5.7162    1.0000 </r>
       <r>    5.9110    1.0255 </r>
       <r>    6.6411    0.0199 </r>
       <r>   10.2692    0.0000 </r>
       <r>   13.9713    0.0000 </r>
       <r>   17.7665    0.0000 </r>
      </set>
      <set comment="kpoint 22">
       <r>    0.6949    1.0000 </r>
       <r>    1.2250    1.0000 </r>
       <r>    2.4452    1.0000 </r>
       <r>    2.5013    1.0000 </r>
       <r>    3.2076    1.0000 </r>
       <r>    3.2359    1.0000 </r>
       <r>    4.8065    1.0000 </r>
       <r>    4.8573    1.0000 </r>
       <r>    5.9090    1.0000 </r>
       <r>    6.2268    1.0066 </r>
       <r>    6.8959   -0.0577 </r>
       <r>    8.3035    0.0000 </r>
       <r>   15.5024    0.0000 </r>
       <r>   17.3288    0.0000 </r>
      </set>
      <set comment="kpoint 23">
       <r>    0.3397    1.0000 </r>
       <r>    1.1839    1.0000 </r>
       <r>    2.1192    1.0000 </r>
       <r>    2.5499    1.0000 </r>
       <r>    3.2973    1.0000 </r>
       <r>    3.4926    1.0000 </r>
       <r>    4.8761    1.0000 </r>
       <r>    5.3044    1.0000 </r>
       <r>    5.7274    1.0000 </r>
       <r>    6.7139    0.4498 </r>
       <r>    6.8281   -0.0003 </r>
       <r>   10.6804    0.0000 </r>
       <r>   12.3250    0.0000 </r>
       <r>   17.2000    0.0000 </r>
      </set>
      <set comment="kpoint 24">
       <r>    0.5608    1.0000 </r>
       <r>    0.8196    1.0000 </r>
       <r>    2.0592    1.0000 </r>
       <r>    2.2222    1.0000 </r>
       <r>    3.9562    1.0000 </r>
       <r>    4.0970    1.0000 </r>
       <r>    5.1013    1.0000 </r>
       <r>    5.3016    1.0000 </r>
       <r>    5.9437    1.0000 </r>
       <r>    6.5244    0.5497 </r>
       <r>    7.6717    0.0000 </r>
       <r>    9.0314    0.0000 </r>
       <r>   13.3210    0.0000 </r>
       <r>   15.0385    0.0000 </r>
      </set>
      <set comment="kpoint 25">
       <r>    0.4697    1.0000 </r>
       <r>    0.5474    1.0000 </r>
       <r>    1.8690    1.0000 </r>
       <r>    1.9317    1.0000 </r>
       <r>    4.9327    1.0000 </r>
       <r>    5.1716    1.0000 </r>
       <r>    5.3227    1.0000 </r>
       <r>    5.5018    1.0000 </r>
       <r>    5.8305    1.0000 </r>
       <r>    6.3821    0.6738 </r>
       <r>    8.4212    0.0000 </r>
       <r>    9.1003    0.0000 </r>
       <r>   12.3229    0.0000 </r>
       <r>   13.1655    0.0000 </r>
      </set>
      <set comment="kpoint 26">
       <r>   -0.1535    1.0000 </r>
       <r>    2.1080    1.0000 </r>
       <r>    2.1080    1.0000 </r>
       <r>    2.4661    1.0000 </r>
       <r>    2.4661    1.0000 </r>
       <r>    2.6293    1.0000 </r>
       <r>    5.4549    1.0000 </r>
       <r>    5.4549    1.0000 </r>
       <r>    5.8846    1.0000 </r>
       <r>    6.0279    1.0045 </r>
       <r>    6.0279    0.8069 </r>
       <r>   12.5651    0.0000 </r>
       <r>   14.1382    0.0000 </r>
       <r>   14.1382    0.0000 </r>
      </set>
      <set comment="kpoint 27">
       <r>    0.5346    1.0000 </r>
       <r>    1.8524    1.0000 </r>
       <r>    2.2488    1.0000 </r>
       <r>    2.3976    1.0000 </r>
       <r>    2.4195    1.0000 </r>
       <r>    2.8436    1.0000 </r>
       <r>    5.2722    1.0000 </r>
       <r>    5.4122    1.0000 </r>
       <r>    5.7212    1.0000 </r>
       <r>    6.1655    1.0030 </r>
       <r>    6.8188   -0.0076 </r>
       <r>   11.2359    0.0000 </r>
       <r>   13.7413    0.0000 </r>
       <r>   15.8759    0.0000 </r>
      </set>
      <set comment="kpoint 28">
       <r>    0.9975    1.0000 </r>
       <r>    1.3581    1.0000 </r>
       <r>    2.3375    1.0000 </r>
       <r>    2.3666    1.0000 </r>
       <r>    2.8694    1.0000 </r>
       <r>    3.1892    1.0000 </r>
       <r>    5.1086    1.0000 </r>
       <r>    5.1090    1.0000 </r>
       <r>    5.8780    1.0000 </r>
       <r>    5.9976    1.0211 </r>
       <r>    7.9199   -0.0144 </r>
       <r>    9.3720    0.0000 </r>
       <r>   14.8123    0.0000 </r>
       <r>   16.5597    0.0000 </r>
      </set>
      <set comment="kpoint 29">
       <r>    0.9871    1.0000 </r>
       <r>    1.4741    1.0000 </r>
       <r>    2.0823    1.0000 </r>
       <r>    2.4090    1.0000 </r>
       <r>    2.7037    1.0000 </r>
       <r>    3.1245    1.0000 </r>
       <r>    5.3828    1.0000 </r>
       <r>    5.4685    1.0000 </r>
       <r>    5.7192    1.0000 </r>
       <r>    6.1495    1.0155 </r>
       <r>    7.8482   -0.0120 </r>
       <r>   12.0933    0.0000 </r>
       <r>   12.2145    0.0000 </r>
       <r>   16.0532    0.0000 </r>
      </set>
      <set comment="kpoint 30">
       <r>    1.0917    1.0000 </r>
       <r>    1.1926    1.0000 </r>
       <r>    2.0732    1.0000 </r>
       <r>    2.2307    1.0000 </r>
       <r>    3.3346    1.0000 </r>
       <r>    3.5594    1.0000 </r>
       <r>    5.3680    1.0000 </r>
       <r>    5.4297    1.0000 </r>
       <r>    5.8529    1.0000 </r>
       <r>    6.0228    1.0282 </r>
       <r>    8.9541    0.0000 </r>
       <r>   10.3553    0.0000 </r>
       <r>   13.2172    0.0000 </r>
       <r>   14.8209    0.0000 </r>
      </set>
      <set comment="kpoint 31">
       <r>    1.0493    1.0000 </r>
       <r>    1.0568    1.0000 </r>
       <r>    1.8816    1.0000 </r>
       <r>    1.9672    1.0000 </r>
       <r>    4.1080    1.0000 </r>
       <r>    4.1860    1.0000 </r>
       <r>    5.5201    1.0000 </r>
       <r>    5.5661    1.0000 </r>
       <r>    5.8477    1.0000 </r>
       <r>    5.9594    1.0301 </r>
       <r>    9.9542    0.0000 </r>
       <r>   10.8995    0.0000 </r>
       <r>   11.9715    0.0000 </r>
       <r>   13.0042    0.0000 </r>
      </set>
      <set comment="kpoint 32">
       <r>    1.4510    1.0000 </r>
       <r>    1.8531    1.0000 </r>
       <r>    2.0968    1.0000 </r>
       <r>    2.0968    1.0000 </r>
       <r>    2.8208    1.0000 </r>
       <r>    2.8208    1.0000 </r>
       <r>    5.6897    1.0000 </r>
       <r>    5.6897    1.0000 </r>
       <r>    5.7575    1.0000 </r>
       <r>    5.7575    1.0000 </r>
       <r>    8.9966   -0.0052 </r>
       <r>   11.8854    0.0000 </r>
       <r>   13.9819    0.0000 </r>
       <r>   13.9819    0.0000 </r>
      </set>
      <set comment="kpoint 33">
       <r>    1.4165    1.0000 </r>
       <r>    1.5917    1.0000 </r>
       <r>    2.2232    1.0000 </r>
       <r>    2.4809    1.0000 </r>
       <r>    2.8079    1.0000 </r>
       <r>    3.1570    1.0000 </r>
       <r>    5.6350    1.0000 </r>
       <r>    5.6459    1.0000 </r>
       <r>    5.8392    1.0000 </r>
       <r>    5.8731    1.0000 </r>
       <r>   10.1109    0.0000 </r>
       <r>   11.2740    0.0000 </r>
       <r>   13.2467    0.0000 </r>
       <r>   14.2654    0.0000 </r>
      </set>
      <set comment="kpoint 34">
       <r>    1.5728    1.0000 </r>
       <r>    1.8065    1.0000 </r>
       <r>    1.9749    1.0000 </r>
       <r>    2.2467    1.0000 </r>
       <r>    3.1997    1.0000 </r>
       <r>    3.3386    1.0000 </r>
       <r>    5.7397    1.0000 </r>
       <r>    5.7506    1.0000 </r>
       <r>    5.8652    1.0000 </r>
       <r>    5.8800    1.0000 </r>
       <r>   11.0274    0.0000 </r>
       <r>   11.5606    0.0000 </r>
       <r>   12.8308    0.0000 </r>
       <r>   13.2424    0.0000 </r>
      </set>
      <set comment="kpoint 35">
       <r>    1.9110    1.0000 </r>
       <r>    2.2193    1.0000 </r>
       <r>    2.2193    1.0000 </r>
       <r>    2.6673    1.0000 </r>
       <r>    2.6673    1.0000 </r>
       <r>    2.7341    1.0000 </r>
       <r>    5.8732    1.0000 </r>
       <r>    5.8732    1.0000 </r>
       <r>    5.8739    1.0000 </r>
       <r>    5.8739    1.0000 </r>
       <r>   11.2365    0.0000 </r>
       <r>   11.2899    0.0000 </r>
       <r>   14.0449    0.0000 </r>
       <r>   14.8153    0.0000 </r>
      </set>
     </set>
    </set>
   </array>
  </eigenvalues>
  <separator name="orbital magnetization" >
   <v name="MAGDIPOLOUT">      0.00000000      0.00000000      0.00000000</v>
  </separator>
  <dos>
   <i name="efermi">      6.47047331 </i>
   <total>
    <array>
     <dimension dim="1">gridpoints</dimension>
     <dimension dim="2">spin</dimension>
     <field>energy</field>
     <field>total</field>
     <field>integrated</field>
     <set>
      <set comment="spin 1">
       <r>    -4.6460     0.0000     0.0000 </r>
       <r>    -4.5523     0.0000     0.0000 </r>
       <r>    -4.4585     0.0000     0.0000 </r>
       <r>    -4.3648     0.0000     0.0000 </r>
       <r>    -4.2711     0.0000     0.0000 </r>
       <r>    -4.1773     0.0000     0.0000 </r>
       <r>    -4.0836     0.0000     0.0000 </r>
       <r>    -3.9898     0.0000     0.0000 </r>
       <r>    -3.8961     0.0000     0.0000 </r>
       <r>    -3.8024     0.0000     0.0000 </r>
       <r>    -3.7086     0.0000     0.0000 </r>
       <r>    -3.6149     0.0000     0.0000 </r>
       <r>    -3.5211     0.0000     0.0000 </r>
       <r>    -3.4274     0.0000     0.0000 </r>
       <r>    -3.3337     0.0000     0.0000 </r>
       <r>    -3.2399     0.0000     0.0000 </r>
       <r>    -3.1462     0.0000     0.0000 </r>
       <r>    -3.0524     0.0000     0.0000 </r>
       <r>    -2.9587     0.0000     0.0000 </r>
       <r>    -2.8650     0.0000     0.0000 </r>
       <r>    -2.7712     0.0000     0.0000 </r>
       <r>    -2.6775     0.0000     0.0000 </r>
       <r>    -2.5837     0.0031     0.0001 </r>
       <r>    -2.4900     0.0192     0.0010 </r>
       <r>    -2.3963     0.0492     0.0041 </r>
       <r>    -2.3025     0.0787     0.0102 </r>
       <r>    -2.2088     0.0938     0.0184 </r>
       <r>    -2.1150     0.0973     0.0274 </r>
       <r>    -2.0213     0.1044     0.0368 </r>
       <r>    -1.9276     0.1172     0.0471 </r>
       <r>    -1.8338     0.1327     0.0588 </r>
       <r>    -1.7401     0.1491     0.0720 </r>
       <r>    -1.6463     0.1650     0.0868 </r>
       <r>    -1.5526     0.1750     0.1028 </r>
       <r>    -1.4588     0.1813     0.1194 </r>
       <r>    -1.3651     0.1917     0.1369 </r>
       <r>    -1.2714     0.2048     0.1555 </r>
       <r>    -1.1776     0.2172     0.1752 </r>
       <r>    -1.0839     0.2296     0.1962 </r>
       <r>    -0.9901     0.2421     0.2183 </r>
       <r>    -0.8964     0.2550     0.2416 </r>
       <r>    -0.8027     0.2721     0.2662 </r>
       <r>    -0.7089     0.2939     0.2927 </r>
       <r>    -0.6152     0.3184     0.3214 </r>
       <r>    -0.5214     0.3424     0.3524 </r>
       <r>    -0.4277     0.3653     0.3856 </r>
       <r>    -0.3340     0.3882     0.4209 </r>
       <r>    -0.2402     0.4112     0.4584 </r>
       <r>    -0.1465     0.4483     0.4983 </r>
       <r>    -0.0527     0.5109     0.5432 </r>
       <r>     0.0410     0.5778     0.5943 </r>
       <r>     0.1347     0.6408     0.6512 </r>
       <r>     0.2285     0.7715     0.7167 </r>
       <r>     0.3222     1.2746     0.8102 </r>
       <r>     0.4160     1.7552     0.9570 </r>
       <r>     0.5097     1.8133     1.1278 </r>
       <r>     0.6034     2.9960     1.3150 </r>
       <r>     0.6972     1.4886     1.5348 </r>
       <r>     0.7909     1.4664     1.6729 </r>
       <r>     0.8847     1.6305     1.8160 </r>
       <r>     0.9784     1.8626     1.9803 </r>
       <r>     1.0721     2.2083     2.1709 </r>
       <r>     1.1659     2.3288     2.3802 </r>
       <r>     1.2596     3.0362     2.6339 </r>
       <r>     1.3534     3.1910     2.9247 </r>
       <r>     1.4471     4.2429     3.2408 </r>
       <r>     1.5408     3.2527     3.5935 </r>
       <r>     1.6346     2.5475     3.8701 </r>
       <r>     1.7283     1.6054     4.0592 </r>
       <r>     1.8221     1.0790     4.1828 </r>
       <r>     1.9158     1.9943     4.3494 </r>
       <r>     2.0095     3.4884     4.6442 </r>
       <r>     2.1033     5.2846     5.0616 </r>
       <r>     2.1970     4.6539     5.5262 </r>
       <r>     2.2908     4.7393     5.9624 </r>
       <r>     2.3845     5.1801     6.4208 </r>
       <r>     2.4782     4.6957     6.9567 </r>
       <r>     2.5720     2.3969     7.2547 </r>
       <r>     2.6657     2.0915     7.4629 </r>
       <r>     2.7595     2.1862     7.6681 </r>
       <r>     2.8532     2.7573     7.8942 </r>
       <r>     2.9469     3.7513     8.2125 </r>
       <r>     3.0407     4.2850     8.5808 </r>
       <r>     3.1344     5.6897     9.0488 </r>
       <r>     3.2282     4.4697     9.6117 </r>
       <r>     3.3219     3.3042     9.9628 </r>
       <r>     3.4156     2.8681    10.2401 </r>
       <r>     3.5094     2.5287    10.4922 </r>
       <r>     3.6031     2.2848    10.7165 </r>
       <r>     3.6969     1.8601    10.9112 </r>
       <r>     3.7906     1.7527    11.0806 </r>
       <r>     3.8843     1.6285    11.2392 </r>
       <r>     3.9781     1.4773    11.3852 </r>
       <r>     4.0718     1.2877    11.5156 </r>
       <r>     4.1656     1.3434    11.6266 </r>
       <r>     4.2593     1.2226    11.7570 </r>
       <r>     4.3530     1.3226    11.8709 </r>
       <r>     4.4468     1.5656    12.0044 </r>
       <r>     4.5405     2.0247    12.1709 </r>
       <r>     4.6343     2.4795    12.3837 </r>
       <r>     4.7280     2.8334    12.6310 </r>
       <r>     4.8217     3.3228    12.9184 </r>
       <r>     4.9155     3.8628    13.2530 </r>
       <r>     5.0092     4.4752    13.6508 </r>
       <r>     5.1030     4.5627    14.0760 </r>
       <r>     5.1967     4.5745    14.5006 </r>
       <r>     5.2904     4.4460    14.9199 </r>
       <r>     5.3842     4.5372    15.3894 </r>
       <r>     5.4779     4.2310    15.8114 </r>
       <r>     5.5717     3.9139    16.2066 </r>
       <r>     5.6654     3.7837    16.5530 </r>
       <r>     5.7591     5.6023    16.9960 </r>
       <r>     5.8529    16.4252    17.7103 </r>
       <r>     5.9466     4.8594    18.5294 </r>
       <r>     6.0404     3.5639    18.9125 </r>
       <r>     6.1341     3.0318    19.2204 </r>
       <r>     6.2278     2.0502    19.4597 </r>
       <r>     6.3216     2.6370    19.6718 </r>
       <r>     6.4153     1.9945    19.8904 </r>
       <r>     6.5091     1.9695    20.0762 </r>
       <r>     6.6028     1.9021    20.2578 </r>
       <r>     6.6965     2.4184    20.4499 </r>
       <r>     6.7903     1.9718    20.6627 </r>
       <r>     6.8840     1.7367    20.8380 </r>
       <r>     6.9778     1.2366    20.9777 </r>
       <r>     7.0715     0.9560    21.0781 </r>
       <r>     7.1652     0.7793    21.1584 </r>
       <r>     7.2590     0.7367    21.2295 </r>
       <r>     7.3527     0.7186    21.2979 </r>
       <r>     7.4465     0.6978    21.3644 </r>
       <r>     7.5402     0.6302    21.4267 </r>
       <r>     7.6339     0.5857    21.4830 </r>
       <r>     7.7277     0.5834    21.5376 </r>
       <r>     7.8214     0.5935    21.5927 </r>
       <r>     7.9152     0.6090    21.6490 </r>
       <r>     8.0089     0.6324    21.7072 </r>
       <r>     8.1027     0.6396    21.7673 </r>
       <r>     8.1964     0.6269    21.8266 </r>
       <r>     8.2901     0.6141    21.8848 </r>
       <r>     8.3839     0.6025    21.9416 </r>
       <r>     8.4776     0.5935    21.9976 </r>
       <r>     8.5714     0.5913    22.0531 </r>
       <r>     8.6651     0.5886    22.1084 </r>
       <r>     8.7588     0.5856    22.1634 </r>
       <r>     8.8526     0.5826    22.2182 </r>
       <r>     8.9463     0.5797    22.2727 </r>
       <r>     9.0401     0.5742    22.3268 </r>
       <r>     9.1338     0.5559    22.3795 </r>
       <r>     9.2275     0.5523    22.4315 </r>
       <r>     9.3213     0.5484    22.4831 </r>
       <r>     9.4150     0.5452    22.5343 </r>
       <r>     9.5088     0.5432    22.5853 </r>
       <r>     9.6025     0.5408    22.6361 </r>
       <r>     9.6962     0.5382    22.6867 </r>
       <r>     9.7900     0.5527    22.7376 </r>
       <r>     9.8837     0.5593    22.7899 </r>
       <r>     9.9775     0.5552    22.8420 </r>
       <r>    10.0712     0.5465    22.8937 </r>
       <r>    10.1649     0.5389    22.9445 </r>
       <r>    10.2587     0.5327    22.9948 </r>
       <r>    10.3524     0.5213    23.0442 </r>
       <r>    10.4462     0.5190    23.0930 </r>
       <r>    10.5399     0.5174    23.1415 </r>
       <r>    10.6336     0.5175    23.1900 </r>
       <r>    10.7274     0.5191    23.2386 </r>
       <r>    10.8211     0.5212    23.2874 </r>
       <r>    10.9149     0.5388    23.3366 </r>
       <r>    11.0086     0.5373    23.3870 </r>
       <r>    11.1023     0.6212    23.4452 </r>
       <r>    11.1961     0.5735    23.5011 </r>
       <r>    11.2898     0.6030    23.5531 </r>
       <r>    11.3836     0.6979    23.6203 </r>
       <r>    11.4773     0.6615    23.6845 </r>
       <r>    11.5710     0.3600    23.7399 </r>
       <r>    11.6648     0.3288    23.7722 </r>
       <r>    11.7585     0.2984    23.8016 </r>
       <r>    11.8523     0.2688    23.8281 </r>
       <r>    11.9460     0.2381    23.8520 </r>
       <r>    12.0397     0.2849    23.8777 </r>
       <r>    12.1335     0.2880    23.9041 </r>
       <r>    12.2272     0.3196    23.9325 </r>
       <r>    12.3210     0.3771    23.9649 </r>
       <r>    12.4147     0.5795    24.0128 </r>
       <r>    12.5084     0.5418    24.0661 </r>
       <r>    12.6022     0.5661    24.1181 </r>
       <r>    12.6959     0.6133    24.1734 </r>
       <r>    12.7897     0.6670    24.2333 </r>
       <r>    12.8834     0.7921    24.3018 </r>
       <r>    12.9771     0.8657    24.3796 </r>
       <r>    13.0709     1.1249    24.4760 </r>
       <r>    13.1646     1.2130    24.5856 </r>
       <r>    13.2584     0.9675    24.7134 </r>
       <r>    13.3521     0.8625    24.7996 </r>
       <r>    13.4458     0.8029    24.8761 </r>
       <r>    13.5396     0.8038    24.9514 </r>
       <r>    13.6333     0.8061    25.0268 </r>
       <r>    13.7271     0.8192    25.1030 </r>
       <r>    13.8208     0.8376    25.1808 </r>
       <r>    13.9145     0.8241    25.2590 </r>
       <r>    14.0083     0.7410    25.3327 </r>
       <r>    14.1020     0.7157    25.4034 </r>
       <r>    14.1958     0.7226    25.4707 </r>
       <r>    14.2895     0.7213    25.5386 </r>
       <r>    14.3832     0.7080    25.6056 </r>
       <r>    14.4770     0.6968    25.6714 </r>
       <r>    14.5707     0.6879    25.7363 </r>
       <r>    14.6645     0.6811    25.8004 </r>
       <r>    14.7582     0.6765    25.8640 </r>
       <r>    14.8519     0.6067    25.9275 </r>
       <r>    14.9457     0.5896    25.9832 </r>
       <r>    15.0394     0.5920    26.0386 </r>
       <r>    15.1332     0.5833    26.0936 </r>
       <r>    15.2269     0.5808    26.1482 </r>
       <r>    15.3206     0.5752    26.2024 </r>
       <r>    15.4144     0.5698    26.2560 </r>
       <r>    15.5081     0.5542    26.3093 </r>
       <r>    15.6019     0.5549    26.3613 </r>
       <r>    15.6956     0.5566    26.4134 </r>
       <r>    15.7893     0.5590    26.4657 </r>
       <r>    15.8831     0.5738    26.5184 </r>
       <r>    15.9768     0.6126    26.5749 </r>
       <r>    16.0706     0.5559    26.6297 </r>
       <r>    16.1643     0.5553    26.6818 </r>
       <r>    16.2580     0.5495    26.7336 </r>
       <r>    16.3518     0.5384    26.7846 </r>
       <r>    16.4455     0.5290    26.8346 </r>
       <r>    16.5393     0.5204    26.8838 </r>
       <r>    16.6330     0.5128    26.9322 </r>
       <r>    16.7267     0.5064    26.9800 </r>
       <r>    16.8205     0.5004    27.0272 </r>
       <r>    16.9142     0.4962    27.0739 </r>
       <r>    17.0080     0.4932    27.1202 </r>
       <r>    17.1017     0.4910    27.1663 </r>
       <r>    17.1955     0.4898    27.2123 </r>
       <r>    17.2892     0.5061    27.2588 </r>
       <r>    17.3829     0.4878    27.3055 </r>
       <r>    17.4767     0.4779    27.3507 </r>
       <r>    17.5704     0.4679    27.3951 </r>
       <r>    17.6642     0.4579    27.4385 </r>
       <r>    17.7579     0.4488    27.4810 </r>
       <r>    17.8516     0.3878    27.5193 </r>
       <r>    17.9454     0.3748    27.5550 </r>
       <r>    18.0391     0.3613    27.5895 </r>
       <r>    18.1329     0.3473    27.6227 </r>
       <r>    18.2266     0.3327    27.6546 </r>
       <r>    18.3203     0.3175    27.6851 </r>
       <r>    18.4141     0.2856    27.7129 </r>
       <r>    18.5078     0.2700    27.7390 </r>
       <r>    18.6016     0.2541    27.7635 </r>
       <r>    18.6953     0.2379    27.7866 </r>
       <r>    18.7890     0.2220    27.8082 </r>
       <r>    18.8828     0.2103    27.8284 </r>
       <r>    18.9765     0.1933    27.8473 </r>
       <r>    19.0703     0.1760    27.8646 </r>
       <r>    19.1640     0.1599    27.8804 </r>
       <r>    19.2577     0.1450    27.8946 </r>
       <r>    19.3515     0.1318    27.9076 </r>
       <r>    19.4452     0.1184    27.9193 </r>
       <r>    19.5390     0.1065    27.9299 </r>
       <r>    19.6327     0.0961    27.9393 </r>
       <r>    19.7264     0.0870    27.9479 </r>
       <r>    19.8202     0.0794    27.9557 </r>
       <r>    19.9139     0.0731    27.9628 </r>
       <r>    20.0077     0.0532    27.9689 </r>
       <r>    20.1014     0.0479    27.9736 </r>
       <r>    20.1951     0.0428    27.9779 </r>
       <r>    20.2889     0.0380    27.9817 </r>
       <r>    20.3826     0.0333    27.9850 </r>
       <r>    20.4764     0.0289    27.9879 </r>
       <r>    20.5701     0.0248    27.9904 </r>
       <r>    20.6638     0.0209    27.9926 </r>
       <r>    20.7576     0.0174    27.9943 </r>
       <r>    20.8513     0.0145    27.9958 </r>
       <r>    20.9451     0.0119    27.9971 </r>
       <r>    21.0388     0.0094    27.9981 </r>
       <r>    21.1325     0.0071    27.9988 </r>
       <r>    21.2263     0.0049    27.9994 </r>
       <r>    21.3200     0.0029    27.9998 </r>
       <r>    21.4138     0.0011    28.0000 </r>
       <r>    21.5075     0.0000    28.0000 </r>
       <r>    21.6012     0.0000    28.0000 </r>
       <r>    21.6950     0.0000    28.0000 </r>
       <r>    21.7887     0.0000    28.0000 </r>
       <r>    21.8825     0.0000    28.0000 </r>
       <r>    21.9762     0.0000    28.0000 </r>
       <r>    22.0699     0.0000    28.0000 </r>
       <r>    22.1637     0.0000    28.0000 </r>
       <r>    22.2574     0.0000    28.0000 </r>
       <r>    22.3512     0.0000    28.0000 </r>
       <r>    22.4449     0.0000    28.0000 </r>
       <r>    22.5386     0.0000    28.0000 </r>
       <r>    22.6324     0.0000    28.0000 </r>
       <r>    22.7261     0.0000    28.0000 </r>
       <r>    22.8199     0.0000    28.0000 </r>
       <r>    22.9136     0.0000    28.0000 </r>
       <r>    23.0073     0.0000    28.0000 </r>
       <r>    23.1011     0.0000    28.0000 </r>
       <r>    23.1948     0.0000    28.0000 </r>
       <r>    23.2886     0.0000    28.0000 </r>
       <r>    23.3823     0.0000    28.0000 </r>
       <r>    23.4760     0.0000    28.0000 </r>
      </set>
     </set>
    </array>
   </total>
  </dos>
 </calculation>
 <structure name="finalpos" >
  <crystal>
   <varray name="basis" >
    <v>       3.20000000       0.00000000       0.00000000 </v>
    <v>       0.00000000       3.20000000       0.00000000 </v>
    <v>       0.00000000       0.00000000       3.20000000 </v>
   </varray>
   <i name="volume">     32.76800000 </i>
   <varray name="rec_basis" >
    <v>       0.31250000       0.00000000       0.00000000 </v>
    <v>       0.00000000       0.31250000       0.00000000 </v>
    <v>       0.00000000       0.00000000       0.31250000 </v>
   </varray>
  </crystal>
  <varray name="positions" >
   <v>       0.00000000       0.00000000       0.00000000 </v>
   <v>       0.50000000       0.50000000       0.50000000 </v>
  </varray>
 </structure>
</modeling>
