  20  20   0   0
  0.1854821E+02  0.3946846E-09  0.3946846E-09  0.2381396E-08  0.5000000E-15
  1.000000000000000E-004
  CAR 
 unknown system                          
      9.89377895    -35.69513868  301      0.81398619      1.00000000
    -35.695  0.0000E+00  0.0000E+00
    -35.543  0.0000E+00  0.0000E+00
    -35.391  0.0000E+00  0.0000E+00
    -35.239  0.0000E+00  0.0000E+00
    -35.087  0.0000E+00  0.0000E+00
    -34.935  0.0000E+00  0.0000E+00
    -34.783  0.0000E+00  0.0000E+00
    -34.631  0.0000E+00  0.0000E+00
    -34.479  0.0000E+00  0.0000E+00
    -34.327  0.0000E+00  0.0000E+00
    -34.176  0.0000E+00  0.0000E+00
    -34.024  0.0000E+00  0.0000E+00
    -33.872  0.0000E+00  0.0000E+00
    -33.720  0.0000E+00  0.0000E+00
    -33.568  0.0000E+00  0.2000E+01
    -33.416  0.0000E+00  0.2000E+01
    -33.264  0.0000E+00  0.2000E+01
    -33.112  0.0000E+00  0.2000E+01
    -32.960  0.0000E+00  0.2000E+01
    -32.808  0.0000E+00  0.2000E+01
    -32.656  0.6796E+02  0.3394E+01
    -32.504  0.0000E+00  0.8000E+01
    -32.352  0.0000E+00  0.8000E+01
    -32.200  0.0000E+00  0.8000E+01
    -32.048  0.0000E+00  0.8000E+01
    -31.896  0.0000E+00  0.8000E+01
    -31.744  0.0000E+00  0.8000E+01
    -31.592  0.0000E+00  0.8000E+01
    -31.440  0.0000E+00  0.8000E+01
    -31.288  0.0000E+00  0.8000E+01
    -31.136  0.0000E+00  0.8000E+01
    -30.984  0.0000E+00  0.8000E+01
    -30.832  0.0000E+00  0.8000E+01
    -30.680  0.0000E+00  0.8000E+01
    -30.528  0.0000E+00  0.8000E+01
    -30.376  0.0000E+00  0.8000E+01
    -30.224  0.0000E+00  0.8000E+01
    -30.073  0.0000E+00  0.8000E+01
    -29.921  0.0000E+00  0.8000E+01
    -29.769  0.0000E+00  0.8000E+01
    -29.617  0.0000E+00  0.8000E+01
    -29.465  0.0000E+00  0.8000E+01
    -29.313  0.0000E+00  0.8000E+01
    -29.161  0.0000E+00  0.8000E+01
    -29.009  0.0000E+00  0.8000E+01
    -28.857  0.0000E+00  0.8000E+01
    -28.705  0.0000E+00  0.8000E+01
    -28.553  0.0000E+00  0.8000E+01
    -28.401  0.0000E+00  0.8000E+01
    -28.249  0.0000E+00  0.8000E+01
    -28.097  0.0000E+00  0.8000E+01
    -27.945  0.0000E+00  0.8000E+01
    -27.793  0.0000E+00  0.8000E+01
    -27.641  0.0000E+00  0.8000E+01
    -27.489  0.0000E+00  0.8000E+01
    -27.337  0.0000E+00  0.8000E+01
    -27.185  0.0000E+00  0.8000E+01
    -27.033  0.0000E+00  0.8000E+01
    -26.881  0.0000E+00  0.8000E+01
    -26.729  0.0000E+00  0.8000E+01
    -26.577  0.0000E+00  0.8000E+01
    -26.425  0.0000E+00  0.8000E+01
    -26.273  0.0000E+00  0.8000E+01
    -26.121  0.0000E+00  0.8000E+01
    -25.970  0.0000E+00  0.8000E+01
    -25.818  0.0000E+00  0.8000E+01
    -25.666  0.0000E+00  0.8000E+01
    -25.514  0.0000E+00  0.8000E+01
    -25.362  0.0000E+00  0.8000E+01
    -25.210  0.0000E+00  0.8000E+01
    -25.058  0.0000E+00  0.8000E+01
    -24.906  0.0000E+00  0.8000E+01
    -24.754  0.0000E+00  0.8000E+01
    -24.602  0.0000E+00  0.8000E+01
    -24.450  0.0000E+00  0.8000E+01
    -24.298  0.0000E+00  0.8000E+01
    -24.146  0.0000E+00  0.8000E+01
    -23.994  0.0000E+00  0.8000E+01
    -23.842  0.0000E+00  0.8000E+01
    -23.690  0.0000E+00  0.8000E+01
    -23.538  0.0000E+00  0.8000E+01
    -23.386  0.0000E+00  0.8000E+01
    -23.234  0.0000E+00  0.8000E+01
    -23.082  0.0000E+00  0.8000E+01
    -22.930  0.0000E+00  0.8000E+01
    -22.778  0.0000E+00  0.8000E+01
    -22.626  0.0000E+00  0.8000E+01
    -22.474  0.0000E+00  0.8000E+01
    -22.322  0.0000E+00  0.8000E+01
    -22.170  0.0000E+00  0.8000E+01
    -22.018  0.0000E+00  0.8000E+01
    -21.867  0.0000E+00  0.8000E+01
    -21.715  0.0000E+00  0.8000E+01
    -21.563  0.0000E+00  0.8000E+01
    -21.411  0.0000E+00  0.8000E+01
    -21.259  0.0000E+00  0.8000E+01
    -21.107  0.0000E+00  0.8000E+01
    -20.955  0.0000E+00  0.8000E+01
    -20.803  0.0000E+00  0.8000E+01
    -20.651  0.0000E+00  0.8000E+01
    -20.499  0.0000E+00  0.8000E+01
    -20.347  0.0000E+00  0.8000E+01
    -20.195  0.0000E+00  0.8000E+01
    -20.043  0.0000E+00  0.8000E+01
    -19.891  0.0000E+00  0.8000E+01
    -19.739  0.0000E+00  0.8000E+01
    -19.587  0.0000E+00  0.8000E+01
    -19.435  0.0000E+00  0.8000E+01
    -19.283  0.0000E+00  0.8000E+01
    -19.131  0.0000E+00  0.8000E+01
    -18.979  0.0000E+00  0.8000E+01
    -18.827  0.0000E+00  0.8000E+01
    -18.675  0.0000E+00  0.8000E+01
    -18.523  0.0000E+00  0.8000E+01
    -18.371  0.0000E+00  0.8000E+01
    -18.219  0.0000E+00  0.8000E+01
    -18.067  0.0000E+00  0.8000E+01
    -17.915  0.0000E+00  0.8000E+01
    -17.763  0.0000E+00  0.8000E+01
    -17.612  0.0000E+00  0.8000E+01
    -17.460  0.0000E+00  0.8000E+01
    -17.308  0.5892E+01  0.8138E+01
    -17.156  0.6891E+01  0.9465E+01
    -17.004  0.7717E+01  0.1125E+02
    -16.852  0.8387E+01  0.1243E+02
    -16.700  0.7457E+01  0.1393E+02
    -16.548  0.5390E+01  0.1509E+02
    -16.396  0.8995E+01  0.1583E+02
    -16.244  0.3417E+02  0.2069E+02
    -16.092  0.2524E+02  0.2575E+02
    -15.940  0.5933E+01  0.2736E+02
    -15.788  0.4598E+01  0.2971E+02
    -15.636  0.1075E+02  0.3215E+02
    -15.484  0.1205E+02  0.3456E+02
    -15.332  0.0000E+00  0.3600E+02
    -15.180  0.2903E+00  0.3602E+02
    -15.028  0.1621E+01  0.3621E+02
    -14.876  0.3101E+01  0.3658E+02
    -14.724  0.2564E+02  0.3862E+02
    -14.572  0.4451E+02  0.4423E+02
    -14.420  0.2674E+02  0.4942E+02
    -14.268  0.2601E+02  0.5478E+02
    -14.116  0.0000E+00  0.5600E+02
    -13.964  0.0000E+00  0.5600E+02
    -13.812  0.0000E+00  0.5600E+02
    -13.660  0.0000E+00  0.5600E+02
    -13.509  0.0000E+00  0.5600E+02
    -13.357  0.0000E+00  0.5600E+02
    -13.205  0.0000E+00  0.5600E+02
    -13.053  0.0000E+00  0.5600E+02
    -12.901  0.0000E+00  0.5600E+02
    -12.749  0.0000E+00  0.5600E+02
    -12.597  0.0000E+00  0.5600E+02
    -12.445  0.0000E+00  0.5600E+02
    -12.293  0.0000E+00  0.5600E+02
    -12.141  0.0000E+00  0.5600E+02
    -11.989  0.0000E+00  0.5600E+02
    -11.837  0.0000E+00  0.5600E+02
    -11.685  0.0000E+00  0.5600E+02
    -11.533  0.0000E+00  0.5600E+02
    -11.381  0.0000E+00  0.5600E+02
    -11.229  0.0000E+00  0.5600E+02
    -11.077  0.0000E+00  0.5600E+02
    -10.925  0.0000E+00  0.5600E+02
    -10.773  0.0000E+00  0.5600E+02
    -10.621  0.0000E+00  0.5600E+02
    -10.469  0.0000E+00  0.5600E+02
    -10.317  0.0000E+00  0.5600E+02
    -10.165  0.0000E+00  0.5600E+02
    -10.013  0.0000E+00  0.5600E+02
     -9.861  0.0000E+00  0.5600E+02
     -9.709  0.0000E+00  0.5600E+02
     -9.557  0.0000E+00  0.5600E+02
     -9.406  0.0000E+00  0.5600E+02
     -9.254  0.0000E+00  0.5600E+02
     -9.102  0.0000E+00  0.5600E+02
     -8.950  0.0000E+00  0.5600E+02
     -8.798  0.0000E+00  0.5600E+02
     -8.646  0.0000E+00  0.5600E+02
     -8.494  0.0000E+00  0.5600E+02
     -8.342  0.0000E+00  0.5600E+02
     -8.190  0.0000E+00  0.5600E+02
     -8.038  0.0000E+00  0.5600E+02
     -7.886  0.0000E+00  0.5600E+02
     -7.734  0.0000E+00  0.5600E+02
     -7.582  0.0000E+00  0.5600E+02
     -7.430  0.0000E+00  0.5600E+02
     -7.278  0.0000E+00  0.5600E+02
     -7.126  0.0000E+00  0.5600E+02
     -6.974  0.0000E+00  0.5600E+02
     -6.822  0.0000E+00  0.5600E+02
     -6.670  0.0000E+00  0.5600E+02
     -6.518  0.0000E+00  0.5600E+02
     -6.366  0.0000E+00  0.5600E+02
     -6.214  0.0000E+00  0.5600E+02
     -6.062  0.0000E+00  0.5600E+02
     -5.910  0.0000E+00  0.5600E+02
     -5.758  0.0000E+00  0.5600E+02
     -5.606  0.0000E+00  0.5600E+02
     -5.454  0.0000E+00  0.5600E+02
     -5.303  0.0000E+00  0.5600E+02
     -5.151  0.0000E+00  0.5600E+02
     -4.999  0.0000E+00  0.5600E+02
     -4.847  0.0000E+00  0.5600E+02
     -4.695  0.0000E+00  0.5600E+02
     -4.543  0.0000E+00  0.5600E+02
     -4.391  0.0000E+00  0.5600E+02
     -4.239  0.2290E+01  0.5619E+02
     -4.087  0.9782E+01  0.5755E+02
     -3.935  0.1069E+02  0.6000E+02
     -3.783  0.1530E+02  0.6243E+02
     -3.631  0.1820E+02  0.6503E+02
     -3.479  0.1529E+02  0.6732E+02
     -3.327  0.1544E+02  0.6986E+02
     -3.175  0.1933E+02  0.7235E+02
     -3.023  0.2091E+02  0.7565E+02
     -2.871  0.2409E+02  0.7899E+02
     -2.719  0.2308E+02  0.8294E+02
     -2.567  0.1826E+02  0.8607E+02
     -2.415  0.1481E+02  0.8844E+02
     -2.263  0.1250E+02  0.9064E+02
     -2.111  0.1265E+02  0.9259E+02
     -1.959  0.1325E+02  0.9460E+02
     -1.807  0.1081E+02  0.9646E+02
     -1.655  0.1439E+02  0.9825E+02
     -1.503  0.7431E+01  0.9967E+02
     -1.351  0.1295E+02  0.1016E+03
     -1.200  0.1539E+02  0.1036E+03
     -1.048  0.2594E+02  0.1069E+03
     -0.896  0.5138E+02  0.1100E+03
     -0.744  0.2358E+02  0.1136E+03
     -0.592  0.1613E+02  0.1172E+03
     -0.440  0.1797E+02  0.1194E+03
     -0.288  0.1673E+02  0.1225E+03
     -0.136  0.1510E+02  0.1251E+03
      0.016  0.2641E+02  0.1266E+03
      0.168  0.1442E+01  0.1274E+03
      0.320  0.1330E+01  0.1276E+03
      0.472  0.9077E+00  0.1278E+03
      0.624  0.6383E+00  0.1279E+03
      0.776  0.0000E+00  0.1280E+03
      0.928  0.0000E+00  0.1280E+03
      1.080  0.0000E+00  0.1280E+03
      1.232  0.0000E+00  0.1280E+03
      1.384  0.0000E+00  0.1280E+03
      1.536  0.0000E+00  0.1280E+03
      1.688  0.0000E+00  0.1280E+03
      1.840  0.1103E+01  0.1281E+03
      1.992  0.3625E+01  0.1284E+03
      2.144  0.4147E+01  0.1290E+03
      2.296  0.3816E+01  0.1297E+03
      2.448  0.5389E+01  0.1303E+03
      2.600  0.7974E+01  0.1315E+03
      2.752  0.7045E+01  0.1326E+03
      2.903  0.9284E+01  0.1338E+03
      3.055  0.1293E+02  0.1354E+03
      3.207  0.1154E+02  0.1372E+03
      3.359  0.1446E+02  0.1393E+03
      3.511  0.1894E+02  0.1420E+03
      3.663  0.1826E+02  0.1449E+03
      3.815  0.1285E+02  0.1472E+03
      3.967  0.5265E+01  0.1487E+03
      4.119  0.9513E+00  0.1493E+03
      4.271  0.3198E+00  0.1494E+03
      4.423  0.3188E+00  0.1494E+03
      4.575  0.3178E+00  0.1495E+03
      4.727  0.3169E+00  0.1495E+03
      4.879  0.3159E+00  0.1496E+03
      5.031  0.3149E+00  0.1496E+03
      5.183  0.3139E+00  0.1497E+03
      5.335  0.3129E+00  0.1497E+03
      5.487  0.3119E+00  0.1498E+03
      5.639  0.3127E+00  0.1498E+03
      5.791  0.3185E+00  0.1499E+03
      5.943  0.9341E+00  0.1500E+03
      6.095  0.8256E+00  0.1501E+03
      6.247  0.7171E+00  0.1502E+03
      6.399  0.7073E+00  0.1503E+03
      6.551  0.7264E+00  0.1505E+03
      6.703  0.7455E+00  0.1506E+03
      6.855  0.7646E+00  0.1507E+03
      7.006  0.8928E+00  0.1508E+03
      7.158  0.8182E+00  0.1509E+03
      7.310  0.8167E+00  0.1511E+03
      7.462  0.1504E+01  0.1513E+03
      7.614  0.1437E+01  0.1515E+03
      7.766  0.1370E+01  0.1518E+03
      7.918  0.0000E+00  0.1520E+03
      8.070  0.0000E+00  0.1520E+03
      8.222  0.0000E+00  0.1520E+03
      8.374  0.0000E+00  0.1520E+03
      8.526  0.0000E+00  0.1520E+03
      8.678  0.0000E+00  0.1520E+03
      8.830  0.0000E+00  0.1520E+03
      8.982  0.0000E+00  0.1520E+03
      9.134  0.0000E+00  0.1520E+03
      9.286  0.0000E+00  0.1520E+03
      9.438  0.0000E+00  0.1520E+03
      9.590  0.0000E+00  0.1520E+03
      9.742  0.0000E+00  0.1520E+03
      9.894  0.0000E+00  0.1520E+03
