       N       E                     dE             d eps       ncg     rms          rms(c)
DAV:   1     0.159808100800E+04    0.15981E+04   -0.55921E+04  1528   0.153E+03
DAV:   2     0.178153680506E+03   -0.14199E+04   -0.13607E+04  1768   0.398E+02
DAV:   3    -0.174013306143E+03   -0.35217E+03   -0.33987E+03  2044   0.191E+02
DAV:   4    -0.200840851585E+03   -0.26828E+02   -0.26731E+02  1944   0.596E+01
DAV:   5    -0.202298726920E+03   -0.14579E+01   -0.14571E+01  2584   0.129E+01    0.371E+01
RMM:   6    -0.161846295672E+03    0.40452E+02   -0.29514E+02  1670   0.505E+01    0.147E+01
RMM:   7    -0.157755018478E+03    0.40913E+01   -0.15033E+01  1764   0.148E+01    0.727E+00
RMM:   8    -0.157019186515E+03    0.73583E+00   -0.30292E+00  2060   0.604E+00    0.366E+00
RMM:   9    -0.156766474343E+03    0.25271E+00   -0.14836E+00  2024   0.440E+00    0.102E+00
RMM:  10    -0.156715975069E+03    0.50499E-01   -0.24331E-01  2352   0.150E+00    0.692E-01
RMM:  11    -0.156687135315E+03    0.28840E-01   -0.17412E-01  2212   0.112E+00    0.399E-01
RMM:  12    -0.156673305731E+03    0.13830E-01   -0.59188E-02  2328   0.653E-01    0.355E-01
RMM:  13    -0.156665762321E+03    0.75434E-02   -0.19666E-02  2570   0.366E-01    0.235E-01
RMM:  14    -0.156661231960E+03    0.45304E-02   -0.35909E-02  2086   0.518E-01    0.235E-01
RMM:  15    -0.156660906655E+03    0.32530E-03   -0.12343E-02  2231   0.318E-01    0.108E-01
RMM:  16    -0.156662933544E+03   -0.20269E-02   -0.64289E-03  2208   0.222E-01    0.774E-02
RMM:  17    -0.156665036004E+03   -0.21025E-02   -0.21321E-03  2443   0.971E-02    0.753E-02
RMM:  18    -0.156665539713E+03   -0.50371E-03   -0.13211E-03  2148   0.974E-02    0.230E-02
RMM:  19    -0.156666136316E+03   -0.59660E-03   -0.43880E-04  1965   0.596E-02    0.179E-02
RMM:  20    -0.156666397579E+03   -0.26126E-03   -0.14553E-04  1816   0.326E-02    0.587E-03
RMM:  21    -0.156666461775E+03   -0.64196E-04   -0.57279E-05  1453   0.189E-02    0.558E-03
RMM:  22    -0.156666478358E+03   -0.16583E-04   -0.28892E-05  1347   0.147E-02    0.263E-03
RMM:  23    -0.156666484134E+03   -0.57761E-05   -0.14134E-05  1246   0.110E-02
   1 F= -.15666648E+03 E0= -.15666648E+03  d E =0.000000E+00
