 vasp.5.4.4.18Apr17-6-g9f103f2a35 (build Jun 30 2017 11:15:00) complex          
  
 executed on    STALLO_VASP_5.4.4 date 2019.11.08  10:20:48
 running on    4 total cores
 distrk:  each k-point on    4 cores,    1 groups
 distr:  one band on NCORES_PER_BAND=   2 cores,    2 groups


--------------------------------------------------------------------------------------------------------


 INCAR:
 POTCAR:   PAW_PBE O 08Apr2002                    
 POTCAR:   PAW_PBE Sr_sv 07Sep2000                
 POTCAR:   PAW_PBE Ti 08Apr2002                   
 POTCAR:   PAW_PBE O 08Apr2002                    
   VRHFIN =O: s2p4                                                              
   LEXCH  = PE                                                                  
   EATOM  =   432.3788 eV,   31.7789 Ry                                         
                                                                                
   TITEL  = PAW_PBE O 08Apr2002                                                 
   LULTRA =        F    use ultrasoft PP ?                                      
   IUNSCR =        0    unscreen: 0-lin 1-nonlin 2-no                           
   RPACOR =     .000    partial core radius                                     
   POMASS =   16.000; ZVAL   =    6.000    mass and valenz                      
   RCORE  =    1.520    outmost cutoff radius                                   
   RWIGS  =    1.550; RWIGS  =     .820    wigner-seitz radius (au A)           
   ENMAX  =  400.000; ENMIN  =  300.000 eV                                      
   ICORE  =        2    local potential                                         
   LCOR   =        T    correct aug charges                                     
   LPAW   =        T    paw PP                                                  
   EAUG   =  605.392                                                            
   DEXC   =     .000                                                            
   RMAX   =    2.264    core radius for proj-oper                               
   RAUG   =    1.300    factor for augmentation sphere                          
   RDEP   =    1.550    radius for radial grids                                 
   QCUT   =   -5.520; QGAM   =   11.041    optimization parameters              
                                                                                
   Description                                                                  
     l     E      TYP  RCUT    TYP  RCUT                                        
     0   .000     23  1.200                                                     
     0  -.700     23  1.200                                                     
     1   .000     23  1.520                                                     
     1   .600     23  1.520                                                     
     2   .000      7  1.500                                                     
  local pseudopotential read in
  atomic valenz-charges read in
  non local Contribution for L=           0  read in
    real space projection operators read in
  non local Contribution for L=           0  read in
    real space projection operators read in
  non local Contribution for L=           1  read in
    real space projection operators read in
  non local Contribution for L=           1  read in
    real space projection operators read in
    PAW grid and wavefunctions read in
 
   number of l-projection  operators is LMAX  =           4
   number of lm-projection operators is LMMAX =           8
 
 POTCAR:   PAW_PBE Sr_sv 07Sep2000                
   VRHFIN =Sr: 4s4p5s                                                           
   LEXCH  = PE                                                                  
   EATOM  =   842.4562 eV,   61.9188 Ry                                         
                                                                                
   TITEL  = PAW_PBE Sr_sv 07Sep2000                                             
   LULTRA =        F    use ultrasoft PP ?                                      
   IUNSCR =        1    unscreen: 0-lin 1-nonlin 2-no                           
   RPACOR =    2.200    partial core radius                                     
   POMASS =   87.620; ZVAL   =   10.000    mass and valenz                      
   RCORE  =    2.500    outmost cutoff radius                                   
   RWIGS  =    4.040; RWIGS  =    2.138    wigner-seitz radius (au A)           
   ENMAX  =  229.282; ENMIN  =  171.961 eV                                      
   RCLOC  =    2.201    cutoff for local pot                                    
   LCOR   =        T    correct aug charges                                     
   LPAW   =        T    paw PP                                                  
   EAUG   =  366.804                                                            
   DEXC   =     .000                                                            
   RMAX   =    3.045    core radius for proj-oper                               
   RAUG   =    1.300    factor for augmentation sphere                          
   RDEP   =    2.562    radius for radial grids                                 
   QCUT   =   -4.105; QGAM   =    8.210    optimization parameters              
                                                                                
   Description                                                                  
     l     E      TYP  RCUT    TYP  RCUT                                        
     0   .000     23  2.480                                                     
     0   .000     23  2.480                                                     
     1   .000     23  2.500                                                     
     1   .000     23  2.500                                                     
     2   .000     23  2.500                                                     
     2   .000     23  2.500                                                     
  local pseudopotential read in
  partial core-charges read in
  atomic valenz-charges read in
  non local Contribution for L=           0  read in
    real space projection operators read in
  non local Contribution for L=           0  read in
    real space projection operators read in
  non local Contribution for L=           1  read in
    real space projection operators read in
  non local Contribution for L=           1  read in
    real space projection operators read in
  non local Contribution for L=           2  read in
    real space projection operators read in
  non local Contribution for L=           2  read in
    real space projection operators read in
    PAW grid and wavefunctions read in
 
   number of l-projection  operators is LMAX  =           6
   number of lm-projection operators is LMMAX =          18
 
 POTCAR:   PAW_PBE Ti 08Apr2002                   
   VRHFIN =Ti: d3 s1                                                            
   LEXCH  = PE                                                                  
   EATOM  =    94.7929 eV,    6.9671 Ry                                         
                                                                                
   TITEL  = PAW_PBE Ti 08Apr2002                                                
   LULTRA =        F    use ultrasoft PP ?                                      
   IUNSCR =        1    unscreen: 0-lin 1-nonlin 2-no                           
   RPACOR =    2.200    partial core radius                                     
   POMASS =   47.880; ZVAL   =    4.000    mass and valenz                      
   RCORE  =    2.800    outmost cutoff radius                                   
   RWIGS  =    2.500; RWIGS  =    1.323    wigner-seitz radius (au A)           
   ENMAX  =  178.330; ENMIN  =  133.747 eV                                      
   RCLOC  =    2.215    cutoff for local pot                                    
   LCOR   =        T    correct aug charges                                     
   LPAW   =        T    paw PP                                                  
   EAUG   =  328.883                                                            
   DEXC   =    -.043                                                            
   RMAX   =    3.453    core radius for proj-oper                               
   RAUG   =    1.300    factor for augmentation sphere                          
   RDEP   =    2.885    radius for radial grids                                 
   QCUT   =   -3.620; QGAM   =    7.241    optimization parameters              
                                                                                
   Description                                                                  
     l     E      TYP  RCUT    TYP  RCUT                                        
     2   .000     23  2.800                                                     
     2   .000     23  2.800                                                     
     0   .000     23  2.800                                                     
     0  1.500     23  2.800                                                     
     1  -.400     23  2.800                                                     
     3   .000      7   .000                                                     
  local pseudopotential read in
  partial core-charges read in
  atomic valenz-charges read in
  non local Contribution for L=           2  read in
    real space projection operators read in
  non local Contribution for L=           2  read in
    real space projection operators read in
  non local Contribution for L=           0  read in
    real space projection operators read in
  non local Contribution for L=           0  read in
    real space projection operators read in
  non local Contribution for L=           1  read in
    real space projection operators read in
    PAW grid and wavefunctions read in
 
   number of l-projection  operators is LMAX  =           5
   number of lm-projection operators is LMMAX =          15
 

 ----------------------------------------------------------------------------- 
|                                                                             |
|  ADVICE TO THIS USER RUNNING 'VASP/VAMP'   (HEAR YOUR MASTER'S VOICE ...):  |
|                                                                             |
|      You have a (more or less) 'large supercell' and for larger cells       |
|      it might be more efficient to use real space projection operators      |
|      So try LREAL= Auto  in the INCAR   file.                               |
|      Mind: If you want to do a very accurate calculations keep the          |
|      reciprocal projection scheme          (i.e. LREAL=.FALSE.)             |
|                                                                             |
 ----------------------------------------------------------------------------- 

 PAW_PBE O 08Apr2002                    :
 energy of atom  1       EATOM= -432.3788
 kinetic energy error for atom=    0.0224 (will be added to EATOM!!)
 PAW_PBE Sr_sv 07Sep2000                :
 energy of atom  2       EATOM= -842.4562
 kinetic energy error for atom=    0.0012 (will be added to EATOM!!)
 PAW_PBE Ti 08Apr2002                   :
 energy of atom  3       EATOM=  -94.7929
 kinetic energy error for atom=    0.0002 (will be added to EATOM!!)
 
 
 POSCAR:  O Sr Ti                                
  positions in direct lattice
  No initial velocities read in
 exchange correlation table for  LEXCH =        8
   RHO(1)=    0.500       N(1)  =     2000
   RHO(2)=  100.500       N(2)  =     4000
 


--------------------------------------------------------------------------------------------------------


 ion  position               nearest neighbor table
   1  0.500  0.500  0.210-  17 1.97  13 2.79  13 2.79  13 2.79  13 2.79
   2  0.500  0.000  0.293-  17 1.97  17 1.97  13 2.79  14 2.79  13 2.79  14 2.79
   3  0.000  0.500  0.293-  17 1.97  17 1.97  13 2.79  13 2.79  14 2.79  14 2.79
   4  0.500  0.500  0.376-  17 1.97  18 1.97  14 2.79  14 2.79  14 2.79  14 2.79
   5  0.500  0.000  0.459-  18 1.97  18 1.97  14 2.79  15 2.79  14 2.79  15 2.79
   6  0.000  0.500  0.459-  18 1.97  18 1.97  14 2.79  14 2.79  15 2.79  15 2.79
   7  0.500  0.500  0.541-  18 1.97  19 1.97  15 2.79  15 2.79  15 2.79  15 2.79
   8  0.500  0.000  0.624-  19 1.97  19 1.97  15 2.79  16 2.79  15 2.79  16 2.79
   9  0.000  0.500  0.624-  19 1.97  19 1.97  15 2.79  15 2.79  16 2.79  16 2.79
  10  0.500  0.500  0.707-  19 1.97  20 1.97  16 2.79  16 2.79  16 2.79  16 2.79
  11  0.500  0.000  0.790-  20 1.97  20 1.97  16 2.79  16 2.79
  12  0.000  0.500  0.790-  20 1.97  20 1.97  16 2.79  16 2.79
  13  0.000  0.000  0.210-   1 2.79   1 2.79   1 2.79   1 2.79   3 2.79   3 2.79   2 2.79   2 2.79
                            17 3.42  17 3.42  17 3.42  17 3.42  14 3.95
  14  0.000  0.000  0.376-   4 2.79   4 2.79   4 2.79   4 2.79   6 2.79   3 2.79   3 2.79   6 2.79
                             2 2.79   2 2.79   5 2.79   5 2.79  18 3.42  17 3.42  17 3.42  17 3.42
  15  0.000  0.000  0.541-   7 2.79   7 2.79   7 2.79   7 2.79   9 2.79   6 2.79   6 2.79   9 2.79
                             5 2.79   5 2.79   8 2.79   8 2.79  19 3.42  18 3.42  18 3.42  18 3.42
  16  0.000  0.000  0.707-  10 2.79  10 2.79  10 2.79  10 2.79  12 2.79   9 2.79   9 2.79  12 2.79
                             8 2.79   8 2.79  11 2.79  11 2.79  20 3.42  19 3.42  19 3.42  19 3.42
  17  0.500  0.500  0.293-   2 1.97   3 1.97   2 1.97   3 1.97   1 1.97   4 1.97  13 3.42  13 3.42
                            14 3.42  14 3.42  13 3.42  14 3.42  13 3.42  14 3.42
  18  0.500  0.500  0.459-   5 1.97   6 1.97   5 1.97   6 1.97   4 1.97   7 1.97  14 3.42  14 3.42
                            15 3.42  15 3.42  14 3.42  15 3.42  14 3.42  15 3.42
  19  0.500  0.500  0.624-   8 1.97   9 1.97   8 1.97   9 1.97   7 1.97  10 1.97  15 3.42  15 3.42
                            16 3.42  16 3.42  15 3.42  16 3.42  15 3.42  16 3.42
  20  0.500  0.500  0.790-  11 1.97  12 1.97  11 1.97  12 1.97  10 1.97  16 3.42  16 3.42  16 3.42
                            16 3.42
 
  LATTYP: Found a simple tetragonal cell.
 ALAT       =     3.9468463416
 C/A-ratio  =     6.0336684366
  
  Lattice vectors:
  
 A1 = (   3.9468463416,   0.0000000000,   0.0000000000)
 A2 = (   0.0000000000,   3.9468463416,   0.0000000000)
 A3 = (   0.0000000000,   0.0000000000,  23.8139621957)


Analysis of symmetry for initial positions (statically):
=====================================================================
 Subroutine PRICEL returns:
 Original cell was already a primitive cell.
 

 Routine SETGRP: Setting up the symmetry group for a 
 simple tetragonal supercell.


 Subroutine GETGRP returns: Found  8 space group operations
 (whereof  8 operations were pure point group operations)
 out of a pool of 16 trial point group operations.


The static configuration has the point symmetry C_4v.


Analysis of symmetry for dynamics (positions and initial velocities):
=====================================================================
 Subroutine PRICEL returns:
 Original cell was already a primitive cell.
 

 Routine SETGRP: Setting up the symmetry group for a 
 simple tetragonal supercell.


 Subroutine GETGRP returns: Found  8 space group operations
 (whereof  8 operations were pure point group operations)
 out of a pool of 16 trial point group operations.


The dynamic configuration has the point symmetry C_4v.


 Subroutine INISYM returns: Found  8 space group operations
 (whereof  8 operations are pure point group operations),
 and found     1 'primitive' translations

 
 
 KPOINTS: k-density: 4.0                          

Automatic generation of k-mesh.
Space group operators:
 irot       det(A)        alpha          n_x          n_y          n_z        tau_x        tau_y        tau_z
    1     1.000000     0.000000     1.000000     0.000000     0.000000     0.000000     0.000000     0.000000
    2     1.000000    90.000000     0.000000     0.000000    -1.000000     0.000000     0.000000     0.000000
    3     1.000000   180.000000     0.000000     0.000000     1.000000     0.000000     0.000000     0.000000
    4     1.000000    90.000000     0.000000     0.000000     1.000000     0.000000     0.000000     0.000000
    5    -1.000000   180.000000     0.000000     1.000000     0.000000     0.000000     0.000000     0.000000
    6    -1.000000   180.000000     0.707107     0.707107     0.000000     0.000000     0.000000     0.000000
    7    -1.000000   180.000000     1.000000     0.000000     0.000000     0.000000     0.000000     0.000000
    8    -1.000000   180.000000     0.707107    -0.707107     0.000000     0.000000     0.000000     0.000000
 
 Subroutine IBZKPT returns following result:
 ===========================================
 
 Found     10 irreducible k-points:
 
 Following reciprocal coordinates:
            Coordinates               Weight
  0.000000  0.000000  0.000000      1.000000
  0.142857  0.000000  0.000000      4.000000
  0.285714  0.000000  0.000000      4.000000
  0.428571  0.000000  0.000000      4.000000
  0.142857  0.142857  0.000000      4.000000
  0.285714  0.142857  0.000000      8.000000
  0.428571  0.142857  0.000000      8.000000
  0.285714  0.285714  0.000000      4.000000
  0.428571  0.285714  0.000000      8.000000
  0.428571  0.428571  0.000000      4.000000
 
 Following cartesian coordinates:
            Coordinates               Weight
  0.000000  0.000000  0.000000      1.000000
  0.036195  0.000000  0.000000      4.000000
  0.072391  0.000000  0.000000      4.000000
  0.108586  0.000000  0.000000      4.000000
  0.036195  0.036195  0.000000      4.000000
  0.072391  0.036195  0.000000      8.000000
  0.108586  0.036195  0.000000      8.000000
  0.072391  0.072391  0.000000      4.000000
  0.108586  0.072391  0.000000      8.000000
  0.108586  0.108586  0.000000      4.000000
 
 TETIRR: Found     65 inequivalent tetrahedra from      294


--------------------------------------------------------------------------------------------------------




 Dimension of arrays:
   k-points           NKPTS =     10   k-points in BZ     NKDIM =     10   number of bands    NBANDS=     76
   number of dos      NEDOS =    301   number of ions     NIONS =     20
   non local maximal  LDIM  =      6   non local SUM 2l+1 LMDIM =     18
   total plane-waves  NPLWV =  80640
   max r-space proj   IRMAX =      1   max aug-charges    IRDMAX=  15211
   dimension x,y,z NGX =    24 NGY =   24 NGZ =  140
   dimension x,y,z NGXF=    48 NGYF=   48 NGZF=  280
   support grid    NGXF=    48 NGYF=   48 NGZF=  280
   ions per type =              12   4   4
   NGX,Y,Z   is equivalent  to a cutoff of  10.11, 10.11,  9.77 a.u.
   NGXF,Y,Z  is equivalent  to a cutoff of  20.22, 20.22, 19.55 a.u.

 SYSTEM =  unknown system                          
 POSCAR =   O Sr Ti                                

 Startparameter for this run:
   NWRITE =      2    write-flag & timer
   PREC   = normal    normal or accurate (medium, high low for compatibility)
   ISTART =      0    job   : 0-new  1-cont  2-samecut
   ICHARG =      2    charge: 1-file 2-atom 10-const
   ISPIN  =      1    spin polarized calculation?
   LNONCOLLINEAR =      F non collinear calculations
   LSORBIT =      F    spin-orbit coupling
   INIWAV =      1    electr: 0-lowe 1-rand  2-diag
   LASPH  =      F    aspherical Exc in radial PAW
   METAGGA=      F    non-selfconsistent MetaGGA calc.

 Electronic Relaxation 1
   ENCUT  =  500.0 eV  36.75 Ry    6.06 a.u.   7.20  7.20 43.42*2*pi/ulx,y,z
   ENINI  =  500.0     initial cutoff
   ENAUG  =  605.4 eV  augmentation charge cutoff
   NELM   =     60;   NELMIN=  4; NELMDL= -5     # of ELM steps 
   EDIFF  = 0.1E-04   stopping-criterion for ELM
   LREAL  =      F    real-space projection
   NLSPLINE    = F    spline interpolate recip. space projectors
   LCOMPAT=      F    compatible to vasp.4.4
   GGA_COMPAT  = T    GGA compatible to vasp.4.4-vasp.4.6
   LMAXPAW     = -100 max onsite density
   LMAXMIX     =    2 max onsite mixed and CHGCAR
   VOSKOWN=      0    Vosko Wilk Nusair interpolation
   ROPT   =    0.00000   0.00000   0.00000
 Ionic relaxation
   EDIFFG = 0.1E-03   stopping-criterion for IOM
   NSW    =      0    number of steps for IOM
   NBLOCK =      1;   KBLOCK =      1    inner block; outer block 
   IBRION =     -1    ionic relax: 0-MD 1-quasi-New 2-CG
   NFREE  =      0    steps in history (QN), initial steepest desc. (CG)
   ISIF   =      2    stress and relaxation
   IWAVPR =     10    prediction:  0-non 1-charg 2-wave 3-comb
   ISYM   =      2    0-nonsym 1-usesym 2-fastsym
   LCORR  =      T    Harris-Foulkes like correction to forces

   POTIM  = 0.5000    time-step for ionic-motion
   TEIN   =    0.0    initial temperature
   TEBEG  =    0.0;   TEEND  =   0.0 temperature during run
   SMASS  =  -3.00    Nose mass-parameter (am)
   estimated Nose-frequenzy (Omega)   =  0.10E-29 period in steps =****** mass=  -0.356E-27a.u.
   SCALEE = 1.0000    scale energy and forces
   NPACO  =    256;   APACO  = 16.0  distance and # of slots for P.C.
   PSTRESS=    0.0 pullay stress

  Mass of Ions in am
   POMASS =  16.00 87.62 47.88
  Ionic Valenz
   ZVAL   =   6.00 10.00  4.00
  Atomic Wigner-Seitz radii
   RWIGS  =  -1.00 -1.00 -1.00
  virtual crystal weights 
   VCA    =   1.00  1.00  1.00
   NELECT =     128.0000    total number of electrons
   NUPDOWN=      -1.0000    fix difference up-down

 DOS related values:
   EMIN   =  10.00;   EMAX   =-10.00  energy-range for DOS
   EFERMI =   0.00
   ISMEAR =    -5;   SIGMA  =   0.20  broadening in eV -4-tet -1-fermi 0-gaus

 Electronic relaxation 2 (details)
   IALGO  =     68    algorithm
   LDIAG  =      T    sub-space diagonalisation (order eigenvalues)
   LSUBROT=      F    optimize rotation matrix (better conditioning)
   TURBO    =      0    0=normal 1=particle mesh
   IRESTART =      0    0=no restart 2=restart with 2 vectors
   NREBOOT  =      0    no. of reboots
   NMIN     =      0    reboot dimension
   EREF     =   0.00    reference energy to select bands
   IMIX   =      4    mixing-type and parameters
     AMIX     =   0.40;   BMIX     =  1.00
     AMIX_MAG =   1.60;   BMIX_MAG =  1.00
     AMIN     =   0.10
     WC   =   100.;   INIMIX=   1;  MIXPRE=   1;  MAXMIX= -45

 Intra band minimization:
   WEIMIN = 0.0000     energy-eigenvalue tresh-hold
   EBREAK =  0.33E-07  absolut break condition
   DEPER  =   0.30     relativ break condition  

   TIME   =   0.40     timestep for ELM

  volume/ion in A,a.u.               =      18.55       125.17
  Fermi-wavevector in a.u.,A,eV,Ry     =   1.148244  2.169866 17.938790  1.318464
  Thomas-Fermi vector in A             =   2.284920
 
 Write flags
   LWAVE        =      F    write WAVECAR
   LDOWNSAMPLE  =      F    k-point downsampling of WAVECAR
   LCHARG       =      T    write CHGCAR
   LVTOT        =      F    write LOCPOT, total local potential
   LVHAR        =      F    write LOCPOT, Hartree potential only
   LELF         =      F    write electronic localiz. function (ELF)
   LORBIT       =      0    0 simple, 1 ext, 2 COOP (PROOUT), +10 PAW based schemes


 Dipole corrections
   LMONO  =      F    monopole corrections only (constant potential shift)
   LDIPOL =      F    correct potential (dipole corrections)
   IDIPOL =      0    1-x, 2-y, 3-z, 4-all directions 
   EPSILON=  1.0000000 bulk dielectric constant

 Exchange correlation treatment:
   GGA     =    --    GGA type
   LEXCH   =     8    internal setting for exchange type
   VOSKOWN=      0    Vosko Wilk Nusair interpolation
   LHFCALC =     F    Hartree Fock is set to
   LHFONE  =     F    Hartree Fock one center treatment
   AEXX    =    0.0000 exact exchange contribution

 Linear response parameters
   LEPSILON=     F    determine dielectric tensor
   LRPA    =     F    only Hartree local field effects (RPA)
   LNABLA  =     F    use nabla operator in PAW spheres
   LVEL    =     F    velocity operator in full k-point grid
   LINTERFAST=   F  fast interpolation
   KINTER  =     0    interpolate to denser k-point grid
   CSHIFT  =0.1000    complex shift for real part using Kramers Kronig
   OMEGAMAX=  -1.0    maximum frequency
   DEG_THRESHOLD= 0.2000000E-02 threshold for treating states as degnerate
   RTIME   =   -0.100 relaxation time in fs
  (WPLASMAI=    0.000 imaginary part of plasma frequency in eV, 0.658/RTIME)
   DFIELD  = 0.0000000 0.0000000 0.0000000 field for delta impulse in time
 
 Orbital magnetization related:
   ORBITALMAG=     F  switch on orbital magnetization
   LCHIMAG   =     F  perturbation theory with respect to B field
   DQ        =  0.001000  dq finite difference perturbation B field
   LLRAUG    =     F  two centre corrections for induced B field



--------------------------------------------------------------------------------------------------------


 Static calculation
 charge density and potential will be updated during run
 non-spin polarized calculation
 RMM-DIIS sequential band-by-band and
  variant of blocked Davidson during initial phase
 perform sub-space diagonalisation
    before iterative eigenvector-optimisation
 modified Broyden-mixing scheme, WC =      100.0
 initial mixing is a Kerker type mixing with AMIX =  0.4000 and BMIX =      1.0000
 Hartree-type preconditioning will be used
 using additional bands           12
 reciprocal scheme for non local part
 use partial core corrections
 calculate Harris-corrections to forces 
   (improved forces if not selfconsistent)
 use gradient corrections 
 use of overlap-Matrix (Vanderbilt PP)
 Fermi weights with tetrahedron method with Bloechl corrections


--------------------------------------------------------------------------------------------------------


  energy-cutoff  :      500.00
  volume of cell :      370.96
      direct lattice vectors                 reciprocal lattice vectors
     3.946846342  0.000000000  0.000000000     0.253366844  0.000000000  0.000000000
     0.000000000  3.946846342  0.000000000     0.000000000  0.253366844  0.000000000
     0.000000000  0.000000000 23.813962196     0.000000000  0.000000000  0.041992172

  length of vectors
     3.946846342  3.946846342 23.813962196     0.253366844  0.253366844  0.041992172


 
 k-points in units of 2pi/SCALE and weight: k-density: 4.0                          
   0.00000000  0.00000000  0.00000000       0.020
   0.03619526  0.00000000  0.00000000       0.082
   0.07239053  0.00000000  0.00000000       0.082
   0.10858579  0.00000000  0.00000000       0.082
   0.03619526  0.03619526  0.00000000       0.082
   0.07239053  0.03619526  0.00000000       0.163
   0.10858579  0.03619526  0.00000000       0.163
   0.07239053  0.07239053  0.00000000       0.082
   0.10858579  0.07239053  0.00000000       0.163
   0.10858579  0.10858579  0.00000000       0.082
 
 k-points in reciprocal lattice and weights: k-density: 4.0                          
   0.00000000  0.00000000  0.00000000       0.020
   0.14285714  0.00000000  0.00000000       0.082
   0.28571429  0.00000000  0.00000000       0.082
   0.42857143  0.00000000  0.00000000       0.082
   0.14285714  0.14285714  0.00000000       0.082
   0.28571429  0.14285714  0.00000000       0.163
   0.42857143  0.14285714  0.00000000       0.163
   0.28571429  0.28571429  0.00000000       0.082
   0.42857143  0.28571429  0.00000000       0.163
   0.42857143  0.42857143  0.00000000       0.082
 
 position of ions in fractional coordinates (direct lattice) 
   0.50000000  0.50000000  0.20996086
   0.50000000  0.00000000  0.29282919
   0.00000000  0.50000000  0.29282919
   0.50000000  0.50000000  0.37569751
   0.50000000  0.00000000  0.45856584
   0.00000000  0.50000000  0.45856584
   0.50000000  0.50000000  0.54143416
   0.50000000  0.00000000  0.62430249
   0.00000000  0.50000000  0.62430249
   0.50000000  0.50000000  0.70717081
   0.50000000  0.00000000  0.79003914
   0.00000000  0.50000000  0.79003914
   0.00000000  0.00000000  0.20996086
   0.00000000  0.00000000  0.37569751
   0.00000000  0.00000000  0.54143416
   0.00000000  0.00000000  0.70717081
   0.50000000  0.50000000  0.29282919
   0.50000000  0.50000000  0.45856584
   0.50000000  0.50000000  0.62430249
   0.50000000  0.50000000  0.79003914
 
 position of ions in cartesian coordinates  (Angst):
   1.97342317  1.97342317  5.00000000
   1.97342317  0.00000000  6.97342317
   0.00000000  1.97342317  6.97342317
   1.97342317  1.97342317  8.94684634
   1.97342317  0.00000000 10.92026951
   0.00000000  1.97342317 10.92026951
   1.97342317  1.97342317 12.89369268
   1.97342317  0.00000000 14.86711585
   0.00000000  1.97342317 14.86711585
   1.97342317  1.97342317 16.84053902
   1.97342317  0.00000000 18.81396220
   0.00000000  1.97342317 18.81396220
   0.00000000  0.00000000  5.00000000
   0.00000000  0.00000000  8.94684634
   0.00000000  0.00000000 12.89369268
   0.00000000  0.00000000 16.84053902
   1.97342317  1.97342317  6.97342317
   1.97342317  1.97342317 10.92026951
   1.97342317  1.97342317 14.86711585
   1.97342317  1.97342317 18.81396220
 


--------------------------------------------------------------------------------------------------------


 k-point  1 :   0.0000 0.0000 0.0000  plane waves:    9383
 k-point  2 :   0.1429 0.0000 0.0000  plane waves:    9405
 k-point  3 :   0.2857 0.0000 0.0000  plane waves:    9420
 k-point  4 :   0.4286 0.0000 0.0000  plane waves:    9446
 k-point  5 :   0.1429 0.1429 0.0000  plane waves:    9410
 k-point  6 :   0.2857 0.1429 0.0000  plane waves:    9419
 k-point  7 :   0.4286 0.1429 0.0000  plane waves:    9423
 k-point  8 :   0.2857 0.2857 0.0000  plane waves:    9430
 k-point  9 :   0.4286 0.2857 0.0000  plane waves:    9428
 k-point 10 :   0.4286 0.4286 0.0000  plane waves:    9448

 maximum and minimum number of plane-waves per node :      4746     4677

 maximum number of plane-waves:      9448
 maximum index in each direction: 
   IXMAX=    7   IYMAX=    7   IZMAX=   43
   IXMIN=   -7   IYMIN=   -7   IZMIN=  -43


 parallel 3D FFT for wavefunctions:
    minimum data exchange during FFTs selected (reduces bandwidth)
 parallel 3D FFT for charge:
    minimum data exchange during FFTs selected (reduces bandwidth)


 total amount of memory used by VASP MPI-rank0   100145. kBytes
=======================================================================

   base      :      30000. kBytes
   nonl-proj :      21919. kBytes
   fftplans  :       6662. kBytes
   grid      :      11994. kBytes
   one-center:        155. kBytes
   wavefun   :      29415. kBytes
 
     INWAV:  cpu time    0.0000: real time    0.0000
 Broyden mixing: mesh for mixing (old mesh)
   NGX = 15   NGY = 15   NGZ = 87
  (NGX  = 48   NGY  = 48   NGZ  =280)
  gives a total of  19575 points

 initial charge density was supplied:
 charge density of overlapping atoms calculated
 number of electron     128.0000000 magnetization 
 keeping initial charge density in first step


--------------------------------------------------------------------------------------------------------


 Maximum index for augmentation-charges         3655 (set IRDMAX)


--------------------------------------------------------------------------------------------------------


 First call to EWALD:  gamma=   0.247
 Maximum number of real-space cells 5x 5x 1
 Maximum number of reciprocal cells 2x 2x 8

    FEWALD:  cpu time    0.0020: real time    0.0020


--------------------------------------- Iteration      1(   1)  ---------------------------------------


    POTLOK:  cpu time    0.1130: real time    0.1350
    SETDIJ:  cpu time    0.0120: real time    0.0123
     EDDAV:  cpu time    5.1162: real time    5.1160
 BZINTS: Fermi energy: 16.094916;128.000000 electrons
         Band energy: 221.162390;  BLOECHL correction: -0.029811
       DOS:  cpu time    0.0070: real time    0.0072
    --------------------------------------------
      LOOP:  cpu time    5.2482: real time    5.2704

 eigenvalue-minimisations  :  1528
 total energy-change (2. order) : 0.1598081E+04  (-0.5592097E+04)
 number of electron     128.0000000 magnetization 
 augmentation part      128.0000000 magnetization 

 Free energy of the ion-electron system (eV)
  ---------------------------------------------------
  alpha Z        PSCENC =       476.26625303
  Ewald energy   TEWEN  =     14479.18975078
  -Hartree energ DENC   =    -23036.64632708
  -exchange      EXHF   =         0.00000000
  -V(xc)+E(xc)   XCENC  =       325.52664349
  PAW double counting   =      5334.45189010    -5139.13784255
  entropy T*S    EENTRO =         0.00000000
  eigenvalues    EBANDS =       221.16239005
  atomic energy  EATOM  =      8937.26825017
  Solvation  Ediel_sol  =         0.00000000
  ---------------------------------------------------
  free energy    TOTEN  =      1598.08100800 eV

  energy without entropy =     1598.08100800  energy(sigma->0) =     1598.08100800


--------------------------------------------------------------------------------------------------------




--------------------------------------- Iteration      1(   2)  ---------------------------------------


     EDDAV:  cpu time    5.7331: real time    5.7315
 BZINTS: Fermi energy:  5.589930;128.000000 electrons
         Band energy:***********;  BLOECHL correction: -0.221839
       DOS:  cpu time    0.0070: real time    0.0071
    --------------------------------------------
      LOOP:  cpu time    5.7401: real time    5.7387

 eigenvalue-minimisations  :  1768
 total energy-change (2. order) :-0.1419927E+04  (-0.1360656E+04)
 number of electron     128.0000000 magnetization 
 augmentation part      128.0000000 magnetization 

 Free energy of the ion-electron system (eV)
  ---------------------------------------------------
  alpha Z        PSCENC =       476.26625303
  Ewald energy   TEWEN  =     14479.18975078
  -Hartree energ DENC   =    -23036.64632708
  -exchange      EXHF   =         0.00000000
  -V(xc)+E(xc)   XCENC  =       325.52664349
  PAW double counting   =      5334.45189010    -5139.13784255
  entropy T*S    EENTRO =         0.00000000
  eigenvalues    EBANDS =     -1198.76493745
  atomic energy  EATOM  =      8937.26825017
  Solvation  Ediel_sol  =         0.00000000
  ---------------------------------------------------
  free energy    TOTEN  =       178.15368051 eV

  energy without entropy =      178.15368051  energy(sigma->0) =      178.15368051


--------------------------------------------------------------------------------------------------------




--------------------------------------- Iteration      1(   3)  ---------------------------------------


     EDDAV:  cpu time    6.4310: real time    6.4303
 BZINTS: Fermi energy: -1.000533;128.000000 electrons
         Band energy:***********;  BLOECHL correction:  0.000000
       DOS:  cpu time    0.0020: real time    0.0020
    --------------------------------------------
      LOOP:  cpu time    6.4330: real time    6.4323

 eigenvalue-minimisations  :  2044
 total energy-change (2. order) :-0.3521670E+03  (-0.3398709E+03)
 number of electron     128.0000000 magnetization 
 augmentation part      128.0000000 magnetization 

 Free energy of the ion-electron system (eV)
  ---------------------------------------------------
  alpha Z        PSCENC =       476.26625303
  Ewald energy   TEWEN  =     14479.18975078
  -Hartree energ DENC   =    -23036.64632708
  -exchange      EXHF   =         0.00000000
  -V(xc)+E(xc)   XCENC  =       325.52664349
  PAW double counting   =      5334.45189010    -5139.13784255
  entropy T*S    EENTRO =         0.00000000
  eigenvalues    EBANDS =     -1550.93192410
  atomic energy  EATOM  =      8937.26825017
  Solvation  Ediel_sol  =         0.00000000
  ---------------------------------------------------
  free energy    TOTEN  =      -174.01330614 eV

  energy without entropy =     -174.01330614  energy(sigma->0) =     -174.01330614


--------------------------------------------------------------------------------------------------------




--------------------------------------- Iteration      1(   4)  ---------------------------------------


     EDDAV:  cpu time    6.1841: real time    6.1836
 BZINTS: Fermi energy: -3.687725;128.000000 electrons
         Band energy:***********;  BLOECHL correction:  0.000000
       DOS:  cpu time    0.0010: real time    0.0012
    --------------------------------------------
      LOOP:  cpu time    6.1851: real time    6.1848

 eigenvalue-minimisations  :  1944
 total energy-change (2. order) :-0.2682755E+02  (-0.2673103E+02)
 number of electron     128.0000000 magnetization 
 augmentation part      128.0000000 magnetization 

 Free energy of the ion-electron system (eV)
  ---------------------------------------------------
  alpha Z        PSCENC =       476.26625303
  Ewald energy   TEWEN  =     14479.18975078
  -Hartree energ DENC   =    -23036.64632708
  -exchange      EXHF   =         0.00000000
  -V(xc)+E(xc)   XCENC  =       325.52664349
  PAW double counting   =      5334.45189010    -5139.13784255
  entropy T*S    EENTRO =         0.00000000
  eigenvalues    EBANDS =     -1577.75946954
  atomic energy  EATOM  =      8937.26825017
  Solvation  Ediel_sol  =         0.00000000
  ---------------------------------------------------
  free energy    TOTEN  =      -200.84085159 eV

  energy without entropy =     -200.84085159  energy(sigma->0) =     -200.84085159


--------------------------------------------------------------------------------------------------------




--------------------------------------- Iteration      1(   5)  ---------------------------------------


     EDDAV:  cpu time    7.7258: real time    7.7242
 BZINTS: Fermi energy: -3.618769;128.000000 electrons
         Band energy:***********;  BLOECHL correction:  0.000000
       DOS:  cpu time    0.0010: real time    0.0014
    CHARGE:  cpu time    0.1990: real time    0.1996
    MIXING:  cpu time    0.0040: real time    0.0028
    --------------------------------------------
      LOOP:  cpu time    7.9298: real time    7.9280

 eigenvalue-minimisations  :  2584
 total energy-change (2. order) :-0.1457875E+01  (-0.1457059E+01)
 number of electron     127.9999742 magnetization 
 augmentation part       13.6010546 magnetization 

 Broyden mixing:
  rms(total) = 0.37083E+01    rms(broyden)= 0.37078E+01
  rms(prec ) = 0.40024E+01
  weight for this iteration     100.00

 Free energy of the ion-electron system (eV)
  ---------------------------------------------------
  alpha Z        PSCENC =       476.26625303
  Ewald energy   TEWEN  =     14479.18975078
  -Hartree energ DENC   =    -23036.64632708
  -exchange      EXHF   =         0.00000000
  -V(xc)+E(xc)   XCENC  =       325.52664349
  PAW double counting   =      5334.45189010    -5139.13784255
  entropy T*S    EENTRO =         0.00000000
  eigenvalues    EBANDS =     -1579.21734487
  atomic energy  EATOM  =      8937.26825017
  Solvation  Ediel_sol  =         0.00000000
  ---------------------------------------------------
  free energy    TOTEN  =      -202.29872692 eV

  energy without entropy =     -202.29872692  energy(sigma->0) =     -202.29872692


--------------------------------------------------------------------------------------------------------




--------------------------------------- Iteration      1(   6)  ---------------------------------------


    POTLOK:  cpu time    0.1100: real time    0.1131
    SETDIJ:  cpu time    0.0130: real time    0.0131
    EDDIAG:  cpu time    0.6059: real time    0.6060
  RMM-DIIS:  cpu time    3.9444: real time    3.9429
    ORTHCH:  cpu time    0.1120: real time    0.1125
 BZINTS: Fermi energy:  0.398836;128.000000 electrons
         Band energy:***********;  BLOECHL correction: -0.058062
       DOS:  cpu time    0.0080: real time    0.0071
    CHARGE:  cpu time    0.2020: real time    0.2029
    MIXING:  cpu time    0.0030: real time    0.0029
    --------------------------------------------
      LOOP:  cpu time    4.9982: real time    5.0004

 eigenvalue-minimisations  :  1670
 total energy-change (2. order) : 0.4045243E+02  (-0.2951441E+02)
 number of electron     127.9999829 magnetization 
 augmentation part       14.2891367 magnetization 

 Broyden mixing:
  rms(total) = 0.14668E+01    rms(broyden)= 0.14657E+01
  rms(prec ) = 0.15567E+01
  weight for this iteration     100.00

 eigenvalues of (default mixing * dielectric matrix)
  average eigenvalue GAMMA=   0.7508
  0.7508

 Free energy of the ion-electron system (eV)
  ---------------------------------------------------
  alpha Z        PSCENC =       476.26625303
  Ewald energy   TEWEN  =     14479.18975078
  -Hartree energ DENC   =    -23311.15855643
  -exchange      EXHF   =         0.00000000
  -V(xc)+E(xc)   XCENC  =       345.41169681
  PAW double counting   =      5936.94613821    -5754.50629792
  entropy T*S    EENTRO =         0.00000000
  eigenvalues    EBANDS =     -1271.26353033
  atomic energy  EATOM  =      8937.26825017
  Solvation  Ediel_sol  =         0.00000000
  ---------------------------------------------------
  free energy    TOTEN  =      -161.84629567 eV

  energy without entropy =     -161.84629567  energy(sigma->0) =     -161.84629567


--------------------------------------------------------------------------------------------------------




--------------------------------------- Iteration      1(   7)  ---------------------------------------


    POTLOK:  cpu time    0.1090: real time    0.1109
    SETDIJ:  cpu time    0.0130: real time    0.0130
    EDDIAG:  cpu time    0.6029: real time    0.6027
  RMM-DIIS:  cpu time    4.2684: real time    4.2675
    ORTHCH:  cpu time    0.1110: real time    0.1108
 BZINTS: Fermi energy: -0.435648;128.000000 electrons
         Band energy:***********;  BLOECHL correction:  0.000000
       DOS:  cpu time    0.0010: real time    0.0014
    CHARGE:  cpu time    0.1950: real time    0.1949
    MIXING:  cpu time    0.0030: real time    0.0029
    --------------------------------------------
      LOOP:  cpu time    5.3032: real time    5.3041

 eigenvalue-minimisations  :  1764
 total energy-change (2. order) : 0.4091277E+01  (-0.1503293E+01)
 number of electron     127.9999814 magnetization 
 augmentation part       13.4659540 magnetization 

 Broyden mixing:
  rms(total) = 0.72651E+00    rms(broyden)= 0.72644E+00
  rms(prec ) = 0.76324E+00
  weight for this iteration     100.00

 eigenvalues of (default mixing * dielectric matrix)
  average eigenvalue GAMMA=   0.9415
  0.9415  0.9415

 Free energy of the ion-electron system (eV)
  ---------------------------------------------------
  alpha Z        PSCENC =       476.26625303
  Ewald energy   TEWEN  =     14479.18975078
  -Hartree energ DENC   =    -23305.94237562
  -exchange      EXHF   =         0.00000000
  -V(xc)+E(xc)   XCENC  =       341.30255435
  PAW double counting   =      5939.99831399    -5762.29440169
  entropy T*S    EENTRO =         0.00000000
  eigenvalues    EBANDS =     -1263.54336349
  atomic energy  EATOM  =      8937.26825017
  Solvation  Ediel_sol  =         0.00000000
  ---------------------------------------------------
  free energy    TOTEN  =      -157.75501848 eV

  energy without entropy =     -157.75501848  energy(sigma->0) =     -157.75501848


--------------------------------------------------------------------------------------------------------




--------------------------------------- Iteration      1(   8)  ---------------------------------------


    POTLOK:  cpu time    0.1020: real time    0.1050
    SETDIJ:  cpu time    0.0140: real time    0.0131
    EDDIAG:  cpu time    0.6039: real time    0.6044
  RMM-DIIS:  cpu time    4.9223: real time    4.9200
    ORTHCH:  cpu time    0.1110: real time    0.1113
 BZINTS: Fermi energy: -0.365292;128.000000 electrons
         Band energy:***********;  BLOECHL correction:  0.000000
       DOS:  cpu time    0.0010: real time    0.0015
    CHARGE:  cpu time    0.1990: real time    0.1992
    MIXING:  cpu time    0.0040: real time    0.0033
    --------------------------------------------
      LOOP:  cpu time    5.9571: real time    5.9580

 eigenvalue-minimisations  :  2060
 total energy-change (2. order) : 0.7358320E+00  (-0.3029151E+00)
 number of electron     127.9999814 magnetization 
 augmentation part       13.6850613 magnetization 

 Broyden mixing:
  rms(total) = 0.36638E+00    rms(broyden)= 0.36635E+00
  rms(prec ) = 0.38967E+00
  weight for this iteration     100.00

 eigenvalues of (default mixing * dielectric matrix)
  average eigenvalue GAMMA=   1.2526
  2.1443  0.9284  0.6852

 Free energy of the ion-electron system (eV)
  ---------------------------------------------------
  alpha Z        PSCENC =       476.26625303
  Ewald energy   TEWEN  =     14479.18975078
  -Hartree energ DENC   =    -23315.87763832
  -exchange      EXHF   =         0.00000000
  -V(xc)+E(xc)   XCENC  =       341.16836791
  PAW double counting   =      6014.12891286    -5839.97060561
  entropy T*S    EENTRO =         0.00000000
  eigenvalues    EBANDS =     -1249.19247735
  atomic energy  EATOM  =      8937.26825017
  Solvation  Ediel_sol  =         0.00000000
  ---------------------------------------------------
  free energy    TOTEN  =      -157.01918652 eV

  energy without entropy =     -157.01918652  energy(sigma->0) =     -157.01918652


--------------------------------------------------------------------------------------------------------




--------------------------------------- Iteration      1(   9)  ---------------------------------------


    POTLOK:  cpu time    0.1090: real time    0.1113
    SETDIJ:  cpu time    0.0130: real time    0.0131
    EDDIAG:  cpu time    0.6029: real time    0.6026
  RMM-DIIS:  cpu time    4.8063: real time    4.8048
    ORTHCH:  cpu time    0.1140: real time    0.1143
 BZINTS: Fermi energy:  0.037944;128.000000 electrons
         Band energy:***********;  BLOECHL correction:  0.000000
       DOS:  cpu time    0.0010: real time    0.0012
    CHARGE:  cpu time    0.1980: real time    0.1987
    MIXING:  cpu time    0.0040: real time    0.0034
    --------------------------------------------
      LOOP:  cpu time    5.8481: real time    5.8493

 eigenvalue-minimisations  :  2024
 total energy-change (2. order) : 0.2527122E+00  (-0.1483614E+00)
 number of electron     127.9999812 magnetization 
 augmentation part       13.7583521 magnetization 

 Broyden mixing:
  rms(total) = 0.10151E+00    rms(broyden)= 0.10143E+00
  rms(prec ) = 0.12607E+00
  weight for this iteration     100.00

 eigenvalues of (default mixing * dielectric matrix)
  average eigenvalue GAMMA=   1.1802
  2.2661  0.8626  0.8626  0.7296

 Free energy of the ion-electron system (eV)
  ---------------------------------------------------
  alpha Z        PSCENC =       476.26625303
  Ewald energy   TEWEN  =     14479.18975078
  -Hartree energ DENC   =    -23332.68995071
  -exchange      EXHF   =         0.00000000
  -V(xc)+E(xc)   XCENC  =       340.78678175
  PAW double counting   =      6109.48436642    -5939.38682633
  entropy T*S    EENTRO =         0.00000000
  eigenvalues    EBANDS =     -1227.68509946
  atomic energy  EATOM  =      8937.26825017
  Solvation  Ediel_sol  =         0.00000000
  ---------------------------------------------------
  free energy    TOTEN  =      -156.76647434 eV

  energy without entropy =     -156.76647434  energy(sigma->0) =     -156.76647434


--------------------------------------------------------------------------------------------------------




--------------------------------------- Iteration      1(  10)  ---------------------------------------


    POTLOK:  cpu time    0.1100: real time    0.1118
    SETDIJ:  cpu time    0.0120: real time    0.0129
    EDDIAG:  cpu time    0.6049: real time    0.6048
  RMM-DIIS:  cpu time    5.5282: real time    5.5272
    ORTHCH:  cpu time    0.1160: real time    0.1150
 BZINTS: Fermi energy:  0.176816;128.000000 electrons
         Band energy:***********;  BLOECHL correction:  0.000000
       DOS:  cpu time    0.0010: real time    0.0014
    CHARGE:  cpu time    0.1980: real time    0.1984
    MIXING:  cpu time    0.0040: real time    0.0035
    --------------------------------------------
      LOOP:  cpu time    6.5740: real time    6.5751

 eigenvalue-minimisations  :  2352
 total energy-change (2. order) : 0.5049927E-01  (-0.2433138E-01)
 number of electron     127.9999812 magnetization 
 augmentation part       13.7103224 magnetization 

 Broyden mixing:
  rms(total) = 0.69159E-01    rms(broyden)= 0.69149E-01
  rms(prec ) = 0.87645E-01
  weight for this iteration     100.00

 eigenvalues of (default mixing * dielectric matrix)
  average eigenvalue GAMMA=   1.2029
  2.2298  1.2014  1.2014  0.6911  0.6911

 Free energy of the ion-electron system (eV)
  ---------------------------------------------------
  alpha Z        PSCENC =       476.26625303
  Ewald energy   TEWEN  =     14479.18975078
  -Hartree energ DENC   =    -23349.45017473
  -exchange      EXHF   =         0.00000000
  -V(xc)+E(xc)   XCENC  =       341.07944054
  PAW double counting   =      6134.02308322    -5964.60907165
  entropy T*S    EENTRO =         0.00000000
  eigenvalues    EBANDS =     -1210.48350643
  atomic energy  EATOM  =      8937.26825017
  Solvation  Ediel_sol  =         0.00000000
  ---------------------------------------------------
  free energy    TOTEN  =      -156.71597507 eV

  energy without entropy =     -156.71597507  energy(sigma->0) =     -156.71597507


--------------------------------------------------------------------------------------------------------




--------------------------------------- Iteration      1(  11)  ---------------------------------------


    POTLOK:  cpu time    0.1090: real time    0.1108
    SETDIJ:  cpu time    0.0140: real time    0.0130
    EDDIAG:  cpu time    0.5939: real time    0.5949
  RMM-DIIS:  cpu time    5.0792: real time    5.0772
    ORTHCH:  cpu time    0.1070: real time    0.1080
 BZINTS: Fermi energy:  0.303148;128.000000 electrons
         Band energy:***********;  BLOECHL correction:  0.000000
       DOS:  cpu time    0.0010: real time    0.0014
    CHARGE:  cpu time    0.1930: real time    0.1919
    MIXING:  cpu time    0.0030: real time    0.0033
    --------------------------------------------
      LOOP:  cpu time    6.1001: real time    6.1005

 eigenvalue-minimisations  :  2212
 total energy-change (2. order) : 0.2883975E-01  (-0.1741202E-01)
 number of electron     127.9999812 magnetization 
 augmentation part       13.6331407 magnetization 

 Broyden mixing:
  rms(total) = 0.39930E-01    rms(broyden)= 0.39914E-01
  rms(prec ) = 0.55604E-01
  weight for this iteration     100.00

 eigenvalues of (default mixing * dielectric matrix)
  average eigenvalue GAMMA=   1.2873
  2.2482  2.2482  0.9188  0.9188  0.7540  0.6359

 Free energy of the ion-electron system (eV)
  ---------------------------------------------------
  alpha Z        PSCENC =       476.26625303
  Ewald energy   TEWEN  =     14479.18975078
  -Hartree energ DENC   =    -23367.39367844
  -exchange      EXHF   =         0.00000000
  -V(xc)+E(xc)   XCENC  =       341.44205119
  PAW double counting   =      6148.96204997    -5979.65217116
  entropy T*S    EENTRO =         0.00000000
  eigenvalues    EBANDS =     -1192.76964087
  atomic energy  EATOM  =      8937.26825017
  Solvation  Ediel_sol  =         0.00000000
  ---------------------------------------------------
  free energy    TOTEN  =      -156.68713531 eV

  energy without entropy =     -156.68713531  energy(sigma->0) =     -156.68713531


--------------------------------------------------------------------------------------------------------




--------------------------------------- Iteration      1(  12)  ---------------------------------------


    POTLOK:  cpu time    0.0960: real time    0.0988
    SETDIJ:  cpu time    0.0120: real time    0.0124
    EDDIAG:  cpu time    0.5719: real time    0.5714
  RMM-DIIS:  cpu time    5.1142: real time    5.1124
    ORTHCH:  cpu time    0.1060: real time    0.1070
 BZINTS: Fermi energy:  0.458506;128.000000 electrons
         Band energy:***********;  BLOECHL correction:  0.000000
       DOS:  cpu time    0.0010: real time    0.0012
    CHARGE:  cpu time    0.1950: real time    0.1943
    MIXING:  cpu time    0.0040: real time    0.0035
    --------------------------------------------
      LOOP:  cpu time    6.1001: real time    6.1010

 eigenvalue-minimisations  :  2328
 total energy-change (2. order) : 0.1382958E-01  (-0.5918798E-02)
 number of electron     127.9999812 magnetization 
 augmentation part       13.5880962 magnetization 

 Broyden mixing:
  rms(total) = 0.35479E-01    rms(broyden)= 0.35473E-01
  rms(prec ) = 0.45883E-01
  weight for this iteration     100.00

 eigenvalues of (default mixing * dielectric matrix)
  average eigenvalue GAMMA=   1.2187
  2.3086  2.3086  0.9368  0.9368  0.7813  0.6295  0.6295

 Free energy of the ion-electron system (eV)
  ---------------------------------------------------
  alpha Z        PSCENC =       476.26625303
  Ewald energy   TEWEN  =     14479.18975078
  -Hartree energ DENC   =    -23378.86589728
  -exchange      EXHF   =         0.00000000
  -V(xc)+E(xc)   XCENC  =       341.56112715
  PAW double counting   =      6150.21725447    -5980.58401284
  entropy T*S    EENTRO =         0.00000000
  eigenvalues    EBANDS =     -1181.72603121
  atomic energy  EATOM  =      8937.26825017
  Solvation  Ediel_sol  =         0.00000000
  ---------------------------------------------------
  free energy    TOTEN  =      -156.67330573 eV

  energy without entropy =     -156.67330573  energy(sigma->0) =     -156.67330573


--------------------------------------------------------------------------------------------------------




--------------------------------------- Iteration      1(  13)  ---------------------------------------


    POTLOK:  cpu time    0.0930: real time    0.0943
    SETDIJ:  cpu time    0.0130: real time    0.0123
    EDDIAG:  cpu time    0.5609: real time    0.5613
  RMM-DIIS:  cpu time    5.3002: real time    5.2990
    ORTHCH:  cpu time    0.1060: real time    0.1067
 BZINTS: Fermi energy:  0.628178;128.000000 electrons
         Band energy:***********;  BLOECHL correction:  0.000000
       DOS:  cpu time    0.0010: real time    0.0013
    CHARGE:  cpu time    0.1910: real time    0.1906
    MIXING:  cpu time    0.0040: real time    0.0036
    --------------------------------------------
      LOOP:  cpu time    6.2690: real time    6.2690

 eigenvalue-minimisations  :  2570
 total energy-change (2. order) : 0.7543410E-02  (-0.1966628E-02)
 number of electron     127.9999812 magnetization 
 augmentation part       13.6010959 magnetization 

 Broyden mixing:
  rms(total) = 0.23530E-01    rms(broyden)= 0.23528E-01
  rms(prec ) = 0.32636E-01
  weight for this iteration     100.00

 eigenvalues of (default mixing * dielectric matrix)
  average eigenvalue GAMMA=   1.4179
  2.8679  2.8679  1.2509  1.2509  0.8898  0.8898  0.6844  0.6417

 Free energy of the ion-electron system (eV)
  ---------------------------------------------------
  alpha Z        PSCENC =       476.26625303
  Ewald energy   TEWEN  =     14479.18975078
  -Hartree energ DENC   =    -23383.49603500
  -exchange      EXHF   =         0.00000000
  -V(xc)+E(xc)   XCENC  =       341.58377324
  PAW double counting   =      6152.42020560    -5982.77013100
  entropy T*S    EENTRO =         0.00000000
  eigenvalues    EBANDS =     -1177.12782915
  atomic energy  EATOM  =      8937.26825017
  Solvation  Ediel_sol  =         0.00000000
  ---------------------------------------------------
  free energy    TOTEN  =      -156.66576232 eV

  energy without entropy =     -156.66576232  energy(sigma->0) =     -156.66576232


--------------------------------------------------------------------------------------------------------




--------------------------------------- Iteration      1(  14)  ---------------------------------------


    POTLOK:  cpu time    0.0930: real time    0.0942
    SETDIJ:  cpu time    0.0130: real time    0.0121
    EDDIAG:  cpu time    0.5559: real time    0.5565
  RMM-DIIS:  cpu time    4.3713: real time    4.3698
    ORTHCH:  cpu time    0.1040: real time    0.1041
 BZINTS: Fermi energy:  0.734209;128.000000 electrons
         Band energy:***********;  BLOECHL correction:  0.000000
       DOS:  cpu time    0.0010: real time    0.0013
    CHARGE:  cpu time    0.1870: real time    0.1866
    MIXING:  cpu time    0.0040: real time    0.0036
    --------------------------------------------
      LOOP:  cpu time    5.3292: real time    5.3282

 eigenvalue-minimisations  :  2086
 total energy-change (2. order) : 0.4530361E-02  (-0.3590899E-02)
 number of electron     127.9999812 magnetization 
 augmentation part       13.6086603 magnetization 

 Broyden mixing:
  rms(total) = 0.23511E-01    rms(broyden)= 0.23503E-01
  rms(prec ) = 0.27287E-01
  weight for this iteration     100.00

 eigenvalues of (default mixing * dielectric matrix)
  average eigenvalue GAMMA=   1.4276
  3.5223  2.5387  1.6179  1.0607  1.0607  0.8840  0.8840  0.6519  0.6284

 Free energy of the ion-electron system (eV)
  ---------------------------------------------------
  alpha Z        PSCENC =       476.26625303
  Ewald energy   TEWEN  =     14479.18975078
  -Hartree energ DENC   =    -23392.78488057
  -exchange      EXHF   =         0.00000000
  -V(xc)+E(xc)   XCENC  =       341.45714754
  PAW double counting   =      6143.22367957    -5973.07349260
  entropy T*S    EENTRO =         0.00000000
  eigenvalues    EBANDS =     -1168.20793989
  atomic energy  EATOM  =      8937.26825017
  Solvation  Ediel_sol  =         0.00000000
  ---------------------------------------------------
  free energy    TOTEN  =      -156.66123196 eV

  energy without entropy =     -156.66123196  energy(sigma->0) =     -156.66123196


--------------------------------------------------------------------------------------------------------




--------------------------------------- Iteration      1(  15)  ---------------------------------------


    POTLOK:  cpu time    0.0900: real time    0.0909
    SETDIJ:  cpu time    0.0120: real time    0.0119
    EDDIAG:  cpu time    0.5449: real time    0.5447
  RMM-DIIS:  cpu time    4.7823: real time    4.8141
    ORTHCH:  cpu time    0.1070: real time    0.1086
 BZINTS: Fermi energy:  0.724900;128.000000 electrons
         Band energy:***********;  BLOECHL correction:  0.000000
       DOS:  cpu time    0.0020: real time    0.0017
    CHARGE:  cpu time    0.1930: real time    0.1942
    MIXING:  cpu time    0.0040: real time    0.0054
    --------------------------------------------
      LOOP:  cpu time    5.7351: real time    5.7715

 eigenvalue-minimisations  :  2231
 total energy-change (2. order) : 0.3253048E-03  (-0.1234256E-02)
 number of electron     127.9999812 magnetization 
 augmentation part       13.6209753 magnetization 

 Broyden mixing:
  rms(total) = 0.10821E-01    rms(broyden)= 0.10816E-01
  rms(prec ) = 0.13674E-01
  weight for this iteration     100.00

 eigenvalues of (default mixing * dielectric matrix)
  average eigenvalue GAMMA=   1.4134
  3.8294  2.4456  1.3589  1.3589  1.1198  0.9256  0.9256  0.9095  0.6303  0.6303

 Free energy of the ion-electron system (eV)
  ---------------------------------------------------
  alpha Z        PSCENC =       476.26625303
  Ewald energy   TEWEN  =     14479.18975078
  -Hartree energ DENC   =    -23399.02928381
  -exchange      EXHF   =         0.00000000
  -V(xc)+E(xc)   XCENC  =       341.56228241
  PAW double counting   =      6146.19180942    -5976.10430509
  entropy T*S    EENTRO =         0.00000000
  eigenvalues    EBANDS =     -1162.00566357
  atomic energy  EATOM  =      8937.26825017
  Solvation  Ediel_sol  =         0.00000000
  ---------------------------------------------------
  free energy    TOTEN  =      -156.66090666 eV

  energy without entropy =     -156.66090666  energy(sigma->0) =     -156.66090666


--------------------------------------------------------------------------------------------------------




--------------------------------------- Iteration      1(  16)  ---------------------------------------


    POTLOK:  cpu time    0.0930: real time    0.0957
    SETDIJ:  cpu time    0.0140: real time    0.0132
    EDDIAG:  cpu time    0.5629: real time    0.5671
  RMM-DIIS:  cpu time    5.2762: real time    5.2749
    ORTHCH:  cpu time    0.1150: real time    0.1150
 BZINTS: Fermi energy:  0.770803;128.000000 electrons
         Band energy:***********;  BLOECHL correction:  0.000000
       DOS:  cpu time    0.0010: real time    0.0014
    CHARGE:  cpu time    0.2000: real time    0.1999
    MIXING:  cpu time    0.0050: real time    0.0046
    --------------------------------------------
      LOOP:  cpu time    6.2670: real time    6.2719

 eigenvalue-minimisations  :  2208
 total energy-change (2. order) :-0.2026889E-02  (-0.6428895E-03)
 number of electron     127.9999812 magnetization 
 augmentation part       13.6026054 magnetization 

 Broyden mixing:
  rms(total) = 0.77383E-02    rms(broyden)= 0.77361E-02
  rms(prec ) = 0.93093E-02
  weight for this iteration     100.00

 eigenvalues of (default mixing * dielectric matrix)
  average eigenvalue GAMMA=   1.5829
  5.2448  2.4520  2.4520  1.4202  1.0076  1.0076  1.0295  0.7559  0.7559  0.6432
  0.6432

 Free energy of the ion-electron system (eV)
  ---------------------------------------------------
  alpha Z        PSCENC =       476.26625303
  Ewald energy   TEWEN  =     14479.18975078
  -Hartree energ DENC   =    -23402.65837743
  -exchange      EXHF   =         0.00000000
  -V(xc)+E(xc)   XCENC  =       341.57980391
  PAW double counting   =      6146.90989598    -5976.92207964
  entropy T*S    EENTRO =         0.00000000
  eigenvalues    EBANDS =     -1158.29643035
  atomic energy  EATOM  =      8937.26825017
  Solvation  Ediel_sol  =         0.00000000
  ---------------------------------------------------
  free energy    TOTEN  =      -156.66293354 eV

  energy without entropy =     -156.66293354  energy(sigma->0) =     -156.66293354


--------------------------------------------------------------------------------------------------------




--------------------------------------- Iteration      1(  17)  ---------------------------------------


    POTLOK:  cpu time    0.1100: real time    0.1121
    SETDIJ:  cpu time    0.0130: real time    0.0130
    EDDIAG:  cpu time    0.6059: real time    0.6063
  RMM-DIIS:  cpu time    5.9391: real time    5.9375
    ORTHCH:  cpu time    0.1160: real time    0.1160
 BZINTS: Fermi energy:  0.726130;128.000000 electrons
         Band energy:***********;  BLOECHL correction:  0.000000
       DOS:  cpu time    0.0010: real time    0.0012
    CHARGE:  cpu time    0.1990: real time    0.1992
    MIXING:  cpu time    0.0060: real time    0.0055
    --------------------------------------------
      LOOP:  cpu time    6.9899: real time    6.9908

 eigenvalue-minimisations  :  2443
 total energy-change (2. order) :-0.2102460E-02  (-0.2132087E-03)
 number of electron     127.9999812 magnetization 
 augmentation part       13.6019975 magnetization 

 Broyden mixing:
  rms(total) = 0.75293E-02    rms(broyden)= 0.75283E-02
  rms(prec ) = 0.84214E-02
  weight for this iteration     100.00

 eigenvalues of (default mixing * dielectric matrix)
  average eigenvalue GAMMA=   1.6515
  6.5889  2.8239  2.2904  1.3852  1.1492  1.1492  0.8683  0.8683  0.6630  0.6630
  0.6841  0.6841

 Free energy of the ion-electron system (eV)
  ---------------------------------------------------
  alpha Z        PSCENC =       476.26625303
  Ewald energy   TEWEN  =     14479.18975078
  -Hartree energ DENC   =    -23405.47585391
  -exchange      EXHF   =         0.00000000
  -V(xc)+E(xc)   XCENC  =       341.57575592
  PAW double counting   =      6146.22740701    -5976.26033401
  entropy T*S    EENTRO =         0.00000000
  eigenvalues    EBANDS =     -1155.45626501
  atomic energy  EATOM  =      8937.26825017
  Solvation  Ediel_sol  =         0.00000000
  ---------------------------------------------------
  free energy    TOTEN  =      -156.66503600 eV

  energy without entropy =     -156.66503600  energy(sigma->0) =     -156.66503600


--------------------------------------------------------------------------------------------------------




--------------------------------------- Iteration      1(  18)  ---------------------------------------


    POTLOK:  cpu time    0.1080: real time    0.1090
    SETDIJ:  cpu time    0.0140: real time    0.0130
    EDDIAG:  cpu time    0.6109: real time    0.6117
  RMM-DIIS:  cpu time    5.2052: real time    5.2040
    ORTHCH:  cpu time    0.1160: real time    0.1160
 BZINTS: Fermi energy:  0.762738;128.000000 electrons
         Band energy:***********;  BLOECHL correction:  0.000000
       DOS:  cpu time    0.0010: real time    0.0012
    CHARGE:  cpu time    0.2010: real time    0.2009
    MIXING:  cpu time    0.0050: real time    0.0049
    --------------------------------------------
      LOOP:  cpu time    6.2610: real time    6.2607

 eigenvalue-minimisations  :  2148
 total energy-change (2. order) :-0.5037093E-03  (-0.1321093E-03)
 number of electron     127.9999812 magnetization 
 augmentation part       13.6009692 magnetization 

 Broyden mixing:
  rms(total) = 0.23026E-02    rms(broyden)= 0.22998E-02
  rms(prec ) = 0.28466E-02
  weight for this iteration     100.00

 eigenvalues of (default mixing * dielectric matrix)
  average eigenvalue GAMMA=   1.6958
  7.0856  2.8914  1.9434  1.9434  1.2543  1.2543  1.2514  0.8848  0.8848  0.7635
  0.6355  0.6355  0.6173

 Free energy of the ion-electron system (eV)
  ---------------------------------------------------
  alpha Z        PSCENC =       476.26625303
  Ewald energy   TEWEN  =     14479.18975078
  -Hartree energ DENC   =    -23405.17574234
  -exchange      EXHF   =         0.00000000
  -V(xc)+E(xc)   XCENC  =       341.54094208
  PAW double counting   =      6144.52160290    -5974.49813136
  entropy T*S    EENTRO =         0.00000000
  eigenvalues    EBANDS =     -1155.77846497
  atomic energy  EATOM  =      8937.26825017
  Solvation  Ediel_sol  =         0.00000000
  ---------------------------------------------------
  free energy    TOTEN  =      -156.66553971 eV

  energy without entropy =     -156.66553971  energy(sigma->0) =     -156.66553971


--------------------------------------------------------------------------------------------------------




--------------------------------------- Iteration      1(  19)  ---------------------------------------


    POTLOK:  cpu time    0.1110: real time    0.1111
    SETDIJ:  cpu time    0.0130: real time    0.0130
    EDDIAG:  cpu time    0.6119: real time    0.6118
  RMM-DIIS:  cpu time    4.7873: real time    4.7861
    ORTHCH:  cpu time    0.1160: real time    0.1159
 BZINTS: Fermi energy:  0.751936;128.000000 electrons
         Band energy:***********;  BLOECHL correction:  0.000000
       DOS:  cpu time    0.0010: real time    0.0014
    CHARGE:  cpu time    0.2010: real time    0.2005
    MIXING:  cpu time    0.0050: real time    0.0050
    --------------------------------------------
      LOOP:  cpu time    5.8461: real time    5.8449

 eigenvalue-minimisations  :  1965
 total energy-change (2. order) :-0.5966028E-03  (-0.4387996E-04)
 number of electron     127.9999812 magnetization 
 augmentation part       13.6045631 magnetization 

 Broyden mixing:
  rms(total) = 0.17943E-02    rms(broyden)= 0.17939E-02
  rms(prec ) = 0.20434E-02
  weight for this iteration     100.00

 eigenvalues of (default mixing * dielectric matrix)
  average eigenvalue GAMMA=   1.7195
  7.2484  3.3202  2.1500  2.1500  1.2499  1.2499  1.0979  1.0979  0.8937  0.8937
  0.8476  0.6406  0.6406  0.5919

 Free energy of the ion-electron system (eV)
  ---------------------------------------------------
  alpha Z        PSCENC =       476.26625303
  Ewald energy   TEWEN  =     14479.18975078
  -Hartree energ DENC   =    -23405.17536118
  -exchange      EXHF   =         0.00000000
  -V(xc)+E(xc)   XCENC  =       341.54833299
  PAW double counting   =      6144.80615118    -5974.74909935
  entropy T*S    EENTRO =         0.00000000
  eigenvalues    EBANDS =     -1155.82041394
  atomic energy  EATOM  =      8937.26825017
  Solvation  Ediel_sol  =         0.00000000
  ---------------------------------------------------
  free energy    TOTEN  =      -156.66613632 eV

  energy without entropy =     -156.66613632  energy(sigma->0) =     -156.66613632


--------------------------------------------------------------------------------------------------------




--------------------------------------- Iteration      1(  20)  ---------------------------------------


    POTLOK:  cpu time    0.1090: real time    0.1106
    SETDIJ:  cpu time    0.0130: real time    0.0132
    EDDIAG:  cpu time    0.6129: real time    0.6129
  RMM-DIIS:  cpu time    4.4963: real time    4.4960
    ORTHCH:  cpu time    0.1160: real time    0.1163
 BZINTS: Fermi energy:  0.772389;128.000000 electrons
         Band energy:***********;  BLOECHL correction:  0.000000
       DOS:  cpu time    0.0010: real time    0.0014
    CHARGE:  cpu time    0.2000: real time    0.1994
    MIXING:  cpu time    0.0050: real time    0.0052
    --------------------------------------------
      LOOP:  cpu time    5.5532: real time    5.5548

 eigenvalue-minimisations  :  1816
 total energy-change (2. order) :-0.2612627E-03  (-0.1455269E-04)
 number of electron     127.9999812 magnetization 
 augmentation part       13.6027235 magnetization 

 Broyden mixing:
  rms(total) = 0.58666E-03    rms(broyden)= 0.58630E-03
  rms(prec ) = 0.68994E-03
  weight for this iteration     100.00

 eigenvalues of (default mixing * dielectric matrix)
  average eigenvalue GAMMA=   1.7821
  7.3110  3.8342  2.5061  2.0586  2.0586  1.2237  1.2237  1.2607  0.8908  0.8908
  0.7986  0.7986  0.6437  0.6437  0.5891

 Free energy of the ion-electron system (eV)
  ---------------------------------------------------
  alpha Z        PSCENC =       476.26625303
  Ewald energy   TEWEN  =     14479.18975078
  -Hartree energ DENC   =    -23405.11013406
  -exchange      EXHF   =         0.00000000
  -V(xc)+E(xc)   XCENC  =       341.54370147
  PAW double counting   =      6145.03695221    -5974.98842844
  entropy T*S    EENTRO =         0.00000000
  eigenvalues    EBANDS =     -1155.87274275
  atomic energy  EATOM  =      8937.26825017
  Solvation  Ediel_sol  =         0.00000000
  ---------------------------------------------------
  free energy    TOTEN  =      -156.66639758 eV

  energy without entropy =     -156.66639758  energy(sigma->0) =     -156.66639758


--------------------------------------------------------------------------------------------------------




--------------------------------------- Iteration      1(  21)  ---------------------------------------


    POTLOK:  cpu time    0.1100: real time    0.1113
    SETDIJ:  cpu time    0.0130: real time    0.0126
    EDDIAG:  cpu time    0.6069: real time    0.6074
  RMM-DIIS:  cpu time    3.6205: real time    3.6199
    ORTHCH:  cpu time    0.1160: real time    0.1157
 BZINTS: Fermi energy:  0.789222;128.000000 electrons
         Band energy:***********;  BLOECHL correction:  0.000000
       DOS:  cpu time    0.0010: real time    0.0014
    CHARGE:  cpu time    0.1990: real time    0.1991
    MIXING:  cpu time    0.0070: real time    0.0061
    --------------------------------------------
      LOOP:  cpu time    4.6733: real time    4.6735

 eigenvalue-minimisations  :  1453
 total energy-change (2. order) :-0.6419638E-04  (-0.5727926E-05)
 number of electron     127.9999812 magnetization 
 augmentation part       13.6018629 magnetization 

 Broyden mixing:
  rms(total) = 0.55830E-03    rms(broyden)= 0.55825E-03
  rms(prec ) = 0.62719E-03
  weight for this iteration     100.00

 eigenvalues of (default mixing * dielectric matrix)
  average eigenvalue GAMMA=   1.7702
  7.4831  4.0631  2.6040  2.1891  2.1891  1.3076  1.2123  1.2123  0.8984  0.8984
  0.8167  0.8167  0.7564  0.6383  0.6383  0.5998

 Free energy of the ion-electron system (eV)
  ---------------------------------------------------
  alpha Z        PSCENC =       476.26625303
  Ewald energy   TEWEN  =     14479.18975078
  -Hartree energ DENC   =    -23405.19333446
  -exchange      EXHF   =         0.00000000
  -V(xc)+E(xc)   XCENC  =       341.54522823
  PAW double counting   =      6145.19274311    -5975.14807799
  entropy T*S    EENTRO =         0.00000000
  eigenvalues    EBANDS =     -1155.78727466
  atomic energy  EATOM  =      8937.26825017
  Solvation  Ediel_sol  =         0.00000000
  ---------------------------------------------------
  free energy    TOTEN  =      -156.66646178 eV

  energy without entropy =     -156.66646178  energy(sigma->0) =     -156.66646178


--------------------------------------------------------------------------------------------------------




--------------------------------------- Iteration      1(  22)  ---------------------------------------


    POTLOK:  cpu time    0.1100: real time    0.1119
    SETDIJ:  cpu time    0.0130: real time    0.0130
    EDDIAG:  cpu time    0.6099: real time    0.6094
WARNING in EDDRMM: call to ZHEGV failed, returncode =   8  4     32
  RMM-DIIS:  cpu time    3.3975: real time    3.3968
    ORTHCH:  cpu time    0.1160: real time    0.1169
 BZINTS: Fermi energy:  0.802825;128.000000 electrons
         Band energy:***********;  BLOECHL correction:  0.000000
       DOS:  cpu time    0.0020: real time    0.0015
    CHARGE:  cpu time    0.2000: real time    0.2001
    MIXING:  cpu time    0.0060: real time    0.0057
    --------------------------------------------
      LOOP:  cpu time    4.4543: real time    4.4554

 eigenvalue-minimisations  :  1347
 total energy-change (2. order) :-0.1658288E-04  (-0.2889171E-05)
 number of electron     127.9999812 magnetization 
 augmentation part       13.6020189 magnetization 

 Broyden mixing:
  rms(total) = 0.26282E-03    rms(broyden)= 0.26277E-03
  rms(prec ) = 0.30658E-03
  weight for this iteration     100.00

 eigenvalues of (default mixing * dielectric matrix)
  average eigenvalue GAMMA=   1.7554
  7.5598  4.2083  2.5664  2.5664  1.6979  1.6979  1.2238  1.2238  0.9925  0.9925
  0.8817  0.8817  0.7401  0.7401  0.6397  0.6397  0.5891

 Free energy of the ion-electron system (eV)
  ---------------------------------------------------
  alpha Z        PSCENC =       476.26625303
  Ewald energy   TEWEN  =     14479.18975078
  -Hartree energ DENC   =    -23405.21720542
  -exchange      EXHF   =         0.00000000
  -V(xc)+E(xc)   XCENC  =       341.54668982
  PAW double counting   =      6145.20948305    -5975.15886227
  entropy T*S    EENTRO =         0.00000000
  eigenvalues    EBANDS =     -1155.77083752
  atomic energy  EATOM  =      8937.26825017
  Solvation  Ediel_sol  =         0.00000000
  ---------------------------------------------------
  free energy    TOTEN  =      -156.66647836 eV

  energy without entropy =     -156.66647836  energy(sigma->0) =     -156.66647836


--------------------------------------------------------------------------------------------------------




--------------------------------------- Iteration      1(  23)  ---------------------------------------


    POTLOK:  cpu time    0.1090: real time    0.1099
    SETDIJ:  cpu time    0.0130: real time    0.0126
    EDDIAG:  cpu time    0.6089: real time    0.6089
  RMM-DIIS:  cpu time    3.1535: real time    3.1526
    ORTHCH:  cpu time    0.1170: real time    0.1170
 BZINTS: Fermi energy:  0.813986;128.000000 electrons
         Band energy:***********;  BLOECHL correction:  0.000000
       DOS:  cpu time    0.0010: real time    0.0014
    --------------------------------------------
      LOOP:  cpu time    4.0024: real time    4.0024

 eigenvalue-minimisations  :  1246
 total energy-change (2. order) :-0.5776103E-05  (-0.1413414E-05)
 number of electron     127.9999812 magnetization 
 augmentation part       13.6020189 magnetization 

 Free energy of the ion-electron system (eV)
  ---------------------------------------------------
  alpha Z        PSCENC =       476.26625303
  Ewald energy   TEWEN  =     14479.18975078
  -Hartree energ DENC   =    -23405.21111022
  -exchange      EXHF   =         0.00000000
  -V(xc)+E(xc)   XCENC  =       341.54666788
  PAW double counting   =      6145.18141731    -5975.12595190
  entropy T*S    EENTRO =         0.00000000
  eigenvalues    EBANDS =     -1155.78176120
  atomic energy  EATOM  =      8937.26825017
  Solvation  Ediel_sol  =         0.00000000
  ---------------------------------------------------
  free energy    TOTEN  =      -156.66648413 eV

  energy without entropy =     -156.66648413  energy(sigma->0) =     -156.66648413


--------------------------------------------------------------------------------------------------------




 average (electrostatic) potential at core
  the test charge radii are     0.7215  1.1929  1.2598
  (the norm of the test charge is              1.0000)
       1 -72.8835       2 -73.4045       3 -73.4045       4 -73.3828       5 -73.4827
       6 -73.4827       7 -73.5784       8 -73.6179       9 -73.6179      10 -73.8605
      11 -73.2791      12 -73.2791      13 -39.7492      14 -38.6407      15 -38.7625
      16 -38.6684      17 -29.1517      18 -29.3648      19 -29.5468      20 -29.6168
 
 
 
 E-fermi :   0.8140     XC(G=0):  -7.8975     alpha+bet : -8.1146


 k-point     1 :       0.0000    0.0000    0.0000
  band No.  band energies     occupation 
      1     -33.6229      2.00000
      2     -32.6782      2.00000
      3     -32.5813      2.00000
      4     -32.5556      2.00000
      5     -17.3688      2.00000
      6     -17.2563      2.00000
      7     -17.1577      2.00000
      8     -16.7734      2.00000
      9     -16.2782      2.00000
     10     -16.2370      2.00000
     11     -16.2188      2.00000
     12     -16.1429      2.00000
     13     -16.0686      2.00000
     14     -16.0652      2.00000
     15     -15.7194      2.00000
     16     -15.5544      2.00000
     17     -15.5364      2.00000
     18     -15.5364      2.00000
     19     -15.2853      2.00000
     20     -14.7224      2.00000
     21     -14.7224      2.00000
     22     -14.6408      2.00000
     23     -14.6408      2.00000
     24     -14.5942      2.00000
     25     -14.5942      2.00000
     26     -14.5717      2.00000
     27     -14.2905      2.00000
     28     -14.1786      2.00000
     29      -3.9606      2.00000
     30      -3.4280      2.00000
     31      -2.9097      2.00000
     32      -2.7615      2.00000
     33      -2.7615      2.00000
     34      -2.6258      2.00000
     35      -2.6258      2.00000
     36      -2.5287      2.00000
     37      -2.5287      2.00000
     38      -2.2978      2.00000
     39      -2.2978      2.00000
     40      -2.2087      2.00000
     41      -1.9985      2.00000
     42      -1.8804      2.00000
     43      -1.8804      2.00000
     44      -1.6377      2.00000
     45      -1.5940      2.00000
     46      -1.5112      2.00000
     47      -1.5112      2.00000
     48      -1.3832      2.00000
     49      -1.1857      2.00000
     50      -1.1857      2.00000
     51      -1.1029      2.00000
     52      -1.0658      2.00000
     53      -0.7622      2.00000
     54      -0.7622      2.00000
     55      -0.6471      2.00000
     56      -0.5394      2.00000
     57      -0.5394      2.00000
     58      -0.3990      2.00000
     59      -0.3697      2.00000
[...]
     43      -2.7465      2.00000
     44      -2.6650      2.00000
     45      -2.3144      2.00000
     46      -2.3086      2.00000
     47      -2.2065      2.00000
     48      -2.0784      2.00000
     49      -1.9503      2.00000
     50      -1.6919      2.00000
     51      -1.4702      2.00000
     52      -1.4195      2.00000
     53      -1.1445      2.00000
     54      -1.0883      2.00000
     55      -0.9931      2.00000
     56      -0.9736      2.00000
     57      -0.9348      2.00000
     58      -0.8819      2.00000
     59      -0.8022      2.00000
     60      -0.7125      2.00000
     61      -0.4566      2.00000
     62      -0.3545      2.00000
     63      -0.2146      2.00000
     64       0.0212      2.00000
     65       2.2473      0.00000
     66       2.7049      0.00000
     67       3.1586      0.00000
     68       3.4701      0.00000
     69       3.4767      0.00000
     70       3.5943      0.00000
     71       3.6332      0.00000
     72       3.6720      0.00000
     73       3.7501      0.00000
     74       3.7777      0.00000
     75       3.9226      0.00000
     76       7.8193      0.00000

 k-point     8 :       0.2857    0.2857    0.0000
  band No.  band energies     occupation 
      1     -33.6044      2.00000
      2     -32.6564      2.00000
      3     -32.5594      2.00000
      4     -32.5339      2.00000
      5     -17.0739      2.00000
      6     -16.8775      2.00000
      7     -16.7415      2.00000
      8     -16.5651      2.00000
      9     -16.3689      2.00000
     10     -16.2641      2.00000
     11     -16.2371      2.00000
     12     -16.1307      2.00000
     13     -16.1294      2.00000
     14     -15.9924      2.00000
     15     -15.9292      2.00000
     16     -15.7012      2.00000
     17     -15.5535      2.00000
     18     -15.4674      2.00000
     19     -14.7986      2.00000
     20     -14.7485      2.00000
     21     -14.6695      2.00000
     22     -14.5880      2.00000
     23     -14.5465      2.00000
     24     -14.4711      2.00000
     25     -14.4624      2.00000
     26     -14.3910      2.00000
     27     -14.3560      2.00000
     28     -14.3042      2.00000
     29      -4.0316      2.00000
     30      -3.8507      2.00000
     31      -3.7321      2.00000
     32      -3.6871      2.00000
     33      -3.4284      2.00000
     34      -3.4070      2.00000
     35      -3.2754      2.00000
     36      -3.2537      2.00000
     37      -3.2160      2.00000
     38      -3.1786      2.00000
     39      -3.1383      2.00000
     40      -3.1336      2.00000
     41      -2.9861      2.00000
     42      -2.9851      2.00000
     43      -2.9492      2.00000
     44      -2.8267      2.00000
     45      -2.8263      2.00000
     46      -2.7796      2.00000
     47      -2.5045      2.00000
     48      -2.4311      2.00000
     49      -2.3344      2.00000
     50      -1.9918      2.00000
     51      -1.8218      2.00000
     52      -1.2807      2.00000
     53      -1.2192      2.00000
     54      -0.9727      2.00000
     55      -0.7517      2.00000
     56      -0.7052      2.00000
     57      -0.5732      2.00000
     58      -0.5592      2.00000
     59      -0.4727      2.00000
     60      -0.4193      2.00000
     61      -0.3197      2.00000
     62      -0.2981      2.00000
     63      -0.1203      2.00000
     64       0.2180      2.00000
     65       2.7697      0.00000
     66       3.0223      0.00000
     67       3.1416      0.00000
     68       3.2430      0.00000
     69       3.3174      0.00000
     70       3.4214      0.00000
     71       3.4874      0.00000
     72       3.4897      0.00000
     73       3.6239      0.00000
     74       3.6518      0.00000
     75       3.7580      0.00000
     76       3.8010      0.00000

 k-point     9 :       0.4286    0.2857    0.0000
  band No.  band energies     occupation 
      1     -33.5993      2.00000
      2     -32.6505      2.00000
      3     -32.5535      2.00000
      4     -32.5281      2.00000
      5     -17.0046      2.00000
      6     -16.7855      2.00000
      7     -16.5933      2.00000
      8     -16.3936      2.00000
      9     -16.3530      2.00000
     10     -16.3199      2.00000
     11     -16.1984      2.00000
     12     -16.1945      2.00000
     13     -16.0784      2.00000
     14     -15.8428      2.00000
     15     -15.8097      2.00000
     16     -15.7043      2.00000
     17     -15.6570      2.00000
     18     -15.4289      2.00000
     19     -14.8604      2.00000
     20     -14.7820      2.00000
     21     -14.7329      2.00000
     22     -14.6119      2.00000
     23     -14.5424      2.00000
     24     -14.4863      2.00000
     25     -14.4761      2.00000
     26     -14.4252      2.00000
     27     -14.3825      2.00000
     28     -14.3055      2.00000
     29      -4.2049      2.00000
     30      -4.0701      2.00000
     31      -3.9337      2.00000
     32      -3.8642      2.00000
     33      -3.7616      2.00000
     34      -3.7493      2.00000
     35      -3.6708      2.00000
     36      -3.5977      2.00000
     37      -3.4478      2.00000
     38      -3.3995      2.00000
     39      -3.3303      2.00000
     40      -3.2809      2.00000
     41      -3.2186      2.00000
     42      -3.1749      2.00000
     43      -3.1172      2.00000
     44      -2.9853      2.00000
     45      -2.8643      2.00000
     46      -2.8181      2.00000
     47      -2.7847      2.00000
     48      -2.6517      2.00000
     49      -2.3878      2.00000
     50      -2.2722      2.00000
     51      -1.8733      2.00000
     52      -1.2737      2.00000
     53      -1.1557      2.00000
     54      -1.0481      2.00000
     55      -0.7513      2.00000
     56      -0.6943      2.00000
     57      -0.5038      2.00000
     58      -0.4261      2.00000
     59      -0.3666      2.00000
     60      -0.2848      2.00000
     61      -0.2657      2.00000
     62      -0.2119      2.00000
     63       0.0416      2.00000
     64       0.3751      2.00000
     65       2.8948      0.00000
     66       3.2317      0.00000
     67       3.4708      0.00000
     68       3.5286      0.00000
     69       3.6608      0.00000
     70       3.6699      0.00000
     71       3.8311      0.00000
     72       3.8384      0.00000
     73       3.8630      0.00000
     74       3.9646      0.00000
     75       4.0493      0.00000
     76       7.8216      0.00000

 k-point    10 :       0.4286    0.4286    0.0000
  band No.  band energies     occupation 
      1     -33.5945      2.00000
      2     -32.6449      2.00000
      3     -32.5479      2.00000
      4     -32.5225      2.00000
      5     -16.7455      2.00000
      6     -16.5332      2.00000
      7     -16.4292      2.00000
      8     -16.3937      2.00000
      9     -16.3301      2.00000
     10     -16.3028      2.00000
     11     -16.1606      2.00000
     12     -16.1352      2.00000
     13     -16.0764      2.00000
     14     -15.8228      2.00000
     15     -15.7144      2.00000
     16     -15.6843      2.00000
     17     -15.5561      2.00000
     18     -15.4517      2.00000
     19     -15.1263      2.00000
     20     -14.8269      2.00000
     21     -14.7752      2.00000
     22     -14.7703      2.00000
     23     -14.6207      2.00000
     24     -14.5969      2.00000
     25     -14.4960      2.00000
     26     -14.4523      2.00000
     27     -14.3722      2.00000
     28     -14.3524      2.00000
     29      -4.3219      2.00000
     30      -4.1895      2.00000
     31      -4.1169      2.00000
     32      -4.0470      2.00000
     33      -3.9568      2.00000
     34      -3.8838      2.00000
     35      -3.8699      2.00000
     36      -3.8098      2.00000
     37      -3.7558      2.00000
     38      -3.6945      2.00000
     39      -3.5823      2.00000
     40      -3.5729      2.00000
     41      -3.4710      2.00000
     42      -3.4217      2.00000
     43      -3.2003      2.00000
     44      -3.1550      2.00000
     45      -3.1378      2.00000
     46      -3.1065      2.00000
     47      -2.8056      2.00000
     48      -2.7703      2.00000
     49      -2.4841      2.00000
     50      -2.3780      2.00000
     51      -2.1461      2.00000
     52      -1.1576      2.00000
     53      -1.0894      2.00000
     54      -1.0615      2.00000
     55      -0.6890      2.00000
     56      -0.6455      2.00000
     57      -0.3046      2.00000
     58      -0.2626      2.00000
     59      -0.0792      2.00000
     60       0.0024      2.00000
     61       0.0293      2.00000
     62       0.0685      2.00000
     63       0.1148      2.00000
     64       0.7044      2.00000
     65       3.4226      0.00000
     66       3.4946      0.00000
     67       3.6750      0.00000
     68       3.7366      0.00000
     69       3.8944      0.00000
     70       3.9134      0.00000
     71       4.0408      0.00000
     72       4.1106      0.00000
     73       4.1572      0.00000
     74       7.3908      0.00000
     75       7.3729      0.00000
     76       7.4620      0.00000


--------------------------------------------------------------------------------------------------------


 soft charge-density along one line, spin component           1
         0         1         2         3         4         5         6         7         8         9
 total charge-density along one line
 
 pseudopotential strength for first ion, spin component:           1
 12.614  -0.336  -0.000  -0.021   0.000   0.000   0.001  -0.000
 -0.336   0.081   0.000   0.002  -0.000  -0.000  -0.000   0.000
 -0.000   0.000  -8.892   0.000  -0.000  -0.105  -0.000   0.000
 -0.021   0.002   0.000  -8.912  -0.000  -0.000  -0.102   0.000
  0.000  -0.000  -0.000  -0.000  -8.892   0.000   0.000  -0.105
  0.000  -0.000  -0.105  -0.000   0.000   0.251   0.000  -0.000
  0.001  -0.000  -0.000  -0.102   0.000   0.000   0.250  -0.000
 -0.000   0.000   0.000   0.000  -0.105  -0.000  -0.000   0.251
 total augmentation occupancy for first ion, spin component:           1
  1.866   0.122   0.000  -0.009  -0.000   0.000   0.012  -0.000
  0.122   0.012   0.000   0.027   0.000   0.000   0.005  -0.000
  0.000   0.000   1.516   0.000   0.000   0.121   0.000   0.000
 -0.009   0.027   0.000   1.514  -0.000   0.000   0.131   0.000
  0.000   0.000   0.000   0.000   1.516   0.000  -0.000   0.121
  0.000   0.000   0.121   0.000   0.000   0.011   0.000   0.000
  0.012   0.005   0.000   0.131   0.000   0.000   0.012  -0.000
  0.000   0.000   0.000   0.000   0.121   0.000  -0.000   0.011


------------------------ aborting loop because EDIFF is reached ----------------------------------------


    CHARGE:  cpu time    0.2000: real time    0.1999
    FORLOC:  cpu time    0.0230: real time    0.0224
    FORNL :  cpu time    2.0747: real time    2.0743
    STRESS:  cpu time    4.3893: real time    4.3888
    FORCOR:  cpu time    0.1190: real time    0.1187
    FORHAR:  cpu time    0.0410: real time    0.0412
    MIXING:  cpu time    0.0060: real time    0.0060
    OFIELD:  cpu time    0.0000: real time    0.0000

  FORCE on cell =-STRESS in cart. coord.  units (eV):
  Direction    XX          YY          ZZ          XY          YZ          ZX
  --------------------------------------------------------------------------------------
  Alpha Z   476.26625   476.26625   476.26625
  Ewald   19536.95383 19536.95383-24594.73414     0.00000    -0.00000    -0.00000
  Hartree 22180.97722 22180.97722-20956.71001    -0.00000    -0.00000    -0.00000
  E(xc)    -577.80391  -577.80391  -577.35174     0.00000    -0.00000     0.00000
  Local  -43486.57110-43486.57110 43791.17037    -0.00000    -0.00000    -0.00000
  n-local  -488.67358  -466.94133  -479.77550    -1.62337     0.00004    -0.00005
  augment   116.02909   116.02909   115.01574     0.00000     0.00000     0.00000
  Kinetic  2204.18152  2248.37688  2222.60533    -9.23237    -0.00009     0.00016
  Fock        0.00000     0.00000     0.00000     0.00000     0.00000     0.00000
  -------------------------------------------------------------------------------------
  Total      -5.67688    -5.67688    -3.51371     0.00000     0.00000    -0.00000
  in kB     -24.51818   -24.51818   -15.17553     0.00000     0.00000    -0.00000
  external pressure =      -21.40 kB  Pullay stress =        0.00 kB


 VOLUME and BASIS-vectors are now :
 -----------------------------------------------------------------------------
  energy-cutoff  :      500.00
  volume of cell :      370.96
      direct lattice vectors                 reciprocal lattice vectors
     3.946846342  0.000000000  0.000000000     0.253366844  0.000000000  0.000000000
     0.000000000  3.946846342  0.000000000     0.000000000  0.253366844  0.000000000
     0.000000000  0.000000000 23.813962196     0.000000000  0.000000000  0.041992172

  length of vectors
     3.946846342  3.946846342 23.813962196     0.253366844  0.253366844  0.041992172


 FORCES acting on ions
    electron-ion (+dipol)            ewald-force                    non-local-force                 convergence-correction
 -----------------------------------------------------------------------------------------------
   0.170E-12 -.108E-13 0.132E+04   0.106E-13 -.155E-14 -.133E+04   0.635E-21 0.000E+00 0.805E+01   0.466E-14 -.137E-14 0.473E-02
   0.141E-12 -.855E-13 0.940E+03   -.684E-14 -.533E-14 -.940E+03   0.000E+00 0.000E+00 -.197E+00   0.170E-13 -.293E-14 0.159E-02
   -.285E-14 0.239E-12 0.940E+03   0.518E-16 -.717E-14 -.940E+03   -.529E-22 0.000E+00 -.197E+00   0.146E-13 0.127E-13 0.159E-02
   0.185E-12 0.437E-12 0.564E+03   0.715E-14 0.205E-14 -.564E+03   0.212E-21 0.000E+00 0.761E+00   -.107E-13 0.140E-13 0.395E-03
   0.175E-12 -.180E-13 0.188E+03   -.608E-14 -.499E-14 -.188E+03   0.000E+00 0.000E+00 0.263E+00   0.648E-14 -.807E-14 -.404E-03
   -.914E-14 0.203E-12 0.188E+03   0.255E-15 -.690E-14 -.188E+03   0.000E+00 0.000E+00 0.263E+00   0.597E-14 0.108E-14 -.404E-03
   0.167E-12 0.158E-12 -.188E+03   0.693E-14 0.206E-14 0.188E+03   0.106E-21 0.000E+00 0.627E+00   -.747E-14 0.188E-13 -.246E-02
   0.190E-12 0.180E-13 -.564E+03   -.616E-14 -.498E-14 0.564E+03   0.000E+00 0.318E-21 0.105E+00   0.105E-13 0.803E-15 -.136E-02
   -.126E-13 0.194E-12 -.564E+03   0.239E-15 -.695E-14 0.564E+03   0.000E+00 -.212E-21 0.105E+00   0.109E-13 -.271E-14 -.136E-02
   0.147E-12 0.148E-12 -.941E+03   0.824E-14 0.183E-14 0.939E+03   0.000E+00 0.000E+00 0.267E+01   0.719E-14 0.113E-13 0.205E-02
   0.182E-12 -.648E-13 -.129E+04   -.256E-14 -.209E-14 0.129E+04   0.000E+00 0.199E-22 -.210E+01   0.961E-14 0.904E-14 0.558E-02
   -.140E-14 0.454E-12 -.129E+04   -.503E-15 -.270E-14 0.129E+04   0.000E+00 0.000E+00 -.210E+01   0.777E-15 0.831E-14 0.558E-02
   -.651E-14 0.194E-12 0.214E+04   -.361E-15 0.403E-14 -.214E+04   0.847E-21 0.000E+00 -.492E+01   -.242E-14 0.410E-14 0.464E-02
   -.277E-14 -.357E-13 0.940E+03   0.565E-14 0.737E-14 -.940E+03   0.000E+00 0.000E+00 0.527E-01   -.121E-13 0.113E-13 0.532E-03
   -.470E-14 0.608E-13 -.313E+03   0.547E-14 0.734E-14 0.313E+03   0.000E+00 0.000E+00 0.140E+00   -.573E-14 0.156E-13 -.264E-02
   -.399E-14 -.497E-12 -.157E+04   0.346E-14 0.804E-14 0.157E+04   0.000E+00 0.000E+00 -.744E+00   -.634E-14 0.111E-13 0.260E-03
   0.619E-14 0.155E-12 0.626E+03   -.429E-14 0.613E-14 -.627E+03   0.000E+00 -.212E-21 -.363E+00   -.223E-14 0.351E-14 0.119E-02
   0.236E-14 -.750E-13 0.125E+03   -.404E-14 0.594E-14 -.125E+03   0.000E+00 -.662E-23 -.102E+00   -.120E-14 0.490E-14 -.286E-03
   0.487E-14 -.560E-13 -.376E+03   -.414E-14 0.595E-14 0.376E+03   0.000E+00 0.265E-22 -.312E-01   0.105E-14 -.366E-14 -.789E-03
   0.392E-14 -.738E-13 -.885E+03   -.257E-14 0.569E-14 0.881E+03   0.000E+00 -.106E-21 0.133E+01   0.214E-14 -.988E-15 0.337E-02
 -----------------------------------------------------------------------------------------------
   0.133E-11 0.134E-11 -.363E+01   0.105E-13 0.138E-13 -.568E-12   0.175E-20 -.172E-21 0.361E+01   0.426E-13 0.107E-12 0.218E-01
 
 
 POSITION                                       TOTAL-FORCE (eV/Angst)
 -----------------------------------------------------------------------------------
      1.97342      1.97342      5.00000         0.000000      0.000000     -0.631306
      1.97342      0.00000      6.97342        -0.000000      0.000000      0.007804
      0.00000      1.97342      6.97342        -0.000000      0.000000      0.007804
      1.97342      1.97342      8.94685        -0.000000     -0.000000      0.425451
      1.97342      0.00000     10.92027        -0.000000      0.000000      0.082535
      0.00000      1.97342     10.92027        -0.000000     -0.000000      0.082535
      1.97342      1.97342     12.89369        -0.000000      0.000000      0.352727
      1.97342      0.00000     14.86712        -0.000000      0.000000      0.041761
      0.00000      1.97342     14.86712        -0.000000     -0.000000      0.041761
      1.97342      1.97342     16.84054        -0.000000      0.000000      1.049247
      1.97342      0.00000     18.81396        -0.000000      0.000000      0.401023
      0.00000      1.97342     18.81396        -0.000000     -0.000000      0.401023
      0.00000      0.00000      5.00000        -0.000000      0.000000      1.318718
      0.00000      0.00000      8.94685        -0.000000      0.000000     -0.027033
      0.00000      0.00000     12.89369        -0.000000      0.000000     -0.079375
      0.00000      0.00000     16.84054        -0.000000      0.000000      0.612618
      1.97342      1.97342      6.97342        -0.000000      0.000000     -1.052150
      1.97342      1.97342     10.92027        -0.000000      0.000000     -0.372513
      1.97342      1.97342     14.86712        -0.000000      0.000000     -0.431470
      1.97342      1.97342     18.81396        -0.000000      0.000000     -2.231158
 -----------------------------------------------------------------------------------
    total drift:                                0.000000      0.000000     -0.000264


--------------------------------------------------------------------------------------------------------



  FREE ENERGIE OF THE ION-ELECTRON SYSTEM (eV)
  ---------------------------------------------------
  free  energy   TOTEN  =      -156.66648413 eV

  energy  without entropy=     -156.66648413  energy(sigma->0) =     -156.66648413
 


--------------------------------------------------------------------------------------------------------


    POTLOK:  cpu time    0.1230: real time    0.1228


--------------------------------------------------------------------------------------------------------


     LOOP+:  cpu time  141.4665: real time  141.7544
    4ORBIT:  cpu time    0.0000: real time    0.0000
 BZINTS: Fermi energy:  0.813986;128.000000 electrons
         Band energy:***********;  BLOECHL correction:  0.000000

 total amount of memory used by VASP MPI-rank0   100145. kBytes
=======================================================================

   base      :      30000. kBytes
   nonl-proj :      21919. kBytes
   fftplans  :       6662. kBytes
   grid      :      11994. kBytes
   one-center:        155. kBytes
   wavefun   :      29415. kBytes
 
  
  
 General timing and accounting informations for this job:
 ========================================================
  
                  Total CPU time used (sec):      143.864
                            User time (sec):      141.434
                          System time (sec):        2.430
                         Elapsed time (sec):      144.724
  
                   Maximum memory used (kb):      112096.
                   Average memory used (kb):           0.
  
                          Minor page faults:        35959
                          Major page faults:          189
                 Voluntary context switches:         3598
