<?xml version="1.0" encoding="ISO-8859-1"?>
<modeling>
 <generator>
  <i name="program" type="string">vasp </i>
  <i name="version" type="string">5.4.4.18Apr17-6-g9f103f2a35  </i>
  <i name="subversion" type="string">(build Jun 30 2017 11:15:00) complex            parallel </i>
  <i name="platform" type="string">STALLO_VASP_5.4.4 </i>
  <i name="date" type="string">2019 11 08 </i>
  <i name="time" type="string">10:20:48 </i>
 </generator>
 <incar>
  <i type="string" name="PREC">normal    ! low/normal/accurate</i>
  <i type="string" name="ALGO"> Fast      ! Algorithm for electronic re</i>
  <i type="int" name="ISPIN">     1</i>
  <i type="int" name="NELMIN">     4</i>
  <i name="EDIFF">      0.00001000</i>
  <i type="int" name="NSW">     0</i>
  <i name="ENCUT">    500.00000000</i>
  <i type="logical" name="LREAL"> F  </i>
  <i type="int" name="ISMEAR">    -5</i>
  <i name="SIGMA">      0.20000000</i>
  <i type="logical" name="LWAVE"> F  </i>
  <v type="int" name="KPOINT_BSE">    -1     0     0     0</v>
 </incar>
 <structure name="primitive_cell" >
  <crystal>
   <varray name="basis" >
    <v>       3.94684634       0.00000000       0.00000000 </v>
    <v>       0.00000000       3.94684634       0.00000000 </v>
    <v>       0.00000000       0.00000000      23.81396220 </v>
   </varray>
   <i name="volume">    370.96428330 </i>
   <varray name="rec_basis" >
    <v>       0.25336684       0.00000000       0.00000000 </v>
    <v>       0.00000000       0.25336684       0.00000000 </v>
    <v>       0.00000000       0.00000000       0.04199217 </v>
   </varray>
  </crystal>
  <varray name="positions" >
   <v>      -0.50000000      -0.50000000       0.20996086 </v>
   <v>      -0.50000000      -0.50000000       0.29282919 </v>
   <v>       0.00000000       0.00000000       0.20996086 </v>
   <v>      -0.50000000       0.00000000       0.29282919 </v>
   <v>       0.00000000      -0.50000000       0.29282919 </v>
   <v>      -0.50000000      -0.50000000       0.37569751 </v>
   <v>       0.00000000       0.00000000       0.37569751 </v>
   <v>      -0.50000000      -0.50000000       0.45856584 </v>
   <v>      -0.50000000       0.00000000       0.45856584 </v>
   <v>       0.00000000      -0.50000000       0.45856584 </v>
   <v>      -0.50000000      -0.50000000      -0.45856584 </v>
   <v>       0.00000000       0.00000000      -0.45856584 </v>
   <v>      -0.50000000      -0.50000000      -0.37569751 </v>
   <v>      -0.50000000      -0.50000000      -0.20996086 </v>
   <v>      -0.50000000       0.00000000      -0.37569751 </v>
   <v>       0.00000000      -0.50000000      -0.37569751 </v>
   <v>      -0.50000000       0.00000000      -0.20996086 </v>
   <v>       0.00000000      -0.50000000      -0.20996086 </v>
   <v>      -0.50000000      -0.50000000      -0.29282919 </v>
   <v>       0.00000000       0.00000000      -0.29282919 </v>
  </varray>
 </structure>
 <varray name="primitive_index" >
  <v type="int" >        1 </v>
  <v type="int" >       17 </v>
  <v type="int" >       13 </v>
  <v type="int" >        2 </v>
  <v type="int" >        3 </v>
  <v type="int" >        4 </v>
  <v type="int" >       14 </v>
  <v type="int" >       18 </v>
  <v type="int" >        5 </v>
  <v type="int" >        6 </v>
  <v type="int" >        7 </v>
  <v type="int" >       15 </v>
  <v type="int" >       19 </v>
  <v type="int" >       20 </v>
  <v type="int" >        8 </v>
  <v type="int" >        9 </v>
  <v type="int" >       11 </v>
  <v type="int" >       12 </v>
  <v type="int" >       10 </v>
  <v type="int" >       16 </v>
 </varray>
 <kpoints>
  <generation param="Gamma">
   <v type="int" name="divisions">       7        7        1 </v>
   <v name="usershift">      0.00000000       0.00000000       0.00000000 </v>
   <v name="genvec1">      0.14285714       0.00000000       0.00000000 </v>
   <v name="genvec2">      0.00000000       0.14285714       0.00000000 </v>
   <v name="genvec3">      0.00000000       0.00000000       1.00000000 </v>
   <v name="shift">      0.00000000       0.00000000       0.00000000 </v>
  </generation>
  <varray name="kpointlist" >
   <v>       0.00000000       0.00000000       0.00000000 </v>
   <v>       0.14285714       0.00000000       0.00000000 </v>
   <v>       0.28571429       0.00000000       0.00000000 </v>
   <v>       0.42857143       0.00000000       0.00000000 </v>
   <v>       0.14285714       0.14285714       0.00000000 </v>
   <v>       0.28571429       0.14285714       0.00000000 </v>
   <v>       0.42857143       0.14285714       0.00000000 </v>
   <v>       0.28571429       0.28571429       0.00000000 </v>
   <v>       0.42857143       0.28571429       0.00000000 </v>
   <v>       0.42857143       0.42857143       0.00000000 </v>
  </varray>
  <varray name="weights" >
   <v>       0.02040816 </v>
   <v>       0.08163265 </v>
   <v>       0.08163265 </v>
   <v>       0.08163265 </v>
   <v>       0.08163265 </v>
   <v>       0.16326531 </v>
   <v>       0.16326531 </v>
   <v>       0.08163265 </v>
   <v>       0.16326531 </v>
   <v>       0.08163265 </v>
  </varray>
  <varray name="tetrahedronlist"  type="int" >
   <v type="int" >        4        1        1        2        5 </v>
   <v type="int" >        4        1        2        2        5 </v>
   <v type="int" >        4        1        2        5        5 </v>
   <v type="int" >        4        2        2        3        6 </v>
   <v type="int" >        4        2        2        5        6 </v>
   <v type="int" >        4        2        5        5        6 </v>
   <v type="int" >        4        2        3        3        6 </v>
   <v type="int" >        4        2        3        6        6 </v>
   <v type="int" >        4        2        5        6        6 </v>
   <v type="int" >        4        3        3        4        7 </v>
   <v type="int" >        4        3        3        6        7 </v>
   <v type="int" >        4        3        6        6        7 </v>
   <v type="int" >        4        3        4        4        7 </v>
   <v type="int" >        4        3        4        7        7 </v>
   <v type="int" >        4        3        6        7        7 </v>
   <v type="int" >        8        4        4        4        7 </v>
   <v type="int" >        8        4        4        7        7 </v>
   <v type="int" >        8        4        7        7        7 </v>
   <v type="int" >        4        3        4        4        6 </v>
   <v type="int" >        4        4        4        6        7 </v>
   <v type="int" >        4        4        6        7        7 </v>
   <v type="int" >        4        3        3        4        6 </v>
   <v type="int" >        4        3        4        6        6 </v>
   <v type="int" >        4        4        6        6        7 </v>
   <v type="int" >        4        2        3        3        5 </v>
   <v type="int" >        4        3        3        5        6 </v>
   <v type="int" >        4        3        5        6        6 </v>
   <v type="int" >        4        2        2        3        5 </v>
   <v type="int" >        4        2        3        5        5 </v>
   <v type="int" >        4        3        5        5        6 </v>
   <v type="int" >        4        1        2        2        2 </v>
   <v type="int" >        4        2        2        2        5 </v>
   <v type="int" >        2        2        2        5        5 </v>
   <v type="int" >        2        1        1        2        2 </v>
   <v type="int" >        4        5        5        6        8 </v>
   <v type="int" >        4        5        6        6        8 </v>
   <v type="int" >        4        5        6        8        8 </v>
   <v type="int" >        4        6        6        7        9 </v>
   <v type="int" >        4        6        6        8        9 </v>
   <v type="int" >        4        6        8        8        9 </v>
   <v type="int" >        4        6        7        7        9 </v>
   <v type="int" >        4        6        7        9        9 </v>
   <v type="int" >        4        6        8        9        9 </v>
   <v type="int" >        8        7        7        7        9 </v>
   <v type="int" >        8        7        7        9        9 </v>
   <v type="int" >        8        7        9        9        9 </v>
   <v type="int" >        4        6        7        7        8 </v>
   <v type="int" >        4        7        7        8        9 </v>
   <v type="int" >        4        7        8        9        9 </v>
   <v type="int" >        4        6        6        7        8 </v>
   <v type="int" >        4        6        7        8        8 </v>
   <v type="int" >        4        7        8        8        9 </v>
   <v type="int" >        4        5        6        6        6 </v>
   <v type="int" >        4        6        6        6        8 </v>
   <v type="int" >        2        6        6        8        8 </v>
   <v type="int" >        2        5        5        6        6 </v>
   <v type="int" >        4        8        8        9       10 </v>
   <v type="int" >        4        8        9        9       10 </v>
   <v type="int" >        4        8        9       10       10 </v>
   <v type="int" >       12        9        9        9       10 </v>
   <v type="int" >       10        9        9       10       10 </v>
   <v type="int" >        8        9       10       10       10 </v>
   <v type="int" >        4        8        9        9        9 </v>
   <v type="int" >        2        8        8        9        9 </v>
   <v type="int" >        6       10       10       10       10 </v>
  </varray>
  <i name="volumeweight">      0.00340136 </i>
 </kpoints>
 <parameters>
  <separator name="general" >
   <i type="string" name="SYSTEM">unknown system</i>
   <i type="logical" name="LCOMPAT"> F  </i>
  </separator>
  <separator name="electronic" >
   <i type="string" name="PREC">normal</i>
   <i name="ENMAX">    500.00000000</i>
   <i name="ENAUG">    605.39200000</i>
   <i name="EDIFF">      0.00001000</i>
   <i type="int" name="IALGO">    68</i>
   <i type="int" name="IWAVPR">    10</i>
   <i type="int" name="NBANDS">    76</i>
   <i name="NELECT">    128.00000000</i>
   <i type="int" name="TURBO">     0</i>
   <i type="int" name="IRESTART">     0</i>
   <i type="int" name="NREBOOT">     0</i>
   <i type="int" name="NMIN">     0</i>
   <i name="EREF">      0.00000000</i>
   <separator name="electronic smearing" >
    <i type="int" name="ISMEAR">    -5</i>
    <i name="SIGMA">      0.20000000</i>
    <i name="KSPACING">      0.50000000</i>
    <i type="logical" name="KGAMMA"> T  </i>
   </separator>
   <separator name="electronic projectors" >
    <i type="logical" name="LREAL"> F  </i>
    <v name="ROPT">      0.00000000      0.00000000      0.00000000</v>
    <i type="int" name="LMAXPAW">  -100</i>
    <i type="int" name="LMAXMIX">     2</i>
    <i type="logical" name="NLSPLINE"> F  </i>
   </separator>
   <separator name="electronic startup" >
    <i type="int" name="ISTART">     0</i>
    <i type="int" name="ICHARG">     2</i>
    <i type="int" name="INIWAV">     1</i>
   </separator>
   <separator name="electronic spin" >
    <i type="int" name="ISPIN">     1</i>
    <i type="logical" name="LNONCOLLINEAR"> F  </i>
    <v name="MAGMOM">      1.00000000      1.00000000      1.00000000      1.00000000      1.00000000      1.00000000      1.00000000      1.00000000      1.00000000      1.00000000      1.00000000      1.00000000      1.00000000      1.00000000      1.00000000      1.00000000      1.00000000      1.00000000      1.00000000      1.00000000
</v>
    <i name="NUPDOWN">     -1.00000000</i>
    <i type="logical" name="LSORBIT"> F  </i>
    <v name="SAXIS">      0.00000000      0.00000000      1.00000000</v>
    <i type="logical" name="LSPIRAL"> F  </i>
    <v name="QSPIRAL">      0.00000000      0.00000000      0.00000000</v>
    <i type="logical" name="LZEROZ"> F  </i>
   </separator>
   <separator name="electronic exchange-correlation" >
    <i type="logical" name="LASPH"> F  </i>
    <i type="logical" name="LMETAGGA"> F  </i>
   </separator>
   <separator name="electronic convergence" >
    <i type="int" name="NELM">    60</i>
    <i type="int" name="NELMDL">    -5</i>
    <i type="int" name="NELMIN">     4</i>
    <i name="ENINI">    500.00000000</i>
    <separator name="electronic convergence detail" >
     <i type="logical" name="LDIAG"> T  </i>
     <i type="logical" name="LSUBROT"> F  </i>
     <i name="WEIMIN">      0.00000000</i>
     <i name="EBREAK">      0.00000003</i>
     <i name="DEPER">      0.30000000</i>
     <i type="int" name="NRMM">     4</i>
     <i name="TIME">      0.40000000</i>
    </separator>
   </separator>
   <separator name="electronic mixer" >
    <i name="AMIX">      0.40000000</i>
    <i name="BMIX">      1.00000000</i>
    <i name="AMIN">      0.10000000</i>
    <i name="AMIX_MAG">      1.60000000</i>
    <i name="BMIX_MAG">      1.00000000</i>
    <separator name="electronic mixer details" >
     <i type="int" name="IMIX">     4</i>
     <i type="logical" name="MIXFIRST"> F  </i>
     <i type="int" name="MAXMIX">   -45</i>
     <i name="WC">    100.00000000</i>
     <i type="int" name="INIMIX">     1</i>
     <i type="int" name="MIXPRE">     1</i>
     <i type="int" name="MREMOVE">     5</i>
    </separator>
   </separator>
   <separator name="electronic dipolcorrection" >
    <i type="logical" name="LDIPOL"> F  </i>
    <i type="logical" name="LMONO"> F  </i>
    <i type="int" name="IDIPOL">     0</i>
    <i name="EPSILON">      1.00000000</i>
    <v name="DIPOL">   -100.00000000   -100.00000000   -100.00000000</v>
    <i name="EFIELD">      0.00000000</i>
   </separator>
  </separator>
  <separator name="grids" >
   <i type="int" name="NGX">    24</i>
   <i type="int" name="NGY">    24</i>
   <i type="int" name="NGZ">   140</i>
   <i type="int" name="NGXF">    48</i>
   <i type="int" name="NGYF">    48</i>
   <i type="int" name="NGZF">   280</i>
   <i type="logical" name="ADDGRID"> F  </i>
  </separator>
  <separator name="ionic" >
   <i type="int" name="NSW">     0</i>
   <i type="int" name="IBRION">    -1</i>
   <i type="int" name="MDALGO">     0</i>
   <i type="int" name="ISIF">     2</i>
   <i name="PSTRESS">      0.00000000</i>
   <i name="EDIFFG">      0.00010000</i>
   <i type="int" name="NFREE">     0</i>
   <i name="POTIM">      0.50000000</i>
   <i name="SMASS">     -3.00000000</i>
   <i name="SCALEE">      1.00000000</i>
  </separator>
  <separator name="ionic md" >
   <i name="TEBEG">      0.00010000</i>
   <i name="TEEND">      0.00010000</i>
   <i type="int" name="NBLOCK">     1</i>
   <i type="int" name="KBLOCK">     1</i>
   <i type="int" name="NPACO">   256</i>
   <i name="APACO">     16.00000000</i>
  </separator>
  <separator name="symmetry" >
   <i type="int" name="ISYM">     2</i>
   <i name="SYMPREC">      0.00001000</i>
  </separator>
  <separator name="dos" >
   <i type="int" name="LORBIT">     0</i>
   <v name="RWIGS">     -1.00000000     -1.00000000     -1.00000000</v>
   <i type="int" name="NEDOS">   301</i>
   <i name="EMIN">     10.00000000</i>
   <i name="EMAX">    -10.00000000</i>
   <i name="EFERMI">      0.00000000</i>
  </separator>
  <separator name="writing" >
   <i type="int" name="NWRITE">     2</i>
   <i type="logical" name="LWAVE"> F  </i>
   <i type="logical" name="LDOWNSAMPLE"> F  </i>
   <i type="logical" name="LCHARG"> T  </i>
   <i type="logical" name="LPARD"> F  </i>
   <i type="logical" name="LVTOT"> F  </i>
   <i type="logical" name="LVHAR"> F  </i>
   <i type="logical" name="LELF"> F  </i>
   <i type="logical" name="LOPTICS"> F  </i>
   <v name="STM">      0.00000000      0.00000000      0.00000000      0.00000000      0.00000000      0.00000000      0.00000000</v>
  </separator>
  <separator name="performance" >
   <i type="int" name="NPAR">     2</i>
   <i type="int" name="NSIM">     4</i>
   <i type="int" name="NBLK">    -1</i>
   <i type="logical" name="LPLANE"> T  </i>
   <i type="logical" name="LSCALAPACK"> T  </i>
   <i type="logical" name="LSCAAWARE"> F  </i>
   <i type="logical" name="LSCALU"> F  </i>
   <i type="logical" name="LASYNC"> F  </i>
   <i type="logical" name="LORBITALREAL"> F  </i>
  </separator>
  <separator name="miscellaneous" >
   <i type="int" name="IDIOT">     3</i>
   <i type="int" name="ISPECIAL">     0</i>
   <i type="logical" name="LMUSIC"> F  </i>
   <v name="POMASS">     16.00000000     87.62000000     47.88000000</v>
   <v name="DARWINR">      0.00000000      0.00000000      0.00000000</v>
   <v name="DARWINV">      1.00000000      1.00000000      1.00000000</v>
   <i type="logical" name="LCORR"> T  </i>
  </separator>
  <i type="logical" name="GGA_COMPAT"> T  </i>
  <i type="logical" name="LBERRY"> F  </i>
  <i type="int" name="ICORELEVEL">     0</i>
  <i type="logical" name="LDAU"> F  </i>
  <i type="int" name="I_CONSTRAINED_M">     0</i>
  <separator name="electronic exchange-correlation" >
   <i type="string" name="GGA">--</i>
   <i type="int" name="VOSKOWN">     0</i>
   <i type="logical" name="LHFCALC"> F  </i>
   <i type="string" name="PRECFOCK"></i>
   <i type="logical" name="LSYMGRAD"> F  </i>
   <i type="logical" name="LHFONE"> F  </i>
   <i type="logical" name="LRHFCALC"> F  </i>
   <i type="logical" name="LTHOMAS"> F  </i>
   <i type="logical" name="LMODELHF"> F  </i>
   <i name="ENCUT4O">     -1.00000000</i>
   <i type="int" name="EXXOEP">     0</i>
   <i type="int" name="FOURORBIT">     0</i>
   <i name="AEXX">      0.00000000</i>
   <i name="HFALPHA">      0.00000000</i>
   <i name="MCALPHA">      0.00000000</i>
   <i name="ALDAX">      1.00000000</i>
   <i name="AGGAX">      1.00000000</i>
   <i name="ALDAC">      1.00000000</i>
   <i name="AGGAC">      1.00000000</i>
   <i type="int" name="NKREDX">     1</i>
   <i type="int" name="NKREDY">     1</i>
   <i type="int" name="NKREDZ">     1</i>
   <i type="logical" name="SHIFTRED"> F  </i>
   <i type="logical" name="ODDONLY"> F  </i>
   <i type="logical" name="EVENONLY"> F  </i>
   <i type="int" name="LMAXFOCK">     0</i>
   <i type="int" name="NMAXFOCKAE">     0</i>
   <i type="logical" name="LFOCKAEDFT"> F  </i>
   <i name="HFSCREEN">      0.00000000</i>
   <i name="HFSCREENC">      0.00000000</i>
   <i type="int" name="NBANDSGWLOW">     0</i>
  </separator>
  <separator name="vdW DFT" >
   <i type="logical" name="LUSE_VDW"> F  </i>
   <i name="Zab_VDW">     -0.84910000</i>
   <i name="PARAM1">      0.12340000</i>
   <i name="PARAM2">      1.00000000</i>
   <i name="PARAM3">      0.00000000</i>
  </separator>
  <separator name="model GW" >
   <i type="int" name="MODEL_GW">     0</i>
   <i name="MODEL_EPS0">     11.12892850</i>
   <i name="MODEL_ALPHA">      1.00000000</i>
  </separator>
  <separator name="linear response parameters" >
   <i type="logical" name="LEPSILON"> F  </i>
   <i type="logical" name="LRPA"> F  </i>
   <i type="logical" name="LNABLA"> F  </i>
   <i type="logical" name="LVEL"> F  </i>
   <i type="int" name="KINTER">     0</i>
   <i name="CSHIFT">      0.10000000</i>
   <i name="OMEGAMAX">     -1.00000000</i>
   <i name="DEG_THRESHOLD">      0.00200000</i>
   <i name="RTIME">     -0.10000000</i>
   <i name="WPLASMAI">      0.00000000</i>
   <v name="DFIELD">      0.00000000      0.00000000      0.00000000</v>
   <v name="WPLASMA">      0.00000000      0.00000000      0.00000000      0.00000000      0.00000000      0.00000000      0.00000000      0.00000000      0.00000000</v>
  </separator>
  <separator name="orbital magnetization" >
   <i type="logical" name="NUCIND"> F  </i>
   <v name="MAGPOS">      0.00000000      0.00000000      0.00000000</v>
   <i type="logical" name="LNICSALL"> T  </i>
   <i type="logical" name="ORBITALMAG"> F  </i>
   <i type="logical" name="LMAGBLOCH"> F  </i>
   <i type="logical" name="LCHIMAG"> F  </i>
   <i type="logical" name="LGAUGE"> T  </i>
   <i type="int" name="MAGATOM">     0</i>
   <v name="MAGDIPOL">      0.00000000      0.00000000      0.00000000</v>
   <v name="AVECCONST">      0.00000000      0.00000000      0.00000000</v>
  </separator>
  <separator name="response functions" >
   <i type="logical" name="LADDER"> F  </i>
   <i type="logical" name="LRPAFORCE"> F  </i>
   <i type="logical" name="LFXC"> F  </i>
   <i type="logical" name="LHARTREE"> T  </i>
   <i type="int" name="IBSE">     0</i>
   <v type="int" name="KPOINT">    -1     0     0     0</v>
   <i type="logical" name="LTCTE"> F  </i>
   <i type="logical" name="LTETE"> F  </i>
   <i type="logical" name="LTRIPLET"> F  </i>
   <i type="logical" name="LFXCEPS"> F  </i>
   <i type="logical" name="LFXHEG"> F  </i>
   <i type="int" name="NATURALO">     2</i>
   <i type="logical" name="L2ORDER"> F  </i>
   <i type="logical" name="LMP2LT"> F  </i>
   <i type="logical" name="LUSEW"> F  </i>
   <i name="ENCUTGW">     -2.00000000</i>
   <i name="ENCUTGWSOFT">     -2.00000000</i>
   <i name="ENCUTLF">     -1.00000000</i>
   <i type="int" name="LMAXMP2">    -1</i>
   <i name="SCISSOR">      0.00000000</i>
   <i type="int" name="NOMEGA">     0</i>
   <i type="int" name="NOMEGAR">     0</i>
   <i type="int" name="NBANDSGW">    -1</i>
   <i type="int" name="NBANDSO">    -1</i>
   <i type="int" name="NBANDSV">    -1</i>
   <i type="int" name="NELM">     1</i>
   <i type="int" name="NELMHF">     1</i>
   <i type="int" name="DIM">     3</i>
   <i type="int" name="ANTIRES">     0</i>
   <i name="OMEGAMAX">    -30.00000000</i>
   <i name="OMEGAMIN">    -30.00000000</i>
   <i name="OMEGATL">   -200.00000000</i>
   <i type="int" name="OMEGAGRID">   140</i>
   <i name="CSHIFT">     -0.10000000</i>
   <i type="logical" name="SELFENERGY"> F  </i>
   <i type="logical" name="LSPECTRAL"> F  </i>
   <i type="logical" name="LSPECTRALGW"> F  </i>
   <i type="logical" name="LSINGLES"> F  </i>
   <i type="logical" name="LFERMIGW"> F  </i>
   <i type="logical" name="ODDONLYGW"> F  </i>
   <i type="logical" name="EVENONLYGW"> F  </i>
   <i type="int" name="NKREDLFX">     1</i>
   <i type="int" name="NKREDLFY">     1</i>
   <i type="int" name="NKREDLFZ">     1</i>
   <i type="int" name="MAXMEM">  2800</i>
   <i type="int" name="TELESCOPE">     0</i>
   <i type="int" name="TAUPAR">     1</i>
   <i type="int" name="OMEGAPAR">    -1</i>
   <i name="LAMBDA">      1.00000000</i>
  </separator>
  <separator name="External order field" >
   <i name="OFIELD_KAPPA">      0.00000000</i>
   <v name="OFIELD_K">      0.00000000      0.00000000      0.00000000</v>
   <i name="OFIELD_Q6_NEAR">      0.00000000</i>
   <i name="OFIELD_Q6_FAR">      0.00000000</i>
   <i name="OFIELD_A">      0.00000000</i>
  </separator>
 </parameters>
 <atominfo>
  <atoms>      20 </atoms>
  <types>       3 </types>
  <array name="atoms" >
   <dimension dim="1">ion</dimension>
   <field type="string">element</field>
   <field type="int">atomtype</field>
   <set>
    <rc><c>O </c><c>   1</c></rc>
    <rc><c>O </c><c>   1</c></rc>
    <rc><c>O </c><c>   1</c></rc>
    <rc><c>O </c><c>   1</c></rc>
    <rc><c>O </c><c>   1</c></rc>
    <rc><c>O </c><c>   1</c></rc>
    <rc><c>O </c><c>   1</c></rc>
    <rc><c>O </c><c>   1</c></rc>
    <rc><c>O </c><c>   1</c></rc>
    <rc><c>O </c><c>   1</c></rc>
    <rc><c>O </c><c>   1</c></rc>
    <rc><c>O </c><c>   1</c></rc>
    <rc><c>Sr</c><c>   2</c></rc>
    <rc><c>Sr</c><c>   2</c></rc>
    <rc><c>Sr</c><c>   2</c></rc>
    <rc><c>Sr</c><c>   2</c></rc>
    <rc><c>Ti</c><c>   3</c></rc>
    <rc><c>Ti</c><c>   3</c></rc>
    <rc><c>Ti</c><c>   3</c></rc>
    <rc><c>Ti</c><c>   3</c></rc>
   </set>
  </array>
  <array name="atomtypes" >
   <dimension dim="1">type</dimension>
   <field type="int">atomspertype</field>
   <field type="string">element</field>
   <field>mass</field>
   <field>valence</field>
   <field type="string">pseudopotential</field>
   <set>
    <rc><c>  12</c><c>O </c><c>     16.00000000</c><c>      6.00000000</c><c> PAW_PBE O 08Apr2002                    </c></rc>
    <rc><c>   4</c><c>Sr</c><c>     87.62000000</c><c>     10.00000000</c><c> PAW_PBE Sr_sv 07Sep2000                </c></rc>
    <rc><c>   4</c><c>Ti</c><c>     47.88000000</c><c>      4.00000000</c><c> PAW_PBE Ti 08Apr2002                   </c></rc>
   </set>
  </array>
 </atominfo>
 <structure name="initialpos" >
  <crystal>
   <varray name="basis" >
    <v>       3.94684634       0.00000000       0.00000000 </v>
    <v>       0.00000000       3.94684634       0.00000000 </v>
    <v>       0.00000000       0.00000000      23.81396220 </v>
   </varray>
   <i name="volume">    370.96428330 </i>
   <varray name="rec_basis" >
    <v>       0.25336684       0.00000000       0.00000000 </v>
    <v>       0.00000000       0.25336684       0.00000000 </v>
    <v>       0.00000000       0.00000000       0.04199217 </v>
   </varray>
  </crystal>
  <varray name="positions" >
   <v>       0.50000000       0.50000000       0.20996086 </v>
   <v>       0.50000000       0.00000000       0.29282919 </v>
   <v>       0.00000000       0.50000000       0.29282919 </v>
   <v>       0.50000000       0.50000000       0.37569751 </v>
   <v>       0.50000000       0.00000000       0.45856584 </v>
   <v>       0.00000000       0.50000000       0.45856584 </v>
   <v>       0.50000000       0.50000000       0.54143416 </v>
   <v>       0.50000000       0.00000000       0.62430249 </v>
   <v>       0.00000000       0.50000000       0.62430249 </v>
   <v>       0.50000000       0.50000000       0.70717081 </v>
   <v>       0.50000000       0.00000000       0.79003914 </v>
   <v>       0.00000000       0.50000000       0.79003914 </v>
   <v>       0.00000000       0.00000000       0.20996086 </v>
   <v>       0.00000000       0.00000000       0.37569751 </v>
   <v>       0.00000000       0.00000000       0.54143416 </v>
   <v>       0.00000000       0.00000000       0.70717081 </v>
   <v>       0.50000000       0.50000000       0.29282919 </v>
   <v>       0.50000000       0.50000000       0.45856584 </v>
   <v>       0.50000000       0.50000000       0.62430249 </v>
   <v>       0.50000000       0.50000000       0.79003914 </v>
  </varray>
 </structure>
 <calculation>
  <scstep>
   <time name="dav">    5.12    5.12</time>
   <time name="total">    5.25    5.27</time>
   <energy>
    <i name="alphaZ">    476.26625303 </i>
    <i name="ewald">  14479.18975078 </i>
    <i name="hartreedc"> -23036.64632708 </i>
    <i name="XCdc">    325.52664349 </i>
    <i name="pawpsdc">   5334.45189010 </i>
    <i name="pawaedc">  -5139.13784255 </i>
    <i name="eentropy">      0.00000000 </i>
    <i name="bandstr">    221.16239005 </i>
    <i name="atom">   8937.26825017 </i>
    <i name="e_fr_energy">   1598.08100800 </i>
    <i name="e_wo_entrp">   1598.08100800 </i>
    <i name="e_0_energy">   1598.08100800 </i>
   </energy>
  </scstep>
  <scstep>
   <time name="dav">    5.73    5.73</time>
   <time name="total">    5.74    5.74</time>
   <energy>
    <i name="e_fr_energy">    178.15368051 </i>
    <i name="e_wo_entrp">    178.15368051 </i>
    <i name="e_0_energy">    178.15368051 </i>
   </energy>
  </scstep>
  <scstep>
   <time name="dav">    6.43    6.43</time>
   <time name="total">    6.43    6.43</time>
   <energy>
    <i name="e_fr_energy">   -174.01330614 </i>
    <i name="e_wo_entrp">   -174.01330614 </i>
    <i name="e_0_energy">   -174.01330614 </i>
   </energy>
  </scstep>
  <scstep>
   <time name="dav">    6.18    6.18</time>
   <time name="total">    6.19    6.18</time>
   <energy>
    <i name="e_fr_energy">   -200.84085159 </i>
    <i name="e_wo_entrp">   -200.84085159 </i>
    <i name="e_0_energy">   -200.84085159 </i>
   </energy>
  </scstep>
  <scstep>
   <time name="dav">    7.73    7.72</time>
   <time name="total">    7.93    7.93</time>
   <energy>
    <i name="e_fr_energy">   -202.29872692 </i>
    <i name="e_wo_entrp">   -202.29872692 </i>
    <i name="e_0_energy">   -202.29872692 </i>
   </energy>
  </scstep>
  <scstep>
   <time name="diag">    0.61    0.61</time>
   <time name="diis">    3.94    3.94</time>
   <time name="orth">    0.11    0.11</time>
   <time name="total">    5.00    5.00</time>
   <energy>
    <i name="e_fr_energy">   -161.84629567 </i>
    <i name="e_wo_entrp">   -161.84629567 </i>
    <i name="e_0_energy">   -161.84629567 </i>
   </energy>
  </scstep>
  <scstep>
   <time name="diag">    0.60    0.60</time>
   <time name="diis">    4.27    4.27</time>
   <time name="orth">    0.11    0.11</time>
   <time name="total">    5.30    5.30</time>
   <energy>
    <i name="e_fr_energy">   -157.75501848 </i>
    <i name="e_wo_entrp">   -157.75501848 </i>
    <i name="e_0_energy">   -157.75501848 </i>
   </energy>
  </scstep>
  <scstep>
   <time name="diag">    0.60    0.60</time>
   <time name="diis">    4.92    4.92</time>
   <time name="orth">    0.11    0.11</time>
   <time name="total">    5.96    5.96</time>
   <energy>
    <i name="e_fr_energy">   -157.01918652 </i>
    <i name="e_wo_entrp">   -157.01918652 </i>
    <i name="e_0_energy">   -157.01918652 </i>
   </energy>
  </scstep>
  <scstep>
   <time name="diag">    0.60    0.60</time>
   <time name="diis">    4.81    4.80</time>
   <time name="orth">    0.11    0.11</time>
   <time name="total">    5.85    5.85</time>
   <energy>
    <i name="e_fr_energy">   -156.76647434 </i>
    <i name="e_wo_entrp">   -156.76647434 </i>
    <i name="e_0_energy">   -156.76647434 </i>
   </energy>
  </scstep>
  <scstep>
   <time name="diag">    0.60    0.60</time>
   <time name="diis">    5.53    5.53</time>
   <time name="orth">    0.12    0.11</time>
   <time name="total">    6.57    6.58</time>
   <energy>
    <i name="e_fr_energy">   -156.71597507 </i>
    <i name="e_wo_entrp">   -156.71597507 </i>
    <i name="e_0_energy">   -156.71597507 </i>
   </energy>
  </scstep>
  <scstep>
   <time name="diag">    0.59    0.59</time>
   <time name="diis">    5.08    5.08</time>
   <time name="orth">    0.11    0.11</time>
   <time name="total">    6.10    6.10</time>
   <energy>
    <i name="e_fr_energy">   -156.68713531 </i>
    <i name="e_wo_entrp">   -156.68713531 </i>
    <i name="e_0_energy">   -156.68713531 </i>
   </energy>
  </scstep>
  <scstep>
   <time name="diag">    0.57    0.57</time>
   <time name="diis">    5.11    5.11</time>
   <time name="orth">    0.11    0.11</time>
   <time name="total">    6.10    6.10</time>
   <energy>
    <i name="e_fr_energy">   -156.67330573 </i>
    <i name="e_wo_entrp">   -156.67330573 </i>
    <i name="e_0_energy">   -156.67330573 </i>
   </energy>
  </scstep>
  <scstep>
   <time name="diag">    0.56    0.56</time>
   <time name="diis">    5.30    5.30</time>
   <time name="orth">    0.11    0.11</time>
   <time name="total">    6.27    6.27</time>
   <energy>
    <i name="e_fr_energy">   -156.66576232 </i>
    <i name="e_wo_entrp">   -156.66576232 </i>
    <i name="e_0_energy">   -156.66576232 </i>
   </energy>
  </scstep>
  <scstep>
   <time name="diag">    0.56    0.56</time>
   <time name="diis">    4.37    4.37</time>
   <time name="orth">    0.10    0.10</time>
   <time name="total">    5.33    5.33</time>
   <energy>
    <i name="e_fr_energy">   -156.66123196 </i>
    <i name="e_wo_entrp">   -156.66123196 </i>
    <i name="e_0_energy">   -156.66123196 </i>
   </energy>
  </scstep>
  <scstep>
   <time name="diag">    0.54    0.54</time>
   <time name="diis">    4.78    4.81</time>
   <time name="orth">    0.11    0.11</time>
   <time name="total">    5.74    5.77</time>
   <energy>
    <i name="e_fr_energy">   -156.66090666 </i>
    <i name="e_wo_entrp">   -156.66090666 </i>
    <i name="e_0_energy">   -156.66090666 </i>
   </energy>
  </scstep>
  <scstep>
   <time name="diag">    0.56    0.57</time>
   <time name="diis">    5.28    5.27</time>
   <time name="orth">    0.11    0.11</time>
   <time name="total">    6.27    6.27</time>
   <energy>
    <i name="e_fr_energy">   -156.66293354 </i>
    <i name="e_wo_entrp">   -156.66293354 </i>
    <i name="e_0_energy">   -156.66293354 </i>
   </energy>
  </scstep>
  <scstep>
   <time name="diag">    0.61    0.61</time>
   <time name="diis">    5.94    5.94</time>
   <time name="orth">    0.12    0.12</time>
   <time name="total">    6.99    6.99</time>
   <energy>
    <i name="e_fr_energy">   -156.66503600 </i>
    <i name="e_wo_entrp">   -156.66503600 </i>
    <i name="e_0_energy">   -156.66503600 </i>
   </energy>
  </scstep>
  <scstep>
   <time name="diag">    0.61    0.61</time>
   <time name="diis">    5.21    5.20</time>
   <time name="orth">    0.12    0.12</time>
   <time name="total">    6.26    6.26</time>
   <energy>
    <i name="e_fr_energy">   -156.66553971 </i>
    <i name="e_wo_entrp">   -156.66553971 </i>
    <i name="e_0_energy">   -156.66553971 </i>
   </energy>
  </scstep>
  <scstep>
   <time name="diag">    0.61    0.61</time>
   <time name="diis">    4.79    4.79</time>
   <time name="orth">    0.12    0.12</time>
   <time name="total">    5.85    5.84</time>
   <energy>
    <i name="e_fr_energy">   -156.66613632 </i>
    <i name="e_wo_entrp">   -156.66613632 </i>
    <i name="e_0_energy">   -156.66613632 </i>
   </energy>
  </scstep>
  <scstep>
   <time name="diag">    0.61    0.61</time>
   <time name="diis">    4.50    4.50</time>
   <time name="orth">    0.12    0.12</time>
   <time name="total">    5.55    5.55</time>
   <energy>
    <i name="e_fr_energy">   -156.66639758 </i>
    <i name="e_wo_entrp">   -156.66639758 </i>
    <i name="e_0_energy">   -156.66639758 </i>
   </energy>
  </scstep>
  <scstep>
   <time name="diag">    0.61    0.61</time>
   <time name="diis">    3.62    3.62</time>
   <time name="orth">    0.12    0.12</time>
   <time name="total">    4.67    4.67</time>
   <energy>
    <i name="e_fr_energy">   -156.66646178 </i>
    <i name="e_wo_entrp">   -156.66646178 </i>
    <i name="e_0_energy">   -156.66646178 </i>
   </energy>
  </scstep>
  <scstep>
   <time name="diag">    0.61    0.61</time>
   <time name="diis">    3.40    3.40</time>
   <time name="orth">    0.12    0.12</time>
   <time name="total">    4.45    4.46</time>
   <energy>
    <i name="e_fr_energy">   -156.66647836 </i>
    <i name="e_wo_entrp">   -156.66647836 </i>
    <i name="e_0_energy">   -156.66647836 </i>
   </energy>
  </scstep>
  <scstep>
   <time name="diag">    0.61    0.61</time>
   <time name="diis">    3.15    3.15</time>
   <time name="orth">    0.12    0.12</time>
   <time name="total">    4.00    4.00</time>
   <energy>
    <i name="alphaZ">    476.26625303 </i>
    <i name="ewald">  14479.18975078 </i>
    <i name="hartreedc"> -23405.21111022 </i>
    <i name="XCdc">    341.54666788 </i>
    <i name="pawpsdc">   6145.18141731 </i>
    <i name="pawaedc">  -5975.12595190 </i>
    <i name="eentropy">      0.00000000 </i>
    <i name="bandstr">  -1155.78176120 </i>
    <i name="atom">   8937.26825017 </i>
    <i name="e_fr_energy">   -156.66648413 </i>
    <i name="e_wo_entrp">   -156.66648413 </i>
    <i name="e_0_energy">   -156.66648413 </i>
   </energy>
  </scstep>
  <structure>
   <crystal>
    <varray name="basis" >
     <v>       3.94684634       0.00000000       0.00000000 </v>
     <v>       0.00000000       3.94684634       0.00000000 </v>
     <v>       0.00000000       0.00000000      23.81396220 </v>
    </varray>
    <i name="volume">    370.96428330 </i>
    <varray name="rec_basis" >
     <v>       0.25336684       0.00000000       0.00000000 </v>
     <v>       0.00000000       0.25336684       0.00000000 </v>
     <v>       0.00000000       0.00000000       0.04199217 </v>
    </varray>
   </crystal>
   <varray name="positions" >
    <v>       0.50000000       0.50000000       0.20996086 </v>
    <v>       0.50000000       0.00000000       0.29282919 </v>
    <v>       0.00000000       0.50000000       0.29282919 </v>
    <v>       0.50000000       0.50000000       0.37569751 </v>
    <v>       0.50000000       0.00000000       0.45856584 </v>
    <v>       0.00000000       0.50000000       0.45856584 </v>
    <v>       0.50000000       0.50000000       0.54143416 </v>
    <v>       0.50000000       0.00000000       0.62430249 </v>
    <v>       0.00000000       0.50000000       0.62430249 </v>
    <v>       0.50000000       0.50000000       0.70717081 </v>
    <v>       0.50000000       0.00000000       0.79003914 </v>
    <v>       0.00000000       0.50000000       0.79003914 </v>
    <v>       0.00000000       0.00000000       0.20996086 </v>
    <v>       0.00000000       0.00000000       0.37569751 </v>
    <v>       0.00000000       0.00000000       0.54143416 </v>
    <v>       0.00000000       0.00000000       0.70717081 </v>
    <v>       0.50000000       0.50000000       0.29282919 </v>
    <v>       0.50000000       0.50000000       0.45856584 </v>
    <v>       0.50000000       0.50000000       0.62430249 </v>
    <v>       0.50000000       0.50000000       0.79003914 </v>
   </varray>
  </structure>
  <varray name="forces" >
   <v>       0.00000000       0.00000000      -0.63130643 </v>
   <v>      -0.00000000       0.00000000       0.00780374 </v>
   <v>      -0.00000000       0.00000000       0.00780374 </v>
   <v>      -0.00000000      -0.00000000       0.42545077 </v>
   <v>      -0.00000000       0.00000000       0.08253462 </v>
   <v>      -0.00000000      -0.00000000       0.08253462 </v>
   <v>      -0.00000000       0.00000000       0.35272685 </v>
   <v>      -0.00000000       0.00000000       0.04176128 </v>
   <v>      -0.00000000      -0.00000000       0.04176128 </v>
   <v>      -0.00000000       0.00000000       1.04924716 </v>
   <v>      -0.00000000       0.00000000       0.40102254 </v>
   <v>      -0.00000000      -0.00000000       0.40102254 </v>
   <v>      -0.00000000       0.00000000       1.31871752 </v>
   <v>      -0.00000000       0.00000000      -0.02703293 </v>
   <v>      -0.00000000       0.00000000      -0.07937510 </v>
   <v>      -0.00000000       0.00000000       0.61261814 </v>
   <v>      -0.00000000       0.00000000      -1.05215031 </v>
   <v>      -0.00000000       0.00000000      -0.37251281 </v>
   <v>      -0.00000000       0.00000000      -0.43146957 </v>
   <v>      -0.00000000       0.00000000      -2.23115762 </v>
  </varray>
  <varray name="stress" >
   <v>     -24.51818444       0.00000000      -0.00000000 </v>
   <v>       0.00000000     -24.51818444       0.00000000 </v>
   <v>      -0.00000000       0.00000000     -15.17552780 </v>
  </varray>
  <energy>
   <i name="e_fr_energy">   -156.66648413 </i>
   <i name="e_wo_entrp">   -156.66648413 </i>
   <i name="e_0_energy">      0.00000000 </i>
  </energy>
  <time name="totalsc">  141.47  141.75</time>
  <eigenvalues>
   <array>
    <dimension dim="1">band</dimension>
    <dimension dim="2">kpoint</dimension>
    <dimension dim="3">spin</dimension>
    <field>eigene</field>
    <field>occ</field>
    <set>
     <set comment="spin 1">
      <set comment="kpoint 1">
       <r>  -33.6229    1.0000 </r>
       <r>  -32.6782    1.0000 </r>
       <r>  -32.5813    1.0000 </r>
       <r>  -32.5556    1.0000 </r>
       <r>  -17.3688    1.0000 </r>
       <r>  -17.2563    1.0000 </r>
       <r>  -17.1577    1.0000 </r>
       <r>  -16.7734    1.0000 </r>
       <r>  -16.2782    1.0000 </r>
       <r>  -16.2370    1.0000 </r>
       <r>  -16.2188    1.0000 </r>
       <r>  -16.1429    1.0000 </r>
       <r>  -16.0686    1.0000 </r>
       <r>  -16.0652    1.0000 </r>
       <r>  -15.7194    1.0000 </r>
       <r>  -15.5544    1.0000 </r>
       <r>  -15.5364    1.0000 </r>
       <r>  -15.5364    1.0000 </r>
       <r>  -15.2853    1.0000 </r>
       <r>  -14.7224    1.0000 </r>
       <r>  -14.7224    1.0000 </r>
       <r>  -14.6408    1.0000 </r>
       <r>  -14.6408    1.0000 </r>
       <r>  -14.5942    1.0000 </r>
       <r>  -14.5942    1.0000 </r>
       <r>  -14.5717    1.0000 </r>
       <r>  -14.2905    1.0000 </r>
       <r>  -14.1786    1.0000 </r>
       <r>   -3.9606    1.0000 </r>
       <r>   -3.4280    1.0000 </r>
       <r>   -2.9097    1.0000 </r>
       <r>   -2.7615    1.0000 </r>
       <r>   -2.7615    1.0000 </r>
       <r>   -2.6258    1.0000 </r>
       <r>   -2.6258    1.0000 </r>
       <r>   -2.5287    1.0000 </r>
       <r>   -2.5287    1.0000 </r>
       <r>   -2.2978    1.0000 </r>
       <r>   -2.2978    1.0000 </r>
       <r>   -2.2087    1.0000 </r>
       <r>   -1.9985    1.0000 </r>
       <r>   -1.8804    1.0000 </r>
       <r>   -1.8804    1.0000 </r>
       <r>   -1.6377    1.0000 </r>
       <r>   -1.5940    1.0000 </r>
       <r>   -1.5112    1.0000 </r>
       <r>   -1.5112    1.0000 </r>
       <r>   -1.3832    1.0000 </r>
       <r>   -1.1857    1.0000 </r>
       <r>   -1.1857    1.0000 </r>
       <r>   -1.1029    1.0000 </r>
       <r>   -1.0658    1.0000 </r>
       <r>   -0.7622    1.0000 </r>
       <r>   -0.7622    1.0000 </r>
       <r>   -0.6471    1.0000 </r>
       <r>   -0.5394    1.0000 </r>
       <r>   -0.5394    1.0000 </r>
       <r>   -0.3990    1.0000 </r>
       <r>   -0.3697    1.0000 </r>
       <r>   -0.3697    1.0000 </r>
       <r>   -0.1233    1.0000 </r>
       <r>   -0.1233    1.0000 </r>
       <r>    0.0906    1.0000 </r>
       <r>    0.0906    1.0000 </r>
       <r>    1.7439    0.0000 </r>
       <r>    1.8351    0.0000 </r>
       <r>    1.8351    0.0000 </r>
       <r>    1.9151    0.0000 </r>
       <r>    2.0761    0.0000 </r>
       <r>    2.0803    0.0000 </r>
       <r>    2.4099    0.0000 </r>
       <r>    2.4173    0.0000 </r>
       <r>    2.6961    0.0000 </r>
       <r>    3.0657    0.0000 </r>
       <r>    5.5982    0.0000 </r>
       <r>    5.9343    0.0000 </r>
      </set>
      <set comment="kpoint 2">
       <r>  -33.6200    1.0000 </r>
       <r>  -32.6748    1.0000 </r>
       <r>  -32.5778    1.0000 </r>
       <r>  -32.5521    1.0000 </r>
       <r>  -17.3053    1.0000 </r>
       <r>  -17.1936    1.0000 </r>
       <r>  -17.1343    1.0000 </r>
       <r>  -16.7689    1.0000 </r>
       <r>  -16.2932    1.0000 </r>
       <r>  -16.2553    1.0000 </r>
       <r>  -16.2109    1.0000 </r>
       <r>  -16.1748    1.0000 </r>
       <r>  -16.1285    1.0000 </r>
       <r>  -16.0789    1.0000 </r>
       <r>  -15.7838    1.0000 </r>
       <r>  -15.7152    1.0000 </r>
       <r>  -15.5295    1.0000 </r>
       <r>  -15.5248    1.0000 </r>
       <r>  -15.0171    1.0000 </r>
       <r>  -14.7140    1.0000 </r>
       <r>  -14.6319    1.0000 </r>
       <r>  -14.6240    1.0000 </r>
       <r>  -14.5947    1.0000 </r>
       <r>  -14.5856    1.0000 </r>
       <r>  -14.5381    1.0000 </r>
       <r>  -14.4844    1.0000 </r>
       <r>  -14.3072    1.0000 </r>
       <r>  -14.2131    1.0000 </r>
       <r>   -3.9724    1.0000 </r>
       <r>   -3.4732    1.0000 </r>
       <r>   -3.0796    1.0000 </r>
       <r>   -2.9898    1.0000 </r>
       <r>   -2.9411    1.0000 </r>
       <r>   -2.8246    1.0000 </r>
       <r>   -2.7656    1.0000 </r>
       <r>   -2.6889    1.0000 </r>
       <r>   -2.6303    1.0000 </r>
       <r>   -2.5276    1.0000 </r>
       <r>   -2.5197    1.0000 </r>
       <r>   -2.3502    1.0000 </r>
       <r>   -2.2399    1.0000 </r>
       <r>   -2.0027    1.0000 </r>
       <r>   -1.9555    1.0000 </r>
       <r>   -1.7617    1.0000 </r>
       <r>   -1.7299    1.0000 </r>
       <r>   -1.5938    1.0000 </r>
       <r>   -1.4546    1.0000 </r>
       <r>   -1.3482    1.0000 </r>
       <r>   -1.2256    1.0000 </r>
       <r>   -1.1337    1.0000 </r>
       <r>   -1.0297    1.0000 </r>
       <r>   -1.0139    1.0000 </r>
       <r>   -0.9591    1.0000 </r>
       <r>   -0.8949    1.0000 </r>
       <r>   -0.8335    1.0000 </r>
       <r>   -0.7862    1.0000 </r>
       <r>   -0.6960    1.0000 </r>
       <r>   -0.6780    1.0000 </r>
       <r>   -0.6307    1.0000 </r>
       <r>   -0.5758    1.0000 </r>
       <r>   -0.2805    1.0000 </r>
       <r>   -0.2501    1.0000 </r>
       <r>   -0.2444    1.0000 </r>
       <r>   -0.2095    1.0000 </r>
       <r>    1.8503    0.0000 </r>
       <r>    2.1496    0.0000 </r>
       <r>    2.1850    0.0000 </r>
       <r>    2.3161    0.0000 </r>
       <r>    2.4177    0.0000 </r>
       <r>    2.4777    0.0000 </r>
       <r>    2.4969    0.0000 </r>
       <r>    2.5749    0.0000 </r>
       <r>    2.8159    0.0000 </r>
       <r>    3.0100    0.0000 </r>
       <r>    3.2484    0.0000 </r>
       <r>    5.8659    0.0000 </r>
      </set>
      <set comment="kpoint 3">
       <r>  -33.6134    1.0000 </r>
       <r>  -32.6669    1.0000 </r>
       <r>  -32.5700    1.0000 </r>
       <r>  -32.5444    1.0000 </r>
       <r>  -17.2704    1.0000 </r>
       <r>  -17.0967    1.0000 </r>
       <r>  -17.0094    1.0000 </r>
       <r>  -16.7577    1.0000 </r>
       <r>  -16.3754    1.0000 </r>
       <r>  -16.2814    1.0000 </r>
       <r>  -16.2635    1.0000 </r>
       <r>  -16.2216    1.0000 </r>
       <r>  -16.1121    1.0000 </r>
       <r>  -16.0953    1.0000 </r>
       <r>  -15.8816    1.0000 </r>
       <r>  -15.6952    1.0000 </r>
       <r>  -15.5158    1.0000 </r>
       <r>  -15.5140    1.0000 </r>
       <r>  -14.7136    1.0000 </r>
       <r>  -14.6949    1.0000 </r>
       <r>  -14.6119    1.0000 </r>
       <r>  -14.5842    1.0000 </r>
       <r>  -14.5662    1.0000 </r>
       <r>  -14.4575    1.0000 </r>
       <r>  -14.3689    1.0000 </r>
       <r>  -14.3358    1.0000 </r>
       <r>  -14.2923    1.0000 </r>
       <r>  -14.2720    1.0000 </r>
       <r>   -4.0128    1.0000 </r>
       <r>   -3.8123    1.0000 </r>
       <r>   -3.6092    1.0000 </r>
       <r>   -3.5336    1.0000 </r>
       <r>   -3.3928    1.0000 </r>
       <r>   -3.2951    1.0000 </r>
       <r>   -3.2123    1.0000 </r>
       <r>   -3.0101    1.0000 </r>
       <r>   -2.8607    1.0000 </r>
       <r>   -2.7672    1.0000 </r>
       <r>   -2.6404    1.0000 </r>
       <r>   -2.5841    1.0000 </r>
       <r>   -2.5266    1.0000 </r>
       <r>   -2.4660    1.0000 </r>
       <r>   -2.1545    1.0000 </r>
       <r>   -1.9780    1.0000 </r>
       <r>   -1.8762    1.0000 </r>
       <r>   -1.8440    1.0000 </r>
       <r>   -1.6047    1.0000 </r>
       <r>   -1.6006    1.0000 </r>
       <r>   -1.4981    1.0000 </r>
       <r>   -1.4924    1.0000 </r>
       <r>   -1.4632    1.0000 </r>
       <r>   -1.3069    1.0000 </r>
       <r>   -1.2179    1.0000 </r>
       <r>   -1.1789    1.0000 </r>
       <r>   -1.1057    1.0000 </r>
       <r>   -1.0322    1.0000 </r>
       <r>   -0.8760    1.0000 </r>
       <r>   -0.7473    1.0000 </r>
       <r>   -0.6577    1.0000 </r>
       <r>   -0.6518    1.0000 </r>
       <r>   -0.4725    1.0000 </r>
       <r>   -0.4099    1.0000 </r>
       <r>   -0.3932    1.0000 </r>
       <r>   -0.1508    1.0000 </r>
       <r>    1.8917    0.0000 </r>
       <r>    2.4475    0.0000 </r>
       <r>    2.8864    0.0000 </r>
       <r>    2.8993    0.0000 </r>
       <r>    2.9874    0.0000 </r>
       <r>    3.0762    0.0000 </r>
       <r>    3.1100    0.0000 </r>
       <r>    3.2021    0.0000 </r>
       <r>    3.2376    0.0000 </r>
       <r>    3.3079    0.0000 </r>
       <r>    3.4756    0.0000 </r>
       <r>    6.8673    0.0000 </r>
      </set>
      <set comment="kpoint 4">
       <r>  -33.6081    1.0000 </r>
       <r>  -32.6606    1.0000 </r>
       <r>  -32.5637    1.0000 </r>
       <r>  -32.5382    1.0000 </r>
       <r>  -17.3308    1.0000 </r>
       <r>  -17.1058    1.0000 </r>
       <r>  -16.8806    1.0000 </r>
       <r>  -16.6334    1.0000 </r>
       <r>  -16.4129    1.0000 </r>
       <r>  -16.3876    1.0000 </r>
       <r>  -16.2909    1.0000 </r>
       <r>  -16.1870    1.0000 </r>
       <r>  -16.1370    1.0000 </r>
       <r>  -15.9939    1.0000 </r>
       <r>  -15.9180    1.0000 </r>
       <r>  -15.6765    1.0000 </r>
       <r>  -15.5015    1.0000 </r>
       <r>  -15.4780    1.0000 </r>
       <r>  -14.6795    1.0000 </r>
       <r>  -14.5956    1.0000 </r>
       <r>  -14.5773    1.0000 </r>
       <r>  -14.5505    1.0000 </r>
       <r>  -14.5439    1.0000 </r>
       <r>  -14.3697    1.0000 </r>
       <r>  -14.3339    1.0000 </r>
       <r>  -14.3038    1.0000 </r>
       <r>  -14.2399    1.0000 </r>
       <r>  -14.1570    1.0000 </r>
       <r>   -4.2016    1.0000 </r>
       <r>   -4.1636    1.0000 </r>
       <r>   -4.0373    1.0000 </r>
       <r>   -3.9050    1.0000 </r>
       <r>   -3.8544    1.0000 </r>
       <r>   -3.7458    1.0000 </r>
       <r>   -3.6586    1.0000 </r>
       <r>   -3.3471    1.0000 </r>
       <r>   -3.0956    1.0000 </r>
       <r>   -2.8228    1.0000 </r>
       <r>   -2.7507    1.0000 </r>
       <r>   -2.6622    1.0000 </r>
       <r>   -2.5517    1.0000 </r>
       <r>   -2.4977    1.0000 </r>
       <r>   -2.3469    1.0000 </r>
       <r>   -2.3390    1.0000 </r>
       <r>   -2.1286    1.0000 </r>
       <r>   -1.9869    1.0000 </r>
       <r>   -1.8663    1.0000 </r>
       <r>   -1.8386    1.0000 </r>
       <r>   -1.6825    1.0000 </r>
       <r>   -1.6503    1.0000 </r>
       <r>   -1.4493    1.0000 </r>
       <r>   -1.4327    1.0000 </r>
       <r>   -1.3911    1.0000 </r>
       <r>   -1.3595    1.0000 </r>
       <r>   -1.1174    1.0000 </r>
       <r>   -1.0994    1.0000 </r>
       <r>   -1.0489    1.0000 </r>
       <r>   -0.9091    1.0000 </r>
       <r>   -0.8527    1.0000 </r>
       <r>   -0.7185    1.0000 </r>
       <r>   -0.5142    1.0000 </r>
       <r>   -0.4714    1.0000 </r>
       <r>   -0.2838    1.0000 </r>
       <r>    0.0132    1.0000 </r>
       <r>    1.9261    0.0000 </r>
       <r>    2.4777    0.0000 </r>
       <r>    3.0230    0.0000 </r>
       <r>    3.4140    0.0000 </r>
       <r>    3.4387    0.0000 </r>
       <r>    3.5013    0.0000 </r>
       <r>    3.5722    0.0000 </r>
       <r>    3.6149    0.0000 </r>
       <r>    3.7037    0.0000 </r>
       <r>    3.7212    0.0000 </r>
       <r>    3.8133    0.0000 </r>
       <r>    7.3997    0.0000 </r>
      </set>
      <set comment="kpoint 5">
       <r>  -33.6171    1.0000 </r>
       <r>  -32.6713    1.0000 </r>
       <r>  -32.5744    1.0000 </r>
       <r>  -32.5488    1.0000 </r>
       <r>  -17.2505    1.0000 </r>
       <r>  -17.1238    1.0000 </r>
       <r>  -17.0926    1.0000 </r>
       <r>  -16.7477    1.0000 </r>
       <r>  -16.3013    1.0000 </r>
       <r>  -16.2731    1.0000 </r>
       <r>  -16.1760    1.0000 </r>
       <r>  -16.1715    1.0000 </r>
       <r>  -16.1501    1.0000 </r>
       <r>  -16.1084    1.0000 </r>
       <r>  -15.9052    1.0000 </r>
       <r>  -15.7161    1.0000 </r>
       <r>  -15.5242    1.0000 </r>
       <r>  -15.5064    1.0000 </r>
       <r>  -14.9106    1.0000 </r>
       <r>  -14.7126    1.0000 </r>
       <r>  -14.6132    1.0000 </r>
       <r>  -14.6075    1.0000 </r>
       <r>  -14.5751    1.0000 </r>
       <r>  -14.5743    1.0000 </r>
       <r>  -14.4823    1.0000 </r>
       <r>  -14.4149    1.0000 </r>
       <r>  -14.3209    1.0000 </r>
       <r>  -14.2527    1.0000 </r>
       <r>   -3.9819    1.0000 </r>
       <r>   -3.5291    1.0000 </r>
       <r>   -3.2326    1.0000 </r>
       <r>   -3.1080    1.0000 </r>
       <r>   -3.0619    1.0000 </r>
       <r>   -2.8954    1.0000 </r>
       <r>   -2.8682    1.0000 </r>
       <r>   -2.7825    1.0000 </r>
       <r>   -2.7543    1.0000 </r>
       <r>   -2.6951    1.0000 </r>
       <r>   -2.5925    1.0000 </r>
       <r>   -2.5798    1.0000 </r>
       <r>   -2.3777    1.0000 </r>
       <r>   -2.2823    1.0000 </r>
       <r>   -2.1219    1.0000 </r>
       <r>   -2.0261    1.0000 </r>
       <r>   -1.7733    1.0000 </r>
       <r>   -1.7675    1.0000 </r>
       <r>   -1.6030    1.0000 </r>
       <r>   -1.4688    1.0000 </r>
       <r>   -1.4046    1.0000 </r>
       <r>   -1.3382    1.0000 </r>
       <r>   -1.1937    1.0000 </r>
       <r>   -1.0326    1.0000 </r>
       <r>   -0.9404    1.0000 </r>
       <r>   -0.8965    1.0000 </r>
       <r>   -0.8587    1.0000 </r>
       <r>   -0.8553    1.0000 </r>
       <r>   -0.7781    1.0000 </r>
       <r>   -0.7650    1.0000 </r>
       <r>   -0.7279    1.0000 </r>
       <r>   -0.6382    1.0000 </r>
       <r>   -0.5973    1.0000 </r>
       <r>   -0.3870    1.0000 </r>
       <r>   -0.2758    1.0000 </r>
       <r>   -0.0982    1.0000 </r>
       <r>    2.1159    0.0000 </r>
       <r>    2.2780    0.0000 </r>
       <r>    2.3999    0.0000 </r>
       <r>    2.5638    0.0000 </r>
       <r>    2.5785    0.0000 </r>
       <r>    2.6469    0.0000 </r>
       <r>    2.7255    0.0000 </r>
       <r>    2.7601    0.0000 </r>
       <r>    2.9676    0.0000 </r>
       <r>    3.1300    0.0000 </r>
       <r>    3.2814    0.0000 </r>
       <r>    6.2810    0.0000 </r>
      </set>
      <set comment="kpoint 6">
       <r>  -33.6106    1.0000 </r>
       <r>  -32.6637    1.0000 </r>
       <r>  -32.5667    1.0000 </r>
       <r>  -32.5412    1.0000 </r>
       <r>  -17.2055    1.0000 </r>
       <r>  -17.0267    1.0000 </r>
       <r>  -16.9299    1.0000 </r>
       <r>  -16.7018    1.0000 </r>
       <r>  -16.3417    1.0000 </r>
       <r>  -16.2859    1.0000 </r>
       <r>  -16.2445    1.0000 </r>
       <r>  -16.2029    1.0000 </r>
       <r>  -16.1262    1.0000 </r>
       <r>  -16.0511    1.0000 </r>
       <r>  -15.9386    1.0000 </r>
       <r>  -15.7035    1.0000 </r>
       <r>  -15.5645    1.0000 </r>
       <r>  -15.4623    1.0000 </r>
       <r>  -14.7374    1.0000 </r>
       <r>  -14.7098    1.0000 </r>
       <r>  -14.6403    1.0000 </r>
       <r>  -14.5739    1.0000 </r>
       <r>  -14.5424    1.0000 </r>
       <r>  -14.4828    1.0000 </r>
       <r>  -14.3748    1.0000 </r>
       <r>  -14.3482    1.0000 </r>
       <r>  -14.3248    1.0000 </r>
       <r>  -14.2891    1.0000 </r>
       <r>   -4.0152    1.0000 </r>
       <r>   -3.7916    1.0000 </r>
       <r>   -3.6398    1.0000 </r>
       <r>   -3.5538    1.0000 </r>
       <r>   -3.3966    1.0000 </r>
       <r>   -3.2853    1.0000 </r>
       <r>   -3.2009    1.0000 </r>
       <r>   -3.0014    1.0000 </r>
       <r>   -2.9945    1.0000 </r>
       <r>   -2.8964    1.0000 </r>
       <r>   -2.8525    1.0000 </r>
       <r>   -2.8060    1.0000 </r>
       <r>   -2.6899    1.0000 </r>
       <r>   -2.5778    1.0000 </r>
       <r>   -2.4908    1.0000 </r>
       <r>   -2.3933    1.0000 </r>
       <r>   -2.1819    1.0000 </r>
       <r>   -2.1581    1.0000 </r>
       <r>   -1.9961    1.0000 </r>
       <r>   -1.9153    1.0000 </r>
       <r>   -1.8112    1.0000 </r>
       <r>   -1.5883    1.0000 </r>
       <r>   -1.4443    1.0000 </r>
       <r>   -1.2488    1.0000 </r>
       <r>   -1.1414    1.0000 </r>
       <r>   -1.0165    1.0000 </r>
       <r>   -0.9904    1.0000 </r>
       <r>   -0.8656    1.0000 </r>
       <r>   -0.8495    1.0000 </r>
       <r>   -0.8248    1.0000 </r>
       <r>   -0.7286    1.0000 </r>
       <r>   -0.5765    1.0000 </r>
       <r>   -0.4340    1.0000 </r>
       <r>   -0.3919    1.0000 </r>
       <r>   -0.1730    1.0000 </r>
       <r>   -0.1698    1.0000 </r>
       <r>    2.2126    0.0000 </r>
       <r>    2.6582    0.0000 </r>
       <r>    2.8975    0.0000 </r>
       <r>    2.9980    0.0000 </r>
       <r>    3.1019    0.0000 </r>
       <r>    3.1363    0.0000 </r>
       <r>    3.1801    0.0000 </r>
       <r>    3.2923    0.0000 </r>
       <r>    3.4067    0.0000 </r>
       <r>    3.5089    0.0000 </r>
       <r>    3.5921    0.0000 </r>
       <r>    7.0671    0.0000 </r>
      </set>
      <set comment="kpoint 7">
       <r>  -33.6054    1.0000 </r>
       <r>  -32.6575    1.0000 </r>
       <r>  -32.5606    1.0000 </r>
       <r>  -32.5351    1.0000 </r>
       <r>  -17.2401    1.0000 </r>
       <r>  -17.0164    1.0000 </r>
       <r>  -16.7987    1.0000 </r>
       <r>  -16.5608    1.0000 </r>
       <r>  -16.3629    1.0000 </r>
       <r>  -16.3611    1.0000 </r>
       <r>  -16.2607    1.0000 </r>
       <r>  -16.2001    1.0000 </r>
       <r>  -16.1244    1.0000 </r>
       <r>  -15.9371    1.0000 </r>
       <r>  -15.8822    1.0000 </r>
       <r>  -15.6953    1.0000 </r>
       <r>  -15.6206    1.0000 </r>
       <r>  -15.4188    1.0000 </r>
       <r>  -14.7080    1.0000 </r>
       <r>  -14.6746    1.0000 </r>
       <r>  -14.6298    1.0000 </r>
       <r>  -14.5527    1.0000 </r>
       <r>  -14.4914    1.0000 </r>
       <r>  -14.4256    1.0000 </r>
       <r>  -14.3828    1.0000 </r>
       <r>  -14.3626    1.0000 </r>
       <r>  -14.2875    1.0000 </r>
       <r>  -14.2090    1.0000 </r>
       <r>   -4.1973    1.0000 </r>
       <r>   -4.0648    1.0000 </r>
       <r>   -4.0179    1.0000 </r>
       <r>   -3.9084    1.0000 </r>
       <r>   -3.8468    1.0000 </r>
       <r>   -3.7173    1.0000 </r>
       <r>   -3.6054    1.0000 </r>
       <r>   -3.3465    1.0000 </r>
       <r>   -3.1859    1.0000 </r>
       <r>   -2.9705    1.0000 </r>
       <r>   -2.9321    1.0000 </r>
       <r>   -2.8770    1.0000 </r>
       <r>   -2.8505    1.0000 </r>
       <r>   -2.7791    1.0000 </r>
       <r>   -2.7465    1.0000 </r>
       <r>   -2.6650    1.0000 </r>
       <r>   -2.3144    1.0000 </r>
       <r>   -2.3086    1.0000 </r>
       <r>   -2.2065    1.0000 </r>
       <r>   -2.0784    1.0000 </r>
       <r>   -1.9503    1.0000 </r>
       <r>   -1.6919    1.0000 </r>
       <r>   -1.4702    1.0000 </r>
       <r>   -1.4195    1.0000 </r>
       <r>   -1.1445    1.0000 </r>
       <r>   -1.0883    1.0000 </r>
       <r>   -0.9931    1.0000 </r>
       <r>   -0.9736    1.0000 </r>
       <r>   -0.9348    1.0000 </r>
       <r>   -0.8819    1.0000 </r>
       <r>   -0.8022    1.0000 </r>
       <r>   -0.7125    1.0000 </r>
       <r>   -0.4566    1.0000 </r>
       <r>   -0.3545    1.0000 </r>
       <r>   -0.2146    1.0000 </r>
       <r>    0.0212    1.0000 </r>
       <r>    2.2473    0.0000 </r>
       <r>    2.7049    0.0000 </r>
       <r>    3.1586    0.0000 </r>
       <r>    3.4701    0.0000 </r>
       <r>    3.4767    0.0000 </r>
       <r>    3.5943    0.0000 </r>
       <r>    3.6332    0.0000 </r>
       <r>    3.6720    0.0000 </r>
       <r>    3.7501    0.0000 </r>
       <r>    3.7777    0.0000 </r>
       <r>    3.9226    0.0000 </r>
       <r>    7.8193    0.0000 </r>
      </set>
      <set comment="kpoint 8">
       <r>  -33.6044    1.0000 </r>
       <r>  -32.6564    1.0000 </r>
       <r>  -32.5594    1.0000 </r>
       <r>  -32.5339    1.0000 </r>
       <r>  -17.0739    1.0000 </r>
       <r>  -16.8775    1.0000 </r>
       <r>  -16.7415    1.0000 </r>
       <r>  -16.5651    1.0000 </r>
       <r>  -16.3689    1.0000 </r>
       <r>  -16.2641    1.0000 </r>
       <r>  -16.2371    1.0000 </r>
       <r>  -16.1307    1.0000 </r>
       <r>  -16.1294    1.0000 </r>
       <r>  -15.9924    1.0000 </r>
       <r>  -15.9292    1.0000 </r>
       <r>  -15.7012    1.0000 </r>
       <r>  -15.5535    1.0000 </r>
       <r>  -15.4674    1.0000 </r>
       <r>  -14.7986    1.0000 </r>
       <r>  -14.7485    1.0000 </r>
       <r>  -14.6695    1.0000 </r>
       <r>  -14.5880    1.0000 </r>
       <r>  -14.5465    1.0000 </r>
       <r>  -14.4711    1.0000 </r>
       <r>  -14.4624    1.0000 </r>
       <r>  -14.3910    1.0000 </r>
       <r>  -14.3560    1.0000 </r>
       <r>  -14.3042    1.0000 </r>
       <r>   -4.0316    1.0000 </r>
       <r>   -3.8507    1.0000 </r>
       <r>   -3.7321    1.0000 </r>
       <r>   -3.6871    1.0000 </r>
       <r>   -3.4284    1.0000 </r>
       <r>   -3.4070    1.0000 </r>
       <r>   -3.2754    1.0000 </r>
       <r>   -3.2537    1.0000 </r>
       <r>   -3.2160    1.0000 </r>
       <r>   -3.1786    1.0000 </r>
       <r>   -3.1383    1.0000 </r>
       <r>   -3.1336    1.0000 </r>
       <r>   -2.9861    1.0000 </r>
       <r>   -2.9851    1.0000 </r>
       <r>   -2.9492    1.0000 </r>
       <r>   -2.8267    1.0000 </r>
       <r>   -2.8263    1.0000 </r>
       <r>   -2.7796    1.0000 </r>
       <r>   -2.5045    1.0000 </r>
       <r>   -2.4311    1.0000 </r>
       <r>   -2.3344    1.0000 </r>
       <r>   -1.9918    1.0000 </r>
       <r>   -1.8218    1.0000 </r>
       <r>   -1.2807    1.0000 </r>
       <r>   -1.2192    1.0000 </r>
       <r>   -0.9727    1.0000 </r>
       <r>   -0.7517    1.0000 </r>
       <r>   -0.7052    1.0000 </r>
       <r>   -0.5732    1.0000 </r>
       <r>   -0.5592    1.0000 </r>
       <r>   -0.4727    1.0000 </r>
       <r>   -0.4193    1.0000 </r>
       <r>   -0.3197    1.0000 </r>
       <r>   -0.2981    1.0000 </r>
       <r>   -0.1203    1.0000 </r>
       <r>    0.2180    1.0000 </r>
       <r>    2.7697    0.0000 </r>
       <r>    3.0223    0.0000 </r>
       <r>    3.1416    0.0000 </r>
       <r>    3.2430    0.0000 </r>
       <r>    3.3174    0.0000 </r>
       <r>    3.4214    0.0000 </r>
       <r>    3.4874    0.0000 </r>
       <r>    3.4897    0.0000 </r>
       <r>    3.6239    0.0000 </r>
       <r>    3.6518    0.0000 </r>
       <r>    3.7580    0.0000 </r>
       <r>    3.8010    0.0000 </r>
      </set>
      <set comment="kpoint 9">
       <r>  -33.5993    1.0000 </r>
       <r>  -32.6505    1.0000 </r>
       <r>  -32.5535    1.0000 </r>
       <r>  -32.5281    1.0000 </r>
       <r>  -17.0046    1.0000 </r>
       <r>  -16.7855    1.0000 </r>
       <r>  -16.5933    1.0000 </r>
       <r>  -16.3936    1.0000 </r>
       <r>  -16.3530    1.0000 </r>
       <r>  -16.3199    1.0000 </r>
       <r>  -16.1984    1.0000 </r>
       <r>  -16.1945    1.0000 </r>
       <r>  -16.0784    1.0000 </r>
       <r>  -15.8428    1.0000 </r>
       <r>  -15.8097    1.0000 </r>
       <r>  -15.7043    1.0000 </r>
       <r>  -15.6570    1.0000 </r>
       <r>  -15.4289    1.0000 </r>
       <r>  -14.8604    1.0000 </r>
       <r>  -14.7820    1.0000 </r>
       <r>  -14.7329    1.0000 </r>
       <r>  -14.6119    1.0000 </r>
       <r>  -14.5424    1.0000 </r>
       <r>  -14.4863    1.0000 </r>
       <r>  -14.4761    1.0000 </r>
       <r>  -14.4252    1.0000 </r>
       <r>  -14.3825    1.0000 </r>
       <r>  -14.3055    1.0000 </r>
       <r>   -4.2049    1.0000 </r>
       <r>   -4.0701    1.0000 </r>
       <r>   -3.9337    1.0000 </r>
       <r>   -3.8642    1.0000 </r>
       <r>   -3.7616    1.0000 </r>
       <r>   -3.7493    1.0000 </r>
       <r>   -3.6708    1.0000 </r>
       <r>   -3.5977    1.0000 </r>
       <r>   -3.4478    1.0000 </r>
       <r>   -3.3995    1.0000 </r>
       <r>   -3.3303    1.0000 </r>
       <r>   -3.2809    1.0000 </r>
       <r>   -3.2186    1.0000 </r>
       <r>   -3.1749    1.0000 </r>
       <r>   -3.1172    1.0000 </r>
       <r>   -2.9853    1.0000 </r>
       <r>   -2.8643    1.0000 </r>
       <r>   -2.8181    1.0000 </r>
       <r>   -2.7847    1.0000 </r>
       <r>   -2.6517    1.0000 </r>
       <r>   -2.3878    1.0000 </r>
       <r>   -2.2722    1.0000 </r>
       <r>   -1.8733    1.0000 </r>
       <r>   -1.2737    1.0000 </r>
       <r>   -1.1557    1.0000 </r>
       <r>   -1.0481    1.0000 </r>
       <r>   -0.7513    1.0000 </r>
       <r>   -0.6943    1.0000 </r>
       <r>   -0.5038    1.0000 </r>
       <r>   -0.4261    1.0000 </r>
       <r>   -0.3666    1.0000 </r>
       <r>   -0.2848    1.0000 </r>
       <r>   -0.2657    1.0000 </r>
       <r>   -0.2119    1.0000 </r>
       <r>    0.0416    1.0000 </r>
       <r>    0.3751    1.0000 </r>
       <r>    2.8948    0.0000 </r>
       <r>    3.2317    0.0000 </r>
       <r>    3.4708    0.0000 </r>
       <r>    3.5286    0.0000 </r>
       <r>    3.6608    0.0000 </r>
       <r>    3.6699    0.0000 </r>
       <r>    3.8311    0.0000 </r>
       <r>    3.8384    0.0000 </r>
       <r>    3.8630    0.0000 </r>
       <r>    3.9646    0.0000 </r>
       <r>    4.0493    0.0000 </r>
       <r>    7.8216    0.0000 </r>
      </set>
      <set comment="kpoint 10">
       <r>  -33.5945    1.0000 </r>
       <r>  -32.6449    1.0000 </r>
       <r>  -32.5479    1.0000 </r>
       <r>  -32.5225    1.0000 </r>
       <r>  -16.7455    1.0000 </r>
       <r>  -16.5332    1.0000 </r>
       <r>  -16.4292    1.0000 </r>
       <r>  -16.3937    1.0000 </r>
       <r>  -16.3301    1.0000 </r>
       <r>  -16.3028    1.0000 </r>
       <r>  -16.1606    1.0000 </r>
       <r>  -16.1352    1.0000 </r>
       <r>  -16.0764    1.0000 </r>
       <r>  -15.8228    1.0000 </r>
       <r>  -15.7144    1.0000 </r>
       <r>  -15.6843    1.0000 </r>
       <r>  -15.5561    1.0000 </r>
       <r>  -15.4517    1.0000 </r>
       <r>  -15.1263    1.0000 </r>
       <r>  -14.8269    1.0000 </r>
       <r>  -14.7752    1.0000 </r>
       <r>  -14.7703    1.0000 </r>
       <r>  -14.6207    1.0000 </r>
       <r>  -14.5969    1.0000 </r>
       <r>  -14.4960    1.0000 </r>
       <r>  -14.4523    1.0000 </r>
       <r>  -14.3722    1.0000 </r>
       <r>  -14.3524    1.0000 </r>
       <r>   -4.3219    1.0000 </r>
       <r>   -4.1895    1.0000 </r>
       <r>   -4.1169    1.0000 </r>
       <r>   -4.0470    1.0000 </r>
       <r>   -3.9568    1.0000 </r>
       <r>   -3.8838    1.0000 </r>
       <r>   -3.8699    1.0000 </r>
       <r>   -3.8098    1.0000 </r>
       <r>   -3.7558    1.0000 </r>
       <r>   -3.6945    1.0000 </r>
       <r>   -3.5823    1.0000 </r>
       <r>   -3.5729    1.0000 </r>
       <r>   -3.4710    1.0000 </r>
       <r>   -3.4217    1.0000 </r>
       <r>   -3.2003    1.0000 </r>
       <r>   -3.1550    1.0000 </r>
       <r>   -3.1378    1.0000 </r>
       <r>   -3.1065    1.0000 </r>
       <r>   -2.8056    1.0000 </r>
       <r>   -2.7703    1.0000 </r>
       <r>   -2.4841    1.0000 </r>
       <r>   -2.3780    1.0000 </r>
       <r>   -2.1461    1.0000 </r>
       <r>   -1.1576    1.0000 </r>
       <r>   -1.0894    1.0000 </r>
       <r>   -1.0615    1.0000 </r>
       <r>   -0.6890    1.0000 </r>
       <r>   -0.6455    1.0000 </r>
       <r>   -0.3046    1.0000 </r>
       <r>   -0.2626    1.0000 </r>
       <r>   -0.0792    1.0000 </r>
       <r>    0.0024    1.0000 </r>
       <r>    0.0293    1.0000 </r>
       <r>    0.0685    1.0000 </r>
       <r>    0.1148    1.0000 </r>
       <r>    0.7044    1.0000 </r>
       <r>    3.4226    0.0000 </r>
       <r>    3.4946    0.0000 </r>
       <r>    3.6750    0.0000 </r>
       <r>    3.7366    0.0000 </r>
       <r>    3.8944    0.0000 </r>
       <r>    3.9134    0.0000 </r>
       <r>    4.0408    0.0000 </r>
       <r>    4.1106    0.0000 </r>
       <r>    4.1572    0.0000 </r>
       <r>    7.3908    0.0000 </r>
       <r>    7.3729    0.0000 </r>
       <r>    7.4620    0.0000 </r>
      </set>
     </set>
    </set>
   </array>
  </eigenvalues>
  <separator name="orbital magnetization" >
   <v name="MAGDIPOLOUT">      0.00000000      0.00000000      0.00000000</v>
  </separator>
  <dos>
   <i name="efermi">      0.81398619 </i>
   <total>
    <array>
     <dimension dim="1">gridpoints</dimension>
     <dimension dim="2">spin</dimension>
     <field>energy</field>
     <field>total</field>
     <field>integrated</field>
     <set>
      <set comment="spin 1">
       <r>   -35.6951     0.0000     0.0000 </r>
       <r>   -35.5432     0.0000     0.0000 </r>
       <r>   -35.3912     0.0000     0.0000 </r>
       <r>   -35.2392     0.0000     0.0000 </r>
       <r>   -35.0873     0.0000     0.0000 </r>
       <r>   -34.9353     0.0000     0.0000 </r>
       <r>   -34.7834     0.0000     0.0000 </r>
       <r>   -34.6314     0.0000     0.0000 </r>
       <r>   -34.4794     0.0000     0.0000 </r>
       <r>   -34.3275     0.0000     0.0000 </r>
       <r>   -34.1755     0.0000     0.0000 </r>
       <r>   -34.0235     0.0000     0.0000 </r>
       <r>   -33.8716     0.0000     0.0000 </r>
       <r>   -33.7196     0.0000     0.0000 </r>
       <r>   -33.5677     0.0000     2.0000 </r>
       <r>   -33.4157     0.0000     2.0000 </r>
       <r>   -33.2637     0.0000     2.0000 </r>
       <r>   -33.1118     0.0000     2.0000 </r>
       <r>   -32.9598     0.0000     2.0000 </r>
       <r>   -32.8078     0.0000     2.0000 </r>
       <r>   -32.6559    67.9633     3.3945 </r>
       <r>   -32.5039     0.0000     8.0000 </r>
       <r>   -32.3520     0.0000     8.0000 </r>
       <r>   -32.2000     0.0000     8.0000 </r>
       <r>   -32.0480     0.0000     8.0000 </r>
       <r>   -31.8961     0.0000     8.0000 </r>
       <r>   -31.7441     0.0000     8.0000 </r>
       <r>   -31.5921     0.0000     8.0000 </r>
       <r>   -31.4402     0.0000     8.0000 </r>
       <r>   -31.2882     0.0000     8.0000 </r>
       <r>   -31.1362     0.0000     8.0000 </r>
       <r>   -30.9843     0.0000     8.0000 </r>
       <r>   -30.8323     0.0000     8.0000 </r>
       <r>   -30.6804     0.0000     8.0000 </r>
       <r>   -30.5284     0.0000     8.0000 </r>
       <r>   -30.3764     0.0000     8.0000 </r>
       <r>   -30.2245     0.0000     8.0000 </r>
       <r>   -30.0725     0.0000     8.0000 </r>
       <r>   -29.9205     0.0000     8.0000 </r>
       <r>   -29.7686     0.0000     8.0000 </r>
       <r>   -29.6166     0.0000     8.0000 </r>
       <r>   -29.4647     0.0000     8.0000 </r>
       <r>   -29.3127     0.0000     8.0000 </r>
       <r>   -29.1607     0.0000     8.0000 </r>
       <r>   -29.0088     0.0000     8.0000 </r>
       <r>   -28.8568     0.0000     8.0000 </r>
       <r>   -28.7048     0.0000     8.0000 </r>
       <r>   -28.5529     0.0000     8.0000 </r>
       <r>   -28.4009     0.0000     8.0000 </r>
       <r>   -28.2489     0.0000     8.0000 </r>
       <r>   -28.0970     0.0000     8.0000 </r>
       <r>   -27.9450     0.0000     8.0000 </r>
       <r>   -27.7931     0.0000     8.0000 </r>
       <r>   -27.6411     0.0000     8.0000 </r>
       <r>   -27.4891     0.0000     8.0000 </r>
       <r>   -27.3372     0.0000     8.0000 </r>
       <r>   -27.1852     0.0000     8.0000 </r>
       <r>   -27.0332     0.0000     8.0000 </r>
       <r>   -26.8813     0.0000     8.0000 </r>
       <r>   -26.7293     0.0000     8.0000 </r>
       <r>   -26.5774     0.0000     8.0000 </r>
       <r>   -26.4254     0.0000     8.0000 </r>
       <r>   -26.2734     0.0000     8.0000 </r>
       <r>   -26.1215     0.0000     8.0000 </r>
       <r>   -25.9695     0.0000     8.0000 </r>
       <r>   -25.8175     0.0000     8.0000 </r>
       <r>   -25.6656     0.0000     8.0000 </r>
       <r>   -25.5136     0.0000     8.0000 </r>
       <r>   -25.3617     0.0000     8.0000 </r>
       <r>   -25.2097     0.0000     8.0000 </r>
       <r>   -25.0577     0.0000     8.0000 </r>
       <r>   -24.9058     0.0000     8.0000 </r>
       <r>   -24.7538     0.0000     8.0000 </r>
       <r>   -24.6018     0.0000     8.0000 </r>
       <r>   -24.4499     0.0000     8.0000 </r>
       <r>   -24.2979     0.0000     8.0000 </r>
       <r>   -24.1459     0.0000     8.0000 </r>
       <r>   -23.9940     0.0000     8.0000 </r>
       <r>   -23.8420     0.0000     8.0000 </r>
       <r>   -23.6901     0.0000     8.0000 </r>
       <r>   -23.5381     0.0000     8.0000 </r>
       <r>   -23.3861     0.0000     8.0000 </r>
       <r>   -23.2342     0.0000     8.0000 </r>
       <r>   -23.0822     0.0000     8.0000 </r>
       <r>   -22.9302     0.0000     8.0000 </r>
       <r>   -22.7783     0.0000     8.0000 </r>
       <r>   -22.6263     0.0000     8.0000 </r>
       <r>   -22.4744     0.0000     8.0000 </r>
       <r>   -22.3224     0.0000     8.0000 </r>
       <r>   -22.1704     0.0000     8.0000 </r>
       <r>   -22.0185     0.0000     8.0000 </r>
       <r>   -21.8665     0.0000     8.0000 </r>
       <r>   -21.7145     0.0000     8.0000 </r>
       <r>   -21.5626     0.0000     8.0000 </r>
       <r>   -21.4106     0.0000     8.0000 </r>
       <r>   -21.2586     0.0000     8.0000 </r>
       <r>   -21.1067     0.0000     8.0000 </r>
       <r>   -20.9547     0.0000     8.0000 </r>
       <r>   -20.8028     0.0000     8.0000 </r>
       <r>   -20.6508     0.0000     8.0000 </r>
       <r>   -20.4988     0.0000     8.0000 </r>
       <r>   -20.3469     0.0000     8.0000 </r>
       <r>   -20.1949     0.0000     8.0000 </r>
       <r>   -20.0429     0.0000     8.0000 </r>
       <r>   -19.8910     0.0000     8.0000 </r>
       <r>   -19.7390     0.0000     8.0000 </r>
       <r>   -19.5871     0.0000     8.0000 </r>
       <r>   -19.4351     0.0000     8.0000 </r>
       <r>   -19.2831     0.0000     8.0000 </r>
       <r>   -19.1312     0.0000     8.0000 </r>
       <r>   -18.9792     0.0000     8.0000 </r>
       <r>   -18.8272     0.0000     8.0000 </r>
       <r>   -18.6753     0.0000     8.0000 </r>
       <r>   -18.5233     0.0000     8.0000 </r>
       <r>   -18.3713     0.0000     8.0000 </r>
       <r>   -18.2194     0.0000     8.0000 </r>
       <r>   -18.0674     0.0000     8.0000 </r>
       <r>   -17.9155     0.0000     8.0000 </r>
       <r>   -17.7635     0.0000     8.0000 </r>
       <r>   -17.6115     0.0000     8.0000 </r>
       <r>   -17.4596     0.0000     8.0000 </r>
       <r>   -17.3076     5.8920     8.1380 </r>
       <r>   -17.1556     6.8910     9.4648 </r>
       <r>   -17.0037     7.7167    11.2505 </r>
       <r>   -16.8517     8.3866    12.4305 </r>
       <r>   -16.6998     7.4570    13.9292 </r>
       <r>   -16.5478     5.3896    15.0881 </r>
       <r>   -16.3958     8.9949    15.8340 </r>
       <r>   -16.2439    34.1694    20.6860 </r>
       <r>   -16.0919    25.2428    25.7477 </r>
       <r>   -15.9399     5.9326    27.3564 </r>
       <r>   -15.7880     4.5979    29.7115 </r>
       <r>   -15.6360    10.7494    32.1544 </r>
       <r>   -15.4841    12.0545    34.5568 </r>
       <r>   -15.3321     0.0000    36.0000 </r>
       <r>   -15.1801     0.2903    36.0153 </r>
       <r>   -15.0282     1.6206    36.2069 </r>
       <r>   -14.8762     3.1014    36.5755 </r>
       <r>   -14.7242    25.6370    38.6178 </r>
       <r>   -14.5723    44.5135    44.2276 </r>
       <r>   -14.4203    26.7415    49.4220 </r>
       <r>   -14.2683    26.0111    54.7766 </r>
       <r>   -14.1164     0.0000    56.0000 </r>
       <r>   -13.9644     0.0000    56.0000 </r>
       <r>   -13.8125     0.0000    56.0000 </r>
       <r>   -13.6605     0.0000    56.0000 </r>
       <r>   -13.5085     0.0000    56.0000 </r>
       <r>   -13.3566     0.0000    56.0000 </r>
       <r>   -13.2046     0.0000    56.0000 </r>
       <r>   -13.0526     0.0000    56.0000 </r>
       <r>   -12.9007     0.0000    56.0000 </r>
       <r>   -12.7487     0.0000    56.0000 </r>
       <r>   -12.5968     0.0000    56.0000 </r>
       <r>   -12.4448     0.0000    56.0000 </r>
       <r>   -12.2928     0.0000    56.0000 </r>
       <r>   -12.1409     0.0000    56.0000 </r>
       <r>   -11.9889     0.0000    56.0000 </r>
       <r>   -11.8369     0.0000    56.0000 </r>
       <r>   -11.6850     0.0000    56.0000 </r>
       <r>   -11.5330     0.0000    56.0000 </r>
       <r>   -11.3810     0.0000    56.0000 </r>
       <r>   -11.2291     0.0000    56.0000 </r>
       <r>   -11.0771     0.0000    56.0000 </r>
       <r>   -10.9252     0.0000    56.0000 </r>
       <r>   -10.7732     0.0000    56.0000 </r>
       <r>   -10.6212     0.0000    56.0000 </r>
       <r>   -10.4693     0.0000    56.0000 </r>
       <r>   -10.3173     0.0000    56.0000 </r>
       <r>   -10.1653     0.0000    56.0000 </r>
       <r>   -10.0134     0.0000    56.0000 </r>
       <r>    -9.8614     0.0000    56.0000 </r>
       <r>    -9.7095     0.0000    56.0000 </r>
       <r>    -9.5575     0.0000    56.0000 </r>
       <r>    -9.4055     0.0000    56.0000 </r>
       <r>    -9.2536     0.0000    56.0000 </r>
       <r>    -9.1016     0.0000    56.0000 </r>
       <r>    -8.9496     0.0000    56.0000 </r>
       <r>    -8.7977     0.0000    56.0000 </r>
       <r>    -8.6457     0.0000    56.0000 </r>
       <r>    -8.4938     0.0000    56.0000 </r>
       <r>    -8.3418     0.0000    56.0000 </r>
       <r>    -8.1898     0.0000    56.0000 </r>
       <r>    -8.0379     0.0000    56.0000 </r>
       <r>    -7.8859     0.0000    56.0000 </r>
       <r>    -7.7339     0.0000    56.0000 </r>
       <r>    -7.5820     0.0000    56.0000 </r>
       <r>    -7.4300     0.0000    56.0000 </r>
       <r>    -7.2780     0.0000    56.0000 </r>
       <r>    -7.1261     0.0000    56.0000 </r>
       <r>    -6.9741     0.0000    56.0000 </r>
       <r>    -6.8222     0.0000    56.0000 </r>
       <r>    -6.6702     0.0000    56.0000 </r>
       <r>    -6.5182     0.0000    56.0000 </r>
       <r>    -6.3663     0.0000    56.0000 </r>
       <r>    -6.2143     0.0000    56.0000 </r>
       <r>    -6.0623     0.0000    56.0000 </r>
       <r>    -5.9104     0.0000    56.0000 </r>
       <r>    -5.7584     0.0000    56.0000 </r>
       <r>    -5.6065     0.0000    56.0000 </r>
       <r>    -5.4545     0.0000    56.0000 </r>
       <r>    -5.3025     0.0000    56.0000 </r>
       <r>    -5.1506     0.0000    56.0000 </r>
       <r>    -4.9986     0.0000    56.0000 </r>
       <r>    -4.8466     0.0000    56.0000 </r>
       <r>    -4.6947     0.0000    56.0000 </r>
       <r>    -4.5427     0.0000    56.0000 </r>
       <r>    -4.3907     0.0000    56.0000 </r>
       <r>    -4.2388     2.2895    56.1940 </r>
       <r>    -4.0868     9.7817    57.5532 </r>
       <r>    -3.9349    10.6853    60.0022 </r>
       <r>    -3.7829    15.3038    62.4319 </r>
       <r>    -3.6309    18.2001    65.0309 </r>
       <r>    -3.4790    15.2865    67.3209 </r>
       <r>    -3.3270    15.4440    69.8601 </r>
       <r>    -3.1750    19.3329    72.3499 </r>
       <r>    -3.0231    20.9072    75.6466 </r>
       <r>    -2.8711    24.0918    78.9858 </r>
       <r>    -2.7192    23.0835    82.9418 </r>
       <r>    -2.5672    18.2568    86.0738 </r>
       <r>    -2.4152    14.8061    88.4379 </r>
       <r>    -2.2633    12.4953    90.6390 </r>
       <r>    -2.1113    12.6478    92.5925 </r>
       <r>    -1.9593    13.2485    94.5960 </r>
       <r>    -1.8074    10.8104    96.4621 </r>
       <r>    -1.6554    14.3905    98.2464 </r>
       <r>    -1.5035     7.4314    99.6664 </r>
       <r>    -1.3515    12.9484   101.5867 </r>
       <r>    -1.1995    15.3911   103.6164 </r>
       <r>    -1.0476    25.9395   106.9405 </r>
       <r>    -0.8956    51.3833   110.0041 </r>
       <r>    -0.7436    23.5754   113.6147 </r>
       <r>    -0.5917    16.1338   117.1694 </r>
       <r>    -0.4397    17.9672   119.4118 </r>
       <r>    -0.2877    16.7327   122.5119 </r>
       <r>    -0.1358    15.0974   125.0932 </r>
       <r>     0.0162    26.4095   126.6197 </r>
       <r>     0.1681     1.4422   127.4202 </r>
       <r>     0.3201     1.3301   127.6270 </r>
       <r>     0.4721     0.9077   127.7962 </r>
       <r>     0.6240     0.6383   127.9136 </r>
       <r>     0.7760     0.0000   128.0000 </r>
       <r>     0.9280     0.0000   128.0000 </r>
       <r>     1.0799     0.0000   128.0000 </r>
       <r>     1.2319     0.0000   128.0000 </r>
       <r>     1.3838     0.0000   128.0000 </r>
       <r>     1.5358     0.0000   128.0000 </r>
       <r>     1.6878     0.0000   128.0000 </r>
       <r>     1.8397     1.1033   128.0521 </r>
       <r>     1.9917     3.6250   128.4415 </r>
       <r>     2.1437     4.1465   129.0186 </r>
       <r>     2.2956     3.8155   129.6691 </r>
       <r>     2.4476     5.3893   130.3186 </r>
       <r>     2.5996     7.9741   131.5171 </r>
       <r>     2.7515     7.0454   132.6325 </r>
       <r>     2.9035     9.2844   133.8406 </r>
       <r>     3.0554    12.9299   135.4058 </r>
       <r>     3.2074    11.5360   137.2300 </r>
       <r>     3.3594    14.4578   139.2818 </r>
       <r>     3.5113    18.9372   142.0416 </r>
       <r>     3.6633    18.2619   144.8642 </r>
       <r>     3.8153    12.8547   147.2192 </r>
       <r>     3.9672     5.2654   148.7078 </r>
       <r>     4.1192     0.9513   149.2778 </r>
       <r>     4.2711     0.3198   149.3899 </r>
       <r>     4.4231     0.3188   149.4384 </r>
       <r>     4.5751     0.3178   149.4868 </r>
       <r>     4.7270     0.3169   149.5350 </r>
       <r>     4.8790     0.3159   149.5831 </r>
       <r>     5.0310     0.3149   149.6310 </r>
       <r>     5.1829     0.3139   149.6788 </r>
       <r>     5.3349     0.3129   149.7264 </r>
       <r>     5.4869     0.3119   149.7739 </r>
       <r>     5.6388     0.3127   149.8212 </r>
       <r>     5.7908     0.3185   149.8692 </r>
       <r>     5.9427     0.9341   149.9918 </r>
       <r>     6.0947     0.8256   150.1255 </r>
       <r>     6.2467     0.7171   150.2428 </r>
       <r>     6.3986     0.7073   150.3493 </r>
       <r>     6.5506     0.7264   150.4582 </r>
       <r>     6.7026     0.7455   150.5701 </r>
       <r>     6.8545     0.7646   150.6848 </r>
       <r>     7.0065     0.8928   150.8100 </r>
       <r>     7.1584     0.8182   150.9406 </r>
       <r>     7.3104     0.8167   151.0648 </r>
       <r>     7.4624     1.5037   151.3262 </r>
       <r>     7.6143     1.4368   151.5497 </r>
       <r>     7.7663     1.3698   151.7629 </r>
       <r>     7.9183     0.0000   152.0000 </r>
       <r>     8.0702     0.0000   152.0000 </r>
       <r>     8.2222     0.0000   152.0000 </r>
       <r>     8.3741     0.0000   152.0000 </r>
       <r>     8.5261     0.0000   152.0000 </r>
       <r>     8.6781     0.0000   152.0000 </r>
       <r>     8.8300     0.0000   152.0000 </r>
       <r>     8.9820     0.0000   152.0000 </r>
       <r>     9.1340     0.0000   152.0000 </r>
       <r>     9.2859     0.0000   152.0000 </r>
       <r>     9.4379     0.0000   152.0000 </r>
       <r>     9.5899     0.0000   152.0000 </r>
       <r>     9.7418     0.0000   152.0000 </r>
       <r>     9.8938     0.0000   152.0000 </r>
      </set>
     </set>
    </array>
   </total>
  </dos>
 </calculation>
 <structure name="finalpos" >
  <crystal>
   <varray name="basis" >
    <v>       3.94684634       0.00000000       0.00000000 </v>
    <v>       0.00000000       3.94684634       0.00000000 </v>
    <v>       0.00000000       0.00000000      23.81396220 </v>
   </varray>
   <i name="volume">    370.96428330 </i>
   <varray name="rec_basis" >
    <v>       0.25336684       0.00000000       0.00000000 </v>
    <v>       0.00000000       0.25336684       0.00000000 </v>
    <v>       0.00000000       0.00000000       0.04199217 </v>
   </varray>
  </crystal>
  <varray name="positions" >
   <v>       0.50000000       0.50000000       0.20996086 </v>
   <v>       0.50000000       0.00000000       0.29282919 </v>
   <v>       0.00000000       0.50000000       0.29282919 </v>
   <v>       0.50000000       0.50000000       0.37569751 </v>
   <v>       0.50000000       0.00000000       0.45856584 </v>
   <v>       0.00000000       0.50000000       0.45856584 </v>
   <v>       0.50000000       0.50000000       0.54143416 </v>
   <v>       0.50000000       0.00000000       0.62430249 </v>
   <v>       0.00000000       0.50000000       0.62430249 </v>
   <v>       0.50000000       0.50000000       0.70717081 </v>
   <v>       0.50000000       0.00000000       0.79003914 </v>
   <v>       0.00000000       0.50000000       0.79003914 </v>
   <v>       0.00000000       0.00000000       0.20996086 </v>
   <v>       0.00000000       0.00000000       0.37569751 </v>
   <v>       0.00000000       0.00000000       0.54143416 </v>
   <v>       0.00000000       0.00000000       0.70717081 </v>
   <v>       0.50000000       0.50000000       0.29282919 </v>
   <v>       0.50000000       0.50000000       0.45856584 </v>
   <v>       0.50000000       0.50000000       0.62430249 </v>
   <v>       0.50000000       0.50000000       0.79003914 </v>
  </varray>
 </structure>
</modeling>
