unknown system                          
           1
     3.946846    0.000000    0.000000
     0.000000    3.946846    0.000000
     0.000000    0.000000   23.813962
   O    Sr   Ti
  12   4   4
Direct configuration=     1
   0.50000000  0.50000000  0.20996086
   0.50000000  0.00000000  0.29282919
   0.00000000  0.50000000  0.29282919
   0.50000000  0.50000000  0.37569751
   0.50000000  0.00000000  0.45856584
   0.00000000  0.50000000  0.45856584
   0.50000000  0.50000000  0.54143416
   0.50000000  0.00000000  0.62430249
   0.00000000  0.50000000  0.62430249
   0.50000000  0.50000000  0.70717081
   0.50000000  0.00000000  0.79003914
   0.00000000  0.50000000  0.79003914
   0.00000000  0.00000000  0.20996086
   0.00000000  0.00000000  0.37569751
   0.00000000  0.00000000  0.54143416
   0.00000000  0.00000000  0.70717081
   0.50000000  0.50000000  0.29282919
   0.50000000  0.50000000  0.45856584
   0.50000000  0.50000000  0.62430249
   0.50000000  0.50000000  0.79003914
