unknown system                          
   1.00000000000000     
     4.913700    0.000000    0.000000
    -2.456850    4.255389    0.000000
     0.000000    0.000000    5.405130
   Si   O 
     3     6
Direct
  0.469800  0.000000  0.666670
  0.000000  0.469800  0.333330
  0.530200  0.530200  0.000000
  0.414500  0.266200  0.785600
  0.733800  0.148300  0.452270
  0.851700  0.585500  0.118930
  0.148300  0.733800  0.547730
  0.266200  0.414500  0.214400
  0.585500  0.851700  0.881070
 
   48   48   56
  1.4529      1.3840      1.3879      1.4430      1.5326      1.6471      1.7814      1.9323      2.0967      2.2705    
  2.4470      2.6179      2.7762      2.9206      3.0590      3.2096      3.3971      3.6480      3.9949      4.4950    
  5.2487      6.4012      8.1157      10.534      13.749      17.792      22.627      28.121      33.961      39.587    
  44.213      46.995      47.331      45.110      40.774      35.126      29.029      23.162      17.926      13.504    
  9.9391      7.2042      5.2151      3.8398      2.9197      2.3061      1.8913      1.6159      1.3840      1.3093    
  1.3167      1.3871      1.5030      1.6537      1.8334      2.0380      2.2629      2.5023      2.7479      2.9878    
  3.2076      3.3946      3.5444      3.6650      3.7768      3.9083      4.0911      4.3622      4.7783      5.4314    
  6.4447      7.9463      10.033      12.746      16.060      19.871      23.972      28.025      31.566      34.071    
  35.093      34.414      32.133      28.637      24.458      20.111      15.985      12.328      9.2690      6.8517    
  5.0449      3.7582      2.8696      2.2601      1.8399      1.5562      1.3879      1.3167      1.3314      1.4167    
  1.5566      1.7396      1.9597      2.2137      2.4979      2.8062      3.1292      3.4519      3.7535      4.0111    
  4.2064      4.3329      4.4006      4.4352      4.4722      4.5498      4.7098      5.0075      5.5211      6.3463    
  7.5748      9.2675      11.431      14.004      16.845      19.730      22.366      24.423      25.596      25.681    
  24.639      22.621      19.913      16.856      13.765      10.885      8.3806      6.3401      4.7730      3.6259    
  2.8103      2.2355      1.8316      1.5560      1.4430      1.3871      1.4167      1.5200      1.6841      1.8981    
  2.1562      2.4568      2.7997      3.1817      3.5928      4.0154      4.4231      4.7832      5.0626      5.2374    
  5.3017      5.2716      5.1827      5.0809      5.0139      5.0284      5.1750      5.5161      6.1228      7.0571    
  8.3473      9.9697      11.842      13.825      15.729      17.335      18.424      18.827      18.470      17.389    
  15.724      13.678      11.475      9.3207      7.3719      5.7271      4.4224      3.4395      2.7239      2.2100    
  1.8437      1.5928      1.5326      1.5030      1.5566      1.6841      1.8751      2.1207      2.4165      2.7633    
  3.1654      3.6246      4.1345      4.6761      5.2175      5.7155      6.1216      6.3925      6.5024      6.4516    
  6.2681      6.0024      5.7150      5.4648      5.3030      5.2768      5.4334      5.8169      6.4568      7.3550    
  8.4767      9.7456      11.043      12.217      13.111      13.591      13.578      13.060      12.093      10.790    
  9.2982      7.7677      6.3264      5.0633      4.0248      3.2171      2.6147      2.1760      1.8625      1.6511    
  1.6471      1.6537      1.7396      1.8981      2.1207      2.4004      2.7351      3.1288      3.5904      4.1287    
  4.7445      5.4217      6.1242      6.7975      7.3764      7.7964      8.0082      7.9903      7.7571      7.3561    
  6.8583      6.3424      5.8807      5.5288      5.3245      5.2936      5.4556      5.8206      6.3789      7.0899    
  7.8804      8.6532      9.3009      9.7243      9.8500      9.6447      9.1218      8.3370      7.3762      6.3390    
  5.3205      4.3957      3.6100      2.9787      2.4938      2.1357      1.8836      1.7230      1.7814      1.8334    
  1.9597      2.1562      2.4165      2.7351      3.1115      3.5524      4.0725      4.6890      5.4123      6.2341    
  7.1184      8.0020      8.8018      9.4287      9.8053      9.8837      9.6577      9.1653      8.4815      7.7036    
  6.9309      6.2456      5.7006      5.3223      5.1205      5.0953      5.2364      5.5183      5.8993      6.3225    
  6.7198      7.0189      7.1577      7.0984      6.8341      6.3857      5.7958      5.1225      4.4309      3.7801    
  3.2099      2.7385      2.3679      2.0933      1.9081      1.8056      1.9323      2.0380      2.2137      2.4568    
  2.7633      3.1288      3.5524      4.0426      4.6192      5.3090      6.1344      7.0987      8.1733      9.2922    
  10.356      11.249      11.861      12.110      11.961      11.436      10.606      9.5833      8.4920      7.4492    
  6.5435      5.8247      5.3046      4.9684      4.7907      4.7465      4.8109      4.9513      5.1232      5.2743    
  5.3563      5.3348      5.1945      4.9379      4.5832      4.1603      3.7065      3.2601      2.8542      2.5115    
  2.2434      2.0526      1.9381      1.8985      2.0967      2.2629      2.4979      2.7997      3.1654      3.5904    
  4.0725      4.6192      5.2532      6.0095      6.9243      8.0173      9.2743      10.635      11.991      13.203    
  14.123      14.627      14.640      14.156      13.238      12.004      10.603      9.1869      7.8873      6.7913    
  5.9321      5.2975      4.8516      4.5570      4.3828      4.3007      4.2795      4.2837      4.2782      4.2326    
  4.1269      3.9554      3.7252      3.4511      3.1505      2.8440      2.5567      2.3133      2.1315      2.0184    
  1.9748      2.0007      2.2705      2.5023      2.8062      3.1817      3.6246      4.1287      4.6890      5.3090    
  6.0095      6.8299      7.8195      9.0179      10.432      12.015      13.665      15.226      16.517      17.362    
  17.635      17.288      16.360      14.971      13.289      11.504      9.7855      8.2632      7.0096      6.0398    
  5.3239      4.8083      4.4389      4.1750      3.9890      3.8578      3.7557      3.6554      3.5345      3.3814    
  3.1952      2.9825      2.7551      2.5285      2.3219      2.1546      2.0429      1.9963      2.0184      2.1097    
  2.4470      2.7479      3.1292      3.5928      4.1345      4.7445      5.4123      6.1344      6.9243      7.8195    
  8.8773      10.156      11.686      13.449      15.359      17.262      18.952      20.209      20.844      20.746    
  19.914      18.453      16.547      14.416      12.275      10.297      8.6013      7.2421      6.2089      5.4449    
  4.8779      4.4480      4.1173      3.8615      3.6588      3.4865      3.3229      3.1511      2.9611      2.7532    
  2.5394      2.3385      2.1695      2.0478      1.9852      1.9910      2.0697      2.2218      2.6179      2.9878    
  3.4519      4.0154      4.6761      5.4217      6.2341      7.0987      8.0173      9.0179      10.156      11.499    
  13.104      14.984      17.085      19.274      21.342      23.038      24.113      24.381      23.774      22.359    
  20.317      17.896      15.355      12.922      10.762      8.9676      7.5571      6.4894      5.6916      5.0874    
  4.6160      4.2373      3.9265      3.6647      3.4335      3.2143      2.9925      2.7632      2.5328      2.3179    
  2.1404      2.0213      1.9762      2.0130      2.1329      2.3344      2.7762      3.2076      3.7535      4.4231    
  5.2175      6.1242      7.1184      8.1733      9.2743      10.432      11.686      13.104      14.756      16.689    
  18.890      21.264      23.628      25.726      27.265      27.987      27.737      26.515      24.470      21.860    
  18.985      16.125      13.499      11.245      9.4194      8.0075      6.9452      6.1444      5.5202      5.0110    
  4.5807      4.2086      3.8783      3.5754      3.2888      3.0117      2.7425      2.4886      2.2703      2.1163    
  2.0510      2.0855      2.2192      2.4491      2.9206      3.3946      4.0111      4.7832      5.7155      6.7975    
  8.0020      9.2922      10.635      12.015      13.449      14.984      16.689      18.631      20.838      23.270    
  25.797      28.187      30.139      31.339      31.545      30.665      28.785      26.142      23.054      19.844    
  16.790      14.089      11.846      10.080      8.7362      7.7196      6.9290      6.2819      5.7229      5.2200    
  4.7562      4.3230      3.9172      3.5370      3.1822      2.8573      2.5769      2.3649      2.2468      2.2396    
  2.3490      2.5752      3.0590      3.5444      4.2064      5.0626      6.1216      7.3764      8.8018      10.356    
  11.991      13.665      15.359      17.085      18.890      20.838      22.988      25.357      27.882      30.397    
  32.631      34.249      34.939      34.512      32.962      30.472      27.348      23.940      20.574      17.505    
  14.894      12.797      11.178      9.9459      8.9907      8.2086      7.5196      6.8728      6.2442      5.6287    
  5.0313      4.4638      3.9411      3.4787      3.0897      2.7867      2.5852      2.5013      2.5476      2.7311    
  3.2096      3.6650      4.3329      5.2374      6.3925      7.7964      9.4287      11.249      13.203      15.226    
  17.262      19.274      21.264      23.270      25.357      27.580      29.951      32.392      34.705      36.580    
  37.684      37.749      36.660      34.505      31.551      28.161      24.688      21.427      18.576      16.232    
  14.393      12.983      11.889      10.989      10.179      9.3871      8.5727      7.7258      6.8608      6.0093    
  5.2100      4.4982      3.8987      3.4256      3.0870      2.8892      2.8381      2.9408      3.3971      3.7768    
  4.4006      5.3017      6.5024      8.0082      9.8053      11.861      14.123      16.517      18.952      21.342    
  23.628      25.797      27.882      29.951      32.067      34.212      36.271      38.060      39.323      39.788    
  39.256      37.687      35.224      32.154      28.842      25.644      22.785      20.385      18.468      16.979    
  15.809      14.829      13.925      13.001      11.996      10.885      9.6856      8.4509      7.2470      6.1377    
  5.1751      4.3960      3.8175      3.4374      3.2434      3.2274      3.6480      3.9083      4.4352      5.2716    
  6.4516      7.9903      9.8837      12.110      14.627      17.362      20.209      23.038      25.726      28.187    
  30.397      32.392      34.212      35.823      37.227      38.435      39.383      39.913      39.827      38.989    
  37.397      35.183      32.570      29.838      27.291      25.129      23.379      21.994      20.877      19.910    
  18.973      17.958      16.780      15.394      13.811      12.095      10.346      8.6710      7.1652      5.9019    
  4.9222      4.2319      3.8077      3.6184      3.9949      4.0911      4.4722      5.1827      6.2681      7.7571    
  9.6577      11.961      14.640      17.635      20.844      24.113      27.265      30.139      32.631      34.705    
  36.271      37.227      37.645      37.737      37.726      37.720      37.670      37.442      36.915      36.039    
  34.834      33.366      31.761      30.226      28.960      27.951      27.116      26.349      25.526      24.522    
  23.231      21.584      19.577      17.284      14.843      12.422      10.174      8.2162      6.6252      5.4331    
  4.6286      4.1662      4.4950      4.3622      4.5498      5.0809      6.0024      7.3561      9.1653      11.436    
  14.156      17.288      20.746      24.381      27.987      31.339      34.249      36.580      38.060      38.435    
  37.737      36.308      34.681      33.358      32.625      32.522      32.923      33.633      34.433      35.082    
  35.384      35.287      34.954      34.655      34.423      34.163      33.739      32.987      31.745      29.905    
  27.446      24.463      21.156      17.772      14.543      11.645      9.1976      7.2682      5.8739      4.9751    
  5.2487      4.7783      4.7098      5.0139      5.7150      6.8583      8.4815      10.606      13.238      16.360    
  19.914      23.774      27.737      31.545      34.939      37.684      39.323      39.383      37.726      34.681    
  31.004      27.622      25.316      24.514      25.279      27.401      30.466      33.888      37.029      39.409    
  40.913      41.818      42.557      43.214      43.641      43.592      42.782      40.983      38.120      34.320    
  29.890      25.218      20.668      16.514      12.925      9.9952      7.7632      6.2075      6.4012      5.4314    
  5.0075      5.0284      5.4648      6.3424      7.7036      9.5833      12.004      14.971      18.453      22.359    
  26.515      30.665      34.512      37.749      39.788      39.913      37.720      33.358      27.622      21.772    
  17.125      14.665      14.865      17.711      22.752      29.141      35.760      41.552      45.916      48.914    
  51.114      53.126      54.968      56.296      56.610      55.423      52.467      47.833      41.966      35.513    
  29.108      23.220      18.106      13.866      10.523      8.0577      8.1157      6.4447      5.5211      5.1750    
  5.3030      5.8807      6.9309      8.4920      10.603      13.289      16.547      20.317      24.470      28.785    
  32.962      36.660      39.256      39.827      37.670      32.625      25.316      17.125      9.8010      4.9248    
  3.5317      6.0181      12.150      21.033      31.186      40.922      48.970      54.958      59.398      63.215    
  67.008      70.478      72.867      73.278      71.021      65.934      58.512      49.741      40.732      32.366    
  25.121      19.130      14.352      10.709      10.534      7.9463      6.3463      5.5161      5.2768      5.5288    
  6.2456      7.4492      9.1869      11.504      14.416      17.896      21.860      26.142      30.472      34.505    
  37.687      38.989      37.442      32.522      24.514      14.665      4.9248     -2.6458     -6.4178     -5.4399    
 0.49393      10.732      23.703      37.230      49.306      58.908      66.269      72.453      78.553      84.769    
  90.185      93.431      93.178      88.690      80.211      68.945      56.612      44.804      34.521      26.096    
  19.432      14.308      13.749      10.033      7.5748      6.1228      5.4334      5.3245      5.7006      6.5435    
  7.8873      9.7855      12.275      15.355      18.985      23.054      27.348      31.551      35.224      37.397    
  36.915      32.923      25.279      14.865      3.5317     -6.4178     -12.863     -14.276     -9.8892     0.13669    
  14.496      30.855      46.604      59.939      70.556      79.457      88.067      97.209      106.22      113.38    
  116.63      114.40      106.24      93.178      77.378      61.335      46.966      35.170      25.967      18.963    
  17.792      12.746      9.2675      7.0571      5.8169      5.2936      5.3223      5.8247      6.7913      8.2632    
  10.297      12.922      16.125      19.844      23.940      28.161      32.154      35.183      36.039      33.633    
  27.401      17.711      6.0181     -5.4399     -14.276     -18.492     -16.746     -8.5632      5.3313      22.866    
  41.152      57.673      71.389      82.958      93.964      105.73      118.23      129.72      137.61      139.42    
  133.61      120.49      102.21      81.966      62.827      46.720      34.170      24.755      22.627      16.060    
  11.431      8.3473      6.4568      5.4556      5.1205      5.3046      5.9321      7.0096      8.6013      10.762    
  13.499      16.790      20.574      24.688      28.842      32.570      34.834      34.433      30.466      22.752    
  12.150     0.49393     -9.8892     -16.746     -18.247     -13.252     -1.7160      14.917      33.930      52.387    
  68.482      82.240      95.112      108.78      123.92      139.25      152.03      159.21      157.89      146.97    
  128.20      105.10      81.513      60.675      44.096      31.694      28.121      19.871      14.004      9.9697    
  7.3550      5.8206      5.0953      4.9684      5.2975      6.0398      7.2421      8.9676      11.245      14.089    
  17.505      21.427      25.644      29.838      33.366      35.082      33.888      29.141      21.033      10.732    
 0.13669     -8.5632     -13.252     -12.211     -4.5955      9.0287      26.571      45.134      62.335      77.404    
  91.311      105.85      122.26      140.07      156.81      169.34      173.90      167.72      151.05      127.30    
  100.95      76.033      55.334      39.589      33.961      23.972      16.845      11.842      8.4767      6.3789    
  5.2364      4.7907      4.8516      5.3239      6.2089      7.5571      9.4194      11.846      14.894      18.576    
  22.785      27.291      31.761      35.384      37.029      35.760      31.186      23.703      14.496      5.3313    
 -1.7160     -4.5955     -1.7691      7.1692      21.096      37.644      54.247      69.413      83.373      97.652    
  113.84      132.24      151.05      167.38      177.50      177.52      165.77      144.30      117.74      90.651    
  66.740      47.872      39.587      28.025      19.730      13.825      9.7456      7.0899      5.5183      4.7465    
  4.5570      4.8083      5.4449      6.4894      8.0075      10.080      12.797      16.232      20.385      25.129    
  30.226      35.287      39.409      41.552      40.922      37.230      30.855      22.866      14.917      9.0287    
  7.1692      10.616      19.346      31.905      46.042      59.874      72.857      85.900      100.54      117.67    
  136.43      154.26      168.00      173.68      168.30      151.99      128.23      101.67      76.472      55.512    
  44.213      31.566      22.366      15.729      11.043      7.8804      5.8993      4.8109      4.3828      4.4389    
  4.8779      5.6916      6.9452      8.7362      11.178      14.393      18.468      23.379      28.960      34.954    
  40.913      45.916      48.970      49.306      46.604      41.152      33.930      26.571      21.096      19.346    
  22.275      29.510      39.554      50.619      61.615      72.683      84.917      99.445      116.20      133.45    
  148.35      157.64      158.07      148.23      129.80      106.52      82.487      61.169      46.995      34.071    
  24.423      17.335      12.217      8.6532      6.3225      4.9513      4.3007      4.1750      4.4480      5.0874    
  6.1444      7.7196      9.9459      12.983      16.979      21.994      27.951      34.655      41.818      48.914    
  54.958      58.908      59.939      57.673      52.387      45.134      37.644      31.905      29.510      31.069    
  36.057      43.214      51.317      59.881      69.360      80.680      94.214      109.08      123.24      133.87    
  138.18      134.22      122.07      103.95      83.325      63.616      47.331      35.093      25.596      18.424    
  13.111      9.3009      6.7198      5.1232      4.2795      3.9890      4.1173      4.6160      5.5202      6.9290    
  8.9907      11.889      15.809      20.877      27.116      34.423      42.557      51.114      59.398      66.269    
  70.556      71.389      68.482      62.335      54.247      46.042      39.554      36.057      35.906      38.580    
  43.133      48.819      55.518      63.683      73.680      85.188      97.041      107.25      113.45      113.64    
  107.05      94.632      78.751      62.241      45.110      34.414      25.681      18.827      13.591      9.7243    
  7.0189      5.2743      4.2837      3.8578      3.8615      4.2373      5.0110      6.2819      8.2086      10.989    
  14.829      19.910      26.349      34.163      43.214      53.126      63.215      72.453      79.457      82.958    
  82.240      77.404      69.413      59.874      50.619      43.214      38.580      36.863      37.620      40.211    
  44.212      49.591      56.413      64.549      73.433      81.877      88.189      90.644      88.155      80.798    
  69.862      57.334      40.774      32.133      24.639      18.470      13.578      9.8500      7.1577      5.3563    
  4.2782      3.7557      3.6588      3.9265      4.5807      5.7229      7.5196      10.179      13.925      18.973    
  25.526      33.739      43.641      54.968      67.008      78.553      88.067      93.964      95.112      91.311    
  83.373      72.857      61.615      51.317      43.133      37.620      34.783      34.278      35.672      38.627    
  42.873      48.206      54.305      60.526      65.829      68.974      68.925      65.304      58.593      49.960    
  35.126      28.637      22.621      17.389      13.060      9.6447      7.0984      5.3348      4.2326      3.6554    
  3.4865      3.6647      4.2086      5.2200      6.8728      9.3871      13.001      17.958      24.522      32.987    
  43.592      56.296      70.478      84.769      97.209      105.73      108.78      105.85      97.652      85.900    
  72.683      59.881      48.819      40.211      34.278      30.916      29.826      30.575      32.722      35.906    
  39.808      44.027      47.971      50.856      51.893      50.579      46.933      41.499      29.029      24.458    
  19.913      15.724      12.093      9.1218      6.8341      5.1945      4.1269      3.5345      3.3229      3.4335    
  3.8783      4.7562      6.2442      8.5727      11.996      16.780      23.231      31.745      42.782      56.610    
  72.867      90.185      106.22      118.23      123.92      122.26      113.84      100.54      84.917      69.360    
  55.518      44.212      35.672      29.826      26.432      25.117      25.427      26.908      29.169      31.858    
  34.581      36.855      38.147      38.021      36.301      33.156      23.162      20.111      16.856      13.678    
  10.790      8.3370      6.3857      4.9379      3.9554      3.3814      3.1511      3.2143      3.5754      4.3230    
  5.6287      7.7258      10.885      15.394      21.584      29.905      40.983      55.423      73.278      93.431    
  113.38      129.72      139.25      140.07      132.24      117.67      99.445      80.680      63.683      49.591    
  38.627      30.575      25.117      21.905      20.533      20.549      21.517      23.057      24.823      26.469    
  27.637      28.004      27.357      25.681      17.926      15.985      13.765      11.475      9.2982      7.3762    
  5.7958      4.5832      3.7252      3.1952      2.9611      2.9925      3.2888      3.9172      5.0313      6.8608    
  9.6856      13.811      19.577      27.446      38.120      52.467      71.021      93.178      116.63      137.61    
  152.03      156.81      151.05      136.43      116.20      94.214      73.680      56.413      42.873      32.722    
  25.427      20.533      17.650      16.357      16.213      16.811      17.803      18.891      19.803      20.296    
  20.183      19.378      13.504      12.328      10.885      9.3207      7.7677      6.3390      5.1225      4.1603    
  3.4511      2.9825      2.7532      2.7632      3.0117      3.5370      4.4638      6.0093      8.4509      12.095    
  17.284      24.463      34.320      47.833      65.934      88.690      114.40      139.42      159.21      169.34    
  167.38      154.26      133.45      109.08      85.188      64.549      48.206      35.906      26.908      20.549    
  16.357      13.912      12.781      12.550      12.872      13.458      14.066      14.499      14.605      14.283    
  9.9391      9.2690      8.3806      7.3719      6.3264      5.3205      4.4309      3.7065      3.1505      2.7551    
  2.5394      2.5328      2.7425      3.1822      3.9411      5.2100      7.2470      10.346      14.843      21.156    
  29.890      41.966      58.512      80.211      106.24      133.61      157.89      173.90      177.50      168.00    
  148.35      123.24      97.041      73.433      54.305      39.808      29.169      21.517      16.213      12.781    
  10.790      9.8366      9.5727      9.7046      9.9928      10.265      10.404      10.318      7.2042      6.8517    
  6.3401      5.7271      5.0633      4.3957      3.7801      3.2601      2.8440      2.5285      2.3385      2.3179    
  2.4886      2.8573      3.4787      4.4982      6.1377      8.6710      12.422      17.772      25.218      35.513    
  49.741      68.945      93.178      120.49      146.97      167.72      177.52      173.68      157.64      133.87    
  107.25      81.877      60.526      44.027      31.858      23.057      16.811      12.550      9.8366      8.2779    
  7.5181      7.2503      7.2338      7.3096      7.3810      7.3699      5.2151      5.0449      4.7730      4.4224    
  4.0248      3.6100      3.2099      2.8542      2.5567      2.3219      2.1695      2.1404      2.2703      2.5769    
  3.0897      3.8987      5.1751      7.1652      10.174      14.543      20.668      29.108      40.732      56.612    
  77.378      102.21      128.20      151.05      165.77      168.30      158.07      138.18      113.45      88.189    
  65.829      47.971      34.581      24.823      17.803      12.872      9.5727      7.5181      6.3456      5.7409    
  5.4640      5.3554      5.3198      5.2923      3.8398      3.7582      3.6259      3.4395      3.2171      2.9787    
  2.7385      2.5115      2.3133      2.1546      2.0478      2.0213      2.1163      2.3649      2.7867      3.4256    
  4.3960      5.9019      8.2162      11.645      16.514      23.220      32.366      44.804      61.335      81.966    
  105.10      127.30      144.30      151.99      148.23      134.22      113.64      90.644      68.974      50.856    
  36.855      26.469      18.891      13.458      9.7046      7.2503      5.7409      4.8651      4.3814      4.1213    
  3.9806      3.9005      2.9197      2.8696      2.8103      2.7239      2.6147      2.4938      2.3679      2.2434    
  2.1315      2.0429      1.9852      1.9762      2.0510      2.2468      2.5852      3.0870      3.8175      4.9222    
  6.6252      9.1976      12.925      18.106      25.121      34.521      46.966      62.827      81.513      100.95    
  117.74      128.23      129.80      122.07      107.05      88.155      68.925      51.893      38.147      27.637    
  19.803      14.066      9.9928      7.2338      5.4640      4.3814      3.7385      3.3580      3.1297      2.9949    
  2.3061      2.2601      2.2355      2.2100      2.1760      2.1357      2.0933      2.0526      2.0184      1.9963    
  1.9910      2.0130      2.0855      2.2396      2.5013      2.8892      3.4374      4.2319      5.4331      7.2682    
  9.9952      13.866      19.130      26.096      35.170      46.720      60.675      76.033      90.651      101.67    
  106.52      103.95      94.632      80.798      65.304      50.579      38.021      28.004      20.296      14.499    
  10.265      7.3096      5.3554      4.1213      3.3580      2.8828      2.5846      2.4040      1.8913      1.8399    
  1.8316      1.8437      1.8625      1.8836      1.9081      1.9381      1.9748      2.0184      2.0697      2.1329    
  2.2192      2.3490      2.5476      2.8381      3.2434      3.8077      4.6286      5.8739      7.7632      10.523    
  14.352      19.432      25.967      34.170      44.096      55.334      66.740      76.472      82.487      83.325    
  78.751      69.862      58.593      46.933      36.301      27.357      20.183      14.605      10.404      7.3810    
  5.3198      3.9806      3.1297      2.5846      2.2322      2.0126      1.6159      1.5562      1.5560      1.5928    
  1.6511      1.7230      1.8056      1.8985      2.0007      2.1097      2.2218      2.3344      2.4491      2.5752    
  2.7311      2.9408      3.2274      3.6184      4.1662      4.9751      6.2075      8.0577      10.709      14.308    
  18.963      24.755      31.694      39.589      47.872      55.512      61.169      63.616      62.241      57.334    
  49.960      41.499      33.156      25.681      19.378      14.283      10.318      7.3699      5.2923      3.9005    
  2.9949      2.4040      2.0126      1.7601      1.4639      1.4162      1.4200      1.4548      1.5085      1.5767    
  1.6573      1.7484      1.8475      1.9522      2.0586      2.1618      2.2579      2.3466      2.4350      2.5394    
  2.6827      2.8879      3.1781      3.5882      4.1829      5.0641      6.3562      8.1733      10.585      13.595    
  17.132      21.044      25.076      28.851      31.885      33.683      33.900      32.475      29.658      25.911    
  21.751      17.622      13.838      10.582      7.9295      5.8797      4.3746      3.3202      2.6048      2.1231    
  1.7975      1.5849      1.3791      1.3265      1.3334      1.3821      1.4593      1.5586      1.6782      1.8152    
  1.9647      2.1215      2.2803      2.4345      2.5750      2.6938      2.7889      2.8682      2.9497      3.0576    
  3.2168      3.4534      3.8028      4.3237      5.1022      6.2368      7.8089      9.8518      12.333      15.149    
  18.120      20.993      23.456      25.176      25.875      25.422      23.874      21.466      18.532      15.413    
  12.392      9.6760      7.3910      5.5828      4.2261      3.2465      2.5535      2.0672      1.7306      1.5083    
  1.3891      1.3415      1.3559      1.4185      1.5171      1.6445      1.7976      1.9737      2.1678      2.3735    
  2.5839      2.7905      2.9813      3.1430      3.2647      3.3437      3.3886      3.4202      3.4665      3.5561    
  3.7163      3.9808      4.3998      5.0409      5.9753      7.2549      8.8887      10.825      12.948      15.079    