   9   9   0   0
  0.1255774E+02  0.4913700E-09  0.4913700E-09  0.5405130E-09  0.5000000E-15
  1.000000000000000E-004
  CAR 
 unknown system                          
     13.71354349    -20.37699862  301      1.12845169      1.00000000
    -20.377  0.0000E+00  0.0000E+00
    -20.263  0.0000E+00  0.0000E+00
    -20.150  0.0000E+00  0.0000E+00
    -20.036  0.0000E+00  0.0000E+00
    -19.922  0.0000E+00  0.0000E+00
    -19.809  0.0000E+00  0.0000E+00
    -19.695  0.0000E+00  0.0000E+00
    -19.582  0.0000E+00  0.0000E+00
    -19.468  0.0000E+00  0.0000E+00
    -19.354  0.0000E+00  0.0000E+00
    -19.241  0.0000E+00  0.0000E+00
    -19.127  0.0000E+00  0.0000E+00
    -19.013  0.0000E+00  0.0000E+00
    -18.900  0.0000E+00  0.0000E+00
    -18.786  0.0000E+00  0.0000E+00
    -18.672  0.0000E+00  0.0000E+00
    -18.559  0.0000E+00  0.0000E+00
    -18.445  0.0000E+00  0.0000E+00
    -18.332  0.2774E+00  0.4202E-02
    -18.218  0.1331E+01  0.1158E+00
    -18.104  0.2268E+01  0.3193E+00
    -17.991  0.4066E+01  0.6815E+00
    -17.877  0.9094E+01  0.1299E+01
    -17.763  0.6775E+00  0.1979E+01
    -17.650  0.1095E+01  0.2064E+01
    -17.536  0.2127E+01  0.2243E+01
    -17.422  0.6454E+01  0.2660E+01
    -17.309  0.3179E+01  0.3593E+01
    -17.195  0.1327E+01  0.3832E+01
    -17.082  0.6402E+00  0.3938E+01
    -16.968  0.9648E+00  0.4012E+01
    -16.854  0.6142E+01  0.4349E+01
    -16.741  0.4206E+01  0.5283E+01
    -16.627  0.2135E+01  0.5611E+01
    -16.513  0.1330E+01  0.5800E+01
    -16.400  0.8109E+00  0.5923E+01
    -16.286  0.2957E+00  0.5992E+01
    -16.172  0.3279E+02  0.1144E+02
    -16.059  0.0000E+00  0.1200E+02
    -15.945  0.0000E+00  0.1200E+02
    -15.832  0.0000E+00  0.1200E+02
    -15.718  0.0000E+00  0.1200E+02
    -15.604  0.0000E+00  0.1200E+02
    -15.491  0.0000E+00  0.1200E+02
    -15.377  0.0000E+00  0.1200E+02
    -15.263  0.0000E+00  0.1200E+02
    -15.150  0.0000E+00  0.1200E+02
    -15.036  0.0000E+00  0.1200E+02
    -14.923  0.0000E+00  0.1200E+02
    -14.809  0.0000E+00  0.1200E+02
    -14.695  0.0000E+00  0.1200E+02
    -14.582  0.0000E+00  0.1200E+02
    -14.468  0.0000E+00  0.1200E+02
    -14.354  0.0000E+00  0.1200E+02
    -14.241  0.0000E+00  0.1200E+02
    -14.127  0.0000E+00  0.1200E+02
    -14.013  0.0000E+00  0.1200E+02
    -13.900  0.0000E+00  0.1200E+02
    -13.786  0.0000E+00  0.1200E+02
    -13.673  0.0000E+00  0.1200E+02
    -13.559  0.0000E+00  0.1200E+02
    -13.445  0.0000E+00  0.1200E+02
    -13.332  0.0000E+00  0.1200E+02
    -13.218  0.0000E+00  0.1200E+02
    -13.104  0.0000E+00  0.1200E+02
    -12.991  0.0000E+00  0.1200E+02
    -12.877  0.0000E+00  0.1200E+02
    -12.763  0.0000E+00  0.1200E+02
    -12.650  0.0000E+00  0.1200E+02
    -12.536  0.0000E+00  0.1200E+02
    -12.423  0.0000E+00  0.1200E+02
    -12.309  0.0000E+00  0.1200E+02
    -12.195  0.0000E+00  0.1200E+02
    -12.082  0.0000E+00  0.1200E+02
    -11.968  0.0000E+00  0.1200E+02
    -11.854  0.0000E+00  0.1200E+02
    -11.741  0.0000E+00  0.1200E+02
    -11.627  0.0000E+00  0.1200E+02
    -11.513  0.0000E+00  0.1200E+02
    -11.400  0.0000E+00  0.1200E+02
    -11.286  0.0000E+00  0.1200E+02
    -11.173  0.0000E+00  0.1200E+02
    -11.059  0.0000E+00  0.1200E+02
    -10.945  0.0000E+00  0.1200E+02
    -10.832  0.0000E+00  0.1200E+02
    -10.718  0.0000E+00  0.1200E+02
    -10.604  0.0000E+00  0.1200E+02
    -10.491  0.0000E+00  0.1200E+02
    -10.377  0.0000E+00  0.1200E+02
    -10.263  0.0000E+00  0.1200E+02
    -10.150  0.0000E+00  0.1200E+02
    -10.036  0.0000E+00  0.1200E+02
     -9.923  0.0000E+00  0.1200E+02
     -9.809  0.0000E+00  0.1200E+02
     -9.695  0.0000E+00  0.1200E+02
     -9.582  0.0000E+00  0.1200E+02
     -9.468  0.0000E+00  0.1200E+02
     -9.354  0.0000E+00  0.1200E+02
     -9.241  0.0000E+00  0.1200E+02
     -9.127  0.0000E+00  0.1200E+02
     -9.013  0.0000E+00  0.1200E+02
     -8.900  0.0000E+00  0.1200E+02
     -8.786  0.0000E+00  0.1200E+02
     -8.673  0.0000E+00  0.1200E+02
     -8.559  0.0000E+00  0.1200E+02
     -8.445  0.0000E+00  0.1200E+02
     -8.332  0.0000E+00  0.1200E+02
     -8.218  0.3304E-01  0.1200E+02
     -8.104  0.3060E+00  0.1202E+02
     -7.991  0.4570E+00  0.1207E+02
     -7.877  0.6625E+00  0.1213E+02
     -7.763  0.8659E+00  0.1222E+02
     -7.650  0.1170E+01  0.1233E+02
     -7.536  0.1612E+01  0.1249E+02
     -7.423  0.2707E+01  0.1272E+02
     -7.309  0.9397E+01  0.1336E+02
     -7.195  0.5084E+01  0.1384E+02
     -7.082  0.5489E+00  0.1396E+02
     -6.968  0.2931E+00  0.1400E+02
     -6.854  0.2281E+00  0.1403E+02
     -6.741  0.3627E+00  0.1406E+02
     -6.627  0.5424E+00  0.1411E+02
     -6.514  0.9030E+00  0.1419E+02
     -6.400  0.1487E+01  0.1433E+02
     -6.286  0.3716E+01  0.1458E+02
     -6.173  0.5820E+01  0.1520E+02
     -6.059  0.2215E+01  0.1554E+02
     -5.945  0.1258E+01  0.1573E+02
     -5.832  0.8511E+00  0.1585E+02
     -5.718  0.5710E+00  0.1593E+02
     -5.604  0.4392E+00  0.1599E+02
     -5.491  0.2534E+00  0.1601E+02
     -5.377  0.2299E+01  0.1616E+02
     -5.264  0.3548E+01  0.1651E+02
     -5.150  0.2896E+01  0.1686E+02
     -5.036  0.2788E+01  0.1719E+02
     -4.923  0.2021E+01  0.1747E+02
     -4.809  0.1442E+01  0.1766E+02
     -4.695  0.1063E+01  0.1780E+02
     -4.582  0.7293E+00  0.1790E+02
     -4.468  0.1447E+01  0.1800E+02
     -4.354  0.1999E+02  0.1882E+02
     -4.241  0.8790E+01  0.2025E+02
     -4.127  0.6092E+01  0.2102E+02
     -4.014  0.4791E+01  0.2172E+02
     -3.900  0.3893E+01  0.2218E+02
     -3.786  0.7724E+01  0.2306E+02
     -3.673  0.4080E+01  0.2369E+02
     -3.559  0.8603E+00  0.2398E+02
     -3.445  0.0000E+00  0.2400E+02
     -3.332  0.0000E+00  0.2400E+02
     -3.218  0.0000E+00  0.2400E+02
     -3.104  0.0000E+00  0.2400E+02
     -2.991  0.0000E+00  0.2400E+02
     -2.877  0.0000E+00  0.2400E+02
     -2.764  0.0000E+00  0.2400E+02
     -2.650  0.0000E+00  0.2400E+02
     -2.536  0.0000E+00  0.2400E+02
     -2.423  0.0000E+00  0.2400E+02
     -2.309  0.0000E+00  0.2400E+02
     -2.195  0.0000E+00  0.2400E+02
     -2.082  0.1430E+02  0.2482E+02
     -1.968  0.5454E+01  0.2597E+02
     -1.854  0.5438E+01  0.2662E+02
     -1.741  0.6773E+01  0.2749E+02
     -1.627  0.4937E+01  0.2819E+02
     -1.514  0.1074E+02  0.2915E+02
     -1.400  0.4253E+01  0.2986E+02
     -1.286  0.1886E+01  0.3007E+02
     -1.173  0.1315E+02  0.3112E+02
     -1.059  0.2413E+01  0.3188E+02
     -0.945  0.2150E+02  0.3271E+02
     -0.832  0.1365E+01  0.3388E+02
     -0.718  0.4522E+01  0.3415E+02
     -0.604  0.6565E+01  0.3486E+02
     -0.491  0.1072E+02  0.3594E+02
     -0.377  0.8085E+01  0.3720E+02
     -0.264  0.4766E+01  0.3781E+02
     -0.150  0.1101E+02  0.3865E+02
     -0.036  0.6855E+01  0.3983E+02
      0.077  0.9990E+01  0.4053E+02
      0.191  0.3600E+01  0.4200E+02
      0.305  0.6140E+01  0.4218E+02
      0.418  0.7711E+01  0.4345E+02
      0.532  0.5618E+01  0.4397E+02
      0.646  0.5914E+01  0.4450E+02
      0.759  0.1019E+02  0.4539E+02
      0.873  0.5470E+01  0.4629E+02
      0.986  0.1360E+02  0.4722E+02
      1.100  0.0000E+00  0.4800E+02
      1.214  0.0000E+00  0.4800E+02
      1.327  0.0000E+00  0.4800E+02
      1.441  0.0000E+00  0.4800E+02
      1.555  0.0000E+00  0.4800E+02
      1.668  0.0000E+00  0.4800E+02
      1.782  0.0000E+00  0.4800E+02
      1.895  0.0000E+00  0.4800E+02
      2.009  0.0000E+00  0.4800E+02
      2.123  0.0000E+00  0.4800E+02
      2.236  0.0000E+00  0.4800E+02
      2.350  0.0000E+00  0.4800E+02
      2.464  0.0000E+00  0.4800E+02
      2.577  0.0000E+00  0.4800E+02
      2.691  0.0000E+00  0.4800E+02
      2.805  0.0000E+00  0.4800E+02
      2.918  0.0000E+00  0.4800E+02
      3.032  0.0000E+00  0.4800E+02
      3.145  0.0000E+00  0.4800E+02
      3.259  0.0000E+00  0.4800E+02
      3.373  0.0000E+00  0.4800E+02
      3.486  0.0000E+00  0.4800E+02
      3.600  0.0000E+00  0.4800E+02
      3.714  0.0000E+00  0.4800E+02
      3.827  0.0000E+00  0.4800E+02
      3.941  0.0000E+00  0.4800E+02
      4.055  0.0000E+00  0.4800E+02
      4.168  0.0000E+00  0.4800E+02
      4.282  0.0000E+00  0.4800E+02
      4.395  0.0000E+00  0.4800E+02
      4.509  0.0000E+00  0.4800E+02
      4.623  0.0000E+00  0.4800E+02
      4.736  0.0000E+00  0.4800E+02
      4.850  0.0000E+00  0.4800E+02
      4.964  0.0000E+00  0.4800E+02
      5.077  0.0000E+00  0.4800E+02
      5.191  0.0000E+00  0.4800E+02
      5.305  0.0000E+00  0.4800E+02
      5.418  0.0000E+00  0.4800E+02
      5.532  0.0000E+00  0.4800E+02
      5.645  0.0000E+00  0.4800E+02
      5.759  0.0000E+00  0.4800E+02
      5.873  0.0000E+00  0.4800E+02
      5.986  0.0000E+00  0.4800E+02
      6.100  0.0000E+00  0.4800E+02
      6.214  0.0000E+00  0.4800E+02
      6.327  0.0000E+00  0.4800E+02
      6.441  0.0000E+00  0.4800E+02
      6.555  0.0000E+00  0.4800E+02
      6.668  0.0000E+00  0.4800E+02
      6.782  0.0000E+00  0.4800E+02
      6.895  0.0000E+00  0.4800E+02
      7.009  0.0000E+00  0.4800E+02
      7.123  0.6291E-04  0.4800E+02
      7.236  0.1479E-01  0.4800E+02
      7.350  0.5535E-01  0.4800E+02
      7.464  0.1218E+00  0.4801E+02
      7.577  0.2063E+00  0.4803E+02
      7.691  0.2517E+00  0.4806E+02
      7.805  0.2799E+00  0.4809E+02
      7.918  0.3034E+00  0.4812E+02
      8.032  0.3487E+00  0.4816E+02
      8.145  0.3966E+00  0.4820E+02
      8.259  0.4469E+00  0.4825E+02
      8.373  0.4995E+00  0.4830E+02
      8.486  0.5541E+00  0.4836E+02
      8.600  0.7034E+00  0.4843E+02
      8.714  0.8535E+00  0.4852E+02
      8.827  0.8268E+00  0.4862E+02
      8.941  0.8869E+00  0.4872E+02
      9.055  0.9490E+00  0.4882E+02
      9.168  0.1013E+01  0.4893E+02
      9.282  0.1204E+01  0.4905E+02
      9.395  0.1521E+01  0.4921E+02
      9.509  0.1326E+01  0.4938E+02
      9.623  0.1234E+01  0.4952E+02
      9.736  0.1414E+01  0.4967E+02
      9.850  0.1481E+01  0.4984E+02
      9.964  0.1691E+01  0.5005E+02
     10.077  0.1089E+01  0.5020E+02
     10.191  0.1999E+01  0.5035E+02
     10.304  0.5858E+01  0.5074E+02
     10.418  0.7145E+01  0.5183E+02
     10.532  0.3922E+01  0.5232E+02
     10.645  0.7963E+01  0.5301E+02
     10.759  0.7015E+01  0.5388E+02
     10.873  0.2792E+01  0.5441E+02
     10.986  0.3342E+01  0.5471E+02
     11.100  0.7617E+01  0.5528E+02
     11.214  0.3180E+01  0.5595E+02
     11.327  0.3796E+01  0.5639E+02
     11.441  0.6142E+01  0.5695E+02
     11.554  0.5810E+01  0.5773E+02
     11.668  0.8786E-01  0.5800E+02
     11.782  0.0000E+00  0.5800E+02
     11.895  0.0000E+00  0.5800E+02
     12.009  0.0000E+00  0.5800E+02
     12.123  0.0000E+00  0.5800E+02
     12.236  0.0000E+00  0.5800E+02
     12.350  0.0000E+00  0.5800E+02
     12.464  0.0000E+00  0.5800E+02
     12.577  0.0000E+00  0.5800E+02
     12.691  0.0000E+00  0.5800E+02
     12.804  0.0000E+00  0.5800E+02
     12.918  0.0000E+00  0.5800E+02
     13.032  0.0000E+00  0.5800E+02
     13.145  0.0000E+00  0.5800E+02
     13.259  0.0000E+00  0.5800E+02
     13.373  0.0000E+00  0.5800E+02
     13.486  0.0000E+00  0.5800E+02
     13.600  0.0000E+00  0.5800E+02
     13.714  0.0000E+00  0.5800E+02
