       N       E                     dE             d eps       ncg     rms          rms(c)
DAV:   1     0.271722490961E+03    0.27172E+03   -0.22594E+04  3230   0.125E+03
DAV:   2    -0.630571442975E+02   -0.33478E+03   -0.32843E+03  4197   0.317E+02
DAV:   3    -0.803413966642E+02   -0.17284E+02   -0.17236E+02  3735   0.820E+01
DAV:   4    -0.805549189154E+02   -0.21352E+00   -0.21323E+00  3788   0.984E+00
DAV:   5    -0.805590983771E+02   -0.41795E-02   -0.41779E-02  3690   0.133E+00    0.184E+01
RMM:   6    -0.711592799622E+02    0.93998E+01   -0.40075E+01  3397   0.331E+01    0.516E+00
RMM:   7    -0.711368436243E+02    0.22436E-01   -0.17771E+00  3670   0.610E+00    0.339E+00
RMM:   8    -0.711524328615E+02   -0.15589E-01   -0.26686E-01  3601   0.402E+00    0.629E-01
RMM:   9    -0.711444692941E+02    0.79636E-02   -0.51525E-02  3738   0.119E+00    0.135E-01
RMM:  10    -0.711478835304E+02   -0.34142E-02   -0.20029E-02  3677   0.729E-01    0.248E-01
RMM:  11    -0.711463373529E+02    0.15462E-02   -0.31722E-03  3732   0.322E-01    0.736E-02
RMM:  12    -0.711462631946E+02    0.74158E-04   -0.10642E-03  3722   0.170E-01    0.714E-03
RMM:  13    -0.711462664611E+02   -0.32665E-05   -0.30475E-05  2789   0.317E-02
   1 F= -.71146266E+02 E0= -.71146266E+02  d E =0.000000E+00
