<?xml version="1.0" encoding="ISO-8859-1"?>
<modeling>
 <generator>
  <i name="program" type="string">vasp </i>
  <i name="version" type="string">5.4.1  </i>
  <i name="subversion" type="string">05Feb16 (build Mar 02 2016 14:09:44) complex                          parallel </i>
  <i name="platform" type="string">Abel-impi-ifc-cuda </i>
  <i name="date" type="string">2019 09 13 </i>
  <i name="time" type="string">12:01:31 </i>
 </generator>
 <incar>
  <i type="string" name="PREC">normal    ! low/normal/accurate</i>
  <i type="string" name="ALGO"> Fast      ! Algorithm for electronic re</i>
  <i type="int" name="ISPIN">     1</i>
  <i type="int" name="NELMIN">     4</i>
  <i name="EDIFF">      0.00001000</i>
  <i type="int" name="NSW">     0</i>
  <i name="ENCUT">    400.00000000</i>
  <i type="string" name="LREAL"> Auto      ! Projection in reciprocal sp</i>
  <i type="int" name="ISMEAR">    -5</i>
  <i name="SIGMA">      0.20000000</i>
  <i type="logical" name="LWAVE"> F  </i>
  <v type="int" name="KPOINT_BSE">    -1     0     0     0</v>
 </incar>
 <kpoints>
  <generation param="Gamma">
   <v type="int" name="divisions">       6        6        5 </v>
   <v name="usershift">      0.00000000       0.00000000       0.00000000 </v>
   <v name="genvec1">      0.16666667       0.00000000       0.00000000 </v>
   <v name="genvec2">      0.00000000       0.16666667       0.00000000 </v>
   <v name="genvec3">      0.00000000       0.00000000       0.20000000 </v>
   <v name="shift">      0.00000000       0.00000000       0.00000000 </v>
  </generation>
  <varray name="kpointlist" >
   <v>       0.00000000       0.00000000       0.00000000 </v>
   <v>       0.16666667       0.00000000       0.00000000 </v>
   <v>       0.33333333       0.00000000       0.00000000 </v>
   <v>       0.50000000       0.00000000       0.00000000 </v>
   <v>       0.16666667       0.16666667       0.00000000 </v>
   <v>       0.33333333       0.16666667       0.00000000 </v>
   <v>       0.50000000       0.16666667       0.00000000 </v>
   <v>      -0.33333333       0.16666667       0.00000000 </v>
   <v>      -0.16666667       0.16666667       0.00000000 </v>
   <v>       0.33333333       0.33333333       0.00000000 </v>
   <v>       0.50000000       0.33333333       0.00000000 </v>
   <v>      -0.33333333       0.33333333       0.00000000 </v>
   <v>       0.50000000       0.50000000       0.00000000 </v>
   <v>       0.00000000       0.00000000       0.20000000 </v>
   <v>       0.16666667       0.00000000       0.20000000 </v>
   <v>       0.33333333       0.00000000       0.20000000 </v>
   <v>       0.50000000       0.00000000       0.20000000 </v>
   <v>      -0.33333333       0.00000000       0.20000000 </v>
   <v>      -0.16666667       0.00000000       0.20000000 </v>
   <v>       0.16666667       0.16666667       0.20000000 </v>
   <v>       0.33333333       0.16666667       0.20000000 </v>
   <v>       0.50000000       0.16666667       0.20000000 </v>
   <v>      -0.33333333       0.16666667       0.20000000 </v>
   <v>      -0.16666667       0.16666667       0.20000000 </v>
   <v>       0.16666667       0.33333333       0.20000000 </v>
   <v>       0.33333333       0.33333333       0.20000000 </v>
   <v>       0.50000000       0.33333333       0.20000000 </v>
   <v>      -0.33333333       0.33333333       0.20000000 </v>
   <v>       0.16666667       0.50000000       0.20000000 </v>
   <v>       0.33333333       0.50000000       0.20000000 </v>
   <v>       0.50000000       0.50000000       0.20000000 </v>
   <v>       0.16666667      -0.33333333       0.20000000 </v>
   <v>       0.33333333      -0.33333333       0.20000000 </v>
   <v>       0.16666667      -0.16666667       0.20000000 </v>
   <v>       0.00000000       0.00000000       0.40000000 </v>
   <v>       0.16666667       0.00000000       0.40000000 </v>
   <v>       0.33333333       0.00000000       0.40000000 </v>
   <v>       0.50000000       0.00000000       0.40000000 </v>
   <v>      -0.33333333       0.00000000       0.40000000 </v>
   <v>      -0.16666667       0.00000000       0.40000000 </v>
   <v>       0.16666667       0.16666667       0.40000000 </v>
   <v>       0.33333333       0.16666667       0.40000000 </v>
   <v>       0.50000000       0.16666667       0.40000000 </v>
   <v>      -0.33333333       0.16666667       0.40000000 </v>
   <v>      -0.16666667       0.16666667       0.40000000 </v>
   <v>       0.16666667       0.33333333       0.40000000 </v>
   <v>       0.33333333       0.33333333       0.40000000 </v>
   <v>       0.50000000       0.33333333       0.40000000 </v>
   <v>      -0.33333333       0.33333333       0.40000000 </v>
   <v>       0.16666667       0.50000000       0.40000000 </v>
   <v>       0.33333333       0.50000000       0.40000000 </v>
   <v>       0.50000000       0.50000000       0.40000000 </v>
   <v>       0.16666667      -0.33333333       0.40000000 </v>
   <v>       0.33333333      -0.33333333       0.40000000 </v>
   <v>       0.16666667      -0.16666667       0.40000000 </v>
  </varray>
  <varray name="weights" >
   <v>       0.00555556 </v>
   <v>       0.02222222 </v>
   <v>       0.02222222 </v>
   <v>       0.01111111 </v>
   <v>       0.01111111 </v>
   <v>       0.02222222 </v>
   <v>       0.02222222 </v>
   <v>       0.02222222 </v>
   <v>       0.01111111 </v>
   <v>       0.01111111 </v>
   <v>       0.02222222 </v>
   <v>       0.01111111 </v>
   <v>       0.00555556 </v>
   <v>       0.01111111 </v>
   <v>       0.02222222 </v>
   <v>       0.02222222 </v>
   <v>       0.02222222 </v>
   <v>       0.02222222 </v>
   <v>       0.02222222 </v>
   <v>       0.02222222 </v>
   <v>       0.02222222 </v>
   <v>       0.02222222 </v>
   <v>       0.02222222 </v>
   <v>       0.01111111 </v>
   <v>       0.02222222 </v>
   <v>       0.02222222 </v>
   <v>       0.02222222 </v>
   <v>       0.01111111 </v>
   <v>       0.02222222 </v>
   <v>       0.02222222 </v>
   <v>       0.01111111 </v>
   <v>       0.02222222 </v>
   <v>       0.01111111 </v>
   <v>       0.01111111 </v>
   <v>       0.01111111 </v>
   <v>       0.02222222 </v>
   <v>       0.02222222 </v>
   <v>       0.02222222 </v>
   <v>       0.02222222 </v>
   <v>       0.02222222 </v>
   <v>       0.02222222 </v>
   <v>       0.02222222 </v>
   <v>       0.02222222 </v>
   <v>       0.02222222 </v>
   <v>       0.01111111 </v>
   <v>       0.02222222 </v>
   <v>       0.02222222 </v>
   <v>       0.02222222 </v>
   <v>       0.01111111 </v>
   <v>       0.02222222 </v>
   <v>       0.02222222 </v>
   <v>       0.01111111 </v>
   <v>       0.02222222 </v>
   <v>       0.01111111 </v>
   <v>       0.01111111 </v>
  </varray>
  <varray name="tetrahedronlist"  type="int" >
   <v type="int" >        4        2        2        5       19 </v>
   <v type="int" >        4        1        2        2       19 </v>
   <v type="int" >        4        1        2       14       19 </v>
   <v type="int" >        4        2        5       19       20 </v>
   <v type="int" >        4        2       15       19       20 </v>
   <v type="int" >        4        2       14       15       19 </v>
   <v type="int" >        4        3        5        6       20 </v>
   <v type="int" >        4        2        3        5       20 </v>
   <v type="int" >        4        2        3       15       20 </v>
   <v type="int" >        4        3        6       20       21 </v>
   <v type="int" >        4        3       16       20       21 </v>
   <v type="int" >        4        3       15       16       20 </v>
   <v type="int" >        4        4        6        7       21 </v>
   <v type="int" >        4        3        4        6       21 </v>
   <v type="int" >        4        3        4       16       21 </v>
   <v type="int" >        4        4        7       21       22 </v>
   <v type="int" >        4        4       17       21       22 </v>
   <v type="int" >        4        4       16       17       21 </v>
   <v type="int" >        4        3        7        8       22 </v>
   <v type="int" >        4        3        4        7       22 </v>
   <v type="int" >        4        3        4       17       22 </v>
   <v type="int" >        4        3        8       22       23 </v>
   <v type="int" >        4        3       18       22       23 </v>
   <v type="int" >        4        3       17       18       22 </v>
   <v type="int" >        4        2        8        9       23 </v>
   <v type="int" >        4        2        3        8       23 </v>
   <v type="int" >        4        2        3       18       23 </v>
   <v type="int" >        4        2        9       23       24 </v>
   <v type="int" >        4        2       19       23       24 </v>
   <v type="int" >        4        2       18       19       23 </v>
   <v type="int" >        4        1        2        9       24 </v>
   <v type="int" >        4        1        2       19       24 </v>
   <v type="int" >        4        1       14       19       24 </v>
   <v type="int" >        4        3        5        6       18 </v>
   <v type="int" >        4        2        3        5       18 </v>
   <v type="int" >        4        2        5       18       19 </v>
   <v type="int" >        4        5        6       18       25 </v>
   <v type="int" >        4        5       18       20       25 </v>
   <v type="int" >        4        5       18       19       20 </v>
   <v type="int" >        4        6        6       10       25 </v>
   <v type="int" >        4        5        6        6       25 </v>
   <v type="int" >        4        5        6       20       25 </v>
   <v type="int" >        4        6       10       25       26 </v>
   <v type="int" >        4        6       21       25       26 </v>
   <v type="int" >        4        6       20       21       25 </v>
   <v type="int" >        4        7       10       11       26 </v>
   <v type="int" >        4        6        7       10       26 </v>
   <v type="int" >        4        6        7       21       26 </v>
   <v type="int" >        4        7       11       26       27 </v>
   <v type="int" >        4        7       22       26       27 </v>
   <v type="int" >        4        7       21       22       26 </v>
   <v type="int" >        4        8       11       12       27 </v>
   <v type="int" >        4        7        8       11       27 </v>
   <v type="int" >        4        7        8       22       27 </v>
   <v type="int" >        4        8       12       27       28 </v>
   <v type="int" >        4        8       23       27       28 </v>
   <v type="int" >        4        8       22       23       27 </v>
   <v type="int" >        4        8        9       12       28 </v>
   <v type="int" >        4        8        9       23       28 </v>
   <v type="int" >        4        9       23       24       28 </v>
   <v type="int" >        4        4        6        7       17 </v>
   <v type="int" >        4        3        4        6       17 </v>
   <v type="int" >        4        3        6       17       18 </v>
   <v type="int" >        4        6        7       17       29 </v>
   <v type="int" >        4        6       17       25       29 </v>
   <v type="int" >        4        6       17       18       25 </v>
   <v type="int" >        4        7       10       11       29 </v>
   <v type="int" >        4        6        7       10       29 </v>
   <v type="int" >        4        6       10       25       29 </v>
   <v type="int" >        4       10       11       29       30 </v>
   <v type="int" >        4       10       26       29       30 </v>
   <v type="int" >        4       10       25       26       29 </v>
   <v type="int" >        4       11       11       13       30 </v>
   <v type="int" >        4       10       11       11       30 </v>
   <v type="int" >        4       10       11       26       30 </v>
   <v type="int" >        4       11       13       30       31 </v>
   <v type="int" >        4       11       27       30       31 </v>
   <v type="int" >        4       11       26       27       30 </v>
   <v type="int" >        4       11       12       13       31 </v>
   <v type="int" >        4       11       12       27       31 </v>
   <v type="int" >        4       12       27       28       31 </v>
   <v type="int" >        4        3        7        8       16 </v>
   <v type="int" >        4        3        4        7       16 </v>
   <v type="int" >        4        4        7       16       17 </v>
   <v type="int" >        4        7        8       16       32 </v>
   <v type="int" >        4        7       16       29       32 </v>
   <v type="int" >        4        7       16       17       29 </v>
   <v type="int" >        4        8       11       12       32 </v>
   <v type="int" >        4        7        8       11       32 </v>
   <v type="int" >        4        7       11       29       32 </v>
   <v type="int" >        4       11       12       32       33 </v>
   <v type="int" >        4       11       30       32       33 </v>
   <v type="int" >        4       11       29       30       32 </v>
   <v type="int" >        4       11       12       13       33 </v>
   <v type="int" >        4       11       13       30       33 </v>
   <v type="int" >        4       13       30       31       33 </v>
   <v type="int" >        4        2        8        9       15 </v>
   <v type="int" >        4        2        3        8       15 </v>
   <v type="int" >        4        3        8       15       16 </v>
   <v type="int" >        4        8        9       15       34 </v>
   <v type="int" >        4        8       15       32       34 </v>
   <v type="int" >        4        8       15       16       32 </v>
   <v type="int" >        4        8        9       12       34 </v>
   <v type="int" >        4        8       12       32       34 </v>
   <v type="int" >        4       12       32       33       34 </v>
   <v type="int" >        4        1        2        9       14 </v>
   <v type="int" >        4        2        9       14       15 </v>
   <v type="int" >        4        9       14       15       34 </v>
   <v type="int" >        4       15       19       20       40 </v>
   <v type="int" >        4       14       15       19       40 </v>
   <v type="int" >        4       14       15       35       40 </v>
   <v type="int" >        4       15       20       40       41 </v>
   <v type="int" >        4       15       36       40       41 </v>
   <v type="int" >        4       15       35       36       40 </v>
   <v type="int" >        4       16       20       21       41 </v>
   <v type="int" >        4       15       16       20       41 </v>
   <v type="int" >        4       15       16       36       41 </v>
   <v type="int" >        4       16       21       41       42 </v>
   <v type="int" >        4       16       37       41       42 </v>
   <v type="int" >        4       16       36       37       41 </v>
   <v type="int" >        4       17       21       22       42 </v>
   <v type="int" >        4       16       17       21       42 </v>
   <v type="int" >        4       16       17       37       42 </v>
   <v type="int" >        4       17       22       42       43 </v>
   <v type="int" >        4       17       38       42       43 </v>
   <v type="int" >        4       17       37       38       42 </v>
   <v type="int" >        4       18       22       23       43 </v>
   <v type="int" >        4       17       18       22       43 </v>
   <v type="int" >        4       17       18       38       43 </v>
   <v type="int" >        4       18       23       43       44 </v>
   <v type="int" >        4       18       39       43       44 </v>
   <v type="int" >        4       18       38       39       43 </v>
   <v type="int" >        4       19       23       24       44 </v>
   <v type="int" >        4       18       19       23       44 </v>
   <v type="int" >        4       18       19       39       44 </v>
   <v type="int" >        4       19       24       44       45 </v>
   <v type="int" >        4       19       40       44       45 </v>
   <v type="int" >        4       19       39       40       44 </v>
   <v type="int" >        4       14       19       24       45 </v>
   <v type="int" >        4       14       19       40       45 </v>
   <v type="int" >        4       14       35       40       45 </v>
   <v type="int" >        4       18       20       25       39 </v>
   <v type="int" >        4       18       19       20       39 </v>
   <v type="int" >        4       19       20       39       40 </v>
   <v type="int" >        4       20       25       39       46 </v>
   <v type="int" >        4       20       39       41       46 </v>
   <v type="int" >        4       20       39       40       41 </v>
   <v type="int" >        4       21       25       26       46 </v>
   <v type="int" >        4       20       21       25       46 </v>
   <v type="int" >        4       20       21       41       46 </v>
   <v type="int" >        4       21       26       46       47 </v>
   <v type="int" >        4       21       42       46       47 </v>
   <v type="int" >        4       21       41       42       46 </v>
   <v type="int" >        4       22       26       27       47 </v>
   <v type="int" >        4       21       22       26       47 </v>
   <v type="int" >        4       21       22       42       47 </v>
   <v type="int" >        4       22       27       47       48 </v>
   <v type="int" >        4       22       43       47       48 </v>
   <v type="int" >        4       22       42       43       47 </v>
   <v type="int" >        4       23       27       28       48 </v>
   <v type="int" >        4       22       23       27       48 </v>
   <v type="int" >        4       22       23       43       48 </v>
   <v type="int" >        4       23       28       48       49 </v>
   <v type="int" >        4       23       44       48       49 </v>
   <v type="int" >        4       23       43       44       48 </v>
   <v type="int" >        4       23       24       28       49 </v>
   <v type="int" >        4       23       24       44       49 </v>
   <v type="int" >        4       24       44       45       49 </v>
   <v type="int" >        4       17       25       29       38 </v>
   <v type="int" >        4       17       18       25       38 </v>
   <v type="int" >        4       18       25       38       39 </v>
   <v type="int" >        4       25       29       38       50 </v>
   <v type="int" >        4       25       38       46       50 </v>
   <v type="int" >        4       25       38       39       46 </v>
   <v type="int" >        4       26       29       30       50 </v>
   <v type="int" >        4       25       26       29       50 </v>
   <v type="int" >        4       25       26       46       50 </v>
   <v type="int" >        4       26       30       50       51 </v>
   <v type="int" >        4       26       47       50       51 </v>
   <v type="int" >        4       26       46       47       50 </v>
   <v type="int" >        4       27       30       31       51 </v>
   <v type="int" >        4       26       27       30       51 </v>
   <v type="int" >        4       26       27       47       51 </v>
   <v type="int" >        4       27       31       51       52 </v>
   <v type="int" >        4       27       48       51       52 </v>
   <v type="int" >        4       27       47       48       51 </v>
   <v type="int" >        4       27       28       31       52 </v>
   <v type="int" >        4       27       28       48       52 </v>
   <v type="int" >        4       28       48       49       52 </v>
   <v type="int" >        4       16       29       32       37 </v>
   <v type="int" >        4       16       17       29       37 </v>
   <v type="int" >        4       17       29       37       38 </v>
   <v type="int" >        4       29       32       37       53 </v>
   <v type="int" >        4       29       37       50       53 </v>
   <v type="int" >        4       29       37       38       50 </v>
   <v type="int" >        4       30       32       33       53 </v>
   <v type="int" >        4       29       30       32       53 </v>
   <v type="int" >        4       29       30       50       53 </v>
   <v type="int" >        4       30       33       53       54 </v>
   <v type="int" >        4       30       51       53       54 </v>
   <v type="int" >        4       30       50       51       53 </v>
   <v type="int" >        4       30       31       33       54 </v>
   <v type="int" >        4       30       31       51       54 </v>
   <v type="int" >        4       31       51       52       54 </v>
   <v type="int" >        4       15       32       34       36 </v>
   <v type="int" >        4       15       16       32       36 </v>
   <v type="int" >        4       16       32       36       37 </v>
   <v type="int" >        4       32       34       36       55 </v>
   <v type="int" >        4       32       36       53       55 </v>
   <v type="int" >        4       32       36       37       53 </v>
   <v type="int" >        4       32       33       34       55 </v>
   <v type="int" >        4       32       33       53       55 </v>
   <v type="int" >        4       33       53       54       55 </v>
   <v type="int" >        4       14       15       34       35 </v>
   <v type="int" >        4       15       34       35       36 </v>
   <v type="int" >        4       34       35       36       55 </v>
   <v type="int" >        4       36       36       40       41 </v>
   <v type="int" >        4       35       36       36       40 </v>
   <v type="int" >        2       35       35       36       36 </v>
   <v type="int" >        2       36       36       41       41 </v>
   <v type="int" >        4       37       41       41       42 </v>
   <v type="int" >        4       36       37       41       41 </v>
   <v type="int" >        4       36       37       40       41 </v>
   <v type="int" >        4       37       41       42       46 </v>
   <v type="int" >        4       37       39       41       46 </v>
   <v type="int" >        4       37       39       40       41 </v>
   <v type="int" >        4       38       42       43       46 </v>
   <v type="int" >        4       37       38       42       46 </v>
   <v type="int" >        4       37       38       39       46 </v>
   <v type="int" >        4       38       43       46       50 </v>
   <v type="int" >        4       38       38       46       50 </v>
   <v type="int" >        4       38       38       39       46 </v>
   <v type="int" >        4       39       43       44       50 </v>
   <v type="int" >        4       38       39       43       50 </v>
   <v type="int" >        4       38       38       39       50 </v>
   <v type="int" >        4       39       44       50       53 </v>
   <v type="int" >        4       37       39       50       53 </v>
   <v type="int" >        4       37       38       39       50 </v>
   <v type="int" >        4       40       44       45       53 </v>
   <v type="int" >        4       39       40       44       53 </v>
   <v type="int" >        4       37       39       40       53 </v>
   <v type="int" >        4       40       45       53       55 </v>
   <v type="int" >        4       36       40       53       55 </v>
   <v type="int" >        4       36       37       40       53 </v>
   <v type="int" >        4       35       40       45       55 </v>
   <v type="int" >        4       35       36       40       55 </v>
   <v type="int" >        4       35       35       36       55 </v>
   <v type="int" >        4       42       42       46       47 </v>
   <v type="int" >        4       41       42       42       46 </v>
   <v type="int" >        2       41       41       42       42 </v>
   <v type="int" >        2       42       42       47       47 </v>
   <v type="int" >        4       43       47       47       48 </v>
   <v type="int" >        4       42       43       47       47 </v>
   <v type="int" >        4       42       43       46       47 </v>
   <v type="int" >        4       43       47       48       51 </v>
   <v type="int" >        4       43       47       50       51 </v>
   <v type="int" >        4       43       46       47       50 </v>
   <v type="int" >        4       44       48       49       51 </v>
   <v type="int" >        4       43       44       48       51 </v>
   <v type="int" >        4       43       44       50       51 </v>
   <v type="int" >        4       44       49       51       54 </v>
   <v type="int" >        4       44       51       53       54 </v>
   <v type="int" >        4       44       50       51       53 </v>
   <v type="int" >        4       44       45       49       54 </v>
   <v type="int" >        4       44       45       53       54 </v>
   <v type="int" >        4       45       53       54       55 </v>
   <v type="int" >        4       48       48       51       52 </v>
   <v type="int" >        4       47       48       48       51 </v>
   <v type="int" >        2       47       47       48       48 </v>
   <v type="int" >        2       48       48       52       52 </v>
   <v type="int" >        4       48       49       52       52 </v>
   <v type="int" >        4       48       49       51       52 </v>
   <v type="int" >        4       49       51       52       54 </v>
  </varray>
  <i name="volumeweight">      0.00092593 </i>
 </kpoints>
 <parameters>
  <separator name="general" >
   <i type="string" name="SYSTEM">unknown system</i>
   <i type="logical" name="LCOMPAT"> F  </i>
  </separator>
  <separator name="electronic" >
   <i type="string" name="PREC">normal</i>
   <i name="ENMAX">    400.00000000</i>
   <i name="ENAUG">    605.39200000</i>
   <i name="EDIFF">      0.00001000</i>
   <i type="int" name="IALGO">    68</i>
   <i type="int" name="IWAVPR">    10</i>
   <i type="int" name="NBANDS">    29</i>
   <i name="NELECT">     48.00000000</i>
   <i type="int" name="TURBO">     0</i>
   <i type="int" name="IRESTART">     0</i>
   <i type="int" name="NREBOOT">     0</i>
   <i type="int" name="NMIN">     0</i>
   <i name="EREF">      0.00000000</i>
   <separator name="electronic smearing" >
    <i type="int" name="ISMEAR">    -5</i>
    <i name="SIGMA">      0.20000000</i>
    <i name="KSPACING">      0.50000000</i>
    <i type="logical" name="KGAMMA"> T  </i>
   </separator>
   <separator name="electronic projectors" >
    <i type="logical" name="LREAL"> T  </i>
    <v name="ROPT">     -0.00050000     -0.00050000</v>
    <i type="int" name="LMAXPAW">  -100</i>
    <i type="int" name="LMAXMIX">     2</i>
    <i type="logical" name="NLSPLINE"> F  </i>
   </separator>
   <separator name="electronic startup" >
    <i type="int" name="ISTART">     0</i>
    <i type="int" name="ICHARG">     2</i>
    <i type="int" name="INIWAV">     1</i>
   </separator>
   <separator name="electronic spin" >
    <i type="int" name="ISPIN">     1</i>
    <i type="logical" name="LNONCOLLINEAR"> F  </i>
    <v name="MAGMOM">      1.00000000      1.00000000      1.00000000      1.00000000      1.00000000      1.00000000      1.00000000      1.00000000      1.00000000</v>
    <i name="NUPDOWN">     -1.00000000</i>
    <i type="logical" name="LSORBIT"> F  </i>
    <v name="SAXIS">      0.00000000      0.00000000      1.00000000</v>
    <i type="logical" name="LSPIRAL"> F  </i>
    <v name="QSPIRAL">      0.00000000      0.00000000      0.00000000</v>
    <i type="logical" name="LZEROZ"> F  </i>
   </separator>
   <separator name="electronic exchange-correlation" >
    <i type="logical" name="LASPH"> F  </i>
    <i type="logical" name="LMETAGGA"> F  </i>
   </separator>
   <separator name="electronic convergence" >
    <i type="int" name="NELM">    60</i>
    <i type="int" name="NELMDL">    -5</i>
    <i type="int" name="NELMIN">     4</i>
    <i name="ENINI">    400.00000000</i>
    <separator name="electronic convergence detail" >
     <i type="logical" name="LDIAG"> T  </i>
     <i type="logical" name="LSUBROT"> F  </i>
     <i name="WEIMIN">      0.00000000</i>
     <i name="EBREAK">      0.00000009</i>
     <i name="DEPER">      0.30000000</i>
     <i type="int" name="NRMM">     4</i>
     <i name="TIME">      0.40000000</i>
    </separator>
   </separator>
   <separator name="electronic mixer" >
    <i name="AMIX">      0.40000000</i>
    <i name="BMIX">      1.00000000</i>
    <i name="AMIN">      0.10000000</i>
    <i name="AMIX_MAG">      1.60000000</i>
    <i name="BMIX_MAG">      1.00000000</i>
    <separator name="electronic mixer details" >
     <i type="int" name="IMIX">     4</i>
     <i type="logical" name="MIXFIRST"> F  </i>
     <i type="int" name="MAXMIX">   -45</i>
     <i name="WC">    100.00000000</i>
     <i type="int" name="INIMIX">     1</i>
     <i type="int" name="MIXPRE">     1</i>
     <i type="int" name="MREMOVE">     5</i>
    </separator>
   </separator>
   <separator name="electronic dipolcorrection" >
    <i type="logical" name="LDIPOL"> F  </i>
    <i type="logical" name="LMONO"> F  </i>
    <i type="int" name="IDIPOL">     0</i>
    <i name="EPSILON">      1.00000000</i>
    <v name="DIPOL">   -100.00000000   -100.00000000   -100.00000000</v>
    <i name="EFIELD">      0.00000000</i>
   </separator>
  </separator>
  <separator name="grids" >
   <i type="int" name="NGX">    24</i>
   <i type="int" name="NGY">    24</i>
   <i type="int" name="NGZ">    28</i>
   <i type="int" name="NGXF">    48</i>
   <i type="int" name="NGYF">    48</i>
   <i type="int" name="NGZF">    56</i>
   <i type="logical" name="ADDGRID"> F  </i>
  </separator>
  <separator name="ionic" >
   <i type="int" name="NSW">     0</i>
   <i type="int" name="IBRION">    -1</i>
   <i type="int" name="ISIF">     2</i>
   <i name="PSTRESS">      0.00000000</i>
   <i name="EDIFFG">      0.00010000</i>
   <i type="int" name="NFREE">     0</i>
   <i name="POTIM">      0.50000000</i>
   <i name="SMASS">     -3.00000000</i>
   <i name="SCALEE">      1.00000000</i>
  </separator>
  <separator name="ionic md" >
   <i name="TEBEG">      0.00010000</i>
   <i name="TEEND">      0.00010000</i>
   <i type="int" name="NBLOCK">     1</i>
   <i type="int" name="KBLOCK">     1</i>
   <i type="int" name="NPACO">   256</i>
   <i name="APACO">     16.00000000</i>
  </separator>
  <separator name="symmetry" >
   <i type="int" name="ISYM">     2</i>
   <i name="SYMPREC">      0.00001000</i>
  </separator>
  <separator name="dos" >
   <i type="logical" name="LORBIT"> F  </i>
   <v name="RWIGS">     -1.00000000     -1.00000000</v>
   <i type="int" name="NEDOS">   301</i>
   <i name="EMIN">     10.00000000</i>
   <i name="EMAX">    -10.00000000</i>
   <i name="EFERMI">      0.00000000</i>
  </separator>
  <separator name="writing" >
   <i type="int" name="NWRITE">     2</i>
   <i type="logical" name="LWAVE"> F  </i>
   <i type="logical" name="LCHARG"> T  </i>
   <i type="logical" name="LPARD"> F  </i>
   <i type="logical" name="LVTOT"> F  </i>
   <i type="logical" name="LVHAR"> F  </i>
   <i type="logical" name="LELF"> F  </i>
   <i type="logical" name="LOPTICS"> F  </i>
   <v name="STM">      0.00000000      0.00000000      0.00000000      0.00000000      0.00000000      0.00000000      0.00000000</v>
  </separator>
  <separator name="performance" >
   <i type="int" name="NPAR">     1</i>
   <i type="int" name="NSIM">     4</i>
   <i type="int" name="NBLK">    -1</i>
   <i type="logical" name="LPLANE"> T  </i>
   <i type="logical" name="LSCALAPACK"> F  </i>
   <i type="logical" name="LSCAAWARE"> F  </i>
   <i type="logical" name="LSCALU"> F  </i>
   <i type="logical" name="LASYNC"> F  </i>
   <i type="logical" name="LORBITALREAL"> F  </i>
  </separator>
  <separator name="miscellaneous" >
   <i type="int" name="IDIOT">     3</i>
   <i type="logical" name="LMUSIC"> F  </i>
   <v name="POMASS">     28.08500000     16.00000000</v>
   <v name="DARWINR">      0.00000000      0.00000000</v>
   <v name="DARWINV">      1.00000000      1.00000000</v>
   <i type="logical" name="LCORR"> T  </i>
  </separator>
  <i type="logical" name="GGA_COMPAT"> T  </i>
  <i type="logical" name="LBERRY"> F  </i>
  <i type="int" name="ICORELEVEL">     0</i>
  <i type="logical" name="LDAU"> F  </i>
  <i type="int" name="I_CONSTRAINED_M">     0</i>
  <separator name="electronic exchange-correlation" >
   <i type="string" name="GGA">--</i>
   <i type="int" name="VOSKOWN">     0</i>
   <i type="logical" name="LHFCALC"> F  </i>
   <i type="string" name="PRECFOCK"></i>
   <i type="logical" name="LSYMGRAD"> F  </i>
   <i type="logical" name="LHFONE"> F  </i>
   <i type="logical" name="LRHFCALC"> F  </i>
   <i type="logical" name="LTHOMAS"> F  </i>
   <i type="logical" name="LMODELHF"> F  </i>
   <i name="ENCUT4O">     -1.00000000</i>
   <i type="int" name="EXXOEP">     0</i>
   <i type="int" name="FOURORBIT">     0</i>
   <i name="AEXX">      0.00000000</i>
   <i name="HFALPHA">      0.00000000</i>
   <i name="MCALPHA">      0.00000000</i>
   <i name="ALDAX">      1.00000000</i>
   <i name="AGGAX">      1.00000000</i>
   <i name="ALDAC">      1.00000000</i>
   <i name="AGGAC">      1.00000000</i>
   <i type="int" name="NKREDX">     1</i>
   <i type="int" name="NKREDY">     1</i>
   <i type="int" name="NKREDZ">     1</i>
   <i type="logical" name="SHIFTRED"> F  </i>
   <i type="logical" name="ODDONLY"> F  </i>
   <i type="logical" name="EVENONLY"> F  </i>
   <i type="int" name="LMAXFOCK">     0</i>
   <i type="int" name="NMAXFOCKAE">     0</i>
   <i type="logical" name="LFOCKAEDFT"> F  </i>
   <i name="HFSCREEN">      0.00000000</i>
   <i name="HFSCREENC">      0.00000000</i>
   <i type="int" name="NBANDSGWLOW">     0</i>
  </separator>
  <separator name="vdW DFT" >
   <i type="logical" name="LUSE_VDW"> F  </i>
   <i name="Zab_VDW">     -0.84910000</i>
   <i name="PARAM1">      0.12340000</i>
   <i name="PARAM2">      1.00000000</i>
   <i name="PARAM3">      0.00000000</i>
  </separator>
  <separator name="model GW" >
   <i type="int" name="MODEL_GW">     0</i>
   <i name="MODEL_EPS0">      7.53464495</i>
   <i name="MODEL_ALPHA">      1.00000000</i>
  </separator>
  <separator name="linear response parameters" >
   <i type="logical" name="LEPSILON"> F  </i>
   <i type="logical" name="LRPA"> F  </i>
   <i type="logical" name="LNABLA"> F  </i>
   <i type="logical" name="LVEL"> F  </i>
   <i type="int" name="KINTER">     0</i>
   <i name="CSHIFT">      0.10000000</i>
   <i name="OMEGAMAX">     -1.00000000</i>
   <i name="DEG_THRESHOLD">      0.00200000</i>
  </separator>
  <separator name="orbital magnetization" >
   <i type="logical" name="NUCIND"> F  </i>
   <v name="MAGPOS">      0.00000000      0.00000000      0.00000000</v>
   <i type="logical" name="LNICSALL"> T  </i>
   <i type="logical" name="ORBITALMAG"> F  </i>
   <i type="logical" name="LMAGBLOCH"> F  </i>
   <i type="logical" name="LCHIMAG"> F  </i>
   <i type="logical" name="LGAUGE"> T  </i>
   <i type="int" name="MAGATOM">     0</i>
   <v name="MAGDIPOL">      0.00000000      0.00000000      0.00000000</v>
   <v name="AVECCONST">      0.00000000      0.00000000      0.00000000</v>
  </separator>
  <separator name="response functions" >
   <i type="logical" name="LADDER"> F  </i>
   <i type="logical" name="LFXC"> F  </i>
   <i type="logical" name="LHARTREE"> T  </i>
   <i type="int" name="IBSE">     0</i>
   <v type="int" name="KPOINT">    -1     0     0     0</v>
   <i type="logical" name="LTCTE"> F  </i>
   <i type="logical" name="LTETE"> F  </i>
   <i type="logical" name="LTRIPLET"> F  </i>
   <i type="logical" name="LFXCEPS"> F  </i>
   <i type="logical" name="LFXHEG"> F  </i>
   <i type="int" name="NATURALO">     0</i>
   <i type="logical" name="L2ORDER"> F  </i>
   <i type="logical" name="LUSEW"> F  </i>
   <i name="ENCUTGW">     -2.00000000</i>
   <i name="ENCUTGWSOFT">     -2.00000000</i>
   <i name="ENCUTLF">     -1.00000000</i>
   <i type="int" name="LMAXMP2">    -1</i>
   <i name="SCISSOR">      0.00000000</i>
   <i type="int" name="NOMEGA">     0</i>
   <i type="int" name="NOMEGAR">     0</i>
   <i type="int" name="NBANDSGW">    -1</i>
   <i type="int" name="NBANDSO">    -1</i>
   <i type="int" name="NBANDSV">    -1</i>
   <i type="int" name="NELM">     1</i>
   <i type="int" name="NELMHF">     1</i>
   <i type="int" name="DIM">     3</i>
   <i type="int" name="ANTIRES">     0</i>
   <i name="OMEGAMAX">    -30.00000000</i>
   <i name="OMEGAMIN">    -30.00000000</i>
   <i name="OMEGATL">   -200.00000000</i>
   <i type="int" name="OMEGAGRID">     0</i>
   <i name="CSHIFT">     -0.10000000</i>
   <i type="logical" name="SELFENERGY"> F  </i>
   <i type="logical" name="LSPECTRAL"> F  </i>
   <i type="logical" name="LSPECTRALGW"> F  </i>
   <i type="logical" name="LSINGLES"> F  </i>
   <i type="logical" name="LFERMIGW"> F  </i>
   <i type="logical" name="ODDONLYGW"> F  </i>
   <i type="logical" name="EVENONLYGW"> F  </i>
   <i type="int" name="NKREDLFX">     1</i>
   <i type="int" name="NKREDLFY">     1</i>
   <i type="int" name="NKREDLFZ">     1</i>
   <i type="int" name="MAXMEM">  1800</i>
   <i type="int" name="TELESCOPE">     0</i>
   <i type="int" name="TAUPAR">     1</i>
   <i type="int" name="OMEGAPAR">    -1</i>
   <i name="LAMBDA">      1.00000000</i>
  </separator>
  <separator name="External order field" >
   <i name="OFIELD_KAPPA">      0.00000000</i>
   <v name="OFIELD_K">      0.00000000      0.00000000      0.00000000</v>
   <i name="OFIELD_Q6_NEAR">      0.00000000</i>
   <i name="OFIELD_Q6_FAR">      0.00000000</i>
   <i name="OFIELD_A">      0.00000000</i>
  </separator>
 </parameters>
 <atominfo>
  <atoms>       9 </atoms>
  <types>       2 </types>
  <array name="atoms" >
   <dimension dim="1">ion</dimension>
   <field type="string">element</field>
   <field type="int">atomtype</field>
   <set>
    <rc><c>Si</c><c>   1</c></rc>
    <rc><c>Si</c><c>   1</c></rc>
    <rc><c>Si</c><c>   1</c></rc>
    <rc><c>O </c><c>   2</c></rc>
    <rc><c>O </c><c>   2</c></rc>
    <rc><c>O </c><c>   2</c></rc>
    <rc><c>O </c><c>   2</c></rc>
    <rc><c>O </c><c>   2</c></rc>
    <rc><c>O </c><c>   2</c></rc>
   </set>
  </array>
  <array name="atomtypes" >
   <dimension dim="1">type</dimension>
   <field type="int">atomspertype</field>
   <field type="string">element</field>
   <field>mass</field>
   <field>valence</field>
   <field type="string">pseudopotential</field>
   <set>
    <rc><c>   3</c><c>Si</c><c>     28.08500000</c><c>      4.00000000</c><c> PAW_PBE Si 05Jan2001                   </c></rc>
    <rc><c>   6</c><c>O </c><c>     16.00000000</c><c>      6.00000000</c><c> PAW_PBE O 08Apr2002                    </c></rc>
   </set>
  </array>
 </atominfo>
 <structure name="initialpos" >
  <crystal>
   <varray name="basis" >
    <v>       4.91370000       0.00000000       0.00000000 </v>
    <v>      -2.45685000       4.25538903       0.00000000 </v>
    <v>       0.00000000       0.00000000       5.40513000 </v>
   </varray>
   <i name="volume">    113.01967420 </i>
   <varray name="rec_basis" >
    <v>       0.20351263       0.11749807       0.00000000 </v>
    <v>       0.00000000       0.23499614       0.00000000 </v>
    <v>       0.00000000       0.00000000       0.18500943 </v>
   </varray>
  </crystal>
  <varray name="positions" >
   <v>       0.46980000       0.00000000       0.66667000 </v>
   <v>       0.00000000       0.46980000       0.33333000 </v>
   <v>       0.53020000       0.53020000       0.00000000 </v>
   <v>       0.41450000       0.26620000       0.78560000 </v>
   <v>       0.73380000       0.14830000       0.45227000 </v>
   <v>       0.85170000       0.58550000       0.11893000 </v>
   <v>       0.14830000       0.73380000       0.54773000 </v>
   <v>       0.26620000       0.41450000       0.21440000 </v>
   <v>       0.58550000       0.85170000       0.88107000 </v>
  </varray>
 </structure>
 <calculation>
  <scstep>
   <time name="dav">    4.36    4.36</time>
   <time name="total">    4.46    4.50</time>
   <energy>
    <i name="alphaZ">     69.72802778 </i>
    <i name="ewald">  -1887.20590689 </i>
    <i name="hartreedc">   -937.14514242 </i>
    <i name="XCdc">    142.01294050 </i>
    <i name="pawpsdc">   1574.92322788 </i>
    <i name="pawaedc">  -1533.24131965 </i>
    <i name="eentropy">      0.00000000 </i>
    <i name="bandstr">    -60.12575115 </i>
    <i name="atom">   2902.77641490 </i>
    <i name="e_fr_energy">    271.72249096 </i>
    <i name="e_wo_entrp">    271.72249096 </i>
    <i name="e_0_energy">    271.72249096 </i>
   </energy>
  </scstep>
  <scstep>
   <time name="dav">    5.39    5.39</time>
   <time name="total">    5.40    5.40</time>
   <energy>
    <i name="e_fr_energy">    -63.05714430 </i>
    <i name="e_wo_entrp">    -63.05714430 </i>
    <i name="e_0_energy">    -63.05714430 </i>
   </energy>
  </scstep>
  <scstep>
   <time name="dav">    4.90    4.90</time>
   <time name="total">    4.91    4.91</time>
   <energy>
    <i name="e_fr_energy">    -80.34139666 </i>
    <i name="e_wo_entrp">    -80.34139666 </i>
    <i name="e_0_energy">    -80.34139666 </i>
   </energy>
  </scstep>
  <scstep>
   <time name="dav">    5.00    5.00</time>
   <time name="total">    5.00    5.01</time>
   <energy>
    <i name="e_fr_energy">    -80.55491892 </i>
    <i name="e_wo_entrp">    -80.55491892 </i>
    <i name="e_0_energy">    -80.55491892 </i>
   </energy>
  </scstep>
  <scstep>
   <time name="dav">    4.87    4.87</time>
   <time name="total">    5.17    5.18</time>
   <energy>
    <i name="e_fr_energy">    -80.55909838 </i>
    <i name="e_wo_entrp">    -80.55909838 </i>
    <i name="e_0_energy">    -80.55909838 </i>
   </energy>
  </scstep>
  <scstep>
   <time name="diag">    0.78    0.78</time>
   <time name="diis">    2.95    2.95</time>
   <time name="orth">    0.09    0.09</time>
   <time name="total">    4.21    4.21</time>
   <energy>
    <i name="e_fr_energy">    -71.15927996 </i>
    <i name="e_wo_entrp">    -71.15927996 </i>
    <i name="e_0_energy">    -71.15927996 </i>
   </energy>
  </scstep>
  <scstep>
   <time name="diag">    0.78    0.78</time>
   <time name="diis">    3.22    3.22</time>
   <time name="orth">    0.09    0.09</time>
   <time name="total">    4.48    4.48</time>
   <energy>
    <i name="e_fr_energy">    -71.13684362 </i>
    <i name="e_wo_entrp">    -71.13684362 </i>
    <i name="e_0_energy">    -71.13684362 </i>
   </energy>
  </scstep>
  <scstep>
   <time name="diag">    0.78    0.78</time>
   <time name="diis">    3.17    3.17</time>
   <time name="orth">    0.08    0.09</time>
   <time name="total">    4.43    4.53</time>
   <energy>
    <i name="e_fr_energy">    -71.15243286 </i>
    <i name="e_wo_entrp">    -71.15243286 </i>
    <i name="e_0_energy">    -71.15243286 </i>
   </energy>
  </scstep>
  <scstep>
   <time name="diag">    0.78    0.78</time>
   <time name="diis">    3.30    3.30</time>
   <time name="orth">    0.08    0.09</time>
   <time name="total">    4.55    4.56</time>
   <energy>
    <i name="e_fr_energy">    -71.14446929 </i>
    <i name="e_wo_entrp">    -71.14446929 </i>
    <i name="e_0_energy">    -71.14446929 </i>
   </energy>
  </scstep>
  <scstep>
   <time name="diag">    0.78    0.78</time>
   <time name="diis">    3.23    3.23</time>
   <time name="orth">    0.09    0.09</time>
   <time name="total">    4.48    4.49</time>
   <energy>
    <i name="e_fr_energy">    -71.14788353 </i>
    <i name="e_wo_entrp">    -71.14788353 </i>
    <i name="e_0_energy">    -71.14788353 </i>
   </energy>
  </scstep>
  <scstep>
   <time name="diag">    0.78    0.78</time>
   <time name="diis">    3.29    3.29</time>
   <time name="orth">    0.09    0.09</time>
   <time name="total">    4.54    4.55</time>
   <energy>
    <i name="e_fr_energy">    -71.14633735 </i>
    <i name="e_wo_entrp">    -71.14633735 </i>
    <i name="e_0_energy">    -71.14633735 </i>
   </energy>
  </scstep>
  <scstep>
   <time name="diag">    0.78    0.78</time>
   <time name="diis">    3.28    3.27</time>
   <time name="orth">    0.09    0.09</time>
   <time name="total">    4.53    4.53</time>
   <energy>
    <i name="e_fr_energy">    -71.14626319 </i>
    <i name="e_wo_entrp">    -71.14626319 </i>
    <i name="e_0_energy">    -71.14626319 </i>
   </energy>
  </scstep>
  <scstep>
   <time name="diag">    0.78    0.78</time>
   <time name="diis">    2.57    2.57</time>
   <time name="orth">    0.08    0.09</time>
   <time name="total">    3.52    3.53</time>
   <energy>
    <i name="alphaZ">     69.72802778 </i>
    <i name="ewald">  -1887.20590689 </i>
    <i name="hartreedc">  -1070.74758601 </i>
    <i name="XCdc">    151.09284362 </i>
    <i name="pawpsdc">   2074.45127300 </i>
    <i name="pawaedc">  -2035.01342895 </i>
    <i name="eentropy">      0.00000000 </i>
    <i name="bandstr">   -276.22790392 </i>
    <i name="atom">   2902.77641490 </i>
    <i name="e_fr_energy">    -71.14626646 </i>
    <i name="e_wo_entrp">    -71.14626646 </i>
    <i name="e_0_energy">    -71.14626646 </i>
   </energy>
  </scstep>
  <structure>
   <crystal>
    <varray name="basis" >
     <v>       4.91370000       0.00000000       0.00000000 </v>
     <v>      -2.45685000       4.25538903       0.00000000 </v>
     <v>       0.00000000       0.00000000       5.40513000 </v>
    </varray>
    <i name="volume">    113.01967420 </i>
    <varray name="rec_basis" >
     <v>       0.20351263       0.11749807       0.00000000 </v>
     <v>       0.00000000       0.23499614       0.00000000 </v>
     <v>       0.00000000       0.00000000       0.18500943 </v>
    </varray>
   </crystal>
   <varray name="positions" >
    <v>       0.46980000       0.00000000       0.66667000 </v>
    <v>       0.00000000       0.46980000       0.33333000 </v>
    <v>       0.53020000       0.53020000       0.00000000 </v>
    <v>       0.41450000       0.26620000       0.78560000 </v>
    <v>       0.73380000       0.14830000       0.45227000 </v>
    <v>       0.85170000       0.58550000       0.11893000 </v>
    <v>       0.14830000       0.73380000       0.54773000 </v>
    <v>       0.26620000       0.41450000       0.21440000 </v>
    <v>       0.58550000       0.85170000       0.88107000 </v>
   </varray>
  </structure>
  <varray name="forces" >
   <v>       0.39690794      -0.00075255      -0.00715456 </v>
   <v>      -0.19910569       0.34335608       0.00715456 </v>
   <v>      -0.20728203      -0.35902301       0.00000000 </v>
   <v>      -0.52141929       0.29229164       0.06739476 </v>
   <v>       0.01304194      -0.59961595       0.06527161 </v>
   <v>       0.51575649       0.31401028       0.06702528 </v>
   <v>      -0.52580362      -0.28851333      -0.06527161 </v>
   <v>       0.51384163      -0.30541653      -0.06739476 </v>
   <v>       0.01406264       0.60366336      -0.06702528 </v>
  </varray>
  <varray name="stress" >
   <v>      38.82860288      -0.69549390       0.22382077 </v>
   <v>      -0.69549390      38.02551576      -0.12922298 </v>
   <v>       0.22382075      -0.12922297      23.59408437 </v>
  </varray>
  <energy>
   <i name="e_fr_energy">    -71.14626646 </i>
   <i name="e_wo_entrp">    -71.14626646 </i>
   <i name="e_0_energy">      0.00000000 </i>
  </energy>
  <time name="totalsc">   65.95   66.18</time>
  <eigenvalues>
   <array>
    <dimension dim="1">band</dimension>
    <dimension dim="2">kpoint</dimension>
    <dimension dim="3">spin</dimension>
    <field>eigene</field>
    <field>occ</field>
    <set>
     <set comment="spin 1">
      <set comment="kpoint 1">
       <r>  -18.3770    1.0000 </r>
       <r>  -16.8410    1.0000 </r>
       <r>  -16.8406    1.0000 </r>
       <r>  -16.2067    1.0000 </r>
       <r>  -16.1591    1.0000 </r>
       <r>  -16.1586    1.0000 </r>
       <r>   -7.1839    1.0000 </r>
       <r>   -7.1835    1.0000 </r>
       <r>   -4.3430    1.0000 </r>
       <r>   -4.3373    1.0000 </r>
       <r>   -4.1844    1.0000 </r>
       <r>   -4.1843    1.0000 </r>
       <r>   -1.8638    1.0000 </r>
       <r>   -1.8634    1.0000 </r>
       <r>   -1.6258    1.0000 </r>
       <r>   -1.3658    1.0000 </r>
       <r>   -0.4149    1.0000 </r>
       <r>   -0.4138    1.0000 </r>
       <r>   -0.3968    1.0000 </r>
       <r>    0.1081    1.0000 </r>
       <r>    0.1083    1.0000 </r>
       <r>    0.4174    1.0000 </r>
       <r>    0.7582    1.0000 </r>
       <r>    0.7583    1.0000 </r>
       <r>    7.1148    0.0000 </r>
       <r>   10.4021    0.0000 </r>
       <r>   10.4026    0.0000 </r>
       <r>   10.9043    0.0000 </r>
       <r>   10.9047    0.0000 </r>
      </set>
      <set comment="kpoint 2">
       <r>  -18.2961    1.0000 </r>
       <r>  -16.9359    1.0000 </r>
       <r>  -16.8295    1.0000 </r>
       <r>  -16.2275    1.0000 </r>
       <r>  -16.1770    1.0000 </r>
       <r>  -16.1660    1.0000 </r>
       <r>   -7.2216    1.0000 </r>
       <r>   -7.0026    1.0000 </r>
       <r>   -4.3833    1.0000 </r>
       <r>   -4.3578    1.0000 </r>
       <r>   -4.2862    1.0000 </r>
       <r>   -4.0247    1.0000 </r>
       <r>   -1.9895    1.0000 </r>
       <r>   -1.8046    1.0000 </r>
       <r>   -1.5975    1.0000 </r>
       <r>   -1.2008    1.0000 </r>
       <r>   -0.6891    1.0000 </r>
       <r>   -0.4548    1.0000 </r>
       <r>   -0.4096    1.0000 </r>
       <r>    0.0428    1.0000 </r>
       <r>    0.0949    1.0000 </r>
       <r>    0.3132    1.0000 </r>
       <r>    0.8207    1.0000 </r>
       <r>    0.8535    1.0000 </r>
       <r>    7.5375    0.0000 </r>
       <r>   10.3880    0.0000 </r>
       <r>   10.4479    0.0000 </r>
       <r>   10.9389    0.0000 </r>
       <r>   11.0476    0.0000 </r>
      </set>
      <set comment="kpoint 3">
       <r>  -18.0781    1.0000 </r>
       <r>  -17.1954    1.0000 </r>
       <r>  -16.8043    1.0000 </r>
       <r>  -16.2512    1.0000 </r>
       <r>  -16.2056    1.0000 </r>
       <r>  -16.1861    1.0000 </r>
       <r>   -7.2935    1.0000 </r>
       <r>   -6.5834    1.0000 </r>
       <r>   -4.6401    1.0000 </r>
       <r>   -4.3915    1.0000 </r>
       <r>   -4.3101    1.0000 </r>
       <r>   -3.7234    1.0000 </r>
       <r>   -2.0725    1.0000 </r>
       <r>   -1.6971    1.0000 </r>
       <r>   -1.5727    1.0000 </r>
       <r>   -1.2050    1.0000 </r>
       <r>   -1.0069    1.0000 </r>
       <r>   -0.5875    1.0000 </r>
       <r>   -0.4957    1.0000 </r>
       <r>   -0.0100    1.0000 </r>
       <r>    0.0597    1.0000 </r>
       <r>    0.2633    1.0000 </r>
       <r>    0.8471    1.0000 </r>
       <r>    0.9958    1.0000 </r>
       <r>    8.5376    0.0000 </r>
       <r>   10.4299    0.0000 </r>
       <r>   10.5576    0.0000 </r>
       <r>   11.0640    0.0000 </r>
       <r>   11.4049    0.0000 </r>
      </set>
      <set comment="kpoint 4">
       <r>  -17.8890    1.0000 </r>
       <r>  -17.4098    1.0000 </r>
       <r>  -16.7904    1.0000 </r>
       <r>  -16.2569    1.0000 </r>
       <r>  -16.2177    1.0000 </r>
       <r>  -16.1975    1.0000 </r>
       <r>   -7.3277    1.0000 </r>
       <r>   -6.3209    1.0000 </r>
       <r>   -4.8289    1.0000 </r>
       <r>   -4.3687    1.0000 </r>
       <r>   -4.3378    1.0000 </r>
       <r>   -3.5573    1.0000 </r>
       <r>   -2.0006    1.0000 </r>
       <r>   -1.8350    1.0000 </r>
       <r>   -1.6032    1.0000 </r>
       <r>   -1.2216    1.0000 </r>
       <r>   -1.0150    1.0000 </r>
       <r>   -0.6696    1.0000 </r>
       <r>   -0.6031    1.0000 </r>
       <r>   -0.0116    1.0000 </r>
       <r>    0.0532    1.0000 </r>
       <r>    0.2935    1.0000 </r>
       <r>    0.8311    1.0000 </r>
       <r>    1.0541    1.0000 </r>
       <r>    9.3759    0.0000 </r>
       <r>   10.1159    0.0000 </r>
       <r>   10.8454    0.0000 </r>
       <r>   10.8464    0.0000 </r>
       <r>   11.6469    0.0000 </r>
      </set>
      <set comment="kpoint 5">
       <r>  -18.1434    1.0000 </r>
       <r>  -17.1114    1.0000 </r>
       <r>  -16.8179    1.0000 </r>
       <r>  -16.2451    1.0000 </r>
       <r>  -16.2030    1.0000 </r>
       <r>  -16.1753    1.0000 </r>
       <r>   -7.2855    1.0000 </r>
       <r>   -6.6770    1.0000 </r>
       <r>   -4.6469    1.0000 </r>
       <r>   -4.3763    1.0000 </r>
       <r>   -4.2346    1.0000 </r>
       <r>   -3.8123    1.0000 </r>
       <r>   -2.0390    1.0000 </r>
       <r>   -1.7911    1.0000 </r>
       <r>   -1.4926    1.0000 </r>
       <r>   -1.0914    1.0000 </r>
       <r>   -1.0835    1.0000 </r>
       <r>   -0.5649    1.0000 </r>
       <r>   -0.3663    1.0000 </r>
       <r>   -0.1350    1.0000 </r>
       <r>    0.1790    1.0000 </r>
       <r>    0.2238    1.0000 </r>
       <r>    0.8394    1.0000 </r>
       <r>    0.9742    1.0000 </r>
       <r>    8.2470    0.0000 </r>
       <r>   10.4301    0.0000 </r>
       <r>   10.5725    0.0000 </r>
       <r>   11.0569    0.0000 </r>
       <r>   11.2541    0.0000 </r>
      </set>
      <set comment="kpoint 6">
       <r>  -17.8956    1.0000 </r>
       <r>  -17.3902    1.0000 </r>
       <r>  -16.8107    1.0000 </r>
       <r>  -16.2539    1.0000 </r>
       <r>  -16.2168    1.0000 </r>
       <r>  -16.1944    1.0000 </r>
       <r>   -7.3508    1.0000 </r>
       <r>   -6.2211    1.0000 </r>
       <r>   -5.0475    1.0000 </r>
       <r>   -4.3289    1.0000 </r>
       <r>   -4.2372    1.0000 </r>
       <r>   -3.5652    1.0000 </r>
       <r>   -1.9893    1.0000 </r>
       <r>   -1.7900    1.0000 </r>
       <r>   -1.6637    1.0000 </r>
       <r>   -1.1696    1.0000 </r>
       <r>   -1.0076    1.0000 </r>
       <r>   -0.7014    1.0000 </r>
       <r>   -0.5125    1.0000 </r>
       <r>   -0.1942    1.0000 </r>
       <r>    0.0256    1.0000 </r>
       <r>    0.4186    1.0000 </r>
       <r>    0.7969    1.0000 </r>
       <r>    1.0653    1.0000 </r>
       <r>    9.2639    0.0000 </r>
       <r>   10.3676    0.0000 </r>
       <r>   10.6863    0.0000 </r>
       <r>   11.0917    0.0000 </r>
       <r>   11.5156    0.0000 </r>
      </set>
      <set comment="kpoint 7">
       <r>  -17.8955    1.0000 </r>
       <r>  -17.3903    1.0000 </r>
       <r>  -16.8108    1.0000 </r>
       <r>  -16.2540    1.0000 </r>
       <r>  -16.2167    1.0000 </r>
       <r>  -16.1943    1.0000 </r>
       <r>   -7.3508    1.0000 </r>
       <r>   -6.2212    1.0000 </r>
       <r>   -5.0474    1.0000 </r>
       <r>   -4.3288    1.0000 </r>
       <r>   -4.2373    1.0000 </r>
       <r>   -3.5652    1.0000 </r>
       <r>   -1.9892    1.0000 </r>
       <r>   -1.7900    1.0000 </r>
       <r>   -1.6639    1.0000 </r>
       <r>   -1.1696    1.0000 </r>
       <r>   -1.0076    1.0000 </r>
       <r>   -0.7011    1.0000 </r>
       <r>   -0.5127    1.0000 </r>
       <r>   -0.1941    1.0000 </r>
       <r>    0.0255    1.0000 </r>
       <r>    0.4184    1.0000 </r>
       <r>    0.7971    1.0000 </r>
       <r>    1.0653    1.0000 </r>
       <r>    9.2638    0.0000 </r>
       <r>   10.3677    0.0000 </r>
       <r>   10.6862    0.0000 </r>
       <r>   11.2385    0.0000 </r>
       <r>   11.6093    0.0000 </r>
      </set>
      <set comment="kpoint 8">
       <r>  -18.1433    1.0000 </r>
       <r>  -17.1114    1.0000 </r>
       <r>  -16.8182    1.0000 </r>
       <r>  -16.2452    1.0000 </r>
       <r>  -16.2027    1.0000 </r>
       <r>  -16.1751    1.0000 </r>
       <r>   -7.2853    1.0000 </r>
       <r>   -6.6772    1.0000 </r>
       <r>   -4.6467    1.0000 </r>
       <r>   -4.3763    1.0000 </r>
       <r>   -4.2349    1.0000 </r>
       <r>   -3.8123    1.0000 </r>
       <r>   -2.0391    1.0000 </r>
       <r>   -1.7911    1.0000 </r>
       <r>   -1.4924    1.0000 </r>
       <r>   -1.0916    1.0000 </r>
       <r>   -1.0842    1.0000 </r>
       <r>   -0.5645    1.0000 </r>
       <r>   -0.3658    1.0000 </r>
       <r>   -0.1351    1.0000 </r>
       <r>    0.1789    1.0000 </r>
       <r>    0.2236    1.0000 </r>
       <r>    0.8397    1.0000 </r>
       <r>    0.9742    1.0000 </r>
       <r>    8.2468    0.0000 </r>
       <r>   10.4305    0.0000 </r>
       <r>   10.5718    0.0000 </r>
       <r>   11.0568    0.0000 </r>
       <r>   11.2319    0.0000 </r>
      </set>
      <set comment="kpoint 9">
       <r>  -18.2961    1.0000 </r>
       <r>  -16.9357    1.0000 </r>
       <r>  -16.8298    1.0000 </r>
       <r>  -16.2276    1.0000 </r>
       <r>  -16.1767    1.0000 </r>
       <r>  -16.1661    1.0000 </r>
       <r>   -7.2214    1.0000 </r>
       <r>   -7.0029    1.0000 </r>
       <r>   -4.3831    1.0000 </r>
       <r>   -4.3579    1.0000 </r>
       <r>   -4.2862    1.0000 </r>
       <r>   -4.0248    1.0000 </r>
       <r>   -1.9897    1.0000 </r>
       <r>   -1.8043    1.0000 </r>
       <r>   -1.5975    1.0000 </r>
       <r>   -1.2009    1.0000 </r>
       <r>   -0.6900    1.0000 </r>
       <r>   -0.4543    1.0000 </r>
       <r>   -0.4092    1.0000 </r>
       <r>    0.0429    1.0000 </r>
       <r>    0.0947    1.0000 </r>
       <r>    0.3130    1.0000 </r>
       <r>    0.8206    1.0000 </r>
       <r>    0.8537    1.0000 </r>
       <r>    7.5374    0.0000 </r>
       <r>   10.3883    0.0000 </r>
       <r>   10.4477    0.0000 </r>
       <r>   10.9387    0.0000 </r>
       <r>   11.0473    0.0000 </r>
      </set>
      <set comment="kpoint 10">
       <r>  -17.6441    1.0000 </r>
       <r>  -17.6437    1.0000 </r>
       <r>  -16.8258    1.0000 </r>
       <r>  -16.2529    1.0000 </r>
       <r>  -16.2100    1.0000 </r>
       <r>  -16.2097    1.0000 </r>
       <r>   -7.3887    1.0000 </r>
       <r>   -5.6510    1.0000 </r>
       <r>   -5.6508    1.0000 </r>
       <r>   -4.2473    1.0000 </r>
       <r>   -4.2473    1.0000 </r>
       <r>   -3.4715    1.0000 </r>
       <r>   -1.8609    1.0000 </r>
       <r>   -1.8606    1.0000 </r>
       <r>   -1.8088    1.0000 </r>
       <r>   -0.9838    1.0000 </r>
       <r>   -0.9838    1.0000 </r>
       <r>   -0.8279    1.0000 </r>
       <r>   -0.6313    1.0000 </r>
       <r>   -0.1526    1.0000 </r>
       <r>   -0.1523    1.0000 </r>
       <r>    0.6533    1.0000 </r>
       <r>    0.6539    1.0000 </r>
       <r>    1.0940    1.0000 </r>
       <r>   10.0493    0.0000 </r>
       <r>   10.0496    0.0000 </r>
       <r>   10.5399    0.0000 </r>
       <r>   11.4770    0.0000 </r>
       <r>   11.6414    0.0000 </r>
      </set>
      <set comment="kpoint 11">
       <r>  -17.8953    1.0000 </r>
       <r>  -17.3905    1.0000 </r>
       <r>  -16.8109    1.0000 </r>
       <r>  -16.2540    1.0000 </r>
       <r>  -16.2169    1.0000 </r>
       <r>  -16.1939    1.0000 </r>
       <r>   -7.3507    1.0000 </r>
       <r>   -6.2213    1.0000 </r>
       <r>   -5.0474    1.0000 </r>
       <r>   -4.3288    1.0000 </r>
       <r>   -4.2372    1.0000 </r>
       <r>   -3.5653    1.0000 </r>
       <r>   -1.9893    1.0000 </r>
       <r>   -1.7901    1.0000 </r>
       <r>   -1.6640    1.0000 </r>
       <r>   -1.1695    1.0000 </r>
       <r>   -1.0076    1.0000 </r>
       <r>   -0.7011    1.0000 </r>
       <r>   -0.5127    1.0000 </r>
       <r>   -0.1941    1.0000 </r>
       <r>    0.0255    1.0000 </r>
       <r>    0.4181    1.0000 </r>
       <r>    0.7972    1.0000 </r>
       <r>    1.0654    1.0000 </r>
       <r>    9.2637    0.0000 </r>
       <r>   10.3673    0.0000 </r>
       <r>   10.6861    0.0000 </r>
       <r>   11.0920    0.0000 </r>
       <r>   11.5658    0.0000 </r>
      </set>
      <set comment="kpoint 12">
       <r>  -18.0780    1.0000 </r>
       <r>  -17.1954    1.0000 </r>
       <r>  -16.8046    1.0000 </r>
       <r>  -16.2513    1.0000 </r>
       <r>  -16.2056    1.0000 </r>
       <r>  -16.1856    1.0000 </r>
       <r>   -7.2933    1.0000 </r>
       <r>   -6.5837    1.0000 </r>
       <r>   -4.6402    1.0000 </r>
       <r>   -4.3913    1.0000 </r>
       <r>   -4.3100    1.0000 </r>
       <r>   -3.7236    1.0000 </r>
       <r>   -2.0727    1.0000 </r>
       <r>   -1.6971    1.0000 </r>
       <r>   -1.5726    1.0000 </r>
       <r>   -1.2056    1.0000 </r>
       <r>   -1.0070    1.0000 </r>
       <r>   -0.5870    1.0000 </r>
       <r>   -0.4956    1.0000 </r>
       <r>   -0.0100    1.0000 </r>
       <r>    0.0597    1.0000 </r>
       <r>    0.2629    1.0000 </r>
       <r>    0.8471    1.0000 </r>
       <r>    0.9961    1.0000 </r>
       <r>    8.5374    0.0000 </r>
       <r>   10.4297    0.0000 </r>
       <r>   10.5624    0.0000 </r>
       <r>   11.1921    0.0000 </r>
       <r>   11.6887    0.0000 </r>
      </set>
      <set comment="kpoint 13">
       <r>  -17.8887    1.0000 </r>
       <r>  -17.4101    1.0000 </r>
       <r>  -16.7907    1.0000 </r>
       <r>  -16.2570    1.0000 </r>
       <r>  -16.2179    1.0000 </r>
       <r>  -16.1968    1.0000 </r>
       <r>   -7.3276    1.0000 </r>
       <r>   -6.3211    1.0000 </r>
       <r>   -4.8290    1.0000 </r>
       <r>   -4.3682    1.0000 </r>
       <r>   -4.3379    1.0000 </r>
       <r>   -3.5576    1.0000 </r>
       <r>   -2.0006    1.0000 </r>
       <r>   -1.8356    1.0000 </r>
       <r>   -1.6033    1.0000 </r>
       <r>   -1.2215    1.0000 </r>
       <r>   -1.0151    1.0000 </r>
       <r>   -0.6696    1.0000 </r>
       <r>   -0.6030    1.0000 </r>
       <r>   -0.0116    1.0000 </r>
       <r>    0.0533    1.0000 </r>
       <r>    0.2930    1.0000 </r>
       <r>    0.8311    1.0000 </r>
       <r>    1.0544    1.0000 </r>
       <r>    9.3759    0.0000 </r>
       <r>   10.1152    0.0000 </r>
       <r>   10.8453    0.0000 </r>
       <r>   10.8472    0.0000 </r>
       <r>   11.6313    0.0000 </r>
      </set>
      <set comment="kpoint 14">
       <r>  -18.2996    1.0000 </r>
       <r>  -17.2899    1.0000 </r>
       <r>  -16.4576    1.0000 </r>
       <r>  -16.2052    1.0000 </r>
       <r>  -16.1750    1.0000 </r>
       <r>  -16.1451    1.0000 </r>
       <r>   -7.8566    1.0000 </r>
       <r>   -6.3572    1.0000 </r>
       <r>   -4.5032    1.0000 </r>
       <r>   -4.4255    1.0000 </r>
       <r>   -4.3785    1.0000 </r>
       <r>   -3.8799    1.0000 </r>
       <r>   -1.9474    1.0000 </r>
       <r>   -1.6706    1.0000 </r>
       <r>   -1.5694    1.0000 </r>
       <r>   -1.2368    1.0000 </r>
       <r>   -0.6098    1.0000 </r>
       <r>   -0.4883    1.0000 </r>
       <r>   -0.4286    1.0000 </r>
       <r>   -0.2881    1.0000 </r>
       <r>    0.0745    1.0000 </r>
       <r>    0.5169    1.0000 </r>
       <r>    0.8069    1.0000 </r>
       <r>    0.9669    1.0000 </r>
       <r>    7.5091    0.0000 </r>
       <r>   10.2568    0.0000 </r>
       <r>   10.4222    0.0000 </r>
       <r>   10.5263    0.0000 </r>
       <r>   11.2298    0.0000 </r>
      </set>
      <set comment="kpoint 15">
       <r>  -18.2224    1.0000 </r>
       <r>  -17.2891    1.0000 </r>
       <r>  -16.5405    1.0000 </r>
       <r>  -16.2205    1.0000 </r>
       <r>  -16.1945    1.0000 </r>
       <r>  -16.1563    1.0000 </r>
       <r>   -7.7118    1.0000 </r>
       <r>   -6.3652    1.0000 </r>
       <r>   -4.6812    1.0000 </r>
       <r>   -4.3852    1.0000 </r>
       <r>   -4.1889    1.0000 </r>
       <r>   -3.9297    1.0000 </r>
       <r>   -2.0480    1.0000 </r>
       <r>   -1.6541    1.0000 </r>
       <r>   -1.5336    1.0000 </r>
       <r>   -1.1591    1.0000 </r>
       <r>   -0.8390    1.0000 </r>
       <r>   -0.5032    1.0000 </r>
       <r>   -0.3997    1.0000 </r>
       <r>   -0.2443    1.0000 </r>
       <r>    0.1568    1.0000 </r>
       <r>    0.4123    1.0000 </r>
       <r>    0.7470    1.0000 </r>
       <r>    1.0089    1.0000 </r>
       <r>    7.8858    0.0000 </r>
       <r>   10.2713    0.0000 </r>
       <r>   10.5139    0.0000 </r>
       <r>   10.6090    0.0000 </r>
       <r>   11.3087    0.0000 </r>
      </set>
      <set comment="kpoint 16">
       <r>  -18.0207    1.0000 </r>
       <r>  -17.3299    1.0000 </r>
       <r>  -16.7265    1.0000 </r>
       <r>  -16.2489    1.0000 </r>
       <r>  -16.2211    1.0000 </r>
       <r>  -16.1760    1.0000 </r>
       <r>   -7.4189    1.0000 </r>
       <r>   -6.3373    1.0000 </r>
       <r>   -4.9170    1.0000 </r>
       <r>   -4.3441    1.0000 </r>
       <r>   -4.1083    1.0000 </r>
       <r>   -3.8338    1.0000 </r>
       <r>   -2.1433    1.0000 </r>
       <r>   -1.7170    1.0000 </r>
       <r>   -1.4797    1.0000 </r>
       <r>   -1.2172    1.0000 </r>
       <r>   -0.9013    1.0000 </r>
       <r>   -0.6081    1.0000 </r>
       <r>   -0.4973    1.0000 </r>
       <r>   -0.0593    1.0000 </r>
       <r>    0.1561    1.0000 </r>
       <r>    0.2757    1.0000 </r>
       <r>    0.7889    1.0000 </r>
       <r>    0.9634    1.0000 </r>
       <r>    8.8031    0.0000 </r>
       <r>   10.3222    0.0000 </r>
       <r>   10.5744    0.0000 </r>
       <r>   11.0401    0.0000 </r>
       <r>   11.4719    0.0000 </r>
      </set>
      <set comment="kpoint 17">
       <r>  -17.8662    1.0000 </r>
       <r>  -17.3984    1.0000 </r>
       <r>  -16.8373    1.0000 </r>
       <r>  -16.2575    1.0000 </r>
       <r>  -16.2223    1.0000 </r>
       <r>  -16.1885    1.0000 </r>
       <r>   -7.2802    1.0000 </r>
       <r>   -6.2817    1.0000 </r>
       <r>   -5.0531    1.0000 </r>
       <r>   -4.3651    1.0000 </r>
       <r>   -4.1134    1.0000 </r>
       <r>   -3.6801    1.0000 </r>
       <r>   -2.0524    1.0000 </r>
       <r>   -1.9524    1.0000 </r>
       <r>   -1.4759    1.0000 </r>
       <r>   -1.2667    1.0000 </r>
       <r>   -0.8513    1.0000 </r>
       <r>   -0.7310    1.0000 </r>
       <r>   -0.4273    1.0000 </r>
       <r>   -0.0783    1.0000 </r>
       <r>    0.1351    1.0000 </r>
       <r>    0.3278    1.0000 </r>
       <r>    0.7180    1.0000 </r>
       <r>    0.9937    1.0000 </r>
       <r>    9.5699    0.0000 </r>
       <r>   10.1823    0.0000 </r>
       <r>   10.6890    0.0000 </r>
       <r>   11.1565    0.0000 </r>
       <r>   11.6019    0.0000 </r>
      </set>
      <set comment="kpoint 18">
       <r>  -18.0246    1.0000 </r>
       <r>  -17.3095    1.0000 </r>
       <r>  -16.7606    1.0000 </r>
       <r>  -16.2406    1.0000 </r>
       <r>  -16.1995    1.0000 </r>
       <r>  -16.1876    1.0000 </r>
       <r>   -7.4226    1.0000 </r>
       <r>   -6.3386    1.0000 </r>
       <r>   -4.9186    1.0000 </r>
       <r>   -4.3830    1.0000 </r>
       <r>   -4.0850    1.0000 </r>
       <r>   -3.7844    1.0000 </r>
       <r>   -2.0796    1.0000 </r>
       <r>   -1.7094    1.0000 </r>
       <r>   -1.5331    1.0000 </r>
       <r>   -1.3952    1.0000 </r>
       <r>   -0.9319    1.0000 </r>
       <r>   -0.5065    1.0000 </r>
       <r>   -0.3528    1.0000 </r>
       <r>   -0.0956    1.0000 </r>
       <r>    0.0582    1.0000 </r>
       <r>    0.3902    1.0000 </r>
       <r>    0.6320    1.0000 </r>
       <r>    1.0564    1.0000 </r>
       <r>    8.7687    0.0000 </r>
       <r>   10.3826    0.0000 </r>
       <r>   10.7705    0.0000 </r>
       <r>   11.1953    0.0000 </r>
       <r>   11.4066    0.0000 </r>
      </set>
      <set comment="kpoint 19">
       <r>  -18.2228    1.0000 </r>
       <r>  -17.2851    1.0000 </r>
       <r>  -16.5519    1.0000 </r>
       <r>  -16.2191    1.0000 </r>
       <r>  -16.1841    1.0000 </r>
       <r>  -16.1603    1.0000 </r>
       <r>   -7.7129    1.0000 </r>
       <r>   -6.3656    1.0000 </r>
       <r>   -4.6856    1.0000 </r>
       <r>   -4.3864    1.0000 </r>
       <r>   -4.2029    1.0000 </r>
       <r>   -3.9013    1.0000 </r>
       <r>   -2.0213    1.0000 </r>
       <r>   -1.6713    1.0000 </r>
       <r>   -1.5283    1.0000 </r>
       <r>   -1.2095    1.0000 </r>
       <r>   -0.8828    1.0000 </r>
       <r>   -0.4176    1.0000 </r>
       <r>   -0.3882    1.0000 </r>
       <r>   -0.2649    1.0000 </r>
       <r>    0.1870    1.0000 </r>
       <r>    0.3737    1.0000 </r>
       <r>    0.7222    1.0000 </r>
       <r>    1.0385    1.0000 </r>
       <r>    7.8765    0.0000 </r>
       <r>   10.3102    0.0000 </r>
       <r>   10.5387    0.0000 </r>
       <r>   10.6588    0.0000 </r>
       <r>   11.2371    0.0000 </r>
      </set>
      <set comment="kpoint 20">
       <r>  -18.0816    1.0000 </r>
       <r>  -17.3021    1.0000 </r>
       <r>  -16.6937    1.0000 </r>
       <r>  -16.2368    1.0000 </r>
       <r>  -16.2113    1.0000 </r>
       <r>  -16.1728    1.0000 </r>
       <r>   -7.4952    1.0000 </r>
       <r>   -6.3393    1.0000 </r>
       <r>   -4.8956    1.0000 </r>
       <r>   -4.3502    1.0000 </r>
       <r>   -4.0808    1.0000 </r>
       <r>   -3.8695    1.0000 </r>
       <r>   -2.1000    1.0000 </r>
       <r>   -1.6549    1.0000 </r>
       <r>   -1.5365    1.0000 </r>
       <r>   -1.2641    1.0000 </r>
       <r>   -0.9491    1.0000 </r>
       <r>   -0.4994    1.0000 </r>
       <r>   -0.4179    1.0000 </r>
       <r>   -0.1369    1.0000 </r>
       <r>    0.1727    1.0000 </r>
       <r>    0.3038    1.0000 </r>
       <r>    0.7079    1.0000 </r>
       <r>    1.0252    1.0000 </r>
       <r>    8.5179    0.0000 </r>
       <r>   10.3288    0.0000 </r>
       <r>   10.7417    0.0000 </r>
       <r>   10.9177    0.0000 </r>
       <r>   11.5493    0.0000 </r>
      </set>
      <set comment="kpoint 21">
       <r>  -17.8677    1.0000 </r>
       <r>  -17.3966    1.0000 </r>
       <r>  -16.8342    1.0000 </r>
       <r>  -16.2559    1.0000 </r>
       <r>  -16.2311    1.0000 </r>
       <r>  -16.1849    1.0000 </r>
       <r>   -7.2932    1.0000 </r>
       <r>   -6.1980    1.0000 </r>
       <r>   -5.1943    1.0000 </r>
       <r>   -4.3280    1.0000 </r>
       <r>   -4.0810    1.0000 </r>
       <r>   -3.6985    1.0000 </r>
       <r>   -2.0966    1.0000 </r>
       <r>   -1.8199    1.0000 </r>
       <r>   -1.5931    1.0000 </r>
       <r>   -1.1373    1.0000 </r>
       <r>   -0.9047    1.0000 </r>
       <r>   -0.7123    1.0000 </r>
       <r>   -0.4266    1.0000 </r>
       <r>   -0.1431    1.0000 </r>
       <r>    0.1174    1.0000 </r>
       <r>    0.3704    1.0000 </r>
       <r>    0.7350    1.0000 </r>
       <r>    0.9677    1.0000 </r>
       <r>    9.4540    0.0000 </r>
       <r>   10.4463    0.0000 </r>
       <r>   10.6073    0.0000 </r>
       <r>   11.2219    0.0000 </r>
       <r>   11.5989    0.0000 </r>
      </set>
      <set comment="kpoint 22">
       <r>  -17.8703    1.0000 </r>
       <r>  -17.3875    1.0000 </r>
       <r>  -16.8460    1.0000 </r>
       <r>  -16.2510    1.0000 </r>
       <r>  -16.2294    1.0000 </r>
       <r>  -16.1861    1.0000 </r>
       <r>   -7.2944    1.0000 </r>
       <r>   -6.1993    1.0000 </r>
       <r>   -5.1937    1.0000 </r>
       <r>   -4.3374    1.0000 </r>
       <r>   -4.0751    1.0000 </r>
       <r>   -3.6839    1.0000 </r>
       <r>   -2.0612    1.0000 </r>
       <r>   -1.8466    1.0000 </r>
       <r>   -1.6116    1.0000 </r>
       <r>   -1.1906    1.0000 </r>
       <r>   -0.9170    1.0000 </r>
       <r>   -0.6779    1.0000 </r>
       <r>   -0.3281    1.0000 </r>
       <r>   -0.1915    1.0000 </r>
       <r>    0.0680    1.0000 </r>
       <r>    0.4512    1.0000 </r>
       <r>    0.6484    1.0000 </r>
       <r>    1.0036    1.0000 </r>
       <r>    9.4435    0.0000 </r>
       <r>   10.3549    0.0000 </r>
       <r>   10.9156    0.0000 </r>
       <r>   11.0702    0.0000 </r>
       <r>   11.5227    0.0000 </r>
      </set>
      <set comment="kpoint 23">
       <r>  -18.0815    1.0000 </r>
       <r>  -17.3021    1.0000 </r>
       <r>  -16.6940    1.0000 </r>
       <r>  -16.2368    1.0000 </r>
       <r>  -16.2112    1.0000 </r>
       <r>  -16.1725    1.0000 </r>
       <r>   -7.4951    1.0000 </r>
       <r>   -6.3395    1.0000 </r>
       <r>   -4.8955    1.0000 </r>
       <r>   -4.3501    1.0000 </r>
       <r>   -4.0810    1.0000 </r>
       <r>   -3.8695    1.0000 </r>
       <r>   -2.1001    1.0000 </r>
       <r>   -1.6549    1.0000 </r>
       <r>   -1.5365    1.0000 </r>
       <r>   -1.2641    1.0000 </r>
       <r>   -0.9493    1.0000 </r>
       <r>   -0.4996    1.0000 </r>
       <r>   -0.4172    1.0000 </r>
       <r>   -0.1373    1.0000 </r>
       <r>    0.1724    1.0000 </r>
       <r>    0.3037    1.0000 </r>
       <r>    0.7081    1.0000 </r>
       <r>    1.0253    1.0000 </r>
       <r>    8.5177    0.0000 </r>
       <r>   10.3290    0.0000 </r>
       <r>   10.7413    0.0000 </r>
       <r>   10.8911    0.0000 </r>
       <r>   11.3626    0.0000 </r>
      </set>
      <set comment="kpoint 24">
       <r>  -18.2224    1.0000 </r>
       <r>  -17.2891    1.0000 </r>
       <r>  -16.5407    1.0000 </r>
       <r>  -16.2205    1.0000 </r>
       <r>  -16.1946    1.0000 </r>
       <r>  -16.1560    1.0000 </r>
       <r>   -7.7117    1.0000 </r>
       <r>   -6.3653    1.0000 </r>
       <r>   -4.6812    1.0000 </r>
       <r>   -4.3850    1.0000 </r>
       <r>   -4.1892    1.0000 </r>
       <r>   -3.9297    1.0000 </r>
       <r>   -2.0481    1.0000 </r>
       <r>   -1.6538    1.0000 </r>
       <r>   -1.5338    1.0000 </r>
       <r>   -1.1591    1.0000 </r>
       <r>   -0.8393    1.0000 </r>
       <r>   -0.5025    1.0000 </r>
       <r>   -0.4000    1.0000 </r>
       <r>   -0.2446    1.0000 </r>
       <r>    0.1568    1.0000 </r>
       <r>    0.4120    1.0000 </r>
       <r>    0.7472    1.0000 </r>
       <r>    1.0090    1.0000 </r>
       <r>    7.8857    0.0000 </r>
       <r>   10.2713    0.0000 </r>
       <r>   10.5138    0.0000 </r>
       <r>   10.6089    0.0000 </r>
       <r>   11.3048    0.0000 </r>
      </set>
      <set comment="kpoint 25">
       <r>  -17.8704    1.0000 </r>
       <r>  -17.3875    1.0000 </r>
       <r>  -16.8459    1.0000 </r>
       <r>  -16.2509    1.0000 </r>
       <r>  -16.2295    1.0000 </r>
       <r>  -16.1862    1.0000 </r>
       <r>   -7.2944    1.0000 </r>
       <r>   -6.1991    1.0000 </r>
       <r>   -5.1938    1.0000 </r>
       <r>   -4.3374    1.0000 </r>
       <r>   -4.0750    1.0000 </r>
       <r>   -3.6839    1.0000 </r>
       <r>   -2.0612    1.0000 </r>
       <r>   -1.8464    1.0000 </r>
       <r>   -1.6118    1.0000 </r>
       <r>   -1.1906    1.0000 </r>
       <r>   -0.9169    1.0000 </r>
       <r>   -0.6781    1.0000 </r>
       <r>   -0.3282    1.0000 </r>
       <r>   -0.1914    1.0000 </r>
       <r>    0.0683    1.0000 </r>
       <r>    0.4514    1.0000 </r>
       <r>    0.6481    1.0000 </r>
       <r>    1.0035    1.0000 </r>
       <r>    9.4437    0.0000 </r>
       <r>   10.3546    0.0000 </r>
       <r>   10.9173    0.0000 </r>
       <r>   11.0708    0.0000 </r>
       <r>   11.5257    0.0000 </r>
      </set>
      <set comment="kpoint 26">
       <r>  -17.7424    1.0000 </r>
       <r>  -17.4814    1.0000 </r>
       <r>  -16.8847    1.0000 </r>
       <r>  -16.2498    1.0000 </r>
       <r>  -16.2475    1.0000 </r>
       <r>  -16.1887    1.0000 </r>
       <r>   -7.2488    1.0000 </r>
       <r>   -5.9430    1.0000 </r>
       <r>   -5.5266    1.0000 </r>
       <r>   -4.3056    1.0000 </r>
       <r>   -4.0707    1.0000 </r>
       <r>   -3.6258    1.0000 </r>
       <r>   -2.0647    1.0000 </r>
       <r>   -1.7613    1.0000 </r>
       <r>   -1.7588    1.0000 </r>
       <r>   -0.9731    1.0000 </r>
       <r>   -0.9180    1.0000 </r>
       <r>   -0.8513    1.0000 </r>
       <r>   -0.3684    1.0000 </r>
       <r>   -0.2130    1.0000 </r>
       <r>    0.0219    1.0000 </r>
       <r>    0.5692    1.0000 </r>
       <r>    0.6159    1.0000 </r>
       <r>    0.9633    1.0000 </r>
       <r>   10.0545    0.0000 </r>
       <r>   10.2552    0.0000 </r>
       <r>   10.6670    0.0000 </r>
       <r>   11.3765    0.0000 </r>
       <r>   11.5304    0.0000 </r>
      </set>
      <set comment="kpoint 27">
       <r>  -17.8675    1.0000 </r>
       <r>  -17.3968    1.0000 </r>
       <r>  -16.8344    1.0000 </r>
       <r>  -16.2559    1.0000 </r>
       <r>  -16.2311    1.0000 </r>
       <r>  -16.1846    1.0000 </r>
       <r>   -7.2931    1.0000 </r>
       <r>   -6.1982    1.0000 </r>
       <r>   -5.1943    1.0000 </r>
       <r>   -4.3279    1.0000 </r>
       <r>   -4.0810    1.0000 </r>
       <r>   -3.6986    1.0000 </r>
       <r>   -2.0966    1.0000 </r>
       <r>   -1.8202    1.0000 </r>
       <r>   -1.5930    1.0000 </r>
       <r>   -1.1370    1.0000 </r>
       <r>   -0.9049    1.0000 </r>
       <r>   -0.7124    1.0000 </r>
       <r>   -0.4262    1.0000 </r>
       <r>   -0.1434    1.0000 </r>
       <r>    0.1173    1.0000 </r>
       <r>    0.3701    1.0000 </r>
       <r>    0.7353    1.0000 </r>
       <r>    0.9679    1.0000 </r>
       <r>    9.4538    0.0000 </r>
       <r>   10.4461    0.0000 </r>
       <r>   10.6070    0.0000 </r>
       <r>   11.2132    0.0000 </r>
       <r>   11.4319    0.0000 </r>
      </set>
      <set comment="kpoint 28">
       <r>  -18.0205    1.0000 </r>
       <r>  -17.3300    1.0000 </r>
       <r>  -16.7268    1.0000 </r>
       <r>  -16.2489    1.0000 </r>
       <r>  -16.2211    1.0000 </r>
       <r>  -16.1755    1.0000 </r>
       <r>   -7.4187    1.0000 </r>
       <r>   -6.3375    1.0000 </r>
       <r>   -4.9172    1.0000 </r>
       <r>   -4.3437    1.0000 </r>
       <r>   -4.1083    1.0000 </r>
       <r>   -3.8340    1.0000 </r>
       <r>   -2.1434    1.0000 </r>
       <r>   -1.7170    1.0000 </r>
       <r>   -1.4798    1.0000 </r>
       <r>   -1.2172    1.0000 </r>
       <r>   -0.9015    1.0000 </r>
       <r>   -0.6081    1.0000 </r>
       <r>   -0.4969    1.0000 </r>
       <r>   -0.0598    1.0000 </r>
       <r>    0.1558    1.0000 </r>
       <r>    0.2756    1.0000 </r>
       <r>    0.7890    1.0000 </r>
       <r>    0.9638    1.0000 </r>
       <r>    8.8029    0.0000 </r>
       <r>   10.3222    0.0000 </r>
       <r>   10.5743    0.0000 </r>
       <r>   11.0391    0.0000 </r>
       <r>   11.4143    0.0000 </r>
      </set>
      <set comment="kpoint 29">
       <r>  -17.8676    1.0000 </r>
       <r>  -17.3967    1.0000 </r>
       <r>  -16.8343    1.0000 </r>
       <r>  -16.2557    1.0000 </r>
       <r>  -16.2312    1.0000 </r>
       <r>  -16.1849    1.0000 </r>
       <r>   -7.2932    1.0000 </r>
       <r>   -6.1981    1.0000 </r>
       <r>   -5.1942    1.0000 </r>
       <r>   -4.3280    1.0000 </r>
       <r>   -4.0811    1.0000 </r>
       <r>   -3.6985    1.0000 </r>
       <r>   -2.0966    1.0000 </r>
       <r>   -1.8201    1.0000 </r>
       <r>   -1.5932    1.0000 </r>
       <r>   -1.1368    1.0000 </r>
       <r>   -0.9048    1.0000 </r>
       <r>   -0.7126    1.0000 </r>
       <r>   -0.4261    1.0000 </r>
       <r>   -0.1435    1.0000 </r>
       <r>    0.1176    1.0000 </r>
       <r>    0.3703    1.0000 </r>
       <r>    0.7351    1.0000 </r>
       <r>    0.9677    1.0000 </r>
       <r>    9.4538    0.0000 </r>
       <r>   10.4461    0.0000 </r>
       <r>   10.6075    0.0000 </r>
       <r>   11.2152    0.0000 </r>
       <r>   11.4307    0.0000 </r>
      </set>
      <set comment="kpoint 30">
       <r>  -17.8701    1.0000 </r>
       <r>  -17.3877    1.0000 </r>
       <r>  -16.8461    1.0000 </r>
       <r>  -16.2510    1.0000 </r>
       <r>  -16.2295    1.0000 </r>
       <r>  -16.1859    1.0000 </r>
       <r>   -7.2943    1.0000 </r>
       <r>   -6.1993    1.0000 </r>
       <r>   -5.1938    1.0000 </r>
       <r>   -4.3372    1.0000 </r>
       <r>   -4.0750    1.0000 </r>
       <r>   -3.6840    1.0000 </r>
       <r>   -2.0613    1.0000 </r>
       <r>   -1.8468    1.0000 </r>
       <r>   -1.6116    1.0000 </r>
       <r>   -1.1904    1.0000 </r>
       <r>   -0.9169    1.0000 </r>
[...]
       <r>    0.9044    1.0000 </r>
       <r>    9.9971    0.0000 </r>
       <r>   10.3855    0.0000 </r>
       <r>   10.7533    0.0000 </r>
       <r>   11.0689    0.0000 </r>
       <r>   11.5194    0.0000 </r>
      </set>
      <set comment="kpoint 53">
       <r>  -17.9150    1.0000 </r>
       <r>  -17.5872    1.0000 </r>
       <r>  -16.5788    1.0000 </r>
       <r>  -16.2458    1.0000 </r>
       <r>  -16.1991    1.0000 </r>
       <r>  -16.1738    1.0000 </r>
       <r>   -7.6889    1.0000 </r>
       <r>   -5.8349    1.0000 </r>
       <r>   -5.2369    1.0000 </r>
       <r>   -4.3214    1.0000 </r>
       <r>   -4.1608    1.0000 </r>
       <r>   -3.7791    1.0000 </r>
       <r>   -2.0664    1.0000 </r>
       <r>   -1.8462    1.0000 </r>
       <r>   -1.3944    1.0000 </r>
       <r>   -1.2511    1.0000 </r>
       <r>   -0.9426    1.0000 </r>
       <r>   -0.5036    1.0000 </r>
       <r>   -0.3620    1.0000 </r>
       <r>   -0.1525    1.0000 </r>
       <r>    0.0820    1.0000 </r>
       <r>    0.4505    1.0000 </r>
       <r>    0.7368    1.0000 </r>
       <r>    0.9030    1.0000 </r>
       <r>    9.2292    0.0000 </r>
       <r>   10.0945    0.0000 </r>
       <r>   10.5326    0.0000 </r>
       <r>   10.9191    0.0000 </r>
       <r>   11.3655    0.0000 </r>
      </set>
      <set comment="kpoint 54">
       <r>  -17.8875    1.0000 </r>
       <r>  -17.5311    1.0000 </r>
       <r>  -16.6824    1.0000 </r>
       <r>  -16.2545    1.0000 </r>
       <r>  -16.1949    1.0000 </r>
       <r>  -16.1761    1.0000 </r>
       <r>   -7.5533    1.0000 </r>
       <r>   -5.9475    1.0000 </r>
       <r>   -5.2352    1.0000 </r>
       <r>   -4.3424    1.0000 </r>
       <r>   -4.0692    1.0000 </r>
       <r>   -3.7941    1.0000 </r>
       <r>   -2.0874    1.0000 </r>
       <r>   -1.9510    1.0000 </r>
       <r>   -1.3250    1.0000 </r>
       <r>   -1.2615    1.0000 </r>
       <r>   -1.0107    1.0000 </r>
       <r>   -0.4172    1.0000 </r>
       <r>   -0.3068    1.0000 </r>
       <r>   -0.1162    1.0000 </r>
       <r>    0.1275    1.0000 </r>
       <r>    0.3228    1.0000 </r>
       <r>    0.6259    1.0000 </r>
       <r>    0.9773    1.0000 </r>
       <r>    9.3799    0.0000 </r>
       <r>   10.3590    0.0000 </r>
       <r>   10.5599    0.0000 </r>
       <r>   11.0784    0.0000 </r>
       <r>   11.2405    0.0000 </r>
      </set>
      <set comment="kpoint 55">
       <r>  -18.0120    1.0000 </r>
       <r>  -17.6773    1.0000 </r>
       <r>  -16.3622    1.0000 </r>
       <r>  -16.2179    1.0000 </r>
       <r>  -16.1885    1.0000 </r>
       <r>  -16.1519    1.0000 </r>
       <r>   -8.0377    1.0000 </r>
       <r>   -5.6448    1.0000 </r>
       <r>   -5.0568    1.0000 </r>
       <r>   -4.4380    1.0000 </r>
       <r>   -4.3526    1.0000 </r>
       <r>   -3.6863    1.0000 </r>
       <r>   -1.9232    1.0000 </r>
       <r>   -1.6466    1.0000 </r>
       <r>   -1.4977    1.0000 </r>
       <r>   -1.1553    1.0000 </r>
       <r>   -0.9812    1.0000 </r>
       <r>   -0.5736    1.0000 </r>
       <r>   -0.4571    1.0000 </r>
       <r>   -0.3525    1.0000 </r>
       <r>   -0.0235    1.0000 </r>
       <r>    0.6474    1.0000 </r>
       <r>    0.8098    1.0000 </r>
       <r>    1.0176    1.0000 </r>
       <r>    8.7449    0.0000 </r>
       <r>    9.8408    0.0000 </r>
       <r>   10.3336    0.0000 </r>
       <r>   10.6889    0.0000 </r>
       <r>   11.2099    0.0000 </r>
      </set>
     </set>
    </set>
   </array>
  </eigenvalues>
  <separator name="orbital magnetization" >
   <v name="MAGDIPOLOUT">      0.00000000      0.00000000      0.00000000</v>
  </separator>
  <dos>
   <i name="efermi">      1.12845169 </i>
   <total>
    <array>
     <dimension dim="1">gridpoints</dimension>
     <dimension dim="2">spin</dimension>
     <field>energy</field>
     <field>total</field>
     <field>integrated</field>
     <set>
      <set comment="spin 1">
       <r>   -20.3770     0.0000     0.0000 </r>
       <r>   -20.2634     0.0000     0.0000 </r>
       <r>   -20.1497     0.0000     0.0000 </r>
       <r>   -20.0361     0.0000     0.0000 </r>
       <r>   -19.9225     0.0000     0.0000 </r>
       <r>   -19.8088     0.0000     0.0000 </r>
       <r>   -19.6952     0.0000     0.0000 </r>
       <r>   -19.5816     0.0000     0.0000 </r>
       <r>   -19.4679     0.0000     0.0000 </r>
       <r>   -19.3543     0.0000     0.0000 </r>
       <r>   -19.2406     0.0000     0.0000 </r>
       <r>   -19.1270     0.0000     0.0000 </r>
       <r>   -19.0134     0.0000     0.0000 </r>
       <r>   -18.8997     0.0000     0.0000 </r>
       <r>   -18.7861     0.0000     0.0000 </r>
       <r>   -18.6725     0.0000     0.0000 </r>
       <r>   -18.5588     0.0000     0.0000 </r>
       <r>   -18.4452     0.0000     0.0000 </r>
       <r>   -18.3316     0.2774     0.0042 </r>
       <r>   -18.2179     1.3314     0.1158 </r>
       <r>   -18.1043     2.2680     0.3193 </r>
       <r>   -17.9907     4.0663     0.6815 </r>
       <r>   -17.8770     9.0945     1.2990 </r>
       <r>   -17.7634     0.6775     1.9795 </r>
       <r>   -17.6498     1.0948     2.0642 </r>
       <r>   -17.5361     2.1269     2.2430 </r>
       <r>   -17.4225     6.4539     2.6603 </r>
       <r>   -17.3088     3.1795     3.5927 </r>
       <r>   -17.1952     1.3272     3.8324 </r>
       <r>   -17.0816     0.6402     3.9379 </r>
       <r>   -16.9679     0.9648     4.0123 </r>
       <r>   -16.8543     6.1423     4.3492 </r>
       <r>   -16.7407     4.2063     5.2831 </r>
       <r>   -16.6270     2.1352     5.6111 </r>
       <r>   -16.5134     1.3298     5.8001 </r>
       <r>   -16.3998     0.8109     5.9226 </r>
       <r>   -16.2861     0.2957     5.9923 </r>
       <r>   -16.1725    32.7923    11.4411 </r>
       <r>   -16.0589     0.0000    12.0000 </r>
       <r>   -15.9452     0.0000    12.0000 </r>
       <r>   -15.8316     0.0000    12.0000 </r>
       <r>   -15.7180     0.0000    12.0000 </r>
       <r>   -15.6043     0.0000    12.0000 </r>
       <r>   -15.4907     0.0000    12.0000 </r>
       <r>   -15.3771     0.0000    12.0000 </r>
       <r>   -15.2634     0.0000    12.0000 </r>
       <r>   -15.1498     0.0000    12.0000 </r>
       <r>   -15.0361     0.0000    12.0000 </r>
       <r>   -14.9225     0.0000    12.0000 </r>
       <r>   -14.8089     0.0000    12.0000 </r>
       <r>   -14.6952     0.0000    12.0000 </r>
       <r>   -14.5816     0.0000    12.0000 </r>
       <r>   -14.4680     0.0000    12.0000 </r>
       <r>   -14.3543     0.0000    12.0000 </r>
       <r>   -14.2407     0.0000    12.0000 </r>
       <r>   -14.1271     0.0000    12.0000 </r>
       <r>   -14.0134     0.0000    12.0000 </r>
       <r>   -13.8998     0.0000    12.0000 </r>
       <r>   -13.7862     0.0000    12.0000 </r>
       <r>   -13.6725     0.0000    12.0000 </r>
       <r>   -13.5589     0.0000    12.0000 </r>
       <r>   -13.4453     0.0000    12.0000 </r>
       <r>   -13.3316     0.0000    12.0000 </r>
       <r>   -13.2180     0.0000    12.0000 </r>
       <r>   -13.1043     0.0000    12.0000 </r>
       <r>   -12.9907     0.0000    12.0000 </r>
       <r>   -12.8771     0.0000    12.0000 </r>
       <r>   -12.7634     0.0000    12.0000 </r>
       <r>   -12.6498     0.0000    12.0000 </r>
       <r>   -12.5362     0.0000    12.0000 </r>
       <r>   -12.4225     0.0000    12.0000 </r>
       <r>   -12.3089     0.0000    12.0000 </r>
       <r>   -12.1953     0.0000    12.0000 </r>
       <r>   -12.0816     0.0000    12.0000 </r>
       <r>   -11.9680     0.0000    12.0000 </r>
       <r>   -11.8544     0.0000    12.0000 </r>
       <r>   -11.7407     0.0000    12.0000 </r>
       <r>   -11.6271     0.0000    12.0000 </r>
       <r>   -11.5135     0.0000    12.0000 </r>
       <r>   -11.3998     0.0000    12.0000 </r>
       <r>   -11.2862     0.0000    12.0000 </r>
       <r>   -11.1726     0.0000    12.0000 </r>
       <r>   -11.0589     0.0000    12.0000 </r>
       <r>   -10.9453     0.0000    12.0000 </r>
       <r>   -10.8316     0.0000    12.0000 </r>
       <r>   -10.7180     0.0000    12.0000 </r>
       <r>   -10.6044     0.0000    12.0000 </r>
       <r>   -10.4907     0.0000    12.0000 </r>
       <r>   -10.3771     0.0000    12.0000 </r>
       <r>   -10.2635     0.0000    12.0000 </r>
       <r>   -10.1498     0.0000    12.0000 </r>
       <r>   -10.0362     0.0000    12.0000 </r>
       <r>    -9.9226     0.0000    12.0000 </r>
       <r>    -9.8089     0.0000    12.0000 </r>
       <r>    -9.6953     0.0000    12.0000 </r>
       <r>    -9.5817     0.0000    12.0000 </r>
       <r>    -9.4680     0.0000    12.0000 </r>
       <r>    -9.3544     0.0000    12.0000 </r>
       <r>    -9.2408     0.0000    12.0000 </r>
       <r>    -9.1271     0.0000    12.0000 </r>
       <r>    -9.0135     0.0000    12.0000 </r>
       <r>    -8.8998     0.0000    12.0000 </r>
       <r>    -8.7862     0.0000    12.0000 </r>
       <r>    -8.6726     0.0000    12.0000 </r>
       <r>    -8.5589     0.0000    12.0000 </r>
       <r>    -8.4453     0.0000    12.0000 </r>
       <r>    -8.3317     0.0000    12.0000 </r>
       <r>    -8.2180     0.0330    12.0003 </r>
       <r>    -8.1044     0.3060    12.0184 </r>
       <r>    -7.9908     0.4570    12.0655 </r>
       <r>    -7.8771     0.6625    12.1288 </r>
       <r>    -7.7635     0.8659    12.2162 </r>
       <r>    -7.6499     1.1699    12.3287 </r>
       <r>    -7.5362     1.6119    12.4856 </r>
       <r>    -7.4226     2.7069    12.7152 </r>
       <r>    -7.3090     9.3973    13.3639 </r>
       <r>    -7.1953     5.0841    13.8382 </r>
       <r>    -7.0817     0.5489    13.9561 </r>
       <r>    -6.9681     0.2931    14.0023 </r>
       <r>    -6.8544     0.2281    14.0290 </r>
       <r>    -6.7408     0.3627    14.0623 </r>
       <r>    -6.6271     0.5424    14.1128 </r>
       <r>    -6.5135     0.9030    14.1929 </r>
       <r>    -6.3999     1.4866    14.3265 </r>
       <r>    -6.2862     3.7161    14.5780 </r>
       <r>    -6.1726     5.8195    15.1983 </r>
       <r>    -6.0590     2.2150    15.5380 </r>
       <r>    -5.9453     1.2579    15.7289 </r>
       <r>    -5.8317     0.8511    15.8466 </r>
       <r>    -5.7181     0.5710    15.9265 </r>
       <r>    -5.6044     0.4392    15.9865 </r>
       <r>    -5.4908     0.2534    16.0082 </r>
       <r>    -5.3772     2.2988    16.1565 </r>
       <r>    -5.2635     3.5485    16.5139 </r>
       <r>    -5.1499     2.8956    16.8609 </r>
       <r>    -5.0363     2.7884    17.1894 </r>
       <r>    -4.9226     2.0214    17.4654 </r>
       <r>    -4.8090     1.4418    17.6575 </r>
       <r>    -4.6953     1.0631    17.7986 </r>
       <r>    -4.5817     0.7293    17.9003 </r>
       <r>    -4.4681     1.4467    17.9956 </r>
       <r>    -4.3544    19.9853    18.8178 </r>
       <r>    -4.2408     8.7896    20.2488 </r>
       <r>    -4.1272     6.0919    21.0190 </r>
       <r>    -4.0135     4.7913    21.7246 </r>
       <r>    -3.8999     3.8929    22.1792 </r>
       <r>    -3.7863     7.7239    23.0605 </r>
       <r>    -3.6726     4.0798    23.6901 </r>
       <r>    -3.5590     0.8603    23.9756 </r>
       <r>    -3.4454     0.0000    24.0000 </r>
       <r>    -3.3317     0.0000    24.0000 </r>
       <r>    -3.2181     0.0000    24.0000 </r>
       <r>    -3.1045     0.0000    24.0000 </r>
       <r>    -2.9908     0.0000    24.0000 </r>
       <r>    -2.8772     0.0000    24.0000 </r>
       <r>    -2.7636     0.0000    24.0000 </r>
       <r>    -2.6499     0.0000    24.0000 </r>
       <r>    -2.5363     0.0000    24.0000 </r>
       <r>    -2.4226     0.0000    24.0000 </r>
       <r>    -2.3090     0.0000    24.0000 </r>
       <r>    -2.1954     0.0000    24.0000 </r>
       <r>    -2.0817    14.3038    24.8232 </r>
       <r>    -1.9681     5.4536    25.9741 </r>
       <r>    -1.8545     5.4383    26.6160 </r>
       <r>    -1.7408     6.7730    27.4917 </r>
       <r>    -1.6272     4.9373    28.1864 </r>
       <r>    -1.5136    10.7421    29.1462 </r>
       <r>    -1.3999     4.2532    29.8614 </r>
       <r>    -1.2863     1.8856    30.0665 </r>
       <r>    -1.1727    13.1477    31.1201 </r>
       <r>    -1.0590     2.4129    31.8766 </r>
       <r>    -0.9454    21.4996    32.7089 </r>
       <r>    -0.8318     1.3651    33.8778 </r>
       <r>    -0.7181     4.5225    34.1516 </r>
       <r>    -0.6045     6.5653    34.8576 </r>
       <r>    -0.4908    10.7234    35.9387 </r>
       <r>    -0.3772     8.0849    37.2027 </r>
       <r>    -0.2636     4.7659    37.8100 </r>
       <r>    -0.1499    11.0138    38.6472 </r>
       <r>    -0.0363     6.8546    39.8310 </r>
       <r>     0.0773     9.9900    40.5286 </r>
       <r>     0.1910     3.5996    41.9974 </r>
       <r>     0.3046     6.1402    42.1756 </r>
       <r>     0.4182     7.7109    43.4495 </r>
       <r>     0.5319     5.6179    43.9685 </r>
       <r>     0.6455     5.9135    44.4977 </r>
       <r>     0.7591    10.1937    45.3865 </r>
       <r>     0.8728     5.4701    46.2875 </r>
       <r>     0.9864    13.6044    47.2231 </r>
       <r>     1.1000     0.0000    48.0000 </r>
       <r>     1.2137     0.0000    48.0000 </r>
       <r>     1.3273     0.0000    48.0000 </r>
       <r>     1.4409     0.0000    48.0000 </r>
       <r>     1.5546     0.0000    48.0000 </r>
       <r>     1.6682     0.0000    48.0000 </r>
       <r>     1.7819     0.0000    48.0000 </r>
       <r>     1.8955     0.0000    48.0000 </r>
       <r>     2.0091     0.0000    48.0000 </r>
       <r>     2.1228     0.0000    48.0000 </r>
       <r>     2.2364     0.0000    48.0000 </r>
       <r>     2.3500     0.0000    48.0000 </r>
       <r>     2.4637     0.0000    48.0000 </r>
       <r>     2.5773     0.0000    48.0000 </r>
       <r>     2.6909     0.0000    48.0000 </r>
       <r>     2.8046     0.0000    48.0000 </r>
       <r>     2.9182     0.0000    48.0000 </r>
       <r>     3.0318     0.0000    48.0000 </r>
       <r>     3.1455     0.0000    48.0000 </r>
       <r>     3.2591     0.0000    48.0000 </r>
       <r>     3.3727     0.0000    48.0000 </r>
       <r>     3.4864     0.0000    48.0000 </r>
       <r>     3.6000     0.0000    48.0000 </r>
       <r>     3.7137     0.0000    48.0000 </r>
       <r>     3.8273     0.0000    48.0000 </r>
       <r>     3.9409     0.0000    48.0000 </r>
       <r>     4.0546     0.0000    48.0000 </r>
       <r>     4.1682     0.0000    48.0000 </r>
       <r>     4.2818     0.0000    48.0000 </r>
       <r>     4.3955     0.0000    48.0000 </r>
       <r>     4.5091     0.0000    48.0000 </r>
       <r>     4.6227     0.0000    48.0000 </r>
       <r>     4.7364     0.0000    48.0000 </r>
       <r>     4.8500     0.0000    48.0000 </r>
       <r>     4.9636     0.0000    48.0000 </r>
       <r>     5.0773     0.0000    48.0000 </r>
       <r>     5.1909     0.0000    48.0000 </r>
       <r>     5.3045     0.0000    48.0000 </r>
       <r>     5.4182     0.0000    48.0000 </r>
       <r>     5.5318     0.0000    48.0000 </r>
       <r>     5.6454     0.0000    48.0000 </r>
       <r>     5.7591     0.0000    48.0000 </r>
       <r>     5.8727     0.0000    48.0000 </r>
       <r>     5.9864     0.0000    48.0000 </r>
       <r>     6.1000     0.0000    48.0000 </r>
       <r>     6.2136     0.0000    48.0000 </r>
       <r>     6.3273     0.0000    48.0000 </r>
       <r>     6.4409     0.0000    48.0000 </r>
       <r>     6.5545     0.0000    48.0000 </r>
       <r>     6.6682     0.0000    48.0000 </r>
       <r>     6.7818     0.0000    48.0000 </r>
       <r>     6.8954     0.0000    48.0000 </r>
       <r>     7.0091     0.0000    48.0000 </r>
       <r>     7.1227     0.0001    48.0000 </r>
       <r>     7.2363     0.0148    48.0006 </r>
       <r>     7.3500     0.0553    48.0043 </r>
       <r>     7.4636     0.1218    48.0142 </r>
       <r>     7.5772     0.2063    48.0331 </r>
       <r>     7.6909     0.2517    48.0593 </r>
       <r>     7.8045     0.2799    48.0896 </r>
       <r>     7.9182     0.3034    48.1225 </r>
       <r>     8.0318     0.3487    48.1595 </r>
       <r>     8.1454     0.3966    48.2018 </r>
       <r>     8.2591     0.4469    48.2497 </r>
       <r>     8.3727     0.4995    48.3035 </r>
       <r>     8.4863     0.5541    48.3633 </r>
       <r>     8.6000     0.7034    48.4345 </r>
       <r>     8.7136     0.8535    48.5230 </r>
       <r>     8.8272     0.8268    48.6180 </r>
       <r>     8.9409     0.8869    48.7153 </r>
       <r>     9.0545     0.9490    48.8196 </r>
       <r>     9.1681     1.0130    48.9311 </r>
       <r>     9.2818     1.2035    49.0510 </r>
       <r>     9.3954     1.5207    49.2142 </r>
       <r>     9.5090     1.3256    49.3798 </r>
       <r>     9.6227     1.2341    49.5235 </r>
       <r>     9.7363     1.4142    49.6712 </r>
       <r>     9.8499     1.4807    49.8398 </r>
       <r>     9.9636     1.6914    50.0506 </r>
       <r>    10.0772     1.0888    50.1952 </r>
       <r>    10.1909     1.9992    50.3474 </r>
       <r>    10.3045     5.8583    50.7443 </r>
       <r>    10.4181     7.1450    51.8255 </r>
       <r>    10.5318     3.9223    52.3214 </r>
       <r>    10.6454     7.9633    53.0133 </r>
       <r>    10.7590     7.0151    53.8848 </r>
       <r>    10.8727     2.7925    54.4061 </r>
       <r>    10.9863     3.3419    54.7083 </r>
       <r>    11.0999     7.6172    55.2810 </r>
       <r>    11.2136     3.1799    55.9525 </r>
       <r>    11.3272     3.7963    56.3883 </r>
       <r>    11.4408     6.1418    56.9466 </r>
       <r>    11.5545     5.8103    57.7307 </r>
       <r>    11.6681     0.0879    57.9992 </r>
       <r>    11.7817     0.0000    58.0000 </r>
       <r>    11.8954     0.0000    58.0000 </r>
       <r>    12.0090     0.0000    58.0000 </r>
       <r>    12.1227     0.0000    58.0000 </r>
       <r>    12.2363     0.0000    58.0000 </r>
       <r>    12.3499     0.0000    58.0000 </r>
       <r>    12.4636     0.0000    58.0000 </r>
       <r>    12.5772     0.0000    58.0000 </r>
       <r>    12.6908     0.0000    58.0000 </r>
       <r>    12.8045     0.0000    58.0000 </r>
       <r>    12.9181     0.0000    58.0000 </r>
       <r>    13.0317     0.0000    58.0000 </r>
       <r>    13.1454     0.0000    58.0000 </r>
       <r>    13.2590     0.0000    58.0000 </r>
       <r>    13.3726     0.0000    58.0000 </r>
       <r>    13.4863     0.0000    58.0000 </r>
       <r>    13.5999     0.0000    58.0000 </r>
       <r>    13.7135     0.0000    58.0000 </r>
      </set>
     </set>
    </array>
   </total>
  </dos>
 </calculation>
 <structure name="finalpos" >
  <crystal>
   <varray name="basis" >
    <v>       4.91370000       0.00000000       0.00000000 </v>
    <v>      -2.45685000       4.25538903       0.00000000 </v>
    <v>       0.00000000       0.00000000       5.40513000 </v>
   </varray>
   <i name="volume">    113.01967420 </i>
   <varray name="rec_basis" >
    <v>       0.20351263       0.11749807       0.00000000 </v>
    <v>       0.00000000       0.23499614       0.00000000 </v>
    <v>       0.00000000       0.00000000       0.18500943 </v>
   </varray>
  </crystal>
  <varray name="positions" >
   <v>       0.46980000       0.00000000       0.66667000 </v>
   <v>       0.00000000       0.46980000       0.33333000 </v>
   <v>       0.53020000       0.53020000       0.00000000 </v>
   <v>       0.41450000       0.26620000       0.78560000 </v>
   <v>       0.73380000       0.14830000       0.45227000 </v>
   <v>       0.85170000       0.58550000       0.11893000 </v>
   <v>       0.14830000       0.73380000       0.54773000 </v>
   <v>       0.26620000       0.41450000       0.21440000 </v>
   <v>       0.58550000       0.85170000       0.88107000 </v>
  </varray>
 </structure>
</modeling>
