   9   9   0   0
  0.1255774E+02  0.4913700E-09  0.4913700E-09  0.5405130E-09  0.5000000E-15
  1.000000000000000E-004
  CAR 
 unknown system                          
     13.81418541    -20.45168392  301      1.19292354      1.00000000
    -20.452  0.0000E+00  0.0000E+00
    -20.337  0.0000E+00  0.0000E+00
    -20.223  0.0000E+00  0.0000E+00
    -20.109  0.0000E+00  0.0000E+00
    -19.995  0.0000E+00  0.0000E+00
    -19.881  0.0000E+00  0.0000E+00
    -19.766  0.0000E+00  0.0000E+00
    -19.652  0.0000E+00  0.0000E+00
    -19.538  0.0000E+00  0.0000E+00
    -19.424  0.0000E+00  0.0000E+00
    -19.309  0.0000E+00  0.0000E+00
    -19.195  0.0000E+00  0.0000E+00
    -19.081  0.0000E+00  0.0000E+00
    -18.967  0.0000E+00  0.0000E+00
    -18.853  0.0000E+00  0.0000E+00
    -18.738  0.0000E+00  0.0000E+00
    -18.624  0.0000E+00  0.0000E+00
    -18.510  0.0000E+00  0.0000E+00
    -18.396  0.5100E+00  0.9512E-02
    -18.282  0.1813E+01  0.1584E+00
    -18.167  0.4185E+01  0.4573E+00
    -18.053  0.7764E+01  0.1128E+01
    -17.939  0.3043E+01  0.1924E+01
    -17.825  0.0000E+00  0.2000E+01
    -17.710  0.1483E+01  0.2066E+01
    -17.596  0.3312E+01  0.2316E+01
    -17.482  0.6185E+01  0.2838E+01
    -17.368  0.7898E+01  0.3578E+01
    -17.254  0.9503E+00  0.3958E+01
    -17.139  0.0000E+00  0.4000E+01
    -17.025  0.5492E+00  0.4011E+01
    -16.911  0.2608E+01  0.4176E+01
    -16.797  0.7493E+01  0.4848E+01
    -16.682  0.3734E+01  0.5518E+01
    -16.568  0.2614E+01  0.5869E+01
    -16.454  0.6604E+01  0.6232E+01
    -16.340  0.6664E+01  0.7219E+01
    -16.226  0.4698E+01  0.7828E+01
    -16.111  0.1284E+02  0.9281E+01
    -15.997  0.0000E+00  0.1000E+02
    -15.883  0.2848E+02  0.1127E+02
    -15.769  0.0000E+00  0.1200E+02
    -15.654  0.0000E+00  0.1200E+02
    -15.540  0.0000E+00  0.1200E+02
    -15.426  0.0000E+00  0.1200E+02
    -15.312  0.0000E+00  0.1200E+02
    -15.198  0.0000E+00  0.1200E+02
    -15.083  0.0000E+00  0.1200E+02
    -14.969  0.0000E+00  0.1200E+02
    -14.855  0.0000E+00  0.1200E+02
    -14.741  0.0000E+00  0.1200E+02
    -14.626  0.0000E+00  0.1200E+02
    -14.512  0.0000E+00  0.1200E+02
    -14.398  0.0000E+00  0.1200E+02
    -14.284  0.0000E+00  0.1200E+02
    -14.170  0.0000E+00  0.1200E+02
    -14.055  0.0000E+00  0.1200E+02
    -13.941  0.0000E+00  0.1200E+02
    -13.827  0.0000E+00  0.1200E+02
    -13.713  0.0000E+00  0.1200E+02
    -13.599  0.0000E+00  0.1200E+02
    -13.484  0.0000E+00  0.1200E+02
    -13.370  0.0000E+00  0.1200E+02
    -13.256  0.0000E+00  0.1200E+02
    -13.142  0.0000E+00  0.1200E+02
    -13.027  0.0000E+00  0.1200E+02
    -12.913  0.0000E+00  0.1200E+02
    -12.799  0.0000E+00  0.1200E+02
    -12.685  0.0000E+00  0.1200E+02
    -12.571  0.0000E+00  0.1200E+02
    -12.456  0.0000E+00  0.1200E+02
    -12.342  0.0000E+00  0.1200E+02
    -12.228  0.0000E+00  0.1200E+02
    -12.114  0.0000E+00  0.1200E+02
    -11.999  0.0000E+00  0.1200E+02
    -11.885  0.0000E+00  0.1200E+02
    -11.771  0.0000E+00  0.1200E+02
    -11.657  0.0000E+00  0.1200E+02
    -11.543  0.0000E+00  0.1200E+02
    -11.428  0.0000E+00  0.1200E+02
    -11.314  0.0000E+00  0.1200E+02
    -11.200  0.0000E+00  0.1200E+02
    -11.086  0.0000E+00  0.1200E+02
    -10.971  0.0000E+00  0.1200E+02
    -10.857  0.0000E+00  0.1200E+02
    -10.743  0.0000E+00  0.1200E+02
    -10.629  0.0000E+00  0.1200E+02
    -10.515  0.0000E+00  0.1200E+02
    -10.400  0.0000E+00  0.1200E+02
    -10.286  0.0000E+00  0.1200E+02
    -10.172  0.0000E+00  0.1200E+02
    -10.058  0.0000E+00  0.1200E+02
     -9.943  0.0000E+00  0.1200E+02
     -9.829  0.0000E+00  0.1200E+02
     -9.715  0.0000E+00  0.1200E+02
     -9.601  0.0000E+00  0.1200E+02
     -9.487  0.0000E+00  0.1200E+02
     -9.372  0.0000E+00  0.1200E+02
     -9.258  0.0000E+00  0.1200E+02
     -9.144  0.0000E+00  0.1200E+02
     -9.030  0.0000E+00  0.1200E+02
     -8.916  0.0000E+00  0.1200E+02
     -8.801  0.0000E+00  0.1200E+02
     -8.687  0.0000E+00  0.1200E+02
     -8.573  0.0000E+00  0.1200E+02
     -8.459  0.0000E+00  0.1200E+02
     -8.344  0.0000E+00  0.1200E+02
     -8.230  0.1837E-01  0.1200E+02
     -8.116  0.2887E+00  0.1202E+02
     -8.002  0.4518E+00  0.1206E+02
     -7.888  0.6671E+00  0.1213E+02
     -7.773  0.8782E+00  0.1222E+02
     -7.659  0.1237E+01  0.1233E+02
     -7.545  0.1698E+01  0.1250E+02
     -7.431  0.3274E+01  0.1276E+02
     -7.316  0.6091E+01  0.1346E+02
     -7.202  0.1686E+01  0.1386E+02
     -7.088  0.4413E+00  0.1397E+02
     -6.974  0.2123E+00  0.1400E+02
     -6.860  0.2162E+00  0.1402E+02
     -6.745  0.3532E+00  0.1406E+02
     -6.631  0.6101E+00  0.1411E+02
     -6.517  0.1141E+01  0.1421E+02
     -6.403  0.2101E+01  0.1438E+02
     -6.288  0.3461E+01  0.1470E+02
     -6.174  0.4796E+01  0.1519E+02
     -6.060  0.2044E+01  0.1558E+02
     -5.946  0.1209E+01  0.1576E+02
     -5.832  0.7581E+00  0.1587E+02
     -5.717  0.5848E+00  0.1594E+02
     -5.603  0.2073E+00  0.1600E+02
     -5.489  0.3269E+00  0.1601E+02
     -5.375  0.2620E+01  0.1616E+02
     -5.260  0.3248E+01  0.1650E+02
     -5.146  0.3062E+01  0.1687E+02
     -5.032  0.2974E+01  0.1721E+02
     -4.918  0.2058E+01  0.1750E+02
     -4.804  0.1577E+01  0.1771E+02
     -4.689  0.1281E+01  0.1787E+02
     -4.575  0.5744E+00  0.1799E+02
     -4.461  0.5024E+01  0.1814E+02
     -4.347  0.9283E+01  0.1925E+02
     -4.233  0.4824E+01  0.1999E+02
     -4.118  0.1018E+02  0.2074E+02
     -4.004  0.6259E+01  0.2164E+02
     -3.890  0.1491E+01  0.2210E+02
     -3.776  0.7911E+01  0.2258E+02
     -3.661  0.5908E+01  0.2349E+02
     -3.547  0.2355E+01  0.2390E+02
     -3.433  0.6583E-02  0.2400E+02
     -3.319  0.0000E+00  0.2400E+02
     -3.205  0.0000E+00  0.2400E+02
     -3.090  0.0000E+00  0.2400E+02
     -2.976  0.0000E+00  0.2400E+02
     -2.862  0.0000E+00  0.2400E+02
     -2.748  0.0000E+00  0.2400E+02
     -2.633  0.0000E+00  0.2400E+02
     -2.519  0.0000E+00  0.2400E+02
     -2.405  0.0000E+00  0.2400E+02
     -2.291  0.0000E+00  0.2400E+02
     -2.177  0.1053E+02  0.2444E+02
     -2.062  0.6541E+01  0.2576E+02
     -1.948  0.7484E+01  0.2658E+02
     -1.834  0.7099E+01  0.2728E+02
     -1.720  0.3370E+01  0.2790E+02
     -1.605  0.8167E+01  0.2832E+02
     -1.491  0.7913E+01  0.2942E+02
     -1.377  0.9972E+00  0.2999E+02
     -1.263  0.8412E+01  0.3029E+02
     -1.149  0.1231E+02  0.3162E+02
     -1.034  0.9878E+00  0.3200E+02
     -0.920  0.2183E+02  0.3333E+02
     -0.806  0.9478E+00  0.3391E+02
     -0.692  0.5882E+01  0.3430E+02
     -0.577  0.1033E+02  0.3517E+02
     -0.463  0.7361E+01  0.3627E+02
     -0.349  0.6703E+01  0.3739E+02
     -0.235  0.5031E+01  0.3799E+02
     -0.121  0.8882E+01  0.3888E+02
     -0.006  0.5027E+01  0.3981E+02
      0.108  0.8643E+01  0.4046E+02
      0.222  0.7097E+01  0.4178E+02
      0.336  0.2581E+01  0.4207E+02
      0.450  0.1261E+02  0.4321E+02
      0.565  0.1579E+01  0.4383E+02
      0.679  0.4576E+01  0.4428E+02
      0.793  0.1183E+02  0.4507E+02
      0.907  0.5321E+01  0.4617E+02
      1.022  0.1155E+02  0.4697E+02
      1.136  0.3541E+01  0.4792E+02
      1.250  0.0000E+00  0.4800E+02
      1.364  0.0000E+00  0.4800E+02
      1.478  0.0000E+00  0.4800E+02
      1.593  0.0000E+00  0.4800E+02
      1.707  0.0000E+00  0.4800E+02
      1.821  0.0000E+00  0.4800E+02
      1.935  0.0000E+00  0.4800E+02
      2.050  0.0000E+00  0.4800E+02
      2.164  0.0000E+00  0.4800E+02
      2.278  0.0000E+00  0.4800E+02
      2.392  0.0000E+00  0.4800E+02
      2.506  0.0000E+00  0.4800E+02
      2.621  0.0000E+00  0.4800E+02
      2.735  0.0000E+00  0.4800E+02
      2.849  0.0000E+00  0.4800E+02
      2.963  0.0000E+00  0.4800E+02
      3.078  0.0000E+00  0.4800E+02
      3.192  0.0000E+00  0.4800E+02
      3.306  0.0000E+00  0.4800E+02
      3.420  0.0000E+00  0.4800E+02
      3.534  0.0000E+00  0.4800E+02
      3.649  0.0000E+00  0.4800E+02
      3.763  0.0000E+00  0.4800E+02
      3.877  0.0000E+00  0.4800E+02
      3.991  0.0000E+00  0.4800E+02
      4.106  0.0000E+00  0.4800E+02
      4.220  0.0000E+00  0.4800E+02
      4.334  0.0000E+00  0.4800E+02
      4.448  0.0000E+00  0.4800E+02
      4.562  0.0000E+00  0.4800E+02
      4.677  0.0000E+00  0.4800E+02
      4.791  0.0000E+00  0.4800E+02
      4.905  0.0000E+00  0.4800E+02
      5.019  0.0000E+00  0.4800E+02
      5.133  0.0000E+00  0.4800E+02
      5.248  0.0000E+00  0.4800E+02
      5.362  0.0000E+00  0.4800E+02
      5.476  0.0000E+00  0.4800E+02
      5.590  0.0000E+00  0.4800E+02
      5.705  0.0000E+00  0.4800E+02
      5.819  0.0000E+00  0.4800E+02
      5.933  0.0000E+00  0.4800E+02
      6.047  0.0000E+00  0.4800E+02
      6.161  0.0000E+00  0.4800E+02
      6.276  0.0000E+00  0.4800E+02
      6.390  0.0000E+00  0.4800E+02
      6.504  0.0000E+00  0.4800E+02
      6.618  0.0000E+00  0.4800E+02
      6.733  0.0000E+00  0.4800E+02
      6.847  0.0000E+00  0.4800E+02
      6.961  0.0000E+00  0.4800E+02
      7.075  0.0000E+00  0.4800E+02
      7.189  0.8457E-02  0.4800E+02
      7.304  0.4274E-01  0.4800E+02
      7.418  0.1034E+00  0.4801E+02
      7.532  0.1938E+00  0.4803E+02
      7.646  0.2442E+00  0.4805E+02
      7.761  0.2767E+00  0.4808E+02
      7.875  0.2958E+00  0.4812E+02
      7.989  0.3414E+00  0.4815E+02
      8.103  0.3896E+00  0.4819E+02
      8.217  0.4404E+00  0.4824E+02
      8.332  0.4937E+00  0.4829E+02
      8.446  0.5493E+00  0.4835E+02
      8.560  0.6871E+00  0.4842E+02
      8.674  0.8420E+00  0.4851E+02
      8.789  0.8315E+00  0.4861E+02
      8.903  0.8936E+00  0.4871E+02
      9.017  0.9579E+00  0.4881E+02
      9.131  0.1024E+01  0.4893E+02
      9.245  0.1191E+01  0.4905E+02
      9.360  0.1574E+01  0.4921E+02
      9.474  0.1370E+01  0.4939E+02
      9.588  0.1269E+01  0.4954E+02
      9.702  0.1411E+01  0.4969E+02
      9.817  0.1489E+01  0.4985E+02
      9.931  0.1398E+01  0.5006E+02
     10.045  0.1060E+01  0.5019E+02
     10.159  0.1860E+01  0.5034E+02
     10.273  0.6646E+01  0.5076E+02
     10.388  0.6488E+01  0.5178E+02
     10.502  0.4417E+01  0.5228E+02
     10.616  0.8960E+01  0.5303E+02
     10.730  0.5784E+01  0.5389E+02
     10.844  0.2653E+01  0.5437E+02
     10.959  0.2866E+01  0.5465E+02
     11.073  0.6519E+01  0.5518E+02
     11.187  0.4728E+01  0.5587E+02
     11.301  0.5015E+01  0.5640E+02
     11.416  0.5828E+01  0.5698E+02
     11.530  0.5271E+01  0.5767E+02
     11.644  0.5876E+00  0.5798E+02
     11.758  0.1830E-01  0.5800E+02
     11.872  0.0000E+00  0.5800E+02
     11.987  0.0000E+00  0.5800E+02
     12.101  0.0000E+00  0.5800E+02
     12.215  0.0000E+00  0.5800E+02
     12.329  0.0000E+00  0.5800E+02
     12.444  0.0000E+00  0.5800E+02
     12.558  0.0000E+00  0.5800E+02
     12.672  0.0000E+00  0.5800E+02
     12.786  0.0000E+00  0.5800E+02
     12.900  0.0000E+00  0.5800E+02
     13.015  0.0000E+00  0.5800E+02
     13.129  0.0000E+00  0.5800E+02
     13.243  0.0000E+00  0.5800E+02
     13.357  0.0000E+00  0.5800E+02
     13.472  0.0000E+00  0.5800E+02
     13.586  0.0000E+00  0.5800E+02
     13.700  0.0000E+00  0.5800E+02
     13.814  0.0000E+00  0.5800E+02
