       N       E                     dE             d eps       ncg     rms          rms(c)
DAV:   1     0.393931616125E+03    0.39393E+03   -0.32318E+04  5336   0.215E+03
DAV:   2    -0.545789046995E+02   -0.44851E+03   -0.43752E+03  7135   0.391E+02
DAV:   3    -0.801088569445E+02   -0.25530E+02   -0.25448E+02  6216   0.104E+02
DAV:   4    -0.804711640515E+02   -0.36231E+00   -0.36164E+00  6312   0.132E+01
DAV:   5    -0.804778359567E+02   -0.66719E-02   -0.66689E-02  6176   0.179E+00    0.188E+01
RMM:   6    -0.708037568795E+02    0.96741E+01   -0.42255E+01  5680   0.347E+01    0.516E+00
RMM:   7    -0.707782745236E+02    0.25482E-01   -0.17257E+00  6148   0.605E+00    0.341E+00
RMM:   8    -0.707919447098E+02   -0.13670E-01   -0.28972E-01  6056   0.444E+00    0.654E-01
RMM:   9    -0.707836855207E+02    0.82592E-02   -0.52461E-02  6247   0.121E+00    0.154E-01
RMM:  10    -0.707865297554E+02   -0.28442E-02   -0.16986E-02  6183   0.682E-01    0.203E-01
RMM:  11    -0.707856124318E+02    0.91732E-03   -0.46361E-03  6191   0.397E-01    0.180E-02
RMM:  12    -0.707856555290E+02   -0.43097E-04   -0.16580E-04  5692   0.795E-02    0.133E-02
RMM:  13    -0.707856579075E+02   -0.23785E-05   -0.10451E-05  4024   0.207E-02
   1 F= -.70785658E+02 E0= -.70785658E+02  d E =0.000000E+00
