<?xml version="1.0" encoding="ISO-8859-1"?>
<modeling>
 <generator>
  <i name="program" type="string">vasp </i>
  <i name="version" type="string">5.4.1  </i>
  <i name="subversion" type="string">05Feb16 (build Mar 02 2016 14:09:44) complex                          parallel </i>
  <i name="platform" type="string">Abel-impi-ifc-cuda </i>
  <i name="date" type="string">2019 09 13 </i>
  <i name="time" type="string">11:31:00 </i>
 </generator>
 <incar>
  <i type="string" name="PREC">normal    ! low/normal/accurate</i>
  <i type="string" name="ALGO"> Fast      ! Algorithm for electronic re</i>
  <i type="int" name="ISPIN">     1</i>
  <i type="int" name="NELMIN">     4</i>
  <i name="EDIFF">      0.00001000</i>
  <i type="int" name="NSW">     0</i>
  <i name="ENCUT">    800.00000000</i>
  <i type="string" name="LREAL"> Auto      ! Projection in reciprocal sp</i>
  <i type="int" name="ISMEAR">    -5</i>
  <i name="SIGMA">      0.20000000</i>
  <i type="logical" name="LWAVE"> F  </i>
  <v type="int" name="KPOINT_BSE">    -1     0     0     0</v>
 </incar>
 <kpoints>
  <generation param="Gamma">
   <v type="int" name="divisions">       6        6        5 </v>
   <v name="usershift">      0.00000000       0.00000000       0.00000000 </v>
   <v name="genvec1">      0.16666667       0.00000000       0.00000000 </v>
   <v name="genvec2">      0.00000000       0.16666667       0.00000000 </v>
   <v name="genvec3">      0.00000000       0.00000000       0.20000000 </v>
   <v name="shift">      0.00000000       0.00000000       0.00000000 </v>
  </generation>
  <varray name="kpointlist" >
   <v>       0.00000000       0.00000000       0.00000000 </v>
   <v>       0.16666667       0.00000000       0.00000000 </v>
   <v>       0.33333333       0.00000000       0.00000000 </v>
   <v>       0.50000000       0.00000000       0.00000000 </v>
   <v>       0.00000000       0.16666667       0.00000000 </v>
   <v>       0.16666667       0.16666667       0.00000000 </v>
   <v>       0.33333333       0.16666667       0.00000000 </v>
   <v>       0.50000000       0.16666667       0.00000000 </v>
   <v>      -0.33333333       0.16666667       0.00000000 </v>
   <v>      -0.16666667       0.16666667       0.00000000 </v>
   <v>       0.00000000       0.33333333       0.00000000 </v>
   <v>       0.16666667       0.33333333       0.00000000 </v>
   <v>       0.33333333       0.33333333       0.00000000 </v>
   <v>       0.50000000       0.33333333       0.00000000 </v>
   <v>      -0.33333333       0.33333333       0.00000000 </v>
   <v>      -0.16666667       0.33333333       0.00000000 </v>
   <v>       0.00000000       0.50000000       0.00000000 </v>
   <v>       0.16666667       0.50000000       0.00000000 </v>
   <v>       0.33333333       0.50000000       0.00000000 </v>
   <v>       0.50000000       0.50000000       0.00000000 </v>
   <v>       0.00000000       0.00000000       0.20000000 </v>
   <v>       0.16666667       0.00000000       0.20000000 </v>
   <v>       0.33333333       0.00000000       0.20000000 </v>
   <v>       0.50000000       0.00000000       0.20000000 </v>
   <v>      -0.33333333       0.00000000       0.20000000 </v>
   <v>      -0.16666667       0.00000000       0.20000000 </v>
   <v>       0.00000000       0.16666667       0.20000000 </v>
   <v>       0.16666667       0.16666667       0.20000000 </v>
   <v>       0.33333333       0.16666667       0.20000000 </v>
   <v>       0.50000000       0.16666667       0.20000000 </v>
   <v>      -0.33333333       0.16666667       0.20000000 </v>
   <v>      -0.16666667       0.16666667       0.20000000 </v>
   <v>       0.00000000       0.33333333       0.20000000 </v>
   <v>       0.16666667       0.33333333       0.20000000 </v>
   <v>       0.33333333       0.33333333       0.20000000 </v>
   <v>       0.50000000       0.33333333       0.20000000 </v>
   <v>      -0.33333333       0.33333333       0.20000000 </v>
   <v>      -0.16666667       0.33333333       0.20000000 </v>
   <v>       0.00000000       0.50000000       0.20000000 </v>
   <v>       0.16666667       0.50000000       0.20000000 </v>
   <v>       0.33333333       0.50000000       0.20000000 </v>
   <v>       0.50000000       0.50000000       0.20000000 </v>
   <v>      -0.33333333       0.50000000       0.20000000 </v>
   <v>      -0.16666667       0.50000000       0.20000000 </v>
   <v>       0.00000000      -0.33333333       0.20000000 </v>
   <v>       0.16666667      -0.33333333       0.20000000 </v>
   <v>       0.33333333      -0.33333333       0.20000000 </v>
   <v>       0.50000000      -0.33333333       0.20000000 </v>
   <v>      -0.33333333      -0.33333333       0.20000000 </v>
   <v>      -0.16666667      -0.33333333       0.20000000 </v>
   <v>       0.00000000      -0.16666667       0.20000000 </v>
   <v>       0.16666667      -0.16666667       0.20000000 </v>
   <v>       0.33333333      -0.16666667       0.20000000 </v>
   <v>       0.50000000      -0.16666667       0.20000000 </v>
   <v>      -0.33333333      -0.16666667       0.20000000 </v>
   <v>      -0.16666667      -0.16666667       0.20000000 </v>
   <v>       0.00000000       0.00000000       0.40000000 </v>
   <v>       0.16666667       0.00000000       0.40000000 </v>
   <v>       0.33333333       0.00000000       0.40000000 </v>
   <v>       0.50000000       0.00000000       0.40000000 </v>
   <v>      -0.33333333       0.00000000       0.40000000 </v>
   <v>      -0.16666667       0.00000000       0.40000000 </v>
   <v>       0.00000000       0.16666667       0.40000000 </v>
   <v>       0.16666667       0.16666667       0.40000000 </v>
   <v>       0.33333333       0.16666667       0.40000000 </v>
   <v>       0.50000000       0.16666667       0.40000000 </v>
   <v>      -0.33333333       0.16666667       0.40000000 </v>
   <v>      -0.16666667       0.16666667       0.40000000 </v>
   <v>       0.00000000       0.33333333       0.40000000 </v>
   <v>       0.16666667       0.33333333       0.40000000 </v>
   <v>       0.33333333       0.33333333       0.40000000 </v>
   <v>       0.50000000       0.33333333       0.40000000 </v>
   <v>      -0.33333333       0.33333333       0.40000000 </v>
   <v>      -0.16666667       0.33333333       0.40000000 </v>
   <v>       0.00000000       0.50000000       0.40000000 </v>
   <v>       0.16666667       0.50000000       0.40000000 </v>
   <v>       0.33333333       0.50000000       0.40000000 </v>
   <v>       0.50000000       0.50000000       0.40000000 </v>
   <v>      -0.33333333       0.50000000       0.40000000 </v>
   <v>      -0.16666667       0.50000000       0.40000000 </v>
   <v>       0.00000000      -0.33333333       0.40000000 </v>
   <v>       0.16666667      -0.33333333       0.40000000 </v>
   <v>       0.33333333      -0.33333333       0.40000000 </v>
   <v>       0.50000000      -0.33333333       0.40000000 </v>
   <v>      -0.33333333      -0.33333333       0.40000000 </v>
   <v>      -0.16666667      -0.33333333       0.40000000 </v>
   <v>       0.00000000      -0.16666667       0.40000000 </v>
   <v>       0.16666667      -0.16666667       0.40000000 </v>
   <v>       0.33333333      -0.16666667       0.40000000 </v>
   <v>       0.50000000      -0.16666667       0.40000000 </v>
   <v>      -0.33333333      -0.16666667       0.40000000 </v>
   <v>      -0.16666667      -0.16666667       0.40000000 </v>
  </varray>
  <varray name="weights" >
   <v>       0.00555556 </v>
   <v>       0.01111111 </v>
   <v>       0.01111111 </v>
   <v>       0.00555556 </v>
   <v>       0.01111111 </v>
   <v>       0.01111111 </v>
   <v>       0.01111111 </v>
   <v>       0.01111111 </v>
   <v>       0.01111111 </v>
   <v>       0.01111111 </v>
   <v>       0.01111111 </v>
   <v>       0.01111111 </v>
   <v>       0.01111111 </v>
   <v>       0.01111111 </v>
   <v>       0.01111111 </v>
   <v>       0.01111111 </v>
   <v>       0.00555556 </v>
   <v>       0.01111111 </v>
   <v>       0.01111111 </v>
   <v>       0.00555556 </v>
   <v>       0.01111111 </v>
   <v>       0.01111111 </v>
   <v>       0.01111111 </v>
   <v>       0.01111111 </v>
   <v>       0.01111111 </v>
   <v>       0.01111111 </v>
   <v>       0.01111111 </v>
   <v>       0.01111111 </v>
   <v>       0.01111111 </v>
   <v>       0.01111111 </v>
   <v>       0.01111111 </v>
   <v>       0.01111111 </v>
   <v>       0.01111111 </v>
   <v>       0.01111111 </v>
   <v>       0.01111111 </v>
   <v>       0.01111111 </v>
   <v>       0.01111111 </v>
   <v>       0.01111111 </v>
   <v>       0.01111111 </v>
   <v>       0.01111111 </v>
   <v>       0.01111111 </v>
   <v>       0.01111111 </v>
   <v>       0.01111111 </v>
   <v>       0.01111111 </v>
   <v>       0.01111111 </v>
   <v>       0.01111111 </v>
   <v>       0.01111111 </v>
   <v>       0.01111111 </v>
   <v>       0.01111111 </v>
   <v>       0.01111111 </v>
   <v>       0.01111111 </v>
   <v>       0.01111111 </v>
   <v>       0.01111111 </v>
   <v>       0.01111111 </v>
   <v>       0.01111111 </v>
   <v>       0.01111111 </v>
   <v>       0.01111111 </v>
   <v>       0.01111111 </v>
   <v>       0.01111111 </v>
   <v>       0.01111111 </v>
   <v>       0.01111111 </v>
   <v>       0.01111111 </v>
   <v>       0.01111111 </v>
   <v>       0.01111111 </v>
   <v>       0.01111111 </v>
   <v>       0.01111111 </v>
   <v>       0.01111111 </v>
   <v>       0.01111111 </v>
   <v>       0.01111111 </v>
   <v>       0.01111111 </v>
   <v>       0.01111111 </v>
   <v>       0.01111111 </v>
   <v>       0.01111111 </v>
   <v>       0.01111111 </v>
   <v>       0.01111111 </v>
   <v>       0.01111111 </v>
   <v>       0.01111111 </v>
   <v>       0.01111111 </v>
   <v>       0.01111111 </v>
   <v>       0.01111111 </v>
   <v>       0.01111111 </v>
   <v>       0.01111111 </v>
   <v>       0.01111111 </v>
   <v>       0.01111111 </v>
   <v>       0.01111111 </v>
   <v>       0.01111111 </v>
   <v>       0.01111111 </v>
   <v>       0.01111111 </v>
   <v>       0.01111111 </v>
   <v>       0.01111111 </v>
   <v>       0.01111111 </v>
   <v>       0.01111111 </v>
  </varray>
  <varray name="tetrahedronlist"  type="int" >
   <v type="int" >        2        2        5        6       27 </v>
   <v type="int" >        2        1        2        5       27 </v>
   <v type="int" >        2        1        2       21       27 </v>
   <v type="int" >        2        2        6       27       28 </v>
   <v type="int" >        2        2       22       27       28 </v>
   <v type="int" >        2        2       21       22       27 </v>
   <v type="int" >        2        3        6        7       28 </v>
   <v type="int" >        2        2        3        6       28 </v>
   <v type="int" >        2        2        3       22       28 </v>
   <v type="int" >        2        3        7       28       29 </v>
   <v type="int" >        2        3       23       28       29 </v>
   <v type="int" >        2        3       22       23       28 </v>
   <v type="int" >        2        4        7        8       29 </v>
   <v type="int" >        2        3        4        7       29 </v>
   <v type="int" >        2        3        4       23       29 </v>
   <v type="int" >        2        4        8       29       30 </v>
   <v type="int" >        2        4       24       29       30 </v>
   <v type="int" >        2        4       23       24       29 </v>
   <v type="int" >        2        3        8        9       30 </v>
   <v type="int" >        2        3        4        8       30 </v>
   <v type="int" >        2        3        4       24       30 </v>
   <v type="int" >        2        3        9       30       31 </v>
   <v type="int" >        2        3       25       30       31 </v>
   <v type="int" >        2        3       24       25       30 </v>
   <v type="int" >        2        2        9       10       31 </v>
   <v type="int" >        2        2        3        9       31 </v>
   <v type="int" >        2        2        3       25       31 </v>
   <v type="int" >        2        2       10       31       32 </v>
   <v type="int" >        2        2       26       31       32 </v>
   <v type="int" >        2        2       25       26       31 </v>
   <v type="int" >        2        1        5       10       32 </v>
   <v type="int" >        2        1        2       10       32 </v>
   <v type="int" >        2        1        2       26       32 </v>
   <v type="int" >        2        1        5       27       32 </v>
   <v type="int" >        2        1       21       27       32 </v>
   <v type="int" >        2        1       21       26       32 </v>
   <v type="int" >        2        6       11       12       33 </v>
   <v type="int" >        2        5        6       11       33 </v>
   <v type="int" >        2        5        6       27       33 </v>
   <v type="int" >        2        6       12       33       34 </v>
   <v type="int" >        2        6       28       33       34 </v>
   <v type="int" >        2        6       27       28       33 </v>
   <v type="int" >        2        7       12       13       34 </v>
   <v type="int" >        2        6        7       12       34 </v>
   <v type="int" >        2        6        7       28       34 </v>
   <v type="int" >        2        7       13       34       35 </v>
   <v type="int" >        2        7       29       34       35 </v>
   <v type="int" >        2        7       28       29       34 </v>
   <v type="int" >        2        8       13       14       35 </v>
   <v type="int" >        2        7        8       13       35 </v>
   <v type="int" >        2        7        8       29       35 </v>
   <v type="int" >        2        8       14       35       36 </v>
   <v type="int" >        2        8       30       35       36 </v>
   <v type="int" >        2        8       29       30       35 </v>
   <v type="int" >        2        9       14       15       36 </v>
   <v type="int" >        2        8        9       14       36 </v>
   <v type="int" >        2        8        9       30       36 </v>
   <v type="int" >        2        9       15       36       37 </v>
   <v type="int" >        2        9       31       36       37 </v>
   <v type="int" >        2        9       30       31       36 </v>
   <v type="int" >        2       10       15       16       37 </v>
   <v type="int" >        2        9       10       15       37 </v>
   <v type="int" >        2        9       10       31       37 </v>
   <v type="int" >        2       10       16       37       38 </v>
   <v type="int" >        2       10       32       37       38 </v>
   <v type="int" >        2       10       31       32       37 </v>
   <v type="int" >        2        5       11       16       38 </v>
   <v type="int" >        2        5       10       16       38 </v>
   <v type="int" >        2        5       10       32       38 </v>
   <v type="int" >        2        5       11       33       38 </v>
   <v type="int" >        2        5       27       33       38 </v>
   <v type="int" >        2        5       27       32       38 </v>
   <v type="int" >        2       12       17       18       39 </v>
   <v type="int" >        2       11       12       17       39 </v>
   <v type="int" >        2       11       12       33       39 </v>
   <v type="int" >        2       12       18       39       40 </v>
   <v type="int" >        2       12       34       39       40 </v>
   <v type="int" >        2       12       33       34       39 </v>
   <v type="int" >        2       13       18       19       40 </v>
   <v type="int" >        2       12       13       18       40 </v>
   <v type="int" >        2       12       13       34       40 </v>
   <v type="int" >        2       13       19       40       41 </v>
   <v type="int" >        2       13       35       40       41 </v>
   <v type="int" >        2       13       34       35       40 </v>
   <v type="int" >        2       14       19       20       41 </v>
   <v type="int" >        2       13       14       19       41 </v>
   <v type="int" >        2       13       14       35       41 </v>
   <v type="int" >        2       14       20       41       42 </v>
   <v type="int" >        2       14       36       41       42 </v>
   <v type="int" >        2       14       35       36       41 </v>
   <v type="int" >        2       15       19       20       42 </v>
   <v type="int" >        2       14       15       20       42 </v>
   <v type="int" >        2       14       15       36       42 </v>
   <v type="int" >        2       15       19       42       43 </v>
   <v type="int" >        2       15       37       42       43 </v>
   <v type="int" >        2       15       36       37       42 </v>
   <v type="int" >        2       16       18       19       43 </v>
   <v type="int" >        2       15       16       19       43 </v>
   <v type="int" >        2       15       16       37       43 </v>
   <v type="int" >        2       16       18       43       44 </v>
   <v type="int" >        2       16       38       43       44 </v>
   <v type="int" >        2       16       37       38       43 </v>
   <v type="int" >        2       11       17       18       44 </v>
   <v type="int" >        2       11       16       18       44 </v>
   <v type="int" >        2       11       16       38       44 </v>
   <v type="int" >        2       11       17       39       44 </v>
   <v type="int" >        2       11       33       39       44 </v>
   <v type="int" >        2       11       33       38       44 </v>
   <v type="int" >        2       11       16       18       45 </v>
   <v type="int" >        2       11       17       18       45 </v>
   <v type="int" >        2       17       18       39       45 </v>
   <v type="int" >        2       16       18       45       46 </v>
   <v type="int" >        2       18       40       45       46 </v>
   <v type="int" >        2       18       39       40       45 </v>
   <v type="int" >        2       15       16       19       46 </v>
   <v type="int" >        2       16       18       19       46 </v>
   <v type="int" >        2       18       19       40       46 </v>
   <v type="int" >        2       15       19       46       47 </v>
   <v type="int" >        2       19       41       46       47 </v>
   <v type="int" >        2       19       40       41       46 </v>
   <v type="int" >        2       14       15       20       47 </v>
   <v type="int" >        2       15       19       20       47 </v>
   <v type="int" >        2       19       20       41       47 </v>
   <v type="int" >        2       14       20       47       48 </v>
   <v type="int" >        2       20       42       47       48 </v>
   <v type="int" >        2       20       41       42       47 </v>
   <v type="int" >        2       13       14       19       48 </v>
   <v type="int" >        2       14       19       20       48 </v>
   <v type="int" >        2       19       20       42       48 </v>
   <v type="int" >        2       13       19       48       49 </v>
   <v type="int" >        2       19       43       48       49 </v>
   <v type="int" >        2       19       42       43       48 </v>
   <v type="int" >        2       12       13       18       49 </v>
   <v type="int" >        2       13       18       19       49 </v>
   <v type="int" >        2       18       19       43       49 </v>
   <v type="int" >        2       12       18       49       50 </v>
   <v type="int" >        2       18       44       49       50 </v>
   <v type="int" >        2       18       43       44       49 </v>
   <v type="int" >        2       11       12       17       50 </v>
   <v type="int" >        2       12       17       18       50 </v>
   <v type="int" >        2       17       18       44       50 </v>
   <v type="int" >        2       11       17       45       50 </v>
   <v type="int" >        2       17       39       45       50 </v>
   <v type="int" >        2       17       39       44       50 </v>
   <v type="int" >        2        5       10       16       51 </v>
   <v type="int" >        2        5       11       16       51 </v>
   <v type="int" >        2       11       16       45       51 </v>
   <v type="int" >        2       10       16       51       52 </v>
   <v type="int" >        2       16       46       51       52 </v>
   <v type="int" >        2       16       45       46       51 </v>
   <v type="int" >        2        9       10       15       52 </v>
   <v type="int" >        2       10       15       16       52 </v>
   <v type="int" >        2       15       16       46       52 </v>
   <v type="int" >        2        9       15       52       53 </v>
   <v type="int" >        2       15       47       52       53 </v>
   <v type="int" >        2       15       46       47       52 </v>
   <v type="int" >        2        8        9       14       53 </v>
   <v type="int" >        2        9       14       15       53 </v>
   <v type="int" >        2       14       15       47       53 </v>
   <v type="int" >        2        8       14       53       54 </v>
   <v type="int" >        2       14       48       53       54 </v>
   <v type="int" >        2       14       47       48       53 </v>
   <v type="int" >        2        7        8       13       54 </v>
   <v type="int" >        2        8       13       14       54 </v>
   <v type="int" >        2       13       14       48       54 </v>
   <v type="int" >        2        7       13       54       55 </v>
   <v type="int" >        2       13       49       54       55 </v>
   <v type="int" >        2       13       48       49       54 </v>
   <v type="int" >        2        6        7       12       55 </v>
   <v type="int" >        2        7       12       13       55 </v>
   <v type="int" >        2       12       13       49       55 </v>
   <v type="int" >        2        6       12       55       56 </v>
   <v type="int" >        2       12       50       55       56 </v>
   <v type="int" >        2       12       49       50       55 </v>
   <v type="int" >        2        5        6       11       56 </v>
   <v type="int" >        2        6       11       12       56 </v>
   <v type="int" >        2       11       12       50       56 </v>
   <v type="int" >        2        5       11       51       56 </v>
   <v type="int" >        2       11       45       51       56 </v>
   <v type="int" >        2       11       45       50       56 </v>
   <v type="int" >        2        1        2       10       21 </v>
   <v type="int" >        2        1        5       10       21 </v>
   <v type="int" >        2        5       10       21       51 </v>
   <v type="int" >        2        2       10       21       22 </v>
   <v type="int" >        2       10       21       22       52 </v>
   <v type="int" >        2       10       21       51       52 </v>
   <v type="int" >        2        2        3        9       22 </v>
   <v type="int" >        2        2        9       10       22 </v>
   <v type="int" >        2        9       10       22       52 </v>
   <v type="int" >        2        3        9       22       23 </v>
   <v type="int" >        2        9       22       23       53 </v>
   <v type="int" >        2        9       22       52       53 </v>
   <v type="int" >        2        3        4        8       23 </v>
   <v type="int" >        2        3        8        9       23 </v>
   <v type="int" >        2        8        9       23       53 </v>
   <v type="int" >        2        4        8       23       24 </v>
   <v type="int" >        2        8       23       24       54 </v>
   <v type="int" >        2        8       23       53       54 </v>
   <v type="int" >        2        3        4        7       24 </v>
   <v type="int" >        2        4        7        8       24 </v>
   <v type="int" >        2        7        8       24       54 </v>
   <v type="int" >        2        3        7       24       25 </v>
   <v type="int" >        2        7       24       25       55 </v>
   <v type="int" >        2        7       24       54       55 </v>
   <v type="int" >        2        2        3        6       25 </v>
   <v type="int" >        2        3        6        7       25 </v>
   <v type="int" >        2        6        7       25       55 </v>
   <v type="int" >        2        2        6       25       26 </v>
   <v type="int" >        2        6       25       26       56 </v>
   <v type="int" >        2        6       25       55       56 </v>
   <v type="int" >        2        1        2        5       26 </v>
   <v type="int" >        2        2        5        6       26 </v>
   <v type="int" >        2        5        6       26       56 </v>
   <v type="int" >        2        1        5       21       26 </v>
   <v type="int" >        2        5       21       26       51 </v>
   <v type="int" >        2        5       26       51       56 </v>
   <v type="int" >        2       22       27       28       63 </v>
   <v type="int" >        2       21       22       27       63 </v>
   <v type="int" >        2       21       22       57       63 </v>
   <v type="int" >        2       22       28       63       64 </v>
   <v type="int" >        2       22       58       63       64 </v>
   <v type="int" >        2       22       57       58       63 </v>
   <v type="int" >        2       23       28       29       64 </v>
   <v type="int" >        2       22       23       28       64 </v>
   <v type="int" >        2       22       23       58       64 </v>
   <v type="int" >        2       23       29       64       65 </v>
   <v type="int" >        2       23       59       64       65 </v>
   <v type="int" >        2       23       58       59       64 </v>
   <v type="int" >        2       24       29       30       65 </v>
   <v type="int" >        2       23       24       29       65 </v>
   <v type="int" >        2       23       24       59       65 </v>
   <v type="int" >        2       24       30       65       66 </v>
   <v type="int" >        2       24       60       65       66 </v>
   <v type="int" >        2       24       59       60       65 </v>
   <v type="int" >        2       25       30       31       66 </v>
   <v type="int" >        2       24       25       30       66 </v>
   <v type="int" >        2       24       25       60       66 </v>
   <v type="int" >        2       25       31       66       67 </v>
   <v type="int" >        2       25       61       66       67 </v>
   <v type="int" >        2       25       60       61       66 </v>
   <v type="int" >        2       26       31       32       67 </v>
   <v type="int" >        2       25       26       31       67 </v>
   <v type="int" >        2       25       26       61       67 </v>
   <v type="int" >        2       26       32       67       68 </v>
   <v type="int" >        2       26       62       67       68 </v>
   <v type="int" >        2       26       61       62       67 </v>
   <v type="int" >        2       21       27       32       68 </v>
   <v type="int" >        2       21       26       32       68 </v>
   <v type="int" >        2       21       26       62       68 </v>
   <v type="int" >        2       21       27       63       68 </v>
   <v type="int" >        2       21       57       63       68 </v>
   <v type="int" >        2       21       57       62       68 </v>
   <v type="int" >        2       28       33       34       69 </v>
   <v type="int" >        2       27       28       33       69 </v>
   <v type="int" >        2       27       28       63       69 </v>
   <v type="int" >        2       28       34       69       70 </v>
   <v type="int" >        2       28       64       69       70 </v>
   <v type="int" >        2       28       63       64       69 </v>
   <v type="int" >        2       29       34       35       70 </v>
   <v type="int" >        2       28       29       34       70 </v>
   <v type="int" >        2       28       29       64       70 </v>
   <v type="int" >        2       29       35       70       71 </v>
   <v type="int" >        2       29       65       70       71 </v>
   <v type="int" >        2       29       64       65       70 </v>
   <v type="int" >        2       30       35       36       71 </v>
   <v type="int" >        2       29       30       35       71 </v>
   <v type="int" >        2       29       30       65       71 </v>
   <v type="int" >        2       30       36       71       72 </v>
   <v type="int" >        2       30       66       71       72 </v>
   <v type="int" >        2       30       65       66       71 </v>
   <v type="int" >        2       31       36       37       72 </v>
   <v type="int" >        2       30       31       36       72 </v>
   <v type="int" >        2       30       31       66       72 </v>
   <v type="int" >        2       31       37       72       73 </v>
   <v type="int" >        2       31       67       72       73 </v>
   <v type="int" >        2       31       66       67       72 </v>
   <v type="int" >        2       32       37       38       73 </v>
   <v type="int" >        2       31       32       37       73 </v>
   <v type="int" >        2       31       32       67       73 </v>
   <v type="int" >        2       32       38       73       74 </v>
   <v type="int" >        2       32       68       73       74 </v>
   <v type="int" >        2       32       67       68       73 </v>
   <v type="int" >        2       27       33       38       74 </v>
   <v type="int" >        2       27       32       38       74 </v>
   <v type="int" >        2       27       32       68       74 </v>
   <v type="int" >        2       27       33       69       74 </v>
   <v type="int" >        2       27       63       69       74 </v>
   <v type="int" >        2       27       63       68       74 </v>
   <v type="int" >        2       34       39       40       75 </v>
   <v type="int" >        2       33       34       39       75 </v>
   <v type="int" >        2       33       34       69       75 </v>
   <v type="int" >        2       34       40       75       76 </v>
   <v type="int" >        2       34       70       75       76 </v>
   <v type="int" >        2       34       69       70       75 </v>
   <v type="int" >        2       35       40       41       76 </v>
   <v type="int" >        2       34       35       40       76 </v>
   <v type="int" >        2       34       35       70       76 </v>
   <v type="int" >        2       35       41       76       77 </v>
   <v type="int" >        2       35       71       76       77 </v>
   <v type="int" >        2       35       70       71       76 </v>
   <v type="int" >        2       36       41       42       77 </v>
   <v type="int" >        2       35       36       41       77 </v>
   <v type="int" >        2       35       36       71       77 </v>
   <v type="int" >        2       36       42       77       78 </v>
   <v type="int" >        2       36       72       77       78 </v>
   <v type="int" >        2       36       71       72       77 </v>
   <v type="int" >        2       37       42       43       78 </v>
   <v type="int" >        2       36       37       42       78 </v>
   <v type="int" >        2       36       37       72       78 </v>
   <v type="int" >        2       37       43       78       79 </v>
   <v type="int" >        2       37       73       78       79 </v>
   <v type="int" >        2       37       72       73       78 </v>
   <v type="int" >        2       38       43       44       79 </v>
   <v type="int" >        2       37       38       43       79 </v>
   <v type="int" >        2       37       38       73       79 </v>
   <v type="int" >        2       38       44       79       80 </v>
   <v type="int" >        2       38       74       79       80 </v>
   <v type="int" >        2       38       73       74       79 </v>
   <v type="int" >        2       33       39       44       80 </v>
   <v type="int" >        2       33       38       44       80 </v>
   <v type="int" >        2       33       38       74       80 </v>
   <v type="int" >        2       33       39       75       80 </v>
   <v type="int" >        2       33       69       75       80 </v>
   <v type="int" >        2       33       69       74       80 </v>
   <v type="int" >        2       40       45       46       81 </v>
   <v type="int" >        2       39       40       45       81 </v>
   <v type="int" >        2       39       40       75       81 </v>
   <v type="int" >        2       40       46       81       82 </v>
   <v type="int" >        2       40       76       81       82 </v>
   <v type="int" >        2       40       75       76       81 </v>
   <v type="int" >        2       41       46       47       82 </v>
   <v type="int" >        2       40       41       46       82 </v>
   <v type="int" >        2       40       41       76       82 </v>
   <v type="int" >        2       41       47       82       83 </v>
   <v type="int" >        2       41       77       82       83 </v>
   <v type="int" >        2       41       76       77       82 </v>
   <v type="int" >        2       42       47       48       83 </v>
   <v type="int" >        2       41       42       47       83 </v>
   <v type="int" >        2       41       42       77       83 </v>
   <v type="int" >        2       42       48       83       84 </v>
   <v type="int" >        2       42       78       83       84 </v>
   <v type="int" >        2       42       77       78       83 </v>
   <v type="int" >        2       43       48       49       84 </v>
   <v type="int" >        2       42       43       48       84 </v>
   <v type="int" >        2       42       43       78       84 </v>
   <v type="int" >        2       43       49       84       85 </v>
   <v type="int" >        2       43       79       84       85 </v>
   <v type="int" >        2       43       78       79       84 </v>
   <v type="int" >        2       44       49       50       85 </v>
   <v type="int" >        2       43       44       49       85 </v>
   <v type="int" >        2       43       44       79       85 </v>
   <v type="int" >        2       44       50       85       86 </v>
   <v type="int" >        2       44       80       85       86 </v>
   <v type="int" >        2       44       79       80       85 </v>
   <v type="int" >        2       39       45       50       86 </v>
   <v type="int" >        2       39       44       50       86 </v>
   <v type="int" >        2       39       44       80       86 </v>
   <v type="int" >        2       39       45       81       86 </v>
   <v type="int" >        2       39       75       81       86 </v>
   <v type="int" >        2       39       75       80       86 </v>
   <v type="int" >        2       46       51       52       87 </v>
   <v type="int" >        2       45       46       51       87 </v>
   <v type="int" >        2       45       46       81       87 </v>
   <v type="int" >        2       46       52       87       88 </v>
   <v type="int" >        2       46       82       87       88 </v>
   <v type="int" >        2       46       81       82       87 </v>
   <v type="int" >        2       47       52       53       88 </v>
   <v type="int" >        2       46       47       52       88 </v>
   <v type="int" >        2       46       47       82       88 </v>
   <v type="int" >        2       47       53       88       89 </v>
   <v type="int" >        2       47       83       88       89 </v>
   <v type="int" >        2       47       82       83       88 </v>
   <v type="int" >        2       48       53       54       89 </v>
   <v type="int" >        2       47       48       53       89 </v>
   <v type="int" >        2       47       48       83       89 </v>
   <v type="int" >        2       48       54       89       90 </v>
   <v type="int" >        2       48       84       89       90 </v>
   <v type="int" >        2       48       83       84       89 </v>
   <v type="int" >        2       49       54       55       90 </v>
   <v type="int" >        2       48       49       54       90 </v>
   <v type="int" >        2       48       49       84       90 </v>
   <v type="int" >        2       49       55       90       91 </v>
   <v type="int" >        2       49       85       90       91 </v>
   <v type="int" >        2       49       84       85       90 </v>
   <v type="int" >        2       50       55       56       91 </v>
   <v type="int" >        2       49       50       55       91 </v>
   <v type="int" >        2       49       50       85       91 </v>
   <v type="int" >        2       50       56       91       92 </v>
   <v type="int" >        2       50       86       91       92 </v>
   <v type="int" >        2       50       85       86       91 </v>
   <v type="int" >        2       45       51       56       92 </v>
   <v type="int" >        2       45       50       56       92 </v>
   <v type="int" >        2       45       50       86       92 </v>
   <v type="int" >        2       45       51       87       92 </v>
   <v type="int" >        2       45       81       87       92 </v>
   <v type="int" >        2       45       81       86       92 </v>
   <v type="int" >        2       21       22       52       57 </v>
   <v type="int" >        2       21       51       52       57 </v>
   <v type="int" >        2       51       52       57       87 </v>
   <v type="int" >        2       22       52       57       58 </v>
   <v type="int" >        2       52       57       58       88 </v>
   <v type="int" >        2       52       57       87       88 </v>
   <v type="int" >        2       22       23       53       58 </v>
   <v type="int" >        2       22       52       53       58 </v>
   <v type="int" >        2       52       53       58       88 </v>
   <v type="int" >        2       23       53       58       59 </v>
   <v type="int" >        2       53       58       59       89 </v>
   <v type="int" >        2       53       58       88       89 </v>
   <v type="int" >        2       23       24       54       59 </v>
   <v type="int" >        2       23       53       54       59 </v>
   <v type="int" >        2       53       54       59       89 </v>
   <v type="int" >        2       24       54       59       60 </v>
   <v type="int" >        2       54       59       60       90 </v>
   <v type="int" >        2       54       59       89       90 </v>
   <v type="int" >        2       24       25       55       60 </v>
   <v type="int" >        2       24       54       55       60 </v>
   <v type="int" >        2       54       55       60       90 </v>
   <v type="int" >        2       25       55       60       61 </v>
   <v type="int" >        2       55       60       61       91 </v>
   <v type="int" >        2       55       60       90       91 </v>
   <v type="int" >        2       25       26       56       61 </v>
   <v type="int" >        2       25       55       56       61 </v>
   <v type="int" >        2       55       56       61       91 </v>
   <v type="int" >        2       26       56       61       62 </v>
   <v type="int" >        2       56       61       62       92 </v>
   <v type="int" >        2       56       61       91       92 </v>
   <v type="int" >        2       21       26       51       62 </v>
   <v type="int" >        2       26       51       56       62 </v>
   <v type="int" >        2       51       56       62       92 </v>
   <v type="int" >        2       21       51       57       62 </v>
   <v type="int" >        2       51       57       62       87 </v>
   <v type="int" >        2       51       62       87       92 </v>
   <v type="int" >        2       58       63       64       87 </v>
   <v type="int" >        2       57       58       63       87 </v>
   <v type="int" >        2       57       57       58       87 </v>
   <v type="int" >        2       58       64       87       92 </v>
   <v type="int" >        2       58       62       87       92 </v>
   <v type="int" >        2       57       58       62       87 </v>
   <v type="int" >        2       59       64       65       92 </v>
   <v type="int" >        2       58       59       64       92 </v>
   <v type="int" >        2       58       59       62       92 </v>
   <v type="int" >        2       59       65       91       92 </v>
   <v type="int" >        2       59       61       91       92 </v>
   <v type="int" >        2       59       61       62       92 </v>
   <v type="int" >        2       60       65       66       91 </v>
   <v type="int" >        2       59       60       65       91 </v>
   <v type="int" >        2       59       60       61       91 </v>
   <v type="int" >        2       60       66       90       91 </v>
   <v type="int" >        2       60       60       90       91 </v>
   <v type="int" >        2       60       60       61       91 </v>
   <v type="int" >        2       61       66       67       90 </v>
   <v type="int" >        2       60       61       66       90 </v>
   <v type="int" >        2       60       60       61       90 </v>
   <v type="int" >        2       61       67       89       90 </v>
   <v type="int" >        2       59       61       89       90 </v>
   <v type="int" >        2       59       60       61       90 </v>
   <v type="int" >        2       62       67       68       89 </v>
   <v type="int" >        2       61       62       67       89 </v>
   <v type="int" >        2       59       61       62       89 </v>
   <v type="int" >        2       62       68       88       89 </v>
   <v type="int" >        2       58       62       88       89 </v>
   <v type="int" >        2       58       59       62       89 </v>
   <v type="int" >        2       57       63       68       88 </v>
   <v type="int" >        2       57       62       68       88 </v>
   <v type="int" >        2       57       58       62       88 </v>
   <v type="int" >        2       57       63       87       88 </v>
   <v type="int" >        2       57       57       87       88 </v>
   <v type="int" >        2       57       57       58       88 </v>
   <v type="int" >        2       64       69       70       81 </v>
   <v type="int" >        2       63       64       69       81 </v>
   <v type="int" >        2       63       64       81       87 </v>
   <v type="int" >        2       64       70       81       86 </v>
   <v type="int" >        2       64       81       86       92 </v>
   <v type="int" >        2       64       81       87       92 </v>
   <v type="int" >        2       65       70       71       86 </v>
   <v type="int" >        2       64       65       70       86 </v>
   <v type="int" >        2       64       65       86       92 </v>
   <v type="int" >        2       65       71       85       86 </v>
   <v type="int" >        2       65       85       86       91 </v>
   <v type="int" >        2       65       86       91       92 </v>
   <v type="int" >        2       66       71       72       85 </v>
   <v type="int" >        2       65       66       71       85 </v>
   <v type="int" >        2       65       66       85       91 </v>
   <v type="int" >        2       66       72       84       85 </v>
   <v type="int" >        2       66       84       85       90 </v>
   <v type="int" >        2       66       85       90       91 </v>
   <v type="int" >        2       67       72       73       84 </v>
   <v type="int" >        2       66       67       72       84 </v>
   <v type="int" >        2       66       67       84       90 </v>
   <v type="int" >        2       67       73       83       84 </v>
   <v type="int" >        2       67       83       84       89 </v>
   <v type="int" >        2       67       84       89       90 </v>
   <v type="int" >        2       68       73       74       83 </v>
   <v type="int" >        2       67       68       73       83 </v>
   <v type="int" >        2       67       68       83       89 </v>
   <v type="int" >        2       68       74       82       83 </v>
   <v type="int" >        2       68       82       83       88 </v>
   <v type="int" >        2       68       83       88       89 </v>
   <v type="int" >        2       63       69       74       82 </v>
   <v type="int" >        2       63       68       74       82 </v>
   <v type="int" >        2       63       68       82       88 </v>
   <v type="int" >        2       63       69       81       82 </v>
   <v type="int" >        2       63       81       82       87 </v>
   <v type="int" >        2       63       82       87       88 </v>
   <v type="int" >        2       70       75       75       76 </v>
   <v type="int" >        2       69       70       75       75 </v>
   <v type="int" >        2       69       70       75       81 </v>
   <v type="int" >        2       70       75       76       80 </v>
   <v type="int" >        2       70       75       80       86 </v>
   <v type="int" >        2       70       75       81       86 </v>
   <v type="int" >        2       71       76       77       80 </v>
   <v type="int" >        2       70       71       76       80 </v>
   <v type="int" >        2       70       71       80       86 </v>
   <v type="int" >        2       71       77       79       80 </v>
   <v type="int" >        2       71       79       80       85 </v>
   <v type="int" >        2       71       80       85       86 </v>
   <v type="int" >        2       72       77       78       79 </v>
   <v type="int" >        2       71       72       77       79 </v>
   <v type="int" >        2       71       72       79       85 </v>
   <v type="int" >        2       72       78       78       79 </v>
   <v type="int" >        2       72       78       79       84 </v>
   <v type="int" >        2       72       79       84       85 </v>
   <v type="int" >        2       73       78       78       79 </v>
   <v type="int" >        2       72       73       78       78 </v>
   <v type="int" >        2       72       73       78       84 </v>
   <v type="int" >        2       73       77       78       79 </v>
   <v type="int" >        2       73       77       78       83 </v>
   <v type="int" >        2       73       78       83       84 </v>
   <v type="int" >        2       74       77       79       80 </v>
   <v type="int" >        2       73       74       77       79 </v>
   <v type="int" >        2       73       74       77       83 </v>
   <v type="int" >        2       74       76       77       80 </v>
   <v type="int" >        2       74       76       77       82 </v>
   <v type="int" >        2       74       77       82       83 </v>
   <v type="int" >        2       69       75       76       80 </v>
   <v type="int" >        2       69       74       76       80 </v>
   <v type="int" >        2       69       74       76       82 </v>
   <v type="int" >        2       69       75       75       76 </v>
   <v type="int" >        2       69       75       76       81 </v>
   <v type="int" >        2       69       76       81       82 </v>
  </varray>
  <i name="volumeweight">      0.00092593 </i>
 </kpoints>
 <parameters>
  <separator name="general" >
   <i type="string" name="SYSTEM">unknown system</i>
   <i type="logical" name="LCOMPAT"> F  </i>
  </separator>
  <separator name="electronic" >
   <i type="string" name="PREC">normal</i>
   <i name="ENMAX">    800.00000000</i>
   <i name="ENAUG">    605.39200000</i>
   <i name="EDIFF">      0.00001000</i>
   <i type="int" name="IALGO">    68</i>
   <i type="int" name="IWAVPR">    10</i>
   <i type="int" name="NBANDS">    29</i>
   <i name="NELECT">     48.00000000</i>
   <i type="int" name="TURBO">     0</i>
   <i type="int" name="IRESTART">     0</i>
   <i type="int" name="NREBOOT">     0</i>
   <i type="int" name="NMIN">     0</i>
   <i name="EREF">      0.00000000</i>
   <separator name="electronic smearing" >
    <i type="int" name="ISMEAR">    -5</i>
    <i name="SIGMA">      0.20000000</i>
    <i name="KSPACING">      0.50000000</i>
    <i type="logical" name="KGAMMA"> T  </i>
   </separator>
   <separator name="electronic projectors" >
    <i type="logical" name="LREAL"> T  </i>
    <v name="ROPT">     -0.00050000     -0.00050000</v>
    <i type="int" name="LMAXPAW">  -100</i>
    <i type="int" name="LMAXMIX">     2</i>
    <i type="logical" name="NLSPLINE"> F  </i>
   </separator>
   <separator name="electronic startup" >
    <i type="int" name="ISTART">     0</i>
    <i type="int" name="ICHARG">     2</i>
    <i type="int" name="INIWAV">     1</i>
   </separator>
   <separator name="electronic spin" >
    <i type="int" name="ISPIN">     1</i>
    <i type="logical" name="LNONCOLLINEAR"> F  </i>
    <v name="MAGMOM">      1.00000000      1.00000000      1.00000000      1.00000000      1.00000000      1.00000000      1.00000000      1.00000000      1.00000000</v>
    <i name="NUPDOWN">     -1.00000000</i>
    <i type="logical" name="LSORBIT"> F  </i>
    <v name="SAXIS">      0.00000000      0.00000000      1.00000000</v>
    <i type="logical" name="LSPIRAL"> F  </i>
    <v name="QSPIRAL">      0.00000000      0.00000000      0.00000000</v>
    <i type="logical" name="LZEROZ"> F  </i>
   </separator>
   <separator name="electronic exchange-correlation" >
    <i type="logical" name="LASPH"> F  </i>
    <i type="logical" name="LMETAGGA"> F  </i>
   </separator>
   <separator name="electronic convergence" >
    <i type="int" name="NELM">    60</i>
    <i type="int" name="NELMDL">    -5</i>
    <i type="int" name="NELMIN">     4</i>
    <i name="ENINI">    800.00000000</i>
    <separator name="electronic convergence detail" >
     <i type="logical" name="LDIAG"> T  </i>
     <i type="logical" name="LSUBROT"> F  </i>
     <i name="WEIMIN">      0.00000000</i>
     <i name="EBREAK">      0.00000009</i>
     <i name="DEPER">      0.30000000</i>
     <i type="int" name="NRMM">     4</i>
     <i name="TIME">      0.40000000</i>
    </separator>
   </separator>
   <separator name="electronic mixer" >
    <i name="AMIX">      0.40000000</i>
    <i name="BMIX">      1.00000000</i>
    <i name="AMIN">      0.10000000</i>
    <i name="AMIX_MAG">      1.60000000</i>
    <i name="BMIX_MAG">      1.00000000</i>
    <separator name="electronic mixer details" >
     <i type="int" name="IMIX">     4</i>
     <i type="logical" name="MIXFIRST"> F  </i>
     <i type="int" name="MAXMIX">   -45</i>
     <i name="WC">    100.00000000</i>
     <i type="int" name="INIMIX">     1</i>
     <i type="int" name="MIXPRE">     1</i>
     <i type="int" name="MREMOVE">     5</i>
    </separator>
   </separator>
   <separator name="electronic dipolcorrection" >
    <i type="logical" name="LDIPOL"> F  </i>
    <i type="logical" name="LMONO"> F  </i>
    <i type="int" name="IDIPOL">     0</i>
    <i name="EPSILON">      1.00000000</i>
    <v name="DIPOL">   -100.00000000   -100.00000000   -100.00000000</v>
    <i name="EFIELD">      0.00000000</i>
   </separator>
  </separator>
  <separator name="grids" >
   <i type="int" name="NGX">    36</i>
   <i type="int" name="NGY">    36</i>
   <i type="int" name="NGZ">    40</i>
   <i type="int" name="NGXF">    72</i>
   <i type="int" name="NGYF">    72</i>
   <i type="int" name="NGZF">    80</i>
   <i type="logical" name="ADDGRID"> F  </i>
  </separator>
  <separator name="ionic" >
   <i type="int" name="NSW">     0</i>
   <i type="int" name="IBRION">    -1</i>
   <i type="int" name="ISIF">     2</i>
   <i name="PSTRESS">      0.00000000</i>
   <i name="EDIFFG">      0.00010000</i>
   <i type="int" name="NFREE">     0</i>
   <i name="POTIM">      0.50000000</i>
   <i name="SMASS">     -3.00000000</i>
   <i name="SCALEE">      1.00000000</i>
  </separator>
  <separator name="ionic md" >
   <i name="TEBEG">      0.00010000</i>
   <i name="TEEND">      0.00010000</i>
   <i type="int" name="NBLOCK">     1</i>
   <i type="int" name="KBLOCK">     1</i>
   <i type="int" name="NPACO">   256</i>
   <i name="APACO">     16.00000000</i>
  </separator>
  <separator name="symmetry" >
   <i type="int" name="ISYM">     2</i>
   <i name="SYMPREC">      0.00001000</i>
  </separator>
  <separator name="dos" >
   <i type="logical" name="LORBIT"> F  </i>
   <v name="RWIGS">     -1.00000000     -1.00000000</v>
   <i type="int" name="NEDOS">   301</i>
   <i name="EMIN">     10.00000000</i>
   <i name="EMAX">    -10.00000000</i>
   <i name="EFERMI">      0.00000000</i>
  </separator>
  <separator name="writing" >
   <i type="int" name="NWRITE">     2</i>
   <i type="logical" name="LWAVE"> F  </i>
   <i type="logical" name="LCHARG"> T  </i>
   <i type="logical" name="LPARD"> F  </i>
   <i type="logical" name="LVTOT"> F  </i>
   <i type="logical" name="LVHAR"> F  </i>
   <i type="logical" name="LELF"> F  </i>
   <i type="logical" name="LOPTICS"> F  </i>
   <v name="STM">      0.00000000      0.00000000      0.00000000      0.00000000      0.00000000      0.00000000      0.00000000</v>
  </separator>
  <separator name="performance" >
   <i type="int" name="NPAR">     1</i>
   <i type="int" name="NSIM">     4</i>
   <i type="int" name="NBLK">    -1</i>
   <i type="logical" name="LPLANE"> T  </i>
   <i type="logical" name="LSCALAPACK"> F  </i>
   <i type="logical" name="LSCAAWARE"> F  </i>
   <i type="logical" name="LSCALU"> F  </i>
   <i type="logical" name="LASYNC"> F  </i>
   <i type="logical" name="LORBITALREAL"> F  </i>
  </separator>
  <separator name="miscellaneous" >
   <i type="int" name="IDIOT">     3</i>
   <i type="logical" name="LMUSIC"> F  </i>
   <v name="POMASS">     28.08500000     16.00000000</v>
   <v name="DARWINR">      0.00000000      0.00000000</v>
   <v name="DARWINV">      1.00000000      1.00000000</v>
   <i type="logical" name="LCORR"> T  </i>
  </separator>
  <i type="logical" name="GGA_COMPAT"> T  </i>
  <i type="logical" name="LBERRY"> F  </i>
  <i type="int" name="ICORELEVEL">     0</i>
  <i type="logical" name="LDAU"> F  </i>
  <i type="int" name="I_CONSTRAINED_M">     0</i>
  <separator name="electronic exchange-correlation" >
   <i type="string" name="GGA">--</i>
   <i type="int" name="VOSKOWN">     0</i>
   <i type="logical" name="LHFCALC"> F  </i>
   <i type="string" name="PRECFOCK"></i>
   <i type="logical" name="LSYMGRAD"> F  </i>
   <i type="logical" name="LHFONE"> F  </i>
   <i type="logical" name="LRHFCALC"> F  </i>
   <i type="logical" name="LTHOMAS"> F  </i>
   <i type="logical" name="LMODELHF"> F  </i>
   <i name="ENCUT4O">     -1.00000000</i>
   <i type="int" name="EXXOEP">     0</i>
   <i type="int" name="FOURORBIT">     0</i>
   <i name="AEXX">      0.00000000</i>
   <i name="HFALPHA">      0.00000000</i>
   <i name="MCALPHA">      0.00000000</i>
   <i name="ALDAX">      1.00000000</i>
   <i name="AGGAX">      1.00000000</i>
   <i name="ALDAC">      1.00000000</i>
   <i name="AGGAC">      1.00000000</i>
   <i type="int" name="NKREDX">     1</i>
   <i type="int" name="NKREDY">     1</i>
   <i type="int" name="NKREDZ">     1</i>
   <i type="logical" name="SHIFTRED"> F  </i>
   <i type="logical" name="ODDONLY"> F  </i>
   <i type="logical" name="EVENONLY"> F  </i>
   <i type="int" name="LMAXFOCK">     0</i>
   <i type="int" name="NMAXFOCKAE">     0</i>
   <i type="logical" name="LFOCKAEDFT"> F  </i>
   <i name="HFSCREEN">      0.00000000</i>
   <i name="HFSCREENC">      0.00000000</i>
   <i type="int" name="NBANDSGWLOW">     0</i>
  </separator>
  <separator name="vdW DFT" >
   <i type="logical" name="LUSE_VDW"> F  </i>
   <i name="Zab_VDW">     -0.84910000</i>
   <i name="PARAM1">      0.12340000</i>
   <i name="PARAM2">      1.00000000</i>
   <i name="PARAM3">      0.00000000</i>
  </separator>
  <separator name="model GW" >
   <i type="int" name="MODEL_GW">     0</i>
   <i name="MODEL_EPS0">      7.53464495</i>
   <i name="MODEL_ALPHA">      1.00000000</i>
  </separator>
  <separator name="linear response parameters" >
   <i type="logical" name="LEPSILON"> F  </i>
   <i type="logical" name="LRPA"> F  </i>
   <i type="logical" name="LNABLA"> F  </i>
   <i type="logical" name="LVEL"> F  </i>
   <i type="int" name="KINTER">     0</i>
   <i name="CSHIFT">      0.10000000</i>
   <i name="OMEGAMAX">     -1.00000000</i>
   <i name="DEG_THRESHOLD">      0.00200000</i>
  </separator>
  <separator name="orbital magnetization" >
   <i type="logical" name="NUCIND"> F  </i>
   <v name="MAGPOS">      0.00000000      0.00000000      0.00000000</v>
   <i type="logical" name="LNICSALL"> T  </i>
   <i type="logical" name="ORBITALMAG"> F  </i>
   <i type="logical" name="LMAGBLOCH"> F  </i>
   <i type="logical" name="LCHIMAG"> F  </i>
   <i type="logical" name="LGAUGE"> T  </i>
   <i type="int" name="MAGATOM">     0</i>
   <v name="MAGDIPOL">      0.00000000      0.00000000      0.00000000</v>
   <v name="AVECCONST">      0.00000000      0.00000000      0.00000000</v>
  </separator>
  <separator name="response functions" >
   <i type="logical" name="LADDER"> F  </i>
   <i type="logical" name="LFXC"> F  </i>
   <i type="logical" name="LHARTREE"> T  </i>
   <i type="int" name="IBSE">     0</i>
   <v type="int" name="KPOINT">    -1     0     0     0</v>
   <i type="logical" name="LTCTE"> F  </i>
   <i type="logical" name="LTETE"> F  </i>
   <i type="logical" name="LTRIPLET"> F  </i>
   <i type="logical" name="LFXCEPS"> F  </i>
   <i type="logical" name="LFXHEG"> F  </i>
   <i type="int" name="NATURALO">     0</i>
   <i type="logical" name="L2ORDER"> F  </i>
   <i type="logical" name="LUSEW"> F  </i>
   <i name="ENCUTGW">     -2.00000000</i>
   <i name="ENCUTGWSOFT">     -2.00000000</i>
   <i name="ENCUTLF">     -1.00000000</i>
   <i type="int" name="LMAXMP2">    -1</i>
   <i name="SCISSOR">      0.00000000</i>
   <i type="int" name="NOMEGA">     0</i>
   <i type="int" name="NOMEGAR">     0</i>
   <i type="int" name="NBANDSGW">    -1</i>
   <i type="int" name="NBANDSO">    -1</i>
   <i type="int" name="NBANDSV">    -1</i>
   <i type="int" name="NELM">     1</i>
   <i type="int" name="NELMHF">     1</i>
   <i type="int" name="DIM">     3</i>
   <i type="int" name="ANTIRES">     0</i>
   <i name="OMEGAMAX">    -30.00000000</i>
   <i name="OMEGAMIN">    -30.00000000</i>
   <i name="OMEGATL">   -200.00000000</i>
   <i type="int" name="OMEGAGRID">     0</i>
   <i name="CSHIFT">     -0.10000000</i>
   <i type="logical" name="SELFENERGY"> F  </i>
   <i type="logical" name="LSPECTRAL"> F  </i>
   <i type="logical" name="LSPECTRALGW"> F  </i>
   <i type="logical" name="LSINGLES"> F  </i>
   <i type="logical" name="LFERMIGW"> F  </i>
   <i type="logical" name="ODDONLYGW"> F  </i>
   <i type="logical" name="EVENONLYGW"> F  </i>
   <i type="int" name="NKREDLFX">     1</i>
   <i type="int" name="NKREDLFY">     1</i>
   <i type="int" name="NKREDLFZ">     1</i>
   <i type="int" name="MAXMEM">  1800</i>
   <i type="int" name="TELESCOPE">     0</i>
   <i type="int" name="TAUPAR">     1</i>
   <i type="int" name="OMEGAPAR">    -1</i>
   <i name="LAMBDA">      1.00000000</i>
  </separator>
  <separator name="External order field" >
   <i name="OFIELD_KAPPA">      0.00000000</i>
   <v name="OFIELD_K">      0.00000000      0.00000000      0.00000000</v>
   <i name="OFIELD_Q6_NEAR">      0.00000000</i>
   <i name="OFIELD_Q6_FAR">      0.00000000</i>
   <i name="OFIELD_A">      0.00000000</i>
  </separator>
 </parameters>
 <atominfo>
  <atoms>       9 </atoms>
  <types>       2 </types>
  <array name="atoms" >
   <dimension dim="1">ion</dimension>
   <field type="string">element</field>
   <field type="int">atomtype</field>
   <set>
    <rc><c>Si</c><c>   1</c></rc>
    <rc><c>Si</c><c>   1</c></rc>
    <rc><c>Si</c><c>   1</c></rc>
    <rc><c>O </c><c>   2</c></rc>
    <rc><c>O </c><c>   2</c></rc>
    <rc><c>O </c><c>   2</c></rc>
    <rc><c>O </c><c>   2</c></rc>
    <rc><c>O </c><c>   2</c></rc>
    <rc><c>O </c><c>   2</c></rc>
   </set>
  </array>
  <array name="atomtypes" >
   <dimension dim="1">type</dimension>
   <field type="int">atomspertype</field>
   <field type="string">element</field>
   <field>mass</field>
   <field>valence</field>
   <field type="string">pseudopotential</field>
   <set>
    <rc><c>   3</c><c>Si</c><c>     28.08500000</c><c>      4.00000000</c><c> PAW_PBE Si 05Jan2001                   </c></rc>
    <rc><c>   6</c><c>O </c><c>     16.00000000</c><c>      6.00000000</c><c> PAW_PBE O 08Apr2002                    </c></rc>
   </set>
  </array>
 </atominfo>
 <structure name="initialpos" >
  <crystal>
   <varray name="basis" >
    <v>       4.91370000       0.00000000       0.00000000 </v>
    <v>      -2.45685000       4.25538903       0.00000000 </v>
    <v>       0.00000000       0.00000000       5.40513000 </v>
   </varray>
   <i name="volume">    113.01967420 </i>
   <varray name="rec_basis" >
    <v>       0.20351263       0.11749807       0.00000000 </v>
    <v>       0.00000000       0.23499614       0.00000000 </v>
    <v>       0.00000000       0.00000000       0.18500943 </v>
   </varray>
  </crystal>
  <varray name="positions" >
   <v>       0.46980000       0.02000000       0.66667000 </v>
   <v>       0.00000000       0.46980000       0.33333000 </v>
   <v>       0.53020000       0.53020000       0.00000000 </v>
   <v>       0.41450000       0.26620000       0.78560000 </v>
   <v>       0.73380000       0.14830000       0.45227000 </v>
   <v>       0.85170000       0.58550000       0.11893000 </v>
   <v>       0.14830000       0.73380000       0.54773000 </v>
   <v>       0.26620000       0.41450000       0.21440000 </v>
   <v>       0.58550000       0.85170000       0.88107000 </v>
  </varray>
 </structure>
 <calculation>
  <scstep>
   <time name="dav">   18.94   18.93</time>
   <time name="total">   19.20   20.36</time>
   <energy>
    <i name="alphaZ">     69.72802778 </i>
    <i name="ewald">  -1886.62880430 </i>
    <i name="hartreedc">   -937.03789542 </i>
    <i name="XCdc">    142.00811429 </i>
    <i name="pawpsdc">   1574.92322788 </i>
    <i name="pawaedc">  -1533.24131965 </i>
    <i name="eentropy">      0.00000000 </i>
    <i name="bandstr">     60.73208970 </i>
    <i name="atom">   2903.44817585 </i>
    <i name="e_fr_energy">    393.93161613 </i>
    <i name="e_wo_entrp">    393.93161613 </i>
    <i name="e_0_energy">    393.93161613 </i>
   </energy>
  </scstep>
  <scstep>
   <time name="dav">   24.33   24.33</time>
   <time name="total">   24.34   24.34</time>
   <energy>
    <i name="e_fr_energy">    -54.57890470 </i>
    <i name="e_wo_entrp">    -54.57890470 </i>
    <i name="e_0_energy">    -54.57890470 </i>
   </energy>
  </scstep>
  <scstep>
   <time name="dav">   21.57   21.57</time>
   <time name="total">   21.58   21.58</time>
   <energy>
    <i name="e_fr_energy">    -80.10885694 </i>
    <i name="e_wo_entrp">    -80.10885694 </i>
    <i name="e_0_energy">    -80.10885694 </i>
   </energy>
  </scstep>
  <scstep>
   <time name="dav">   21.69   21.69</time>
   <time name="total">   21.70   21.71</time>
   <energy>
    <i name="e_fr_energy">    -80.47116405 </i>
    <i name="e_wo_entrp">    -80.47116405 </i>
    <i name="e_0_energy">    -80.47116405 </i>
   </energy>
  </scstep>
  <scstep>
   <time name="dav">   21.28   21.28</time>
   <time name="total">   22.76   22.76</time>
   <energy>
    <i name="e_fr_energy">    -80.47783596 </i>
    <i name="e_wo_entrp">    -80.47783596 </i>
    <i name="e_0_energy">    -80.47783596 </i>
   </energy>
  </scstep>
  <scstep>
   <time name="diag">    3.64    3.64</time>
   <time name="diis">   13.32   13.33</time>
   <time name="orth">    0.36    0.35</time>
   <time name="total">   19.02   19.02</time>
   <energy>
    <i name="e_fr_energy">    -70.80375688 </i>
    <i name="e_wo_entrp">    -70.80375688 </i>
    <i name="e_0_energy">    -70.80375688 </i>
   </energy>
  </scstep>
  <scstep>
   <time name="diag">    3.64    3.64</time>
   <time name="diis">   14.20   14.20</time>
   <time name="orth">    0.35    0.36</time>
   <time name="total">   19.87   19.88</time>
   <energy>
    <i name="e_fr_energy">    -70.77827452 </i>
    <i name="e_wo_entrp">    -70.77827452 </i>
    <i name="e_0_energy">    -70.77827452 </i>
   </energy>
  </scstep>
  <scstep>
   <time name="diag">    3.65    3.65</time>
   <time name="diis">   14.09   14.08</time>
   <time name="orth">    0.36    0.36</time>
   <time name="total">   19.79   19.79</time>
   <energy>
    <i name="e_fr_energy">    -70.79194471 </i>
    <i name="e_wo_entrp">    -70.79194471 </i>
    <i name="e_0_energy">    -70.79194471 </i>
   </energy>
  </scstep>
  <scstep>
   <time name="diag">    3.64    3.63</time>
   <time name="diis">   14.49   14.49</time>
   <time name="orth">    0.35    0.36</time>
   <time name="total">   20.18   20.19</time>
   <energy>
    <i name="e_fr_energy">    -70.78368552 </i>
    <i name="e_wo_entrp">    -70.78368552 </i>
    <i name="e_0_energy">    -70.78368552 </i>
   </energy>
  </scstep>
  <scstep>
   <time name="diag">    3.64    3.64</time>
   <time name="diis">   14.32   14.33</time>
   <time name="orth">    0.35    0.35</time>
   <time name="total">   20.01   20.02</time>
   <energy>
    <i name="e_fr_energy">    -70.78652976 </i>
    <i name="e_wo_entrp">    -70.78652976 </i>
    <i name="e_0_energy">    -70.78652976 </i>
   </energy>
  </scstep>
  <scstep>
   <time name="diag">    3.64    3.64</time>
   <time name="diis">   14.30   14.29</time>
   <time name="orth">    0.35    0.35</time>
   <time name="total">   19.99   19.99</time>
   <energy>
    <i name="e_fr_energy">    -70.78561243 </i>
    <i name="e_wo_entrp">    -70.78561243 </i>
    <i name="e_0_energy">    -70.78561243 </i>
   </energy>
  </scstep>
  <scstep>
   <time name="diag">    3.70    3.69</time>
   <time name="diis">   13.61   13.61</time>
   <time name="orth">    0.37    0.37</time>
   <time name="total">   19.42   19.44</time>
   <energy>
    <i name="e_fr_energy">    -70.78565553 </i>
    <i name="e_wo_entrp">    -70.78565553 </i>
    <i name="e_0_energy">    -70.78565553 </i>
   </energy>
  </scstep>
  <scstep>
   <time name="diag">    3.77    3.77</time>
   <time name="diis">   10.34   10.34</time>
   <time name="orth">    0.37    0.37</time>
   <time name="total">   14.72   14.74</time>
   <energy>
    <i name="alphaZ">     69.72802778 </i>
    <i name="ewald">  -1886.62880430 </i>
    <i name="hartreedc">  -1071.81490855 </i>
    <i name="XCdc">    151.15083416 </i>
    <i name="pawpsdc">   2052.97011815 </i>
    <i name="pawaedc">  -2013.65454226 </i>
    <i name="eentropy">      0.00000000 </i>
    <i name="bandstr">   -275.98455873 </i>
    <i name="atom">   2903.44817585 </i>
    <i name="e_fr_energy">    -70.78565791 </i>
    <i name="e_wo_entrp">    -70.78565791 </i>
    <i name="e_0_energy">    -70.78565791 </i>
   </energy>
  </scstep>
  <structure>
   <crystal>
    <varray name="basis" >
     <v>       4.91370000       0.00000000       0.00000000 </v>
     <v>      -2.45685000       4.25538903       0.00000000 </v>
     <v>       0.00000000       0.00000000       5.40513000 </v>
    </varray>
    <i name="volume">    113.01967420 </i>
    <varray name="rec_basis" >
     <v>       0.20351263       0.11749807       0.00000000 </v>
     <v>       0.00000000       0.23499614       0.00000000 </v>
     <v>       0.00000000       0.00000000       0.18500943 </v>
    </varray>
   </crystal>
   <varray name="positions" >
    <v>       0.46980000       0.02000000       0.66667000 </v>
    <v>       0.00000000       0.46980000       0.33333000 </v>
    <v>       0.53020000       0.53020000       0.00000000 </v>
    <v>       0.41450000       0.26620000       0.78560000 </v>
    <v>       0.73380000       0.14830000       0.45227000 </v>
    <v>       0.85170000       0.58550000       0.11893000 </v>
    <v>       0.14830000       0.73380000       0.54773000 </v>
    <v>       0.26620000       0.41450000       0.21440000 </v>
    <v>       0.58550000       0.85170000       0.88107000 </v>
   </varray>
  </structure>
  <varray name="forces" >
   <v>       3.05005305      -4.69009698      -0.99260523 </v>
   <v>      -0.07547179       0.68872208       0.11288876 </v>
   <v>      -0.55530603       0.56501661       0.18853595 </v>
   <v>      -2.44319386       2.55696658       1.41640003 </v>
   <v>      -0.08558677      -0.40328398       0.08613509 </v>
   <v>       0.42904345       0.17683032      -0.07035399 </v>
   <v>      -0.19591217       0.44257386       0.22822656 </v>
   <v>       0.59381478      -0.46950331      -0.12690853 </v>
   <v>      -0.71744065       1.13277482      -0.84231864 </v>
  </varray>
  <varray name="stress" >
   <v>      91.20640447     -27.89150084     -40.11190903 </v>
   <v>     -27.89150082     101.22953601      27.30442536 </v>
   <v>     -40.11190908      27.30442537      68.22558272 </v>
  </varray>
  <energy>
   <i name="e_fr_energy">    -70.78565791 </i>
   <i name="e_wo_entrp">    -70.78565791 </i>
   <i name="e_0_energy">      0.00000000 </i>
  </energy>
  <time name="totalsc">  288.40  289.73</time>
  <eigenvalues>
   <array>
    <dimension dim="1">band</dimension>
    <dimension dim="2">kpoint</dimension>
    <dimension dim="3">spin</dimension>
    <field>eigene</field>
    <field>occ</field>
    <set>
     <set comment="spin 1">
      <set comment="kpoint 1">
       <r>  -18.4517    1.0000 </r>
       <r>  -17.1489    1.0000 </r>
       <r>  -16.7883    1.0000 </r>
       <r>  -16.1738    1.0000 </r>
       <r>  -16.0428    1.0000 </r>
       <r>  -15.9630    1.0000 </r>
       <r>   -7.2720    1.0000 </r>
       <r>   -7.1125    1.0000 </r>
       <r>   -4.5387    1.0000 </r>
       <r>   -4.2301    1.0000 </r>
       <r>   -4.1337    1.0000 </r>
       <r>   -4.1153    1.0000 </r>
       <r>   -1.9481    1.0000 </r>
       <r>   -1.8420    1.0000 </r>
       <r>   -1.7548    1.0000 </r>
       <r>   -1.2648    1.0000 </r>
       <r>   -0.5543    1.0000 </r>
       <r>   -0.4397    1.0000 </r>
       <r>   -0.3939    1.0000 </r>
       <r>    0.1447    1.0000 </r>
       <r>    0.2273    1.0000 </r>
       <r>    0.4711    1.0000 </r>
       <r>    0.7500    1.0000 </r>
       <r>    0.8574    1.0000 </r>
       <r>    7.0979    0.0000 </r>
       <r>   10.3282    0.0000 </r>
       <r>   10.4298    0.0000 </r>
       <r>   10.8550    0.0000 </r>
       <r>   10.9548    0.0000 </r>
      </set>
      <set comment="kpoint 2">
       <r>  -18.3824    1.0000 </r>
       <r>  -17.1774    1.0000 </r>
       <r>  -16.7792    1.0000 </r>
       <r>  -16.2772    1.0000 </r>
       <r>  -16.0848    1.0000 </r>
       <r>  -15.9122    1.0000 </r>
       <r>   -7.3026    1.0000 </r>
       <r>   -6.9336    1.0000 </r>
       <r>   -4.5643    1.0000 </r>
       <r>   -4.2986    1.0000 </r>
       <r>   -4.1726    1.0000 </r>
       <r>   -3.9854    1.0000 </r>
       <r>   -2.0159    1.0000 </r>
       <r>   -1.8734    1.0000 </r>
       <r>   -1.6363    1.0000 </r>
       <r>   -1.1897    1.0000 </r>
       <r>   -0.7485    1.0000 </r>
       <r>   -0.4677    1.0000 </r>
       <r>   -0.3964    1.0000 </r>
       <r>    0.0903    1.0000 </r>
       <r>    0.1289    1.0000 </r>
       <r>    0.3833    1.0000 </r>
       <r>    0.8350    1.0000 </r>
       <r>    0.9334    1.0000 </r>
       <r>    7.5207    0.0000 </r>
       <r>   10.3501    0.0000 </r>
       <r>   10.4714    0.0000 </r>
       <r>   10.8715    0.0000 </r>
       <r>   11.0841    0.0000 </r>
      </set>
      <set comment="kpoint 3">
       <r>  -18.2110    1.0000 </r>
       <r>  -17.2736    1.0000 </r>
       <r>  -16.7610    1.0000 </r>
       <r>  -16.4578    1.0000 </r>
       <r>  -16.1172    1.0000 </r>
       <r>  -15.8788    1.0000 </r>
       <r>   -7.3675    1.0000 </r>
       <r>   -6.5130    1.0000 </r>
       <r>   -4.6238    1.0000 </r>
       <r>   -4.5398    1.0000 </r>
       <r>   -4.1877    1.0000 </r>
       <r>   -3.6812    1.0000 </r>
       <r>   -2.1342    1.0000 </r>
       <r>   -1.6960    1.0000 </r>
       <r>   -1.6161    1.0000 </r>
       <r>   -1.3038    1.0000 </r>
       <r>   -0.9889    1.0000 </r>
       <r>   -0.5559    1.0000 </r>
       <r>   -0.4517    1.0000 </r>
       <r>    0.0264    1.0000 </r>
       <r>    0.0683    1.0000 </r>
       <r>    0.2884    1.0000 </r>
       <r>    0.9104    1.0000 </r>
       <r>    1.0403    1.0000 </r>
       <r>    8.5186    0.0000 </r>
       <r>   10.3766    0.0000 </r>
       <r>   10.5960    0.0000 </r>
       <r>   11.0564    0.0000 </r>
       <r>   11.5951    0.0000 </r>
      </set>
      <set comment="kpoint 4">
       <r>  -18.0941    1.0000 </r>
       <r>  -17.3596    1.0000 </r>
       <r>  -16.7524    1.0000 </r>
       <r>  -16.5334    1.0000 </r>
       <r>  -16.1311    1.0000 </r>
       <r>  -15.8706    1.0000 </r>
       <r>   -7.3993    1.0000 </r>
       <r>   -6.2502    1.0000 </r>
       <r>   -4.7738    1.0000 </r>
       <r>   -4.5746    1.0000 </r>
       <r>   -4.1968    1.0000 </r>
       <r>   -3.5128    1.0000 </r>
       <r>   -2.1372    1.0000 </r>
       <r>   -1.7749    1.0000 </r>
       <r>   -1.6055    1.0000 </r>
       <r>   -1.3159    1.0000 </r>
       <r>   -1.0563    1.0000 </r>
       <r>   -0.6344    1.0000 </r>
       <r>   -0.5244    1.0000 </r>
       <r>    0.0440    1.0000 </r>
       <r>    0.0647    1.0000 </r>
       <r>    0.2679    1.0000 </r>
       <r>    0.9130    1.0000 </r>
       <r>    1.0895    1.0000 </r>
       <r>    9.3496    0.0000 </r>
       <r>   10.0874    0.0000 </r>
       <r>   10.7759    0.0000 </r>
       <r>   10.9329    0.0000 </r>
       <r>   11.5603    0.0000 </r>
      </set>
      <set comment="kpoint 5">
       <r>  -18.3765    1.0000 </r>
       <r>  -17.1883    1.0000 </r>
       <r>  -16.8123    1.0000 </r>
       <r>  -16.1812    1.0000 </r>
       <r>  -16.1104    1.0000 </r>
       <r>  -15.9435    1.0000 </r>
       <r>   -7.2582    1.0000 </r>
       <r>   -6.9891    1.0000 </r>
       <r>   -4.5476    1.0000 </r>
       <r>   -4.2942    1.0000 </r>
       <r>   -4.2062    1.0000 </r>
       <r>   -3.9544    1.0000 </r>
       <r>   -2.0660    1.0000 </r>
       <r>   -1.8132    1.0000 </r>
       <r>   -1.6911    1.0000 </r>
       <r>   -1.1562    1.0000 </r>
       <r>   -0.6910    1.0000 </r>
       <r>   -0.5051    1.0000 </r>
       <r>   -0.4564    1.0000 </r>
       <r>    0.1049    1.0000 </r>
       <r>    0.1731    1.0000 </r>
       <r>    0.3771    1.0000 </r>
       <r>    0.8376    1.0000 </r>
       <r>    0.9260    1.0000 </r>
       <r>    7.5182    0.0000 </r>
       <r>   10.3456    0.0000 </r>
       <r>   10.4370    0.0000 </r>
       <r>   10.9384    0.0000 </r>
       <r>   11.0557    0.0000 </r>
      </set>
      <set comment="kpoint 6">
       <r>  -18.2535    1.0000 </r>
       <r>  -17.2557    1.0000 </r>
       <r>  -16.8052    1.0000 </r>
       <r>  -16.3269    1.0000 </r>
       <r>  -16.1338    1.0000 </r>
       <r>  -15.9022    1.0000 </r>
       <r>   -7.3476    1.0000 </r>
       <r>   -6.6330    1.0000 </r>
       <r>   -4.6993    1.0000 </r>
       <r>   -4.4152    1.0000 </r>
       <r>   -4.1230    1.0000 </r>
       <r>   -3.7805    1.0000 </r>
       <r>   -2.0942    1.0000 </r>
       <r>   -1.7978    1.0000 </r>
       <r>   -1.6126    1.0000 </r>
       <r>   -1.1979    1.0000 </r>
       <r>   -1.0211    1.0000 </r>
       <r>   -0.5360    1.0000 </r>
       <r>   -0.3364    1.0000 </r>
       <r>   -0.0323    1.0000 </r>
       <r>    0.1394    1.0000 </r>
       <r>    0.2839    1.0000 </r>
       <r>    0.9355    1.0000 </r>
       <r>    0.9714    1.0000 </r>
       <r>    8.2234    0.0000 </r>
       <r>   10.4335    0.0000 </r>
       <r>   10.5477    0.0000 </r>
       <r>   11.0102    0.0000 </r>
       <r>   11.2673    0.0000 </r>
      </set>
      <set comment="kpoint 7">
       <r>  -18.0832    1.0000 </r>
       <r>  -17.3749    1.0000 </r>
       <r>  -16.8100    1.0000 </r>
       <r>  -16.4547    1.0000 </r>
       <r>  -16.1357    1.0000 </r>
       <r>  -15.8819    1.0000 </r>
       <r>   -7.4067    1.0000 </r>
       <r>   -6.1801    1.0000 </r>
       <r>   -5.0417    1.0000 </r>
       <r>   -4.4431    1.0000 </r>
       <r>   -4.1080    1.0000 </r>
       <r>   -3.5317    1.0000 </r>
       <r>   -2.1048    1.0000 </r>
       <r>   -1.7666    1.0000 </r>
       <r>   -1.6800    1.0000 </r>
       <r>   -1.2714    1.0000 </r>
       <r>   -1.0598    1.0000 </r>
       <r>   -0.6675    1.0000 </r>
       <r>   -0.3685    1.0000 </r>
       <r>   -0.1567    1.0000 </r>
       <r>    0.0224    1.0000 </r>
       <r>    0.3964    1.0000 </r>
       <r>    0.9061    1.0000 </r>
       <r>    1.0874    1.0000 </r>
       <r>    9.2307    0.0000 </r>
       <r>   10.3384    0.0000 </r>
       <r>   10.6839    0.0000 </r>
       <r>   11.1062    0.0000 </r>
       <r>   11.5594    0.0000 </r>
      </set>
      <set comment="kpoint 8">
       <r>  -18.0775    1.0000 </r>
       <r>  -17.3819    1.0000 </r>
       <r>  -16.8072    1.0000 </r>
       <r>  -16.4761    1.0000 </r>
       <r>  -16.1160    1.0000 </r>
       <r>  -15.8814    1.0000 </r>
       <r>   -7.3971    1.0000 </r>
       <r>   -6.1882    1.0000 </r>
       <r>   -5.0519    1.0000 </r>
       <r>   -4.4285    1.0000 </r>
       <r>   -4.1242    1.0000 </r>
       <r>   -3.5307    1.0000 </r>
       <r>   -2.0990    1.0000 </r>
       <r>   -1.7807    1.0000 </r>
       <r>   -1.6910    1.0000 </r>
       <r>   -1.2183    1.0000 </r>
       <r>   -0.9952    1.0000 </r>
       <r>   -0.6694    1.0000 </r>
       <r>   -0.5004    1.0000 </r>
       <r>   -0.1841    1.0000 </r>
       <r>    0.0563    1.0000 </r>
       <r>    0.4297    1.0000 </r>
       <r>    0.8775    1.0000 </r>
       <r>    1.1228    1.0000 </r>
       <r>    9.2403    0.0000 </r>
       <r>   10.3182    0.0000 </r>
       <r>   10.6668    0.0000 </r>
       <r>   11.1247    0.0000 </r>
       <r>   11.4469    0.0000 </r>
      </set>
      <set comment="kpoint 9">
       <r>  -18.2465    1.0000 </r>
       <r>  -17.2628    1.0000 </r>
       <r>  -16.8042    1.0000 </r>
       <r>  -16.3825    1.0000 </r>
       <r>  -16.0783    1.0000 </r>
       <r>  -15.9024    1.0000 </r>
       <r>   -7.3162    1.0000 </r>
       <r>   -6.6634    1.0000 </r>
       <r>   -4.7222    1.0000 </r>
       <r>   -4.3932    1.0000 </r>
       <r>   -4.1402    1.0000 </r>
       <r>   -3.7793    1.0000 </r>
       <r>   -2.0993    1.0000 </r>
       <r>   -1.8395    1.0000 </r>
       <r>   -1.5213    1.0000 </r>
       <r>   -1.1614    1.0000 </r>
       <r>   -0.9747    1.0000 </r>
       <r>   -0.6059    1.0000 </r>
       <r>   -0.3915    1.0000 </r>
       <r>   -0.1526    1.0000 </r>
       <r>    0.1876    1.0000 </r>
       <r>    0.3452    1.0000 </r>
       <r>    0.8666    1.0000 </r>
       <r>    1.0687    1.0000 </r>
       <r>    8.2257    0.0000 </r>
       <r>   10.3690    0.0000 </r>
       <r>   10.5800    0.0000 </r>
       <r>   11.0225    0.0000 </r>
       <r>   11.2456    0.0000 </r>
      </set>
      <set comment="kpoint 10">
       <r>  -18.3739    1.0000 </r>
       <r>  -17.1898    1.0000 </r>
       <r>  -16.8138    1.0000 </r>
       <r>  -16.2365    1.0000 </r>
       <r>  -16.0483    1.0000 </r>
       <r>  -15.9494    1.0000 </r>
       <r>   -7.2109    1.0000 </r>
       <r>   -7.0363    1.0000 </r>
       <r>   -4.5557    1.0000 </r>
       <r>   -4.3093    1.0000 </r>
       <r>   -4.1861    1.0000 </r>
       <r>   -3.9583    1.0000 </r>
       <r>   -2.0771    1.0000 </r>
       <r>   -1.8364    1.0000 </r>
       <r>   -1.6256    1.0000 </r>
       <r>   -1.1438    1.0000 </r>
[...]
       <r>    1.0184    1.0000 </r>
       <r>    9.1941    0.0000 </r>
       <r>   10.0775    0.0000 </r>
       <r>   10.4806    0.0000 </r>
       <r>   11.0016    0.0000 </r>
       <r>   11.2253    0.0000 </r>
      </set>
      <set comment="kpoint 90">
       <r>  -18.0247    1.0000 </r>
       <r>  -17.3906    1.0000 </r>
       <r>  -16.8551    1.0000 </r>
       <r>  -16.4573    1.0000 </r>
       <r>  -16.1722    1.0000 </r>
       <r>  -15.8649    1.0000 </r>
       <r>   -7.2409    1.0000 </r>
       <r>   -6.1606    1.0000 </r>
       <r>   -5.3256    1.0000 </r>
       <r>   -4.3710    1.0000 </r>
       <r>   -3.9282    1.0000 </r>
       <r>   -3.8082    1.0000 </r>
       <r>   -2.1809    1.0000 </r>
       <r>   -2.0158    1.0000 </r>
       <r>   -1.4272    1.0000 </r>
       <r>   -1.1898    1.0000 </r>
       <r>   -0.8993    1.0000 </r>
       <r>   -0.6378    1.0000 </r>
       <r>   -0.1840    1.0000 </r>
       <r>   -0.0062    1.0000 </r>
       <r>    0.2268    1.0000 </r>
       <r>    0.3253    1.0000 </r>
       <r>    0.6481    1.0000 </r>
       <r>    0.8868    1.0000 </r>
       <r>    9.8895    0.0000 </r>
       <r>   10.3999    0.0000 </r>
       <r>   10.7052    0.0000 </r>
       <r>   11.0808    0.0000 </r>
       <r>   11.4216    0.0000 </r>
      </set>
      <set comment="kpoint 91">
       <r>  -18.0180    1.0000 </r>
       <r>  -17.4375    1.0000 </r>
       <r>  -16.7569    1.0000 </r>
       <r>  -16.5001    1.0000 </r>
       <r>  -16.1850    1.0000 </r>
       <r>  -15.8675    1.0000 </r>
       <r>   -7.2646    1.0000 </r>
       <r>   -6.1183    1.0000 </r>
       <r>   -5.3404    1.0000 </r>
       <r>   -4.3732    1.0000 </r>
       <r>   -3.9157    1.0000 </r>
       <r>   -3.8143    1.0000 </r>
       <r>   -2.1665    1.0000 </r>
       <r>   -2.0175    1.0000 </r>
       <r>   -1.4521    1.0000 </r>
       <r>   -1.1983    1.0000 </r>
       <r>   -0.9461    1.0000 </r>
       <r>   -0.5917    1.0000 </r>
       <r>   -0.1543    1.0000 </r>
       <r>   -0.0108    1.0000 </r>
       <r>    0.2188    1.0000 </r>
       <r>    0.3748    1.0000 </r>
       <r>    0.5893    1.0000 </r>
       <r>    0.8910    1.0000 </r>
       <r>    9.8117    0.0000 </r>
       <r>   10.5494    0.0000 </r>
       <r>   10.7829    0.0000 </r>
       <r>   11.1304    0.0000 </r>
       <r>   11.3491    0.0000 </r>
      </set>
      <set comment="kpoint 92">
       <r>  -18.0772    1.0000 </r>
       <r>  -17.6146    1.0000 </r>
       <r>  -16.5784    1.0000 </r>
       <r>  -16.3950    1.0000 </r>
       <r>  -16.1539    1.0000 </r>
       <r>  -15.8587    1.0000 </r>
       <r>   -7.7109    1.0000 </r>
       <r>   -5.8836    1.0000 </r>
       <r>   -5.1829    1.0000 </r>
       <r>   -4.3534    1.0000 </r>
       <r>   -4.1356    1.0000 </r>
       <r>   -3.7324    1.0000 </r>
       <r>   -2.0719    1.0000 </r>
       <r>   -1.9120    1.0000 </r>
       <r>   -1.4275    1.0000 </r>
       <r>   -1.2955    1.0000 </r>
       <r>   -0.9450    1.0000 </r>
       <r>   -0.4968    1.0000 </r>
       <r>   -0.3574    1.0000 </r>
       <r>   -0.1801    1.0000 </r>
       <r>    0.1246    1.0000 </r>
       <r>    0.5838    1.0000 </r>
       <r>    0.7627    1.0000 </r>
       <r>    0.9412    1.0000 </r>
       <r>    9.1949    0.0000 </r>
       <r>   10.0698    0.0000 </r>
       <r>   10.6080    0.0000 </r>
       <r>   10.8907    0.0000 </r>
       <r>   11.2848    0.0000 </r>
      </set>
     </set>
    </set>
   </array>
  </eigenvalues>
  <separator name="orbital magnetization" >
   <v name="MAGDIPOLOUT">      0.00000000      0.00000000      0.00000000</v>
  </separator>
  <dos>
   <i name="efermi">      1.19292354 </i>
   <total>
    <array>
     <dimension dim="1">gridpoints</dimension>
     <dimension dim="2">spin</dimension>
     <field>energy</field>
     <field>total</field>
     <field>integrated</field>
     <set>
      <set comment="spin 1">
       <r>   -20.4517     0.0000     0.0000 </r>
       <r>   -20.3375     0.0000     0.0000 </r>
       <r>   -20.2232     0.0000     0.0000 </r>
       <r>   -20.1090     0.0000     0.0000 </r>
       <r>   -19.9948     0.0000     0.0000 </r>
       <r>   -19.8806     0.0000     0.0000 </r>
       <r>   -19.7664     0.0000     0.0000 </r>
       <r>   -19.6521     0.0000     0.0000 </r>
       <r>   -19.5379     0.0000     0.0000 </r>
       <r>   -19.4237     0.0000     0.0000 </r>
       <r>   -19.3095     0.0000     0.0000 </r>
       <r>   -19.1953     0.0000     0.0000 </r>
       <r>   -19.0810     0.0000     0.0000 </r>
       <r>   -18.9668     0.0000     0.0000 </r>
       <r>   -18.8526     0.0000     0.0000 </r>
       <r>   -18.7384     0.0000     0.0000 </r>
       <r>   -18.6242     0.0000     0.0000 </r>
       <r>   -18.5100     0.0000     0.0000 </r>
       <r>   -18.3957     0.5100     0.0095 </r>
       <r>   -18.2815     1.8129     0.1584 </r>
       <r>   -18.1673     4.1850     0.4573 </r>
       <r>   -18.0531     7.7645     1.1278 </r>
       <r>   -17.9389     3.0429     1.9245 </r>
       <r>   -17.8246     0.0000     2.0000 </r>
       <r>   -17.7104     1.4832     2.0664 </r>
       <r>   -17.5962     3.3118     2.3161 </r>
       <r>   -17.4820     6.1854     2.8380 </r>
       <r>   -17.3678     7.8978     3.5784 </r>
       <r>   -17.2535     0.9503     3.9577 </r>
       <r>   -17.1393     0.0000     4.0000 </r>
       <r>   -17.0251     0.5492     4.0106 </r>
       <r>   -16.9109     2.6081     4.1758 </r>
       <r>   -16.7967     7.4928     4.8485 </r>
       <r>   -16.6824     3.7337     5.5184 </r>
       <r>   -16.5682     2.6144     5.8691 </r>
       <r>   -16.4540     6.6036     6.2316 </r>
       <r>   -16.3398     6.6642     7.2185 </r>
       <r>   -16.2256     4.6978     7.8285 </r>
       <r>   -16.1113    12.8415     9.2812 </r>
       <r>   -15.9971     0.0000    10.0000 </r>
       <r>   -15.8829    28.4822    11.2662 </r>
       <r>   -15.7687     0.0000    12.0000 </r>
       <r>   -15.6545     0.0000    12.0000 </r>
       <r>   -15.5402     0.0000    12.0000 </r>
       <r>   -15.4260     0.0000    12.0000 </r>
       <r>   -15.3118     0.0000    12.0000 </r>
       <r>   -15.1976     0.0000    12.0000 </r>
       <r>   -15.0834     0.0000    12.0000 </r>
       <r>   -14.9691     0.0000    12.0000 </r>
       <r>   -14.8549     0.0000    12.0000 </r>
       <r>   -14.7407     0.0000    12.0000 </r>
       <r>   -14.6265     0.0000    12.0000 </r>
       <r>   -14.5123     0.0000    12.0000 </r>
       <r>   -14.3980     0.0000    12.0000 </r>
       <r>   -14.2838     0.0000    12.0000 </r>
       <r>   -14.1696     0.0000    12.0000 </r>
       <r>   -14.0554     0.0000    12.0000 </r>
       <r>   -13.9412     0.0000    12.0000 </r>
       <r>   -13.8269     0.0000    12.0000 </r>
       <r>   -13.7127     0.0000    12.0000 </r>
       <r>   -13.5985     0.0000    12.0000 </r>
       <r>   -13.4843     0.0000    12.0000 </r>
       <r>   -13.3701     0.0000    12.0000 </r>
       <r>   -13.2559     0.0000    12.0000 </r>
       <r>   -13.1416     0.0000    12.0000 </r>
       <r>   -13.0274     0.0000    12.0000 </r>
       <r>   -12.9132     0.0000    12.0000 </r>
       <r>   -12.7990     0.0000    12.0000 </r>
       <r>   -12.6848     0.0000    12.0000 </r>
       <r>   -12.5705     0.0000    12.0000 </r>
       <r>   -12.4563     0.0000    12.0000 </r>
       <r>   -12.3421     0.0000    12.0000 </r>
       <r>   -12.2279     0.0000    12.0000 </r>
       <r>   -12.1137     0.0000    12.0000 </r>
       <r>   -11.9994     0.0000    12.0000 </r>
       <r>   -11.8852     0.0000    12.0000 </r>
       <r>   -11.7710     0.0000    12.0000 </r>
       <r>   -11.6568     0.0000    12.0000 </r>
       <r>   -11.5426     0.0000    12.0000 </r>
       <r>   -11.4283     0.0000    12.0000 </r>
       <r>   -11.3141     0.0000    12.0000 </r>
       <r>   -11.1999     0.0000    12.0000 </r>
       <r>   -11.0857     0.0000    12.0000 </r>
       <r>   -10.9715     0.0000    12.0000 </r>
       <r>   -10.8572     0.0000    12.0000 </r>
       <r>   -10.7430     0.0000    12.0000 </r>
       <r>   -10.6288     0.0000    12.0000 </r>
       <r>   -10.5146     0.0000    12.0000 </r>
       <r>   -10.4004     0.0000    12.0000 </r>
       <r>   -10.2861     0.0000    12.0000 </r>
       <r>   -10.1719     0.0000    12.0000 </r>
       <r>   -10.0577     0.0000    12.0000 </r>
       <r>    -9.9435     0.0000    12.0000 </r>
       <r>    -9.8293     0.0000    12.0000 </r>
       <r>    -9.7150     0.0000    12.0000 </r>
       <r>    -9.6008     0.0000    12.0000 </r>
       <r>    -9.4866     0.0000    12.0000 </r>
       <r>    -9.3724     0.0000    12.0000 </r>
       <r>    -9.2582     0.0000    12.0000 </r>
       <r>    -9.1439     0.0000    12.0000 </r>
       <r>    -9.0297     0.0000    12.0000 </r>
       <r>    -8.9155     0.0000    12.0000 </r>
       <r>    -8.8013     0.0000    12.0000 </r>
       <r>    -8.6871     0.0000    12.0000 </r>
       <r>    -8.5728     0.0000    12.0000 </r>
       <r>    -8.4586     0.0000    12.0000 </r>
       <r>    -8.3444     0.0000    12.0000 </r>
       <r>    -8.2302     0.0184    12.0001 </r>
       <r>    -8.1160     0.2887    12.0162 </r>
       <r>    -8.0018     0.4518    12.0632 </r>
       <r>    -7.8875     0.6671    12.1267 </r>
       <r>    -7.7733     0.8782    12.2157 </r>
       <r>    -7.6591     1.2370    12.3345 </r>
       <r>    -7.5449     1.6983    12.5005 </r>
       <r>    -7.4307     3.2744    12.7597 </r>
       <r>    -7.3164     6.0905    13.4570 </r>
       <r>    -7.2022     1.6860    13.8567 </r>
       <r>    -7.0880     0.4413    13.9671 </r>
       <r>    -6.9738     0.2123    14.0016 </r>
       <r>    -6.8596     0.2162    14.0239 </r>
       <r>    -6.7453     0.3532    14.0561 </r>
       <r>    -6.6311     0.6101    14.1085 </r>
       <r>    -6.5169     1.1414    14.2079 </r>
       <r>    -6.4027     2.1005    14.3829 </r>
       <r>    -6.2885     3.4609    14.6999 </r>
       <r>    -6.1742     4.7958    15.1940 </r>
       <r>    -6.0600     2.0442    15.5782 </r>
       <r>    -5.9458     1.2093    15.7604 </r>
       <r>    -5.8316     0.7581    15.8697 </r>
       <r>    -5.7174     0.5848    15.9448 </r>
       <r>    -5.6031     0.2073    15.9964 </r>
       <r>    -5.4889     0.3269    16.0096 </r>
       <r>    -5.3747     2.6200    16.1558 </r>
       <r>    -5.2605     3.2479    16.4994 </r>
       <r>    -5.1463     3.0621    16.8706 </r>
       <r>    -5.0320     2.9739    17.2107 </r>
       <r>    -4.9178     2.0580    17.5045 </r>
       <r>    -4.8036     1.5773    17.7095 </r>
       <r>    -4.6894     1.2810    17.8710 </r>
       <r>    -4.5752     0.5744    17.9881 </r>
       <r>    -4.4609     5.0239    18.1360 </r>
       <r>    -4.3467     9.2832    19.2533 </r>
       <r>    -4.2325     4.8236    19.9906 </r>
       <r>    -4.1183    10.1782    20.7401 </r>
       <r>    -4.0041     6.2586    21.6364 </r>
       <r>    -3.8898     1.4909    22.0959 </r>
       <r>    -3.7756     7.9113    22.5769 </r>
       <r>    -3.6614     5.9081    23.4932 </r>
       <r>    -3.5472     2.3555    23.8967 </r>
       <r>    -3.4330     0.0066    24.0000 </r>
       <r>    -3.3187     0.0000    24.0000 </r>
       <r>    -3.2045     0.0000    24.0000 </r>
       <r>    -3.0903     0.0000    24.0000 </r>
       <r>    -2.9761     0.0000    24.0000 </r>
       <r>    -2.8619     0.0000    24.0000 </r>
       <r>    -2.7477     0.0000    24.0000 </r>
       <r>    -2.6334     0.0000    24.0000 </r>
       <r>    -2.5192     0.0000    24.0000 </r>
       <r>    -2.4050     0.0000    24.0000 </r>
       <r>    -2.2908     0.0000    24.0000 </r>
       <r>    -2.1766    10.5275    24.4405 </r>
       <r>    -2.0623     6.5411    25.7553 </r>
       <r>    -1.9481     7.4843    26.5827 </r>
       <r>    -1.8339     7.0990    27.2821 </r>
       <r>    -1.7197     3.3697    27.8990 </r>
       <r>    -1.6055     8.1665    28.3164 </r>
       <r>    -1.4912     7.9129    29.4232 </r>
       <r>    -1.3770     0.9972    29.9855 </r>
       <r>    -1.2628     8.4118    30.2922 </r>
       <r>    -1.1486    12.3077    31.6213 </r>
       <r>    -1.0344     0.9878    31.9979 </r>
       <r>    -0.9201    21.8264    33.3332 </r>
       <r>    -0.8059     0.9478    33.9114 </r>
       <r>    -0.6917     5.8817    34.3024 </r>
       <r>    -0.5775    10.3308    35.1737 </r>
       <r>    -0.4633     7.3612    36.2657 </r>
       <r>    -0.3490     6.7026    37.3925 </r>
       <r>    -0.2348     5.0315    37.9874 </r>
       <r>    -0.1206     8.8817    38.8791 </r>
       <r>    -0.0064     5.0266    39.8113 </r>
       <r>     0.1078     8.6432    40.4577 </r>
       <r>     0.2221     7.0972    41.7789 </r>
       <r>     0.3363     2.5813    42.0666 </r>
       <r>     0.4505    12.6125    43.2072 </r>
       <r>     0.5647     1.5793    43.8283 </r>
       <r>     0.6789     4.5758    44.2763 </r>
       <r>     0.7932    11.8337    45.0679 </r>
       <r>     0.9074     5.3207    46.1703 </r>
       <r>     1.0216    11.5513    46.9740 </r>
       <r>     1.1358     3.5406    47.9212 </r>
       <r>     1.2500     0.0000    48.0000 </r>
       <r>     1.3643     0.0000    48.0000 </r>
       <r>     1.4785     0.0000    48.0000 </r>
       <r>     1.5927     0.0000    48.0000 </r>
       <r>     1.7069     0.0000    48.0000 </r>
       <r>     1.8211     0.0000    48.0000 </r>
       <r>     1.9354     0.0000    48.0000 </r>
       <r>     2.0496     0.0000    48.0000 </r>
       <r>     2.1638     0.0000    48.0000 </r>
       <r>     2.2780     0.0000    48.0000 </r>
       <r>     2.3922     0.0000    48.0000 </r>
       <r>     2.5064     0.0000    48.0000 </r>
       <r>     2.6207     0.0000    48.0000 </r>
       <r>     2.7349     0.0000    48.0000 </r>
       <r>     2.8491     0.0000    48.0000 </r>
       <r>     2.9633     0.0000    48.0000 </r>
       <r>     3.0775     0.0000    48.0000 </r>
       <r>     3.1918     0.0000    48.0000 </r>
       <r>     3.3060     0.0000    48.0000 </r>
       <r>     3.4202     0.0000    48.0000 </r>
       <r>     3.5344     0.0000    48.0000 </r>
       <r>     3.6486     0.0000    48.0000 </r>
       <r>     3.7629     0.0000    48.0000 </r>
       <r>     3.8771     0.0000    48.0000 </r>
       <r>     3.9913     0.0000    48.0000 </r>
       <r>     4.1055     0.0000    48.0000 </r>
       <r>     4.2197     0.0000    48.0000 </r>
       <r>     4.3340     0.0000    48.0000 </r>
       <r>     4.4482     0.0000    48.0000 </r>
       <r>     4.5624     0.0000    48.0000 </r>
       <r>     4.6766     0.0000    48.0000 </r>
       <r>     4.7908     0.0000    48.0000 </r>
       <r>     4.9051     0.0000    48.0000 </r>
       <r>     5.0193     0.0000    48.0000 </r>
       <r>     5.1335     0.0000    48.0000 </r>
       <r>     5.2477     0.0000    48.0000 </r>
       <r>     5.3619     0.0000    48.0000 </r>
       <r>     5.4762     0.0000    48.0000 </r>
       <r>     5.5904     0.0000    48.0000 </r>
       <r>     5.7046     0.0000    48.0000 </r>
       <r>     5.8188     0.0000    48.0000 </r>
       <r>     5.9330     0.0000    48.0000 </r>
       <r>     6.0473     0.0000    48.0000 </r>
       <r>     6.1615     0.0000    48.0000 </r>
       <r>     6.2757     0.0000    48.0000 </r>
       <r>     6.3899     0.0000    48.0000 </r>
       <r>     6.5041     0.0000    48.0000 </r>
       <r>     6.6184     0.0000    48.0000 </r>
       <r>     6.7326     0.0000    48.0000 </r>
       <r>     6.8468     0.0000    48.0000 </r>
       <r>     6.9610     0.0000    48.0000 </r>
       <r>     7.0752     0.0000    48.0000 </r>
       <r>     7.1895     0.0085    48.0003 </r>
       <r>     7.3037     0.0427    48.0029 </r>
       <r>     7.4179     0.1034    48.0110 </r>
       <r>     7.5321     0.1938    48.0277 </r>
       <r>     7.6463     0.2442    48.0529 </r>
       <r>     7.7605     0.2767    48.0828 </r>
       <r>     7.8748     0.2958    48.1154 </r>
       <r>     7.9890     0.3414    48.1518 </r>
       <r>     8.1032     0.3896    48.1935 </r>
       <r>     8.2174     0.4404    48.2409 </r>
       <r>     8.3316     0.4937    48.2942 </r>
       <r>     8.4459     0.5493    48.3538 </r>
       <r>     8.5601     0.6871    48.4234 </r>
       <r>     8.6743     0.8420    48.5108 </r>
       <r>     8.7885     0.8315    48.6077 </r>
       <r>     8.9027     0.8936    48.7062 </r>
       <r>     9.0170     0.9579    48.8119 </r>
       <r>     9.1312     1.0243    48.9251 </r>
       <r>     9.2454     1.1913    49.0467 </r>
       <r>     9.3596     1.5740    49.2144 </r>
       <r>     9.4738     1.3700    49.3869 </r>
       <r>     9.5881     1.2693    49.5360 </r>
       <r>     9.7023     1.4108    49.6857 </r>
       <r>     9.8165     1.4893    49.8548 </r>
       <r>     9.9307     1.3984    50.0608 </r>
       <r>    10.0449     1.0603    50.1939 </r>
       <r>    10.1592     1.8604    50.3384 </r>
       <r>    10.2734     6.6459    50.7558 </r>
       <r>    10.3876     6.4885    51.7774 </r>
       <r>    10.5018     4.4166    52.2794 </r>
       <r>    10.6160     8.9599    53.0337 </r>
       <r>    10.7303     5.7838    53.8882 </r>
       <r>    10.8445     2.6531    54.3694 </r>
       <r>    10.9587     2.8658    54.6545 </r>
       <r>    11.0729     6.5190    55.1843 </r>
       <r>    11.1871     4.7280    55.8673 </r>
       <r>    11.3014     5.0151    56.3964 </r>
       <r>    11.4156     5.8283    56.9826 </r>
       <r>    11.5298     5.2712    57.6728 </r>
       <r>    11.6440     0.5876    57.9812 </r>
       <r>    11.7582     0.0183    57.9997 </r>
       <r>    11.8725     0.0000    58.0000 </r>
       <r>    11.9867     0.0000    58.0000 </r>
       <r>    12.1009     0.0000    58.0000 </r>
       <r>    12.2151     0.0000    58.0000 </r>
       <r>    12.3293     0.0000    58.0000 </r>
       <r>    12.4436     0.0000    58.0000 </r>
       <r>    12.5578     0.0000    58.0000 </r>
       <r>    12.6720     0.0000    58.0000 </r>
       <r>    12.7862     0.0000    58.0000 </r>
       <r>    12.9004     0.0000    58.0000 </r>
       <r>    13.0146     0.0000    58.0000 </r>
       <r>    13.1289     0.0000    58.0000 </r>
       <r>    13.2431     0.0000    58.0000 </r>
       <r>    13.3573     0.0000    58.0000 </r>
       <r>    13.4715     0.0000    58.0000 </r>
       <r>    13.5857     0.0000    58.0000 </r>
       <r>    13.7000     0.0000    58.0000 </r>
       <r>    13.8142     0.0000    58.0000 </r>
      </set>
     </set>
    </array>
   </total>
  </dos>
 </calculation>
 <structure name="finalpos" >
  <crystal>
   <varray name="basis" >
    <v>       4.91370000       0.00000000       0.00000000 </v>
    <v>      -2.45685000       4.25538903       0.00000000 </v>
    <v>       0.00000000       0.00000000       5.40513000 </v>
   </varray>
   <i name="volume">    113.01967420 </i>
   <varray name="rec_basis" >
    <v>       0.20351263       0.11749807       0.00000000 </v>
    <v>       0.00000000       0.23499614       0.00000000 </v>
    <v>       0.00000000       0.00000000       0.18500943 </v>
   </varray>
  </crystal>
  <varray name="positions" >
   <v>       0.46980000       0.02000000       0.66667000 </v>
   <v>       0.00000000       0.46980000       0.33333000 </v>
   <v>       0.53020000       0.53020000       0.00000000 </v>
   <v>       0.41450000       0.26620000       0.78560000 </v>
   <v>       0.73380000       0.14830000       0.45227000 </v>
   <v>       0.85170000       0.58550000       0.11893000 </v>
   <v>       0.14830000       0.73380000       0.54773000 </v>
   <v>       0.26620000       0.41450000       0.21440000 </v>
   <v>       0.58550000       0.85170000       0.88107000 </v>
  </varray>
 </structure>
</modeling>
