unknown system                          
   1.00000000000000     
     3.991195    0.000000   -0.000000
    -0.000000    3.991195    0.000000
     0.000000    0.000000    3.991195
   Sr   Ti   O 
     1     1     3
Direct
  0.000000  0.000000  0.000000
  0.500000  0.500000  0.500000
  0.500000  0.500000  0.000000
  0.500000  0.000000  0.500000
  0.000000  0.500000  0.500000
 
   56   56   56
  193.37      193.39      193.18      192.02      188.95      183.04      173.65      160.60      144.24      125.42    
  105.31      85.270      66.561      50.169      36.664      26.169      18.432      12.958      9.1837      6.6379    
  4.9534      3.8497      3.1295      2.6642      2.3674      2.1817      2.0720      2.0150      1.9976      2.0150    
  2.0720      2.1817      2.3674      2.6642      3.1295      3.8497      4.9534      6.6379      9.1837      12.958    
  18.432      26.169      36.664      50.169      66.561      85.270      105.31      125.42      144.24      160.60    
  173.65      183.04      188.95      192.02      193.18      193.39      193.39      193.36      193.03      191.68    
  188.39      182.27      172.71      159.54      143.14      124.33      104.30      84.390      65.835      49.604    
  36.248      25.880      18.241      12.839      9.1133      6.6007      4.9381      3.8483      3.1382      2.6782    
  2.3847      2.2023      2.0951      2.0396      2.0226      2.0396      2.0951      2.2023      2.3847      2.6782    
  3.1382      3.8483      4.9381      6.6007      9.1133      12.839      18.241      25.880      36.248      49.604    
  65.835      84.390      104.30      124.33      143.14      159.54      172.71      182.27      188.39      191.68    
  193.03      193.36      193.18      193.03      192.33      190.45      186.56      179.86      169.81      156.33    
  139.81      121.08      101.32      81.791      63.697      47.942      35.029      25.035      17.687      12.493    
  8.9099      6.4945      4.8958      3.8482      3.1647      2.7231      2.4424      2.2675      2.1645      2.1111    
  2.0948      2.1111      2.1645      2.2675      2.4424      2.7231      3.1647      3.8482      4.8958      6.4945    
  8.9099      12.493      17.687      25.035      35.029      47.942      63.697      81.791      101.32      121.08    
  139.81      156.33      169.81      179.86      186.56      190.45      192.33      193.03      192.02      191.68    
  190.45      187.81      183.04      175.50      164.79      150.90      134.27      115.75      96.450      77.590    
  60.266      45.292      33.096      23.701      16.815      11.951      8.5955      6.3347      4.8380      3.8570    
  3.2184      2.8050      2.5429      2.3821      2.2883      2.2402      2.2255      2.2402      2.2883      2.3821    
  2.5429      2.8050      3.2184      3.8570      4.8380      6.3347      8.5955      11.951      16.815      23.701    
  33.096      45.292      60.266      77.590      96.450      115.75      134.27      150.90      164.79      175.50    
  183.04      187.81      190.45      191.68      188.95      188.39      186.56      183.04      177.29      168.84    
  157.43      143.17      126.57      108.45      89.888      71.988      55.735      41.824      30.584      21.980    
  15.699      11.263      8.2039      6.1448      4.7818      3.8893      3.3087      2.9359      2.7007      2.5575    
  2.4747      2.4329      2.4201      2.4329      2.4747      2.5575      2.7007      2.9359      3.3087      3.8893    
  4.7818      6.1448      8.2039      11.263      15.699      21.980      30.584      41.824      55.735      71.988    
  89.888      108.45      126.57      143.17      157.43      168.84      177.29      183.04      186.56      188.39    
  183.04      182.27      179.86      175.50      168.84      159.57      147.61      133.20      116.86      99.435    
  81.906      65.269      50.365      37.757      27.668      20.001      14.425      10.489      7.7766      5.9542    
  4.7493      3.9624      3.4540      3.1302      2.9285      2.8091      2.7427      2.7104      2.7006      2.7104    
  2.7427      2.8091      2.9285      3.1302      3.4540      3.9624      4.7493      5.9542      7.7766      10.489    
  14.425      20.001      27.668      37.757      50.365      65.269      81.906      99.435      116.86      133.20    
  147.61      159.57      168.84      175.50      179.86      182.27      173.65      172.71      169.81      164.79    
  157.43      147.61      135.42      121.17      105.44      89.048      72.875      57.785      44.468      33.347    
  24.542      17.903      13.089      9.6924      7.3592      5.7958      4.7667      4.0999      3.6744      3.4108    
  3.2535      3.1638      3.1166      3.0951      3.0891      3.0951      3.1166      3.1638      3.2535      3.4108    
  3.6744      4.0999      4.7667      5.7958      7.3592      9.6924      13.089      17.903      24.542      33.347    
  44.468      57.785      72.875      89.048      105.44      121.17      135.42      147.61      157.43      164.79    
  169.81      172.71      160.60      159.54      156.33      150.90      143.17      133.20      121.17      107.49    
  92.774      77.761      63.244      49.937      38.379      28.857      21.401      15.819      11.782      8.9392    
  6.9980      5.7055      4.8648      4.3303      4.0024      3.8094      3.7049      3.6558      3.6375      3.6328    
  3.6323      3.6328      3.6375      3.6558      3.7049      3.8094      4.0024      4.3303      4.8648      5.7055    
  6.9980      8.9392      11.782      15.819      21.401      28.857      38.379      49.937      63.244      77.761    
  92.774      107.49      121.17      133.20      143.17      150.90      156.33      159.54      144.24      143.14    
  139.81      134.27      126.57      116.86      105.44      92.774      79.444      66.132      53.508      42.143    
  32.427      24.533      18.417      13.867      10.584      8.2894      6.7384      5.7225      5.0802      4.6930    
  4.4762      4.3719      4.3371      4.3392      4.3566      4.3734      4.3802      4.3734      4.3566      4.3392    
  4.3371      4.3719      4.4762      4.6930      5.0802      5.7225      6.7384      8.2894      10.584      13.867    
  18.417      24.533      32.427      42.143      53.508      66.132      79.444      92.774      105.44      116.86    
  126.57      134.27      139.81      143.14      125.42      124.33      121.08      115.75      108.45      99.435    
  89.048      77.761      66.132      54.748      44.155      34.784      26.900      20.578      15.728      12.138    
  9.5666      7.7960      6.6256      5.8895      5.4580      5.2355      5.1529      5.1572      5.2103      5.2835    
  5.3526      5.4009      5.4179      5.4009      5.3526      5.2835      5.2103      5.1572      5.1529      5.2355    
  5.4580      5.8895      6.6256      7.7960      9.5666      12.138      15.728      20.578      26.900      34.784    
  44.155      54.748      66.132      77.761      89.048      99.435      108.45      115.75      121.08      124.33    
  105.31      104.30      101.32      96.450      89.888      81.906      72.875      63.244      53.508      44.155    
  35.608      28.174      22.013      17.134      13.423      10.699      8.7841      7.5050      6.7049      6.2542    
  6.0515      6.0197      6.0985      6.2432      6.4149      6.5811      6.7181      6.8080      6.8393      6.8080    
  6.7181      6.5811      6.4149      6.2432      6.0985      6.0197      6.0515      6.2542      6.7049      7.5050    
  8.7841      10.699      13.423      17.134      22.013      28.174      35.608      44.155      53.508      63.244    
  72.875      81.906      89.888      96.450      101.32      104.30      85.270      84.390      81.791      77.590    
  71.988      65.269      57.785      49.937      42.143      34.784      28.174      22.516      17.892      14.274    
  11.550      9.5957      8.2760      7.4573      7.0215      6.8699      6.9232      7.1172      7.4000      7.7241    
  8.0510      8.3469      8.5814      8.7316      8.7832      8.7316      8.5814      8.3469      8.0510      7.7241    
  7.4000      7.1172      6.9232      6.8699      7.0215      7.4573      8.2760      9.5957      11.550      14.274    
  17.892      22.516      28.174      34.784      42.143      49.937      57.785      65.269      71.988      77.590    
  81.791      84.390      66.561      65.835      63.697      60.266      55.735      50.365      44.468      38.379    
  32.427      26.900      22.013      17.892      14.571      12.008      10.131      8.8515      8.0697      7.6886    
  7.6216      7.7946      8.1444      8.6158      9.1567      9.7215      10.263      10.736      11.104      11.338    
  11.418      11.338      11.104      10.736      10.263      9.7215      9.1567      8.6158      8.1444      7.7946    
  7.6216      7.6886      8.0697      8.8515      10.131      12.008      14.571      17.892      22.013      26.900    
  32.427      38.379      44.468      50.365      55.735      60.266      63.697      65.835      50.169      49.604    
  47.942      45.292      41.824      37.757      33.347      28.857      24.533      20.578      17.134      14.274    
  12.008      10.318      9.1596      8.4709      8.1836      8.2311      8.5525      9.0921      9.7981      10.619    
  11.503      12.393      13.232      13.964      14.533      14.894      15.017      14.894      14.533      13.964    
  13.232      12.393      11.503      10.619      9.7981      9.0921      8.5525      8.2311      8.1836      8.4709    
  9.1596      10.318      12.008      14.274      17.134      20.578      24.533      28.857      33.347      37.757    
  41.824      45.292      47.942      49.604      36.664      36.248      35.029      33.096      30.584      27.668    
  24.542      21.401      18.417      15.728      13.423      11.550      10.131      9.1596      8.6108      8.4477    
  8.6295      9.1149      9.8634      10.834      11.984      13.265      14.616      15.971      17.250      18.364    
  19.232      19.786      19.976      19.786      19.232      18.364      17.250      15.971      14.616      13.265    
  11.984      10.834      9.8634      9.1149      8.6295      8.4477      8.6108      9.1596      10.131      11.550    
  13.423      15.728      18.417      21.401      24.542      27.668      30.584      33.096      35.029      36.248    
  26.169      25.880      25.035      23.701      21.980      20.001      17.903      15.819      13.867      12.138    
  10.699      9.5957      8.8515      8.4709      8.4477      8.7681      9.4150      10.369      11.608      13.108    
  14.834      16.739      18.757      20.791      22.729      24.439      25.784      26.645      26.941      26.645    
  25.784      24.439      22.729      20.791      18.757      16.739      14.834      13.108      11.608      10.369    
  9.4150      8.7681      8.4477      8.4709      8.8515      9.5957      10.699      12.138      13.867      15.819    
  17.903      20.001      21.980      23.701      25.035      25.880      18.432      18.241      17.687      16.815    
  15.699      14.425      13.089      11.782      10.584      9.5666      8.7841      8.2760      8.0697      8.1836    
  8.6295      9.4150      10.545      12.023      13.851      16.024      18.523      21.307      24.290      27.348    
  30.299      32.926      35.009      36.351      36.815      36.351      35.009      32.926      30.299      27.348    
  24.290      21.307      18.523      16.024      13.851      12.023      10.545      9.4150      8.6295      8.1836    
  8.0697      8.2760      8.7841      9.5666      10.584      11.782      13.089      14.425      15.699      16.815    
  17.687      18.241      12.958      12.839      12.493      11.951      11.263      10.489      9.6924      8.9392    
  8.2894      7.7960      7.5050      7.4573      7.6886      8.2311      9.1149      10.369      12.023      14.111    
  16.668      19.721      23.281      27.312      31.714      36.291      40.770      44.810      48.038      50.125    
  50.847      50.125      48.038      44.810      40.770      36.291      31.714      27.312      23.281      19.721    
  16.668      14.111      12.023      10.369      9.1149      8.2311      7.6886      7.4573      7.5050      7.7960    
  8.2894      8.9392      9.6924      10.489      11.263      11.951      12.493      12.839      9.1837      9.1133    
  8.9099      8.5955      8.2039      7.7766      7.3592      6.9980      6.7384      6.6256      6.7049      7.0215    
  7.6216      8.5525      9.8634      11.608      13.851      16.668      20.144      24.365      29.381      35.176    
  41.609      48.407      55.121      61.200      66.085      69.265      70.371      69.265      66.085      61.200    
  55.121      48.407      41.609      35.176      29.381      24.365      20.144      16.668      13.851      11.608    
  9.8634      8.5525      7.6216      7.0215      6.7049      6.6256      6.7384      6.9980      7.3592      7.7766    
  8.2039      8.5955      8.9099      9.1133      6.6379      6.6007      6.4945      6.3347      6.1448      5.9542    
  5.7958      5.7055      5.7225      5.8895      6.2542      6.8699      7.7946      9.0921      10.834      13.108    
  16.024      19.721      24.365      30.119      37.102      45.314      54.568      64.413      74.270      83.416    
  90.942      95.924      97.669      95.924      90.942      83.416      74.270      64.413      54.568      45.314    
  37.102      30.119      24.365      19.721      16.024      13.108      10.834      9.0921      7.7946      6.8699    
  6.2542      5.8895      5.7225      5.7055      5.7958      5.9542      6.1448      6.3347      6.4945      6.6007    
  4.9534      4.9381      4.8958      4.8380      4.7818      4.7493      4.7667      4.8648      5.0802      5.4580    
  6.0515      6.9232      8.1444      9.7981      11.984      14.834      18.523      23.281      29.381      37.102    
  46.647      58.026      70.973      85.139      99.852      113.84      125.48      133.21      135.92      133.21    
  125.48      113.84      99.852      85.139      70.973      58.026      46.647      37.102      29.381      23.281    
  18.523      14.834      11.984      9.7981      8.1444      6.9232      6.0515      5.4580      5.0802      4.8648    
  4.7667      4.7493      4.7818      4.8380      4.8958      4.9381      3.8497      3.8483      3.8482      3.8570    
  3.8893      3.9624      4.0999      4.3303      4.6930      5.2355      6.0197      7.1172      8.6158      10.619    
  13.265      16.739      21.307      27.312      35.176      45.314      58.026      73.354      91.409      111.92    
  133.54      154.11      171.13      182.37      186.29      182.37      171.13      154.11      133.54      111.92    
  91.409      73.354      58.026      45.314      35.176      27.312      21.307      16.739      13.265      10.619    
  8.6158      7.1172      6.0197      5.2355      4.6930      4.3303      4.0999      3.9624      3.8893      3.8570    
  3.8482      3.8483      3.1295      3.1382      3.1647      3.2184      3.3087      3.4540      3.6744      4.0024    
  4.4762      5.1529      6.0985      7.4000      9.1567      11.503      14.616      18.757      24.290      31.714    
  41.609      54.568      70.973      91.409      116.37      145.00      175.04      203.25      226.26      241.26    
  246.46      241.26      226.26      203.25      175.04      145.00      116.37      91.409      70.973      54.568    
  41.609      31.714      24.290      18.757      14.616      11.503      9.1567      7.4000      6.0985      5.1529    
  4.4762      4.0024      3.6744      3.4540      3.3087      3.2184      3.1647      3.1382      2.6642      2.6782    
  2.7231      2.8050      2.9359      3.1302      3.4108      3.8094      4.3719      5.1572      6.2432      7.7241    
  9.7215      12.393      15.971      20.791      27.348      36.291      48.407      64.413      85.139      111.92    
  145.00      182.71      221.62      257.40      285.96      304.25      310.53      304.25      285.96      257.40    
  221.62      182.71      145.00      111.92      85.139      64.413      48.407      36.291      27.348      20.791    
  15.971      12.393      9.7215      7.7241      6.2432      5.1572      4.3719      3.8094      3.4108      3.1302    
  2.9359      2.8050      2.7231      2.6782      2.3674      2.3847      2.4424      2.5429      2.7007      2.9285    
  3.2535      3.7049      4.3371      5.2103      6.4149      8.0510      10.263      13.232      17.250      22.729    
  30.299      40.770      55.121      74.270      99.852      133.54      175.04      221.62      268.59      310.67    
  343.38      363.87      370.82      363.87      343.38      310.67      268.59      221.62      175.04      133.54    
  99.852      74.270      55.121      40.770      30.299      22.729      17.250      13.232      10.263      8.0510    
  6.4149      5.2103      4.3371      3.7049      3.2535      2.9285      2.7007      2.5429      2.4424      2.3847    
  2.1817      2.2023      2.2675      2.3821      2.5575      2.8091      3.1638      3.6558      4.3392      5.2835    
  6.5811      8.3469      10.736      13.964      18.364      24.439      32.926      44.810      61.200      83.416    
  113.84      154.11      203.25      257.40      310.67      357.04      392.00      413.32      420.43      413.32    
  392.00      357.04      310.67      257.40      203.25      154.11      113.84      83.416      61.200      44.810    
  32.926      24.439      18.364      13.964      10.736      8.3469      6.5811      5.2835      4.3392      3.6558    
  3.1638      2.8091      2.5575      2.3821      2.2675      2.2023      2.0720      2.0951      2.1645      2.2883    
  2.4747      2.7427      3.1166      3.6375      4.3566      5.3526      6.7181      8.5814      11.104      14.533    
  19.232      25.784      35.009      48.038      66.085      90.942      125.48      171.13      226.26      285.96    
  343.38      392.00      427.56      448.65      455.55      448.65      427.56      392.00      343.38      285.96    
  226.26      171.13      125.48      90.942      66.085      48.038      35.009      25.784      19.232      14.533    
  11.104      8.5814      6.7181      5.3526      4.3566      3.6375      3.1166      2.7427      2.4747      2.2883    
  2.1645      2.0951      2.0150      2.0396      2.1111      2.2402      2.4329      2.7104      3.0951      3.6328    
  4.3734      5.4009      6.8080      8.7316      11.338      14.894      19.786      26.645      36.351      50.125    
  69.265      95.924      133.21      182.37      241.26      304.25      363.87      413.32      448.65      469.11    
  475.71      469.11      448.65      413.32      363.87      304.25      241.26      182.37      133.21      95.924    
  69.265      50.125      36.351      26.645      19.786      14.894      11.338      8.7316      6.8080      5.4009    
  4.3734      3.6328      3.0951      2.7104      2.4329      2.2402      2.1111      2.0396      1.9976      2.0226    
  2.0948      2.2255      2.4201      2.7006      3.0891      3.6323      4.3802      5.4179      6.8393      8.7832    
  11.418      15.017      19.976      26.941      36.815      50.847      70.371      97.669      135.92      186.29    
  246.46      310.53      370.82      420.43      455.55      475.71      482.18      475.71      455.55      420.43    
  370.82      310.53      246.46      186.29      135.92      97.669      70.371      50.847      36.815      26.941    
  19.976      15.017      11.418      8.7832      6.8393      5.4179      4.3802      3.6323      3.0891      2.7006    
  2.4201      2.2255      2.0948      2.0226      2.0150      2.0396      2.1111      2.2402      2.4329      2.7104    
  3.0951      3.6328      4.3734      5.4009      6.8080      8.7316      11.338      14.894      19.786      26.645    
  36.351      50.125      69.265      95.924      133.21      182.37      241.26      304.25      363.87      413.32    
  448.65      469.11      475.71      469.11      448.65      413.32      363.87      304.25      241.26      182.37    
  133.21      95.924      69.265      50.125      36.351      26.645      19.786      14.894      11.338      8.7316    
  6.8080      5.4009      4.3734      3.6328      3.0951      2.7104      2.4329      2.2402      2.1111      2.0396    
  2.0720      2.0951      2.1645      2.2883      2.4747      2.7427      3.1166      3.6375      4.3566      5.3526    
  6.7181      8.5814      11.104      14.533      19.232      25.784      35.009      48.038      66.085      90.942    
  125.48      171.13      226.26      285.96      343.38      392.00      427.56      448.65      455.55      448.65    
  427.56      392.00      343.38      285.96      226.26      171.13      125.48      90.942      66.085      48.038    
  35.009      25.784      19.232      14.533      11.104      8.5814      6.7181      5.3526      4.3566      3.6375    
  3.1166      2.7427      2.4747      2.2883      2.1645      2.0951      2.1817      2.2023      2.2675      2.3821    
  2.5575      2.8091      3.1638      3.6558      4.3392      5.2835      6.5811      8.3469      10.736      13.964    
  18.364      24.439      32.926      44.810      61.200      83.416      113.84      154.11      203.25      257.40    
  310.67      357.04      392.00      413.32      420.43      413.32      392.00      357.04      310.67      257.40    
  203.25      154.11      113.84      83.416      61.200      44.810      32.926      24.439      18.364      13.964    
  10.736      8.3469      6.5811      5.2835      4.3392      3.6558      3.1638      2.8091      2.5575      2.3821    
  2.2675      2.2023      2.3674      2.3847      2.4424      2.5429      2.7007      2.9285      3.2535      3.7049    
  4.3371      5.2103      6.4149      8.0510      10.263      13.232      17.250      22.729      30.299      40.770    
  55.121      74.270      99.852      133.54      175.04      221.62      268.59      310.67      343.38      363.87    
  370.82      363.87      343.38      310.67      268.59      221.62      175.04      133.54      99.852      74.270    
  55.121      40.770      30.299      22.729      17.250      13.232      10.263      8.0510      6.4149      5.2103    
  4.3371      3.7049      3.2535      2.9285      2.7007      2.5429      2.4424      2.3847      2.6642      2.6782    
  2.7231      2.8050      2.9359      3.1302      3.4108      3.8094      4.3719      5.1572      6.2432      7.7241    
  9.7215      12.393      15.971      20.791      27.348      36.291      48.407      64.413      85.139      111.92    
  145.00      182.71      221.62      257.40      285.96      304.25      310.53      304.25      285.96      257.40    
  221.62      182.71      145.00      111.92      85.139      64.413      48.407      36.291      27.348      20.791    
  15.971      12.393      9.7215      7.7241      6.2432      5.1572      4.3719      3.8094      3.4108      3.1302    
  2.9359      2.8050      2.7231      2.6782      3.1295      3.1382      3.1647      3.2184      3.3087      3.4540    
  3.6744      4.0024      4.4762      5.1529      6.0985      7.4000      9.1567      11.503      14.616      18.757    
  24.290      31.714      41.609      54.568      70.973      91.409      116.37      145.00      175.04      203.25    
  226.26      241.26      246.46      241.26      226.26      203.25      175.04      145.00      116.37      91.409    
  70.973      54.568      41.609      31.714      24.290      18.757      14.616      11.503      9.1567      7.4000    
  6.0985      5.1529      4.4762      4.0024      3.6744      3.4540      3.3087      3.2184      3.1647      3.1382    
  3.8497      3.8483      3.8482      3.8570      3.8893      3.9624      4.0999      4.3303      4.6930      5.2355    
  6.0197      7.1172      8.6158      10.619      13.265      16.739      21.307      27.312      35.176      45.314    
  58.026      73.354      91.409      111.92      133.54      154.11      171.13      182.37      186.29      182.37    
  171.13      154.11      133.54      111.92      91.409      73.354      58.026      45.314      35.176      27.312    
  21.307      16.739      13.265      10.619      8.6158      7.1172      6.0197      5.2355      4.6930      4.3303    
  4.0999      3.9624      3.8893      3.8570      3.8482      3.8483      4.9534      4.9381      4.8958      4.8380    
  4.7818      4.7493      4.7667      4.8648      5.0802      5.4580      6.0515      6.9232      8.1444      9.7981    
  11.984      14.834      18.523      23.281      29.381      37.102      46.647      58.026      70.973      85.139    
  99.852      113.84      125.48      133.21      135.92      133.21      125.48      113.84      99.852      85.139    
  70.973      58.026      46.647      37.102      29.381      23.281      18.523      14.834      11.984      9.7981    
  8.1444      6.9232      6.0515      5.4580      5.0802      4.8648      4.7667      4.7493      4.7818      4.8380    
  4.8958      4.9381      6.6379      6.6007      6.4945      6.3347      6.1448      5.9542      5.7958      5.7055    
  5.7225      5.8895      6.2542      6.8699      7.7946      9.0921      10.834      13.108      16.024      19.721    
  24.365      30.119      37.102      45.314      54.568      64.413      74.270      83.416      90.942      95.924    
  97.669      95.924      90.942      83.416      74.270      64.413      54.568      45.314      37.102      30.119    
  24.365      19.721      16.024      13.108      10.834      9.0921      7.7946      6.8699      6.2542      5.8895    
  5.7225      5.7055      5.7958      5.9542      6.1448      6.3347      6.4945      6.6007      9.1837      9.1133    
  8.9099      8.5955      8.2039      7.7766      7.3592      6.9980      6.7384      6.6256      6.7049      7.0215    
  7.6216      8.5525      9.8634      11.608      13.851      16.668      20.144      24.365      29.381      35.176    
  41.609      48.407      55.121      61.200      66.085      69.265      70.371      69.265      66.085      61.200    
  55.121      48.407      41.609      35.176      29.381      24.365      20.144      16.668      13.851      11.608    
  9.8634      8.5525      7.6216      7.0215      6.7049      6.6256      6.7384      6.9980      7.3592      7.7766    
  8.2039      8.5955      8.9099      9.1133      12.958      12.839      12.493      11.951      11.263      10.489    
  9.6924      8.9392      8.2894      7.7960      7.5050      7.4573      7.6886      8.2311      9.1149      10.369    
  12.023      14.111      16.668      19.721      23.281      27.312      31.714      36.291      40.770      44.810    
  48.038      50.125      50.847      50.125      48.038      44.810      40.770      36.291      31.714      27.312    
  23.281      19.721      16.668      14.111      12.023      10.369      9.1149      8.2311      7.6886      7.4573    
  7.5050      7.7960      8.2894      8.9392      9.6924      10.489      11.263      11.951      12.493      12.839    
  18.432      18.241      17.687      16.815      15.699      14.425      13.089      11.782      10.584      9.5666    
  8.7841      8.2760      8.0697      8.1836      8.6295      9.4150      10.545      12.023      13.851      16.024    
  18.523      21.307      24.290      27.348      30.299      32.926      35.009      36.351      36.815      36.351    
  35.009      32.926      30.299      27.348      24.290      21.307      18.523      16.024      13.851      12.023    
  10.545      9.4150      8.6295      8.1836      8.0697      8.2760      8.7841      9.5666      10.584      11.782    
  13.089      14.425      15.699      16.815      17.687      18.241      26.169      25.880      25.035      23.701    
  21.980      20.001      17.903      15.819      13.867      12.138      10.699      9.5957      8.8515      8.4709    
  8.4477      8.7681      9.4150      10.369      11.608      13.108      14.834      16.739      18.757      20.791    
  22.729      24.439      25.784      26.645      26.941      26.645      25.784      24.439      22.729      20.791    
  18.757      16.739      14.834      13.108      11.608      10.369      9.4150      8.7681      8.4477      8.4709    
  8.8515      9.5957      10.699      12.138      13.867      15.819      17.903      20.001      21.980      23.701    
  25.035      25.880      36.664      36.248      35.029      33.096      30.584      27.668      24.542      21.401    
  18.417      15.728      13.423      11.550      10.131      9.1596      8.6108      8.4477      8.6295      9.1149    
  9.8634      10.834      11.984      13.265      14.616      15.971      17.250      18.364      19.232      19.786    
  19.976      19.786      19.232      18.364      17.250      15.971      14.616      13.265      11.984      10.834    
  9.8634      9.1149      8.6295      8.4477      8.6108      9.1596      10.131      11.550      13.423      15.728    
  18.417      21.401      24.542      27.668      30.584      33.096      35.029      36.248      50.169      49.604    
  47.942      45.292      41.824      37.757      33.347      28.857      24.533      20.578      17.134      14.274    
  12.008      10.318      9.1596      8.4709      8.1836      8.2311      8.5525      9.0921      9.7981      10.619    
  11.503      12.393      13.232      13.964      14.533      14.894      15.017      14.894      14.533      13.964    