unknown system                          
   1.00000000000000     
     3.946846    0.000000   -0.000000
    -0.000000    3.946846    0.000000
     0.000000   -0.000000    3.946846
   Sr   Ti   O 
     1     1     3
Direct
 -0.000000  0.000000  0.000000
  0.500000  0.500000  0.500000
  0.500000  0.500000 -0.000000
  0.500000 -0.000000  0.500000
 -0.000000  0.500000  0.500000
 
   56   56   56
 0.19920821319E+03 0.19923621393E+03 0.19903401521E+03 0.19782907604E+03 0.19459194414E+03
 0.18833222692E+03 0.17837543643E+03 0.16455242823E+03 0.14727030213E+03 0.12746054323E+03
 0.10642416440E+03 0.85603656430E+02 0.66330496075E+02 0.49606351258E+02 0.35972348952E+02
 0.25492752237E+02 0.17848738569E+02 0.12488113400E+02 0.88176872747E+01 0.63619403001E+01
 0.47464278583E+01 0.36929998399E+01 0.30076989494E+01 0.25661423952E+01 0.22862011980E+01
 0.21121698737E+01 0.20098720908E+01 0.19570810707E+01 0.19409808232E+01 0.19570810707E+01
 0.20098720908E+01 0.21121698737E+01 0.22862011980E+01 0.25661423952E+01 0.30076989494E+01
 0.36929998399E+01 0.47464278583E+01 0.63619403001E+01 0.88176872747E+01 0.12488113400E+02
 0.17848738569E+02 0.25492752237E+02 0.35972348952E+02 0.49606351258E+02 0.66330496075E+02
 0.85603656430E+02 0.10642416440E+03 0.12746054323E+03 0.14727030213E+03 0.16455242823E+03
 0.17837543643E+03 0.18833222692E+03 0.19459194414E+03 0.19782907604E+03 0.19903401521E+03
 0.19923621393E+03 0.19923621393E+03 0.19921548065E+03 0.19887609733E+03 0.19747004914E+03
 0.19400226958E+03 0.18751889410E+03 0.17737759196E+03 0.16343219814E+03 0.14610183727E+03
 0.12631867328E+03 0.10537427430E+03 0.84693393224E+02 0.65586178518E+02 0.49032198008E+02
 0.35554530703E+02 0.25205497044E+02 0.17661621787E+02 0.12371748297E+02 0.87495697186E+01
 0.63262130671E+01 0.47319761024E+01 0.36918809271E+01 0.30162541489E+01 0.25801190627E+01
 0.23029210683E+01 0.21319056920E+01 0.20320407404E+01 0.19808192408E+01 0.19651243573E+01
 0.19808192408E+01 0.20320407404E+01 0.21319056920E+01 0.23029210683E+01 0.25801190627E+01
 0.30162541489E+01 0.36918809271E+01 0.47319761024E+01 0.63262130671E+01 0.87495697186E+01
 0.12371748297E+02 0.17661621787E+02 0.25205497044E+02 0.35554530703E+02 0.49032198008E+02
 0.65586178518E+02 0.84693393224E+02 0.10537427430E+03 0.12631867328E+03 0.14610183727E+03
 0.16343219814E+03 0.17737759196E+03 0.18751889410E+03 0.19400226958E+03 0.19747004914E+03
 0.19887609733E+03 0.19921548065E+03 0.19903401521E+03 0.19887609733E+03 0.19815065256E+03
 0.19617965548E+03 0.19206577173E+03 0.18495940016E+03 0.17431001381E+03 0.16003751362E+03
 0.14259489718E+03 0.12291496640E+03 0.10226056762E+03 0.82005378817E+02 0.63395774725E+02
 0.47347760269E+02 0.34332003199E+02 0.24367092328E+02 0.17116626426E+02 0.12033767105E+02
 0.85527785637E+01 0.62245528267E+01 0.46921614703E+01 0.36927495154E+01 0.30427180385E+01
 0.26240010662E+01 0.23594369551E+01 0.21959753169E+01 0.21001908415E+01 0.20509599032E+01
 0.20359250805E+01 0.20509599032E+01 0.21001908415E+01 0.21959753169E+01 0.23594369551E+01
 0.26240010662E+01 0.30427180385E+01 0.36927495154E+01 0.46921614703E+01 0.62245528267E+01
 0.85527785637E+01 0.12033767105E+02 0.17116626426E+02 0.24367092328E+02 0.34332003199E+02
 0.47347760269E+02 0.63395774725E+02 0.82005378817E+02 0.10226056762E+03 0.12291496640E+03
 0.14259489718E+03 0.16003751362E+03 0.17431001381E+03 0.18495940016E+03 0.19206577173E+03
 0.19617965548E+03 0.19815065256E+03 0.19887609733E+03 0.19782907604E+03 0.19747004914E+03
 0.19617965548E+03 0.19338492900E+03 0.18833583177E+03 0.18034002400E+03 0.16898564144E+03
 0.15429164525E+03 0.13676077234E+03 0.11732403497E+03 0.97196535549E+02 0.77668550193E+02
 0.59885943704E+02 0.44664648772E+02 0.32394931175E+02 0.23044960329E+02 0.16260955885E+02
 0.11505891440E+02 0.82493624498E+01 0.60721254789E+01 0.46387421517E+01 0.37033080637E+01
 0.30965280642E+01 0.27054091978E+01 0.24580893812E+01 0.23078630943E+01 0.22211063934E+01
 0.21771783795E+01 0.21636483984E+01 0.21771783795E+01 0.22211063934E+01 0.23078630943E+01
 0.24580893812E+01 0.27054091978E+01 0.30965280642E+01 0.37033080637E+01 0.46387421517E+01
 0.60721254789E+01 0.82493624498E+01 0.11505891440E+02 0.16260955885E+02 0.23044960329E+02
 0.32394931175E+02 0.44664648772E+02 0.59885943704E+02 0.77668550193E+02 0.97196535549E+02
 0.11732403497E+03 0.13676077234E+03 0.15429164525E+03 0.16898564144E+03 0.18034002400E+03
 0.18833583177E+03 0.19338492900E+03 0.19617965548E+03 0.19747004914E+03 0.19459194414E+03
 0.19400226958E+03 0.19206577173E+03 0.18833583177E+03 0.18223943141E+03 0.17327401687E+03
 0.16119479450E+03 0.14613940647E+03 0.12866681750E+03 0.10969899690E+03 0.90383486274E+02
 0.71900047138E+02 0.55262693615E+02 0.41160639941E+02 0.29884376642E+02 0.21343339705E+02
 0.15166426042E+02 0.10836626677E+02 0.78726892644E+01 0.58924102010E+01 0.45885027900E+01
 0.37384908584E+01 0.31874197243E+01 0.28350537717E+01 0.26141688587E+01 0.24808464422E+01
 0.24046120511E+01 0.23665178067E+01 0.23548794714E+01 0.23665178067E+01 0.24046120511E+01
 0.24808464422E+01 0.26141688587E+01 0.28350537717E+01 0.31874197243E+01 0.37384908584E+01
 0.45885027900E+01 0.58924102010E+01 0.78726892644E+01 0.10836626677E+02 0.15166426042E+02
 0.21343339705E+02 0.29884376642E+02 0.41160639941E+02 0.55262693615E+02 0.71900047138E+02
 0.90383486274E+02 0.10969899690E+03 0.12866681750E+03 0.14613940647E+03 0.16119479450E+03
 0.17327401687E+03 0.18223943141E+03 0.18833583177E+03 0.19206577173E+03 0.19400226958E+03
 0.18833222692E+03 0.18751889410E+03 0.18495940016E+03 0.18034002400E+03 0.17327401687E+03
 0.16345899102E+03 0.15082513498E+03 0.13563185099E+03 0.11848976672E+03 0.10029969852E+03
 0.82121783597E+02 0.65001991990E+02 0.49801197851E+02 0.37065926522E+02 0.26978767015E+02
 0.19391324275E+02 0.13920797277E+02 0.10085361078E+02 0.74637925550E+01 0.57139857441E+01
 0.45633827231E+01 0.38148505244E+01 0.33332625626E+01 0.30282461346E+01 0.28393499250E+01
 0.27284241694E+01 0.26676779425E+01 0.26385905921E+01 0.26299505666E+01 0.26385905921E+01
 0.26676779425E+01 0.27284241694E+01 0.28393499250E+01 0.30282461346E+01 0.33332625626E+01
 0.38148505244E+01 0.45633827231E+01 0.57139857441E+01 0.74637925550E+01 0.10085361078E+02
 0.13920797277E+02 0.19391324275E+02 0.26978767015E+02 0.37065926522E+02 0.49801197851E+02
 0.65001991990E+02 0.82121783597E+02 0.10029969852E+03 0.11848976672E+03 0.13563185099E+03
 0.15082513498E+03 0.16345899102E+03 0.17327401687E+03 0.18034002400E+03 0.18495940016E+03
 0.18751889410E+03 0.17837543643E+03 0.17737759196E+03 0.17431001381E+03 0.16898564144E+03
 0.16119479450E+03 0.15082513498E+03 0.13797059458E+03 0.12299995827E+03 0.10656000462E+03
 0.89512149374E+02 0.72809810754E+02 0.57349558766E+02 0.43826946773E+02 0.32642907954E+02
 0.23875537728E+02 0.17327946758E+02 0.12617352294E+02 0.93163827652E+01 0.70669165554E+01
 0.55689452141E+01 0.45880942757E+01 0.39552703180E+01 0.35533742599E+01 0.33054975868E+01
 0.31595881586E+01 0.30775772330E+01 0.30352985197E+01 0.30162940747E+01 0.30111639632E+01
 0.30162940747E+01 0.30352985197E+01 0.30775772330E+01 0.31595881586E+01 0.33054975868E+01
 0.35533742599E+01 0.39552703180E+01 0.45880942757E+01 0.55689452141E+01 0.70669165554E+01
 0.93163827652E+01 0.12617352294E+02 0.17327946758E+02 0.23875537728E+02 0.32642907954E+02
 0.43826946773E+02 0.57349558766E+02 0.72809810754E+02 0.89512149374E+02 0.10656000462E+03
 0.12299995827E+03 0.13797059458E+03 0.15082513498E+03 0.16119479450E+03 0.16898564144E+03
 0.17431001381E+03 0.17737759196E+03 0.16455242823E+03 0.16343219814E+03 0.16003751362E+03
 0.15429164525E+03 0.14613940647E+03 0.13563185099E+03 0.12299995827E+03 0.10869509382E+03
 0.93375988441E+02 0.77842835995E+02 0.62926671223E+02 0.49364567885E+02 0.37688175454E+02
 0.28160406528E+02 0.20770041450E+02 0.15286198986E+02 0.11346009806E+02 0.85929294190E+01
 0.67266592153E+01 0.54914269674E+01 0.46921695842E+01 0.41863718567E+01 0.38779954918E+01
 0.36985443632E+01 0.36026177125E+01 0.35590817024E+01 0.35443093342E+01 0.35416202902E+01
 0.35418078048E+01 0.35416202902E+01 0.35443093342E+01 0.35590817024E+01 0.36026177125E+01
 0.36985443632E+01 0.38779954918E+01 0.41863718567E+01 0.46921695842E+01 0.54914269674E+01
 0.67266592153E+01 0.85929294190E+01 0.11346009806E+02 0.15286198986E+02 0.20770041450E+02
 0.28160406528E+02 0.37688175454E+02 0.49364567885E+02 0.62926671223E+02 0.77842835995E+02
 0.93375988441E+02 0.10869509382E+03 0.12299995827E+03 0.13563185099E+03 0.14613940647E+03
 0.15429164525E+03 0.16003751362E+03 0.16343219814E+03 0.14727030213E+03 0.14610183727E+03
 0.14259489718E+03 0.13676077234E+03 0.12866681750E+03 0.11848976672E+03 0.10656000462E+03
 0.93375988441E+02 0.79578758318E+02 0.65884687008E+02 0.52991579997E+02 0.41477284669E+02
 0.31720927393E+02 0.23865861394E+02 0.17834335004E+02 0.13380005459E+02 0.10187208842E+02
 0.79730000950E+01 0.64864117959E+01 0.55186613579E+01 0.49100916795E+01 0.45459875460E+01
 0.43443036315E+01 0.42498086430E+01 0.42215436976E+01 0.42278306800E+01 0.42473859384E+01
 0.42652120565E+01 0.42722301994E+01 0.42652120565E+01 0.42473859384E+01 0.42278306800E+01
 0.42215436976E+01 0.42498086430E+01 0.43443036315E+01 0.45459875460E+01 0.49100916795E+01
 0.55186613579E+01 0.64864117959E+01 0.79730000950E+01 0.10187208842E+02 0.13380005459E+02
 0.17834335004E+02 0.23865861394E+02 0.31720927393E+02 0.41477284669E+02 0.52991579997E+02
 0.65884687008E+02 0.79578758318E+02 0.93375988441E+02 0.10656000462E+03 0.11848976672E+03
 0.12866681750E+03 0.13676077234E+03 0.14259489718E+03 0.14610183727E+03 0.12746054323E+03
 0.12631867328E+03 0.12291496640E+03 0.11732403497E+03 0.10969899690E+03 0.10029969852E+03
 0.89512149374E+02 0.77842835995E+02 0.65884687008E+02 0.54253280509E+02 0.43508727170E+02
 0.34079437508E+02 0.26213095494E+02 0.19959953738E+02 0.15199974933E+02 0.11698248118E+02
 0.92085202895E+01 0.75067791548E+01 0.63894174595E+01 0.56913028670E+01 0.52857687644E+01
 0.50801414194E+01 0.50082066208E+01 0.50193006991E+01 0.50758426076E+01 0.51508200607E+01
 0.52207572159E+01 0.52694138718E+01 0.52865767752E+01 0.52694138718E+01 0.52207572159E+01
 0.51508200607E+01 0.50758426076E+01 0.50193006991E+01 0.50082066208E+01 0.50801414194E+01
 0.52857687644E+01 0.56913028670E+01 0.63894174595E+01 0.75067791548E+01 0.92085202895E+01
 0.11698248118E+02 0.15199974933E+02 0.19959953738E+02 0.26213095494E+02 0.34079437508E+02
 0.43508727170E+02 0.54253280509E+02 0.65884687008E+02 0.77842835995E+02 0.89512149374E+02
 0.10029969852E+03 0.10969899690E+03 0.11732403497E+03 0.12291496640E+03 0.12631867328E+03
 0.10642416440E+03 0.10537427430E+03 0.10226056762E+03 0.97196535549E+02 0.90383486274E+02
 0.82121783597E+02 0.72809810754E+02 0.62926671223E+02 0.52991579997E+02 0.43508727170E+02
 0.34904951564E+02 0.27479904767E+02 0.21374696655E+02 0.16577788252E+02 0.12951073069E+02
 0.10306366452E+02 0.84615863350E+01 0.72380880371E+01 0.64788941907E+01 0.60561896174E+01
 0.58715696048E+01 0.58508869311E+01 0.59361129011E+01 0.60838003147E+01 0.62571648845E+01
 0.64237828474E+01 0.65605414164E+01 0.66498135175E+01 0.66809471048E+01 0.66498135175E+01
 0.65605414164E+01 0.64237828474E+01 0.62571648845E+01 0.60838003147E+01 0.59361129011E+01
 0.58508869311E+01 0.58715696048E+01 0.60561896174E+01 0.64788941907E+01 0.72380880371E+01
 0.84615863350E+01 0.10306366452E+02 0.12951073069E+02 0.16577788252E+02 0.21374696655E+02
 0.27479904767E+02 0.34904951564E+02 0.43508727170E+02 0.52991579997E+02 0.62926671223E+02
 0.72809810754E+02 0.82121783597E+02 0.90383486274E+02 0.97196535549E+02 0.10226056762E+03
 0.10537427430E+03 0.85603656430E+02 0.84693393224E+02 0.82005378817E+02 0.77668550193E+02
 0.71900047138E+02 0.65001991990E+02 0.57349558766E+02 0.49364567885E+02 0.41477284669E+02
 0.34079437508E+02 0.27479904767E+02 0.21871347488E+02 0.17321670947E+02 0.13781638096E+02
 0.11133398365E+02 0.92469768161E+01 0.79828780515E+01 0.72061009999E+01 0.67993332379E+01
 0.66663639657E+01 0.67308277969E+01 0.69306237009E+01 0.72160392646E+01 0.75409728898E+01
 0.78665965664E+01 0.81608146072E+01 0.83937374973E+01 0.85428809262E+01 0.85940814501E+01
 0.85428809262E+01 0.83937374973E+01 0.81608146072E+01 0.78665965664E+01 0.75409728898E+01
 0.72160392646E+01 0.69306237009E+01 0.67308277969E+01 0.66663639657E+01 0.67993332379E+01
 0.72061009999E+01 0.79828780515E+01 0.92469768161E+01 0.11133398365E+02 0.13781638096E+02
 0.17321670947E+02 0.21871347488E+02 0.27479904767E+02 0.34079437508E+02 0.41477284669E+02
 0.49364567885E+02 0.57349558766E+02 0.65001991990E+02 0.71900047138E+02 0.77668550193E+02
 0.82005378817E+02 0.84693393224E+02 0.66330496075E+02 0.65586178518E+02 0.63395774725E+02
 0.59885943704E+02 0.55262693615E+02 0.49801197851E+02 0.43826946773E+02 0.37688175454E+02
 0.31720927393E+02 0.26213095494E+02 0.21374696655E+02 0.17321670947E+02 0.14072701112E+02
 0.11578515234E+02 0.97652657946E+01 0.85393899301E+01 0.77984568314E+01 0.74460609541E+01
 0.73973872793E+01 0.75810532161E+01 0.79358405836E+01 0.84088424506E+01 0.89489314385E+01
 0.95110960451E+01 0.10049549065E+02 0.10519424359E+02 0.10884618320E+02 0.11116313066E+02
 0.11195817640E+02 0.11116313066E+02 0.10884618320E+02 0.10519424359E+02 0.10049549065E+02
 0.95110960451E+01 0.89489314385E+01 0.84088424506E+01 0.79358405836E+01 0.75810532161E+01
 0.73973872793E+01 0.74460609541E+01 0.77984568314E+01 0.85393899301E+01 0.97652657946E+01
 0.11578515234E+02 0.14072701112E+02 0.17321670947E+02 0.21374696655E+02 0.26213095494E+02
 0.31720927393E+02 0.37688175454E+02 0.43826946773E+02 0.49801197851E+02 0.55262693615E+02
 0.59885943704E+02 0.63395774725E+02 0.65586178518E+02 0.49606351258E+02 0.49032198008E+02
 0.47347760269E+02 0.44664648772E+02 0.41160639941E+02 0.37065926522E+02 0.32642907954E+02
 0.28160406528E+02 0.23865861394E+02 0.19959953738E+02 0.16577788252E+02 0.13781638096E+02
 0.11578515234E+02 0.99464997500E+01 0.88375585839E+01 0.81868813550E+01 0.79263785758E+01
 0.79908710189E+01 0.83216420621E+01 0.88650265943E+01 0.95711227312E+01 0.10389181260E+02
 0.11269163725E+02 0.12153525470E+02 0.12985412699E+02 0.13710284044E+02 0.14273598764E+02
 0.14630995126E+02 0.14753385806E+02 0.14630995126E+02 0.14273598764E+02 0.13710284044E+02
 0.12985412699E+02 0.12153525470E+02 0.11269163725E+02 0.10389181260E+02 0.95711227312E+01
 0.88650265943E+01 0.83216420621E+01 0.79908710189E+01 0.79263785758E+01 0.81868813550E+01
 0.88375585839E+01 0.99464997500E+01 0.11578515234E+02 0.13781638096E+02 0.16577788252E+02
 0.19959953738E+02 0.23865861394E+02 0.28160406528E+02 0.32642907954E+02 0.37065926522E+02
 0.41160639941E+02 0.44664648772E+02 0.47347760269E+02 0.49032198008E+02 0.35972348952E+02
 0.35554530703E+02 0.34332003199E+02 0.32394931175E+02 0.29884376642E+02 0.26978767015E+02
 0.23875537728E+02 0.20770041450E+02 0.17834335004E+02 0.15199974933E+02 0.12951073069E+02
 0.11133398365E+02 0.97652657946E+01 0.88375585839E+01 0.83222832983E+01 0.81827881807E+01
 0.83791113064E+01 0.88719401196E+01 0.96223757390E+01 0.10591370853E+02 0.11736088540E+02
 0.13008768718E+02 0.14349501914E+02 0.15692895659E+02 0.16959869720E+02 0.18063066472E+02
 0.18922408425E+02 0.19469332023E+02 0.19657290944E+02 0.19469332023E+02 0.18922408425E+02
 0.18063066472E+02 0.16959869720E+02 0.15692895659E+02 0.14349501914E+02 0.13008768718E+02
 0.11736088540E+02 0.10591370853E+02 0.96223757390E+01 0.88719401196E+01 0.83791113064E+01
 0.81827881807E+01 0.83222832983E+01 0.88375585839E+01 0.97652657946E+01 0.11133398365E+02
 0.12951073069E+02 0.15199974933E+02 0.17834335004E+02 0.20770041450E+02 0.23875537728E+02
 0.26978767015E+02 0.29884376642E+02 0.32394931175E+02 0.34332003199E+02 0.35554530703E+02
 0.25492752237E+02 0.25205497044E+02 0.24367092328E+02 0.23044960329E+02 0.21343339705E+02
 0.19391324275E+02 0.17327946758E+02 0.15286198986E+02 0.13380005459E+02 0.11698248118E+02
 0.10306366452E+02 0.92469768161E+01 0.85393899301E+01 0.81868813550E+01 0.81827881807E+01
 0.85142831874E+01 0.91657922697E+01 0.10119243868E+02 0.11354319034E+02 0.12845598392E+02
 0.14559978735E+02 0.16449088439E+02 0.18448451675E+02 0.20463359470E+02 0.22380344331E+02
 0.24072460673E+02 0.25403850141E+02 0.26256559801E+02 0.26550145200E+02 0.26256559801E+02
 0.25403850141E+02 0.24072460673E+02 0.22380344331E+02 0.20463359470E+02 0.18448451675E+02
 0.16449088439E+02 0.14559978735E+02 0.12845598392E+02 0.11354319034E+02 0.10119243868E+02
 0.91657922697E+01 0.85142831874E+01 0.81827881807E+01 0.81868813550E+01 0.85393899301E+01
 0.92469768161E+01 0.10306366452E+02 0.11698248118E+02 0.13380005459E+02 0.15286198986E+02
 0.17327946758E+02 0.19391324275E+02 0.21343339705E+02 0.23044960329E+02 0.24367092328E+02
 0.25205497044E+02 0.17848738569E+02 0.17661621787E+02 0.17116626426E+02 0.16260955885E+02
 0.15166426042E+02 0.13920797277E+02 0.12617352294E+02 0.11346009806E+02 0.10187208842E+02
 0.92085202895E+01 0.84615863350E+01 0.79828780515E+01 0.77984568314E+01 0.79263785758E+01
 0.83791113064E+01 0.91657922697E+01 0.10292505449E+02 0.11763466545E+02 0.13579534330E+02
 0.15735895196E+02 0.18213582702E+02 0.20970970915E+02 0.23924983259E+02 0.26953610925E+02
 0.29879931837E+02 0.32486722895E+02 0.34554726560E+02 0.35887610605E+02 0.36348504399E+02
 0.35887610605E+02 0.34554726560E+02 0.32486722895E+02 0.29879931837E+02 0.26953610925E+02
 0.23924983259E+02 0.20970970915E+02 0.18213582702E+02 0.15735895196E+02 0.13579534330E+02
 0.11763466545E+02 0.10292505449E+02 0.91657922697E+01 0.83791113064E+01 0.79263785758E+01
 0.77984568314E+01 0.79828780515E+01 0.84615863350E+01 0.92085202895E+01 0.10187208842E+02
 0.11346009806E+02 0.12617352294E+02 0.13920797277E+02 0.15166426042E+02 0.16260955885E+02
 0.17116626426E+02 0.17661621787E+02 0.12488113400E+02 0.12371748297E+02 0.12033767105E+02
 0.11505891440E+02 0.10836626677E+02 0.10085361078E+02 0.93163827652E+01 0.85929294190E+01
 0.79730000950E+01 0.75067791548E+01 0.72380880371E+01 0.72061009999E+01 0.74460609541E+01
 0.79908710189E+01 0.88719401196E+01 0.10119243868E+02 0.11763466545E+02 0.13836629939E+02
 0.16372334454E+02 0.19398519837E+02 0.22924911178E+02 0.26918004722E+02 0.31283337153E+02
 0.35829270166E+02 0.40284035930E+02 0.44310614392E+02 0.47534497762E+02 0.49622473510E+02
 0.50345395588E+02 0.49622473510E+02 0.47534497762E+02 0.44310614392E+02 0.40284035930E+02
 0.35829270166E+02 0.31283337153E+02 0.26918004722E+02 0.22924911178E+02 0.19398519837E+02
 0.16372334454E+02 0.13836629939E+02 0.11763466545E+02 0.10119243868E+02 0.88719401196E+01
 0.79908710189E+01 0.74460609541E+01 0.72061009999E+01 0.72380880371E+01 0.75067791548E+01
 0.79730000950E+01 0.85929294190E+01 0.93163827652E+01 0.10085361078E+02 0.10836626677E+02
 0.11505891440E+02 0.12033767105E+02 0.12371748297E+02 0.88176872747E+01 0.87495697186E+01
 0.85527785637E+01 0.82493624498E+01 0.78726892644E+01 0.74637925550E+01 0.70669165554E+01
 0.67266592153E+01 0.64864117959E+01 0.63894174595E+01 0.64788941907E+01 0.67993332379E+01
 0.73973872793E+01 0.83216420621E+01 0.96223757390E+01 0.11354319034E+02 0.13579534330E+02
 0.16372334454E+02 0.19816964713E+02 0.23997379754E+02 0.28968595188E+02 0.34720219931E+02
 0.41120348377E+02 0.47903203951E+02 0.54627939355E+02 0.60732249775E+02 0.65643606246E+02
 0.68841761301E+02 0.69954182178E+02 0.68841761301E+02 0.65643606246E+02 0.60732249775E+02
 0.54627939355E+02 0.47903203951E+02 0.41120348377E+02 0.34720219931E+02 0.28968595188E+02
 0.23997379754E+02 0.19816964713E+02 0.16372334454E+02 0.13579534330E+02 0.11354319034E+02
 0.96223757390E+01 0.83216420621E+01 0.73973872793E+01 0.67993332379E+01 0.64788941907E+01
 0.63894174595E+01 0.64864117959E+01 0.67266592153E+01 0.70669165554E+01 0.74637925550E+01
 0.78726892644E+01 0.82493624498E+01 0.85527785637E+01 0.87495697186E+01 0.63619403001E+01
 0.63262130671E+01 0.62245528267E+01 0.60721254789E+01 0.58924102010E+01 0.57139857441E+01
 0.55689452141E+01 0.54914269674E+01 0.55186613579E+01 0.56913028670E+01 0.60561896174E+01
 0.66663639657E+01 0.75810532161E+01 0.88650265943E+01 0.10591370853E+02 0.12845598392E+02
 0.15735895196E+02 0.19398519837E+02 0.23997379754E+02 0.29700177516E+02 0.36635000933E+02
 0.44814549000E+02 0.54071013073E+02 0.63961584332E+02 0.73875014001E+02 0.83076355857E+02
 0.90654379793E+02 0.95675735596E+02 0.97435755966E+02 0.95675735596E+02 0.90654379793E+02
 0.83076355857E+02 0.73875014001E+02 0.63961584332E+02 0.54071013073E+02 0.44814549000E+02
 0.36635000933E+02 0.29700177516E+02 0.23997379754E+02 0.19398519837E+02 0.15735895196E+02
 0.12845598392E+02 0.10591370853E+02 0.88650265943E+01 0.75810532161E+01 0.66663639657E+01
 0.60561896174E+01 0.56913028670E+01 0.55186613579E+01 0.54914269674E+01 0.55689452141E+01
 0.57139857441E+01 0.58924102010E+01 0.60721254789E+01 0.62245528267E+01 0.63262130671E+01
 0.47464278583E+01 0.47319761024E+01 0.46921614703E+01 0.46387421517E+01 0.45885027900E+01
 0.45633827231E+01 0.45880942757E+01 0.46921695842E+01 0.49100916795E+01 0.52857687644E+01
 0.58715696048E+01 0.67308277969E+01 0.79358405836E+01 0.95711227312E+01 0.11736088540E+02
 0.14559978735E+02 0.18213582702E+02 0.22924911178E+02 0.28968595188E+02 0.36635000933E+02
 0.46144498448E+02 0.57541028572E+02 0.70558831087E+02 0.84809384337E+02 0.99635105128E+02
 0.11377738532E+03 0.12558609885E+03 0.13344608148E+03 0.13620608686E+03 0.13344608148E+03
 0.12558609885E+03 0.11377738532E+03 0.99635105128E+02 0.84809384337E+02 0.70558831087E+02
 0.57541028572E+02 0.46144498448E+02 0.36635000933E+02 0.28968595188E+02 0.22924911178E+02
 0.18213582702E+02 0.14559978735E+02 0.11736088540E+02 0.95711227312E+01 0.79358405836E+01
 0.67308277969E+01 0.58715696048E+01 0.52857687644E+01 0.49100916795E+01 0.46921695842E+01
 0.45880942757E+01 0.45633827231E+01 0.45885027900E+01 0.46387421517E+01 0.46921614703E+01
 0.47319761024E+01 0.36929998399E+01 0.36918809271E+01 0.36927495154E+01 0.37033080637E+01
 0.37384908584E+01 0.38148505244E+01 0.39552703180E+01 0.41863718567E+01 0.45459875460E+01
 0.50801414194E+01 0.58508869311E+01 0.69306237009E+01 0.84088424506E+01 0.10389181260E+02
 0.13008768718E+02 0.16449088439E+02 0.20970970915E+02 0.26918004722E+02 0.34720219931E+02
 0.44814549000E+02 0.57541028572E+02 0.72954449904E+02 0.91121809291E+02 0.11182875571E+03
 0.13378006370E+03 0.15477034265E+03 0.17220782177E+03 0.18374957523E+03 0.18778391239E+03
 0.18374957523E+03 0.17220782177E+03 0.15477034265E+03 0.13378006370E+03 0.11182875571E+03
 0.91121809291E+02 0.72954449904E+02 0.57541028572E+02 0.44814549000E+02 0.34720219931E+02
 0.26918004722E+02 0.20970970915E+02 0.16449088439E+02 0.13008768718E+02 0.10389181260E+02
 0.84088424506E+01 0.69306237009E+01 0.58508869311E+01 0.50801414194E+01 0.45459875460E+01
 0.41863718567E+01 0.39552703180E+01 0.38148505244E+01 0.37384908584E+01 0.37033080637E+01
 0.36927495154E+01 0.36918809271E+01 0.30076989494E+01 0.30162541489E+01 0.30427180385E+01
 0.30965280642E+01 0.31874197243E+01 0.33332625626E+01 0.35533742599E+01 0.38779954918E+01
 0.43443036315E+01 0.50082066208E+01 0.59361129011E+01 0.72160392646E+01 0.89489314385E+01
 0.11269163725E+02 0.14349501914E+02 0.18448451675E+02 0.23924983259E+02 0.31283337153E+02
 0.41120348377E+02 0.54071013073E+02 0.70558831087E+02 0.91121809291E+02 0.11634141939E+03
 0.14546311330E+03 0.17620973058E+03 0.20525383984E+03 0.22904281722E+03 0.24458797717E+03
 0.24998654505E+03 0.24458797717E+03 0.22904281722E+03 0.20525383984E+03 0.17620973058E+03
 0.14546311330E+03 0.11634141939E+03 0.91121809291E+02 0.70558831087E+02 0.54071013073E+02
 0.41120348377E+02 0.31283337153E+02 0.23924983259E+02 0.18448451675E+02 0.14349501914E+02
 0.11269163725E+02 0.89489314385E+01 0.72160392646E+01 0.59361129011E+01 0.50082066208E+01
 0.43443036315E+01 0.38779954918E+01 0.35533742599E+01 0.33332625626E+01 0.31874197243E+01
 0.30965280642E+01 0.30427180385E+01 0.30162541489E+01 0.25661423952E+01 0.25801190627E+01
 0.26240010662E+01 0.27054091978E+01 0.28350537717E+01 0.30282461346E+01 0.33054975868E+01
 0.36985443632E+01 0.42498086430E+01 0.50193006991E+01 0.60838003147E+01 0.75409728898E+01
 0.95110960451E+01 0.12153525470E+02 0.15692895659E+02 0.20463359470E+02 0.26953610925E+02
 0.35829270166E+02 0.47903203951E+02 0.63961584332E+02 0.84809384337E+02 0.11182875571E+03
 0.14546311330E+03 0.18409410040E+03 0.22423430973E+03 0.26134594660E+03 0.29108430886E+03
 0.31017132080E+03 0.31673282077E+03 0.31017132080E+03 0.29108430886E+03 0.26134594660E+03
 0.22423430973E+03 0.18409410040E+03 0.14546311330E+03 0.11182875571E+03 0.84809384337E+02
 0.63961584332E+02 0.47903203951E+02 0.35829270166E+02 0.26953610925E+02 0.20463359470E+02
 0.15692895659E+02 0.12153525470E+02 0.95110960451E+01 0.75409728898E+01 0.60838003147E+01
 0.50193006991E+01 0.42498086430E+01 0.36985443632E+01 0.33054975868E+01 0.30282461346E+01
 0.28350537717E+01 0.27054091978E+01 0.26240010662E+01 0.25801190627E+01 0.22862011980E+01
 0.23029210683E+01 0.23594369551E+01 0.24580893812E+01 0.26141688587E+01 0.28393499250E+01
 0.31595881586E+01 0.36026177125E+01 0.42215436976E+01 0.50758426076E+01 0.62571648845E+01
 0.78665965664E+01 0.10049549065E+02 0.12985412699E+02 0.16959869720E+02 0.22380344331E+02
 0.29879931837E+02 0.40284035930E+02 0.54627939355E+02 0.73875014001E+02 0.99635105128E+02
 0.13378006370E+03 0.17620973058E+03 0.22423430973E+03 0.27298591368E+03 0.31687142043E+03
 0.35108196361E+03 0.37254735535E+03 0.37982235560E+03 0.37254735535E+03 0.35108196361E+03
 0.31687142043E+03 0.27298591368E+03 0.22423430973E+03 0.17620973058E+03 0.13378006370E+03
 0.99635105128E+02 0.73875014001E+02 0.54627939355E+02 0.40284035930E+02 0.29879931837E+02
 0.22380344331E+02 0.16959869720E+02 0.12985412699E+02 0.10049549065E+02 0.78665965664E+01
 0.62571648845E+01 0.50758426076E+01 0.42215436976E+01 0.36026177125E+01 0.31595881586E+01
 0.28393499250E+01 0.26141688587E+01 0.24580893812E+01 0.23594369551E+01 0.23029210683E+01
 0.21121698737E+01 0.21319056920E+01 0.21959753169E+01 0.23078630943E+01 0.24808464422E+01
 0.27284241694E+01 0.30775772330E+01 0.35590817024E+01 0.42278306800E+01 0.51508200607E+01
 0.64237828474E+01 0.81608146072E+01 0.10519424359E+02 0.13710284044E+02 0.18063066472E+02
 0.24072460673E+02 0.32486722895E+02 0.44310614392E+02 0.60732249775E+02 0.83076355857E+02
 0.11377738532E+03 0.15477034265E+03 0.20525383984E+03 0.26134594660E+03 0.31687142043E+03
 0.36538224504E+03 0.40202798848E+03 0.42439130555E+03 0.43184531830E+03 0.42439130555E+03
 0.40202798848E+03 0.36538224504E+03 0.31687142043E+03 0.26134594660E+03 0.20525383984E+03
 0.15477034265E+03 0.11377738532E+03 0.83076355857E+02 0.60732249775E+02 0.44310614392E+02
 0.32486722895E+02 0.24072460673E+02 0.18063066472E+02 0.13710284044E+02 0.10519424359E+02
 0.81608146072E+01 0.64237828474E+01 0.51508200607E+01 0.42278306800E+01 0.35590817024E+01
 0.30775772330E+01 0.27284241694E+01 0.24808464422E+01 0.23078630943E+01 0.21959753169E+01
 0.21319056920E+01 0.20098720908E+01 0.20320407404E+01 0.21001908415E+01 0.22211063934E+01
 0.24046120511E+01 0.26676779425E+01 0.30352985197E+01 0.35443093342E+01 0.42473859384E+01
 0.52207572159E+01 0.65605414164E+01 0.83937374973E+01 0.10884618320E+02 0.14273598764E+02
 0.18922408425E+02 0.25403850141E+02 0.34554726560E+02 0.47534497762E+02 0.65643606246E+02
 0.90654379793E+02 0.12558609885E+03 0.17220782177E+03 0.22904281722E+03 0.29108430886E+03
 0.35108196361E+03 0.40202798848E+03 0.43931761496E+03 0.46140759581E+03 0.46863587688E+03
 0.46140759581E+03 0.43931761496E+03 0.40202798848E+03 0.35108196361E+03 0.29108430886E+03
 0.22904281722E+03 0.17220782177E+03 0.12558609885E+03 0.90654379793E+02 0.65643606246E+02
 0.47534497762E+02 0.34554726560E+02 0.25403850141E+02 0.18922408425E+02 0.14273598764E+02
 0.10884618320E+02 0.83937374973E+01 0.65605414164E+01 0.52207572159E+01 0.42473859384E+01
 0.35443093342E+01 0.30352985197E+01 0.26676779425E+01 0.24046120511E+01 0.22211063934E+01
 0.21001908415E+01 0.20320407404E+01 0.19570810707E+01 0.19808192408E+01 0.20509599032E+01
 0.21771783795E+01 0.23665178067E+01 0.26385905921E+01 0.30162940747E+01 0.35416202902E+01
 0.42652120565E+01 0.52694138718E+01 0.66498135175E+01 0.85428809262E+01 0.11116313066E+02
 0.14630995126E+02 0.19469332023E+02 0.26256559801E+02 0.35887610605E+02 0.49622473510E+02
 0.68841761301E+02 0.95675735596E+02 0.13344608148E+03 0.18374957523E+03 0.24458797717E+03
 0.31017132080E+03 0.37254735535E+03 0.42439130555E+03 0.46140759581E+03 0.48280070882E+03
 0.48969093444E+03 0.48280070882E+03 0.46140759581E+03 0.42439130555E+03 0.37254735535E+03
 0.31017132080E+03 0.24458797717E+03 0.18374957523E+03 0.13344608148E+03 0.95675735596E+02
 0.68841761301E+02 0.49622473510E+02 0.35887610605E+02 0.26256559801E+02 0.19469332023E+02
 0.14630995126E+02 0.11116313066E+02 0.85428809262E+01 0.66498135175E+01 0.52694138718E+01
 0.42652120565E+01 0.35416202902E+01 0.30162940747E+01 0.26385905921E+01 0.23665178067E+01
 0.21771783795E+01 0.20509599032E+01 0.19808192408E+01 0.19409808232E+01 0.19651243573E+01
 0.20359250805E+01 0.21636483984E+01 0.23548794714E+01 0.26299505666E+01 0.30111639632E+01
 0.35418078048E+01 0.42722301994E+01 0.52865767752E+01 0.66809471048E+01 0.85940814501E+01
 0.11195817640E+02 0.14753385806E+02 0.19657290944E+02 0.26550145200E+02 0.36348504399E+02
 0.50345395588E+02 0.69954182178E+02 0.97435755966E+02 0.13620608686E+03 0.18778391239E+03
 0.24998654505E+03 0.31673282077E+03 0.37982235560E+03 0.43184531830E+03 0.46863587688E+03
 0.48969093444E+03 0.49642747542E+03 0.48969093444E+03 0.46863587688E+03 0.43184531830E+03
 0.37982235560E+03 0.31673282077E+03 0.24998654505E+03 0.18778391239E+03 0.13620608686E+03
 0.97435755966E+02 0.69954182178E+02 0.50345395588E+02 0.36348504399E+02 0.26550145200E+02
 0.19657290944E+02 0.14753385806E+02 0.11195817640E+02 0.85940814501E+01 0.66809471048E+01
 0.52865767752E+01 0.42722301994E+01 0.35418078048E+01 0.30111639632E+01 0.26299505666E+01
 0.23548794714E+01 0.21636483984E+01 0.20359250805E+01 0.19651243573E+01 0.19570810707E+01