 vasp.5.4.4.18Apr17-6-g9f103f2a35 (build Jun 30 2017 11:15:00) complex          
  
 executed on    STALLO_VASP_5.4.4 date 2019.11.01  10:56:37
 running on    4 total cores
 distrk:  each k-point on    4 cores,    1 groups
 distr:  one band on NCORES_PER_BAND=   2 cores,    2 groups


--------------------------------------------------------------------------------------------------------


 INCAR:
 POTCAR:   PAW_PBE Sr_sv 07Sep2000                
 POTCAR:   PAW_PBE Ti 08Apr2002                   
 POTCAR:   PAW_PBE O 08Apr2002                    
 POTCAR:   PAW_PBE Sr_sv 07Sep2000                
  local pseudopotential read in
  partial core-charges read in
  atomic valenz-charges read in
  non local Contribution for L=           0  read in
    real space projection operators read in
  non local Contribution for L=           0  read in
    real space projection operators read in
  non local Contribution for L=           1  read in
    real space projection operators read in
  non local Contribution for L=           1  read in
    real space projection operators read in
  non local Contribution for L=           2  read in
    real space projection operators read in
  non local Contribution for L=           2  read in
    real space projection operators read in
    PAW grid and wavefunctions read in
 
   number of l-projection  operators is LMAX  =           6
   number of lm-projection operators is LMMAX =          18
 
 POTCAR:   PAW_PBE Ti 08Apr2002                   
  local pseudopotential read in
  partial core-charges read in
  atomic valenz-charges read in
  non local Contribution for L=           2  read in
    real space projection operators read in
  non local Contribution for L=           2  read in
    real space projection operators read in
  non local Contribution for L=           0  read in
    real space projection operators read in
  non local Contribution for L=           0  read in
    real space projection operators read in
  non local Contribution for L=           1  read in
    real space projection operators read in
    PAW grid and wavefunctions read in
 
   number of l-projection  operators is LMAX  =           5
   number of lm-projection operators is LMMAX =          15
 
 POTCAR:   PAW_PBE O 08Apr2002                    
  local pseudopotential read in
  atomic valenz-charges read in
  non local Contribution for L=           0  read in
    real space projection operators read in
  non local Contribution for L=           0  read in
    real space projection operators read in
  non local Contribution for L=           1  read in
    real space projection operators read in
  non local Contribution for L=           1  read in
    real space projection operators read in
    PAW grid and wavefunctions read in
 
   number of l-projection  operators is LMAX  =           4
   number of lm-projection operators is LMMAX =           8
 

 ----------------------------------------------------------------------------- 
|                                                                             |
|  ADVICE TO THIS USER RUNNING 'VASP/VAMP'   (HEAR YOUR MASTER'S VOICE ...):  |
|                                                                             |
|      You have a (more or less) 'small supercell' and for smaller cells      |
|      it is recommended  to use the reciprocal-space projection scheme!      |
|      The real space optimization is not  efficient for small cells and it   |
|      is also less accurate ...                                              |
|      Therefore set LREAL=.FALSE. in the  INCAR file                         |
|                                                                             |
 ----------------------------------------------------------------------------- 

 Optimization of the real space projectors (new method)

 maximal supplied QI-value         = 15.12
 optimisation between [QCUT,QGAM] = [ 11.34, 22.83] = [ 36.00,145.93] Ry 
 Optimized for a Real-space Cutoff    1.56 Angstroem

   l    n(q)    QCUT    max X(q) W(low)/X(q) W(high)/X(q)  e(spline) 
   0     11    11.338     6.584    0.15E-04    0.24E-05    0.13E-07
   0     11    11.338    11.383    0.41E-04    0.15E-04    0.15E-06
   1     10    11.338     3.802    0.90E-05    0.33E-06    0.26E-07
   1     10    11.338    39.081    0.19E-03    0.53E-04    0.42E-06
   2     10    11.338     4.950    0.16E-04    0.40E-04    0.77E-07
   2     10    11.338    88.754    0.21E-03    0.41E-03    0.42E-06
 Optimization of the real space projectors (new method)

 maximal supplied QI-value         = 13.42
 optimisation between [QCUT,QGAM] = [ 11.40, 22.81] = [ 36.42,145.68] Ry 
 Optimized for a Real-space Cutoff    1.61 Angstroem

   l    n(q)    QCUT    max X(q) W(low)/X(q) W(high)/X(q)  e(spline) 
   2     10    11.404     5.474    0.89E-05    0.24E-04    0.66E-07
   2     10    11.404    20.898    0.40E-04    0.22E-03    0.47E-06
   0     11    11.404    23.292    0.14E-04    0.42E-06    0.65E-07
   0     11    11.404    27.738    0.59E-04    0.19E-04    0.40E-06
   1     11    11.404     9.492    0.14E-04    0.30E-04    0.10E-06
 Optimization of the real space projectors (new method)

 maximal supplied QI-value         = 24.76
 optimisation between [QCUT,QGAM] = [ 11.39, 22.77] = [ 36.31,145.25] Ry 
 Optimized for a Real-space Cutoff    1.03 Angstroem

   l    n(q)    QCUT    max X(q) W(low)/X(q) W(high)/X(q)  e(spline) 
   0      7    11.387     4.192    0.55E-04    0.17E-03    0.22E-07
   0      7    11.387     8.473    0.18E-03    0.93E-03    0.17E-06
   1      6    11.387     2.474    0.16E-03    0.14E-03    0.20E-07
   1      6    11.387     3.912    0.19E-03    0.47E-03    0.17E-06
 PAW_PBE Sr_sv 07Sep2000                :
 energy of atom  1       EATOM= -842.4562
 kinetic energy error for atom=    0.0012 (will be added to EATOM!!)
 PAW_PBE Ti 08Apr2002                   :
 energy of atom  2       EATOM=  -94.7929
 kinetic energy error for atom=    0.0002 (will be added to EATOM!!)
 PAW_PBE O 08Apr2002                    :
 energy of atom  3       EATOM= -432.3788
 kinetic energy error for atom=    0.0224 (will be added to EATOM!!)
 
 
 POSCAR: ICSD_CollCode262269                     
  positions in direct lattice
  No initial velocities read in
 exchange correlation table for  LEXCH =        8
   RHO(1)=    0.500       N(1)  =     2000
   RHO(2)=  100.500       N(2)  =     4000
 


--------------------------------------------------------------------------------------------------------


 ion  position               nearest neighbor table
   1  0.000  0.000  0.000-   3 2.76   4 2.76   5 2.76   4 2.76   5 2.76   3 2.76   5 2.76   5 2.76
                             3 2.76   4 2.76   4 2.76   3 2.76   2 3.38   2 3.38   2 3.38   2 3.38
   2  0.500  0.500  0.500-   3 1.95   4 1.95   5 1.95   3 1.95   4 1.95   5 1.95   1 3.38   1 3.38
                             1 3.38   1 3.38   1 3.38   1 3.38   1 3.38   1 3.38
   3  0.500  0.500  0.000-   2 1.95   2 1.95   1 2.76   1 2.76   1 2.76   1 2.76
   4  0.500  0.000  0.500-   2 1.95   2 1.95   1 2.76   1 2.76   1 2.76   1 2.76
   5  0.000  0.500  0.500-   2 1.95   2 1.95   1 2.76   1 2.76   1 2.76   1 2.76
 
  LATTYP: Found a simple cubic cell.
 ALAT       =     3.9052680000
  
  Lattice vectors:
  
 A1 = (   3.9052680000,   0.0000000000,   0.0000000000)
 A2 = (   0.0000000000,   3.9052680000,   0.0000000000)
 A3 = (   0.0000000000,   0.0000000000,   3.9052680000)


Analysis of symmetry for initial positions (statically):
=====================================================================
 Subroutine PRICEL returns:
 Original cell was already a primitive cell.
 

 Routine SETGRP: Setting up the symmetry group for a 
 simple cubic supercell.


 Subroutine GETGRP returns: Found 48 space group operations
 (whereof 48 operations were pure point group operations)
 out of a pool of 48 trial point group operations.


The static configuration has the point symmetry O_h .


Analysis of symmetry for dynamics (positions and initial velocities):
=====================================================================
 Subroutine PRICEL returns:
 Original cell was already a primitive cell.
 

 Routine SETGRP: Setting up the symmetry group for a 
 simple cubic supercell.


 Subroutine GETGRP returns: Found 48 space group operations
 (whereof 48 operations were pure point group operations)
 out of a pool of 48 trial point group operations.


The dynamic configuration has the point symmetry O_h .


 Subroutine INISYM returns: Found 48 space group operations
 (whereof 48 operations are pure point group operations),
 and found     1 'primitive' translations

 
 
 KPOINTS: k-density: 4.0                          

Automatic generation of k-mesh.
Space group operators:
 irot       det(A)        alpha          n_x          n_y          n_z        tau_x        tau_y        tau_z
    1     1.000000     0.000000     1.000000     0.000000     0.000000     0.000000     0.000000     0.000000
    2    -1.000000     0.000000     1.000000     0.000000     0.000000     0.000000     0.000000     0.000000
    3     1.000000   120.000000    -0.577350    -0.577350    -0.577350     0.000000     0.000000     0.000000
    4    -1.000000   120.000000    -0.577350    -0.577350    -0.577350     0.000000     0.000000     0.000000
    5     1.000000   120.000000     0.577350     0.577350     0.577350     0.000000     0.000000     0.000000
    6    -1.000000   120.000000     0.577350     0.577350     0.577350     0.000000     0.000000     0.000000
    7     1.000000    90.000000     0.000000     0.000000    -1.000000     0.000000     0.000000     0.000000
    8    -1.000000    90.000000     0.000000     0.000000    -1.000000     0.000000     0.000000     0.000000
    9     1.000000   180.000000     0.000000     0.707107     0.707107     0.000000     0.000000     0.000000
   10    -1.000000   180.000000     0.000000     0.707107     0.707107     0.000000     0.000000     0.000000
   11     1.000000    90.000000     0.000000     1.000000     0.000000     0.000000     0.000000     0.000000
   12    -1.000000    90.000000     0.000000     1.000000     0.000000     0.000000     0.000000     0.000000
   13     1.000000   180.000000     0.000000     0.000000     1.000000     0.000000     0.000000     0.000000
   14    -1.000000   180.000000     0.000000     0.000000     1.000000     0.000000     0.000000     0.000000
   15     1.000000   120.000000    -0.577350     0.577350     0.577350     0.000000     0.000000     0.000000
   16    -1.000000   120.000000    -0.577350     0.577350     0.577350     0.000000     0.000000     0.000000
   17     1.000000   120.000000    -0.577350     0.577350    -0.577350     0.000000     0.000000     0.000000
   18    -1.000000   120.000000    -0.577350     0.577350    -0.577350     0.000000     0.000000     0.000000
   19     1.000000    90.000000     0.000000     0.000000     1.000000     0.000000     0.000000     0.000000
   20    -1.000000    90.000000     0.000000     0.000000     1.000000     0.000000     0.000000     0.000000
   21     1.000000    90.000000    -1.000000     0.000000     0.000000     0.000000     0.000000     0.000000
   22    -1.000000    90.000000    -1.000000     0.000000     0.000000     0.000000     0.000000     0.000000
   23     1.000000   180.000000     0.707107     0.000000     0.707107     0.000000     0.000000     0.000000
   24    -1.000000   180.000000     0.707107     0.000000     0.707107     0.000000     0.000000     0.000000
   25     1.000000   120.000000     0.577350    -0.577350     0.577350     0.000000     0.000000     0.000000
   26    -1.000000   120.000000     0.577350    -0.577350     0.577350     0.000000     0.000000     0.000000
   27     1.000000   120.000000    -0.577350    -0.577350     0.577350     0.000000     0.000000     0.000000
   28    -1.000000   120.000000    -0.577350    -0.577350     0.577350     0.000000     0.000000     0.000000
   29     1.000000   180.000000     1.000000     0.000000     0.000000     0.000000     0.000000     0.000000
   30    -1.000000   180.000000     1.000000     0.000000     0.000000     0.000000     0.000000     0.000000
   31     1.000000    90.000000     0.000000    -1.000000     0.000000     0.000000     0.000000     0.000000
   32    -1.000000    90.000000     0.000000    -1.000000     0.000000     0.000000     0.000000     0.000000
   33     1.000000   180.000000     0.707107     0.707107     0.000000     0.000000     0.000000     0.000000
   34    -1.000000   180.000000     0.707107     0.707107     0.000000     0.000000     0.000000     0.000000
   35     1.000000    90.000000     1.000000     0.000000     0.000000     0.000000     0.000000     0.000000
   36    -1.000000    90.000000     1.000000     0.000000     0.000000     0.000000     0.000000     0.000000
   37     1.000000   120.000000     0.577350    -0.577350    -0.577350     0.000000     0.000000     0.000000
   38    -1.000000   120.000000     0.577350    -0.577350    -0.577350     0.000000     0.000000     0.000000
   39     1.000000   180.000000     0.000000     1.000000     0.000000     0.000000     0.000000     0.000000
   40    -1.000000   180.000000     0.000000     1.000000     0.000000     0.000000     0.000000     0.000000
   41     1.000000   120.000000     0.577350     0.577350    -0.577350     0.000000     0.000000     0.000000
   42    -1.000000   120.000000     0.577350     0.577350    -0.577350     0.000000     0.000000     0.000000
   43     1.000000   180.000000     0.000000    -0.707107     0.707107     0.000000     0.000000     0.000000
   44    -1.000000   180.000000     0.000000    -0.707107     0.707107     0.000000     0.000000     0.000000
   45     1.000000   180.000000     0.707107    -0.707107     0.000000     0.000000     0.000000     0.000000
   46    -1.000000   180.000000     0.707107    -0.707107     0.000000     0.000000     0.000000     0.000000
   47     1.000000   180.000000     0.707107     0.000000    -0.707107     0.000000     0.000000     0.000000
   48    -1.000000   180.000000     0.707107     0.000000    -0.707107     0.000000     0.000000     0.000000
 
 Subroutine IBZKPT returns following result:
 ===========================================
 
 Found     20 irreducible k-points:
 
 Following reciprocal coordinates:
            Coordinates               Weight
  0.000000  0.000000  0.000000      1.000000
  0.142857  0.000000  0.000000      6.000000
  0.285714  0.000000  0.000000      6.000000
  0.428571  0.000000  0.000000      6.000000
  0.142857  0.142857  0.000000     12.000000
  0.285714  0.142857  0.000000     24.000000
  0.428571  0.142857  0.000000     24.000000
  0.285714  0.285714  0.000000     12.000000
  0.428571  0.285714  0.000000     24.000000
  0.428571  0.428571  0.000000     12.000000
  0.142857  0.142857  0.142857      8.000000
  0.285714  0.142857  0.142857     24.000000
  0.428571  0.142857  0.142857     24.000000
  0.285714  0.285714  0.142857     24.000000
  0.428571  0.285714  0.142857     48.000000
  0.428571  0.428571  0.142857     24.000000
  0.285714  0.285714  0.285714      8.000000
  0.428571  0.285714  0.285714     24.000000
  0.428571  0.428571  0.285714     24.000000
  0.428571  0.428571  0.428571      8.000000
 
 Following cartesian coordinates:
            Coordinates               Weight
  0.000000  0.000000  0.000000      1.000000
  0.036581  0.000000  0.000000      6.000000
  0.073161  0.000000  0.000000      6.000000
  0.109742  0.000000  0.000000      6.000000
  0.036581  0.036581  0.000000     12.000000
  0.073161  0.036581  0.000000     24.000000
  0.109742  0.036581  0.000000     24.000000
  0.073161  0.073161  0.000000     12.000000
  0.109742  0.073161  0.000000     24.000000
  0.109742  0.109742  0.000000     12.000000
  0.036581  0.036581  0.036581      8.000000
  0.073161  0.036581  0.036581     24.000000
  0.109742  0.036581  0.036581     24.000000
  0.073161  0.073161  0.036581     24.000000
  0.109742  0.073161  0.036581     48.000000
  0.109742  0.109742  0.036581     24.000000
  0.073161  0.073161  0.073161      8.000000
  0.109742  0.073161  0.073161     24.000000
  0.109742  0.109742  0.073161     24.000000
  0.109742  0.109742  0.109742      8.000000
 


--------------------------------------------------------------------------------------------------------




 Dimension of arrays:
   k-points           NKPTS =     20   k-points in BZ     NKDIM =     20   number of bands    NBANDS=     20
   number of dos      NEDOS =    301   number of ions     NIONS =      5
   non local maximal  LDIM  =      6   non local SUM 2l+1 LMDIM =     18
   total plane-waves  NPLWV =  21952
   max r-space proj   IRMAX =   6506   max aug-charges    IRDMAX= 203818
   dimension x,y,z NGX =    28 NGY =   28 NGZ =   28
   dimension x,y,z NGXF=    56 NGYF=   56 NGZF=   56
   support grid    NGXF=   112 NGYF=  112 NGZF=  112
   ions per type =               1   1   3
   NGX,Y,Z   is equivalent  to a cutoff of  11.92, 11.92, 11.92 a.u.
   NGXF,Y,Z  is equivalent  to a cutoff of  23.84, 23.84, 23.84 a.u.

 SYSTEM =  unknown system                          
 POSCAR =  ICSD_CollCode262269                     

 Startparameter for this run:
   NWRITE =      1    write-flag & timer
   PREC   = accura    normal or accurate (medium, high low for compatibility)
   ISTART =      0    job   : 0-new  1-cont  2-samecut
   ICHARG =      2    charge: 1-file 2-atom 10-const
   ISPIN  =      1    spin polarized calculation?
   LNONCOLLINEAR =      F non collinear calculations
   LSORBIT =      F    spin-orbit coupling
   INIWAV =      1    electr: 0-lowe 1-rand  2-diag
   LASPH  =      F    aspherical Exc in radial PAW
   METAGGA=      F    non-selfconsistent MetaGGA calc.

 Electronic Relaxation 1
   ENCUT  =  500.0 eV  36.75 Ry    6.06 a.u.   7.12  7.12  7.12*2*pi/ulx,y,z
   ENINI  =  500.0     initial cutoff
   ENAUG  =  605.4 eV  augmentation charge cutoff
   NELM   =     60;   NELMIN=  4; NELMDL= -5     # of ELM steps 
   EDIFF  = 0.1E-04   stopping-criterion for ELM
   LREAL  =      T    real-space projection
   NLSPLINE    = F    spline interpolate recip. space projectors
   LCOMPAT=      F    compatible to vasp.4.4
   GGA_COMPAT  = T    GGA compatible to vasp.4.4-vasp.4.6
   LMAXPAW     = -100 max onsite density
   LMAXMIX     =    2 max onsite mixed and CHGCAR
   VOSKOWN=      0    Vosko Wilk Nusair interpolation
   ROPT   =   -0.00025  -0.00025  -0.00025
 Ionic relaxation
   EDIFFG = -.1E-01   stopping-criterion for IOM
   NSW    =     80    number of steps for IOM
   NBLOCK =      1;   KBLOCK =     80    inner block; outer block 
   IBRION =      1    ionic relax: 0-MD 1-quasi-New 2-CG
   NFREE  =      0    steps in history (QN), initial steepest desc. (CG)
   ISIF   =      3    stress and relaxation
   IWAVPR =     11    prediction:  0-non 1-charg 2-wave 3-comb
   ISYM   =      2    0-nonsym 1-usesym 2-fastsym
   LCORR  =      T    Harris-Foulkes like correction to forces

   POTIM  = 0.5000    time-step for ionic-motion
   TEIN   =    0.0    initial temperature
   TEBEG  =    0.0;   TEEND  =   0.0 temperature during run
   SMASS  =  -3.00    Nose mass-parameter (am)
   estimated Nose-frequenzy (Omega)   =  0.10E-29 period in steps =****** mass=  -0.349E-27a.u.
   SCALEE = 1.0000    scale energy and forces
   NPACO  =    256;   APACO  = 16.0  distance and # of slots for P.C.
   PSTRESS=    0.0 pullay stress

  Mass of Ions in am
   POMASS =  87.62 47.88 16.00
  Ionic Valenz
   ZVAL   =  10.00  4.00  6.00
  Atomic Wigner-Seitz radii
   RWIGS  =  -1.00 -1.00 -1.00
  virtual crystal weights 
   VCA    =   1.00  1.00  1.00
   NELECT =      32.0000    total number of electrons
   NUPDOWN=      -1.0000    fix difference up-down

 DOS related values:
   EMIN   =  10.00;   EMAX   =-10.00  energy-range for DOS
   EFERMI =   0.00
   ISMEAR =     0;   SIGMA  =   0.20  broadening in eV -4-tet -1-fermi 0-gaus

 Electronic relaxation 2 (details)
   IALGO  =     68    algorithm
   LDIAG  =      T    sub-space diagonalisation (order eigenvalues)
   LSUBROT=      F    optimize rotation matrix (better conditioning)
   TURBO    =      0    0=normal 1=particle mesh
   IRESTART =      0    0=no restart 2=restart with 2 vectors
   NREBOOT  =      0    no. of reboots
   NMIN     =      0    reboot dimension
   EREF     =   0.00    reference energy to select bands
   IMIX   =      4    mixing-type and parameters
     AMIX     =   0.40;   BMIX     =  1.00
     AMIX_MAG =   1.60;   BMIX_MAG =  1.00
     AMIN     =   0.10
     WC   =   100.;   INIMIX=   1;  MIXPRE=   1;  MAXMIX=  80

 Intra band minimization:
   WEIMIN = 0.0010     energy-eigenvalue tresh-hold
   EBREAK =  0.13E-06  absolut break condition
   DEPER  =   0.30     relativ break condition  

   TIME   =   0.40     timestep for ELM

  volume/ion in A,a.u.               =      11.91        80.39
  Fermi-wavevector in a.u.,A,eV,Ry     =   1.330885  2.515009 24.099399  1.771256
  Thomas-Fermi vector in A             =   2.459938
 
 Write flags
   LWAVE        =      T    write WAVECAR
   LDOWNSAMPLE  =      F    k-point downsampling of WAVECAR
   LCHARG       =      T    write CHGCAR
   LVTOT        =      F    write LOCPOT, total local potential
   LVHAR        =      F    write LOCPOT, Hartree potential only
   LELF         =      F    write electronic localiz. function (ELF)
   LORBIT       =      0    0 simple, 1 ext, 2 COOP (PROOUT), +10 PAW based schemes


 Dipole corrections
   LMONO  =      F    monopole corrections only (constant potential shift)
   LDIPOL =      F    correct potential (dipole corrections)
   IDIPOL =      0    1-x, 2-y, 3-z, 4-all directions 
   EPSILON=  1.0000000 bulk dielectric constant

 Exchange correlation treatment:
   GGA     =    --    GGA type
   LEXCH   =     8    internal setting for exchange type
   VOSKOWN=      0    Vosko Wilk Nusair interpolation
   LHFCALC =     F    Hartree Fock is set to
   LHFONE  =     F    Hartree Fock one center treatment
   AEXX    =    0.0000 exact exchange contribution

 Linear response parameters
   LEPSILON=     F    determine dielectric tensor
   LRPA    =     F    only Hartree local field effects (RPA)
   LNABLA  =     F    use nabla operator in PAW spheres
   LVEL    =     F    velocity operator in full k-point grid
   LINTERFAST=   F  fast interpolation
   KINTER  =     0    interpolate to denser k-point grid
   CSHIFT  =0.1000    complex shift for real part using Kramers Kronig
   OMEGAMAX=  -1.0    maximum frequency
   DEG_THRESHOLD= 0.2000000E-02 threshold for treating states as degnerate
   RTIME   =   -0.100 relaxation time in fs
  (WPLASMAI=    0.000 imaginary part of plasma frequency in eV, 0.658/RTIME)
   DFIELD  = 0.0000000 0.0000000 0.0000000 field for delta impulse in time
 
 Orbital magnetization related:
   ORBITALMAG=     F  switch on orbital magnetization
   LCHIMAG   =     F  perturbation theory with respect to B field
   DQ        =  0.001000  dq finite difference perturbation B field
   LLRAUG    =     F  two centre corrections for induced B field



--------------------------------------------------------------------------------------------------------


 quasi-Newton-method for relaxation of ions
 charge density and potential will be updated during run
 non-spin polarized calculation
 RMM-DIIS sequential band-by-band and
  variant of blocked Davidson during initial phase
 perform sub-space diagonalisation
    before iterative eigenvector-optimisation
 modified Broyden-mixing scheme, WC =      100.0
 initial mixing is a Kerker type mixing with AMIX =  0.4000 and BMIX =      1.0000
 Hartree-type preconditioning will be used
 using additional bands            4
 real space projection scheme for non local part
 use partial core corrections
 calculate Harris-corrections to forces 
   (improved forces if not selfconsistent)
 use gradient corrections 
 use of overlap-Matrix (Vanderbilt PP)
 Gauss-broadening in eV      SIGMA  =   0.20


--------------------------------------------------------------------------------------------------------


  energy-cutoff  :      500.00
  volume of cell :       59.56
      direct lattice vectors                 reciprocal lattice vectors
     3.905268000  0.000000000  0.000000000     0.256064373  0.000000000  0.000000000
     0.000000000  3.905268000  0.000000000     0.000000000  0.256064373  0.000000000
     0.000000000  0.000000000  3.905268000     0.000000000  0.000000000  0.256064373

  length of vectors
     3.905268000  3.905268000  3.905268000     0.256064373  0.256064373  0.256064373


 
 k-points in units of 2pi/SCALE and weight: k-density: 4.0                          
   0.00000000  0.00000000  0.00000000       0.003
   0.03658062  0.00000000  0.00000000       0.017
   0.07316125  0.00000000  0.00000000       0.017
   0.10974187  0.00000000  0.00000000       0.017
   0.03658062  0.03658062  0.00000000       0.035
   0.07316125  0.03658062  0.00000000       0.070
   0.10974187  0.03658062  0.00000000       0.070
   0.07316125  0.07316125  0.00000000       0.035
   0.10974187  0.07316125  0.00000000       0.070
   0.10974187  0.10974187  0.00000000       0.035
   0.03658062  0.03658062  0.03658062       0.023
   0.07316125  0.03658062  0.03658062       0.070
   0.10974187  0.03658062  0.03658062       0.070
   0.07316125  0.07316125  0.03658062       0.070
   0.10974187  0.07316125  0.03658062       0.140
   0.10974187  0.10974187  0.03658062       0.070
   0.07316125  0.07316125  0.07316125       0.023
   0.10974187  0.07316125  0.07316125       0.070
   0.10974187  0.10974187  0.07316125       0.070
   0.10974187  0.10974187  0.10974187       0.023
 
 k-points in reciprocal lattice and weights: k-density: 4.0                          
   0.00000000  0.00000000  0.00000000       0.003
   0.14285714  0.00000000  0.00000000       0.017
   0.28571429  0.00000000  0.00000000       0.017
   0.42857143  0.00000000  0.00000000       0.017
   0.14285714  0.14285714  0.00000000       0.035
   0.28571429  0.14285714  0.00000000       0.070
   0.42857143  0.14285714  0.00000000       0.070
   0.28571429  0.28571429  0.00000000       0.035
   0.42857143  0.28571429  0.00000000       0.070
   0.42857143  0.42857143  0.00000000       0.035
   0.14285714  0.14285714  0.14285714       0.023
   0.28571429  0.14285714  0.14285714       0.070
   0.42857143  0.14285714  0.14285714       0.070
   0.28571429  0.28571429  0.14285714       0.070
   0.42857143  0.28571429  0.14285714       0.140
   0.42857143  0.42857143  0.14285714       0.070
   0.28571429  0.28571429  0.28571429       0.023
   0.42857143  0.28571429  0.28571429       0.070
   0.42857143  0.42857143  0.28571429       0.070
   0.42857143  0.42857143  0.42857143       0.023
 
 position of ions in fractional coordinates (direct lattice) 
   0.00000000  0.00000000  0.00000000
   0.50000000  0.50000000  0.50000000
   0.50000000  0.50000000  0.00000000
   0.50000000  0.00000000  0.50000000
   0.00000000  0.50000000  0.50000000
 
 position of ions in cartesian coordinates  (Angst):
   0.00000000  0.00000000  0.00000000
   1.95263400  1.95263400  1.95263400
   1.95263400  1.95263400  0.00000000
   1.95263400  0.00000000  1.95263400
   0.00000000  1.95263400  1.95263400
 


--------------------------------------------------------------------------------------------------------


 k-point  1 :   0.0000 0.0000 0.0000  plane waves:    1503
 k-point  2 :   0.1429 0.0000 0.0000  plane waves:    1478
 k-point  3 :   0.2857 0.0000 0.0000  plane waves:    1510
 k-point  4 :   0.4286 0.0000 0.0000  plane waves:    1502
 k-point  5 :   0.1429 0.1429 0.0000  plane waves:    1500
 k-point  6 :   0.2857 0.1429 0.0000  plane waves:    1511
 k-point  7 :   0.4286 0.1429 0.0000  plane waves:    1517
 k-point  8 :   0.2857 0.2857 0.0000  plane waves:    1510
 k-point  9 :   0.4286 0.2857 0.0000  plane waves:    1524
 k-point 10 :   0.4286 0.4286 0.0000  plane waves:    1520
 k-point 11 :   0.1429 0.1429 0.1429  plane waves:    1502
 k-point 12 :   0.2857 0.1429 0.1429  plane waves:    1514
 k-point 13 :   0.4286 0.1429 0.1429  plane waves:    1514
 k-point 14 :   0.2857 0.2857 0.1429  plane waves:    1516
 k-point 15 :   0.4286 0.2857 0.1429  plane waves:    1513
 k-point 16 :   0.4286 0.4286 0.1429  plane waves:    1521
 k-point 17 :   0.2857 0.2857 0.2857  plane waves:    1508
 k-point 18 :   0.4286 0.2857 0.2857  plane waves:    1521
 k-point 19 :   0.4286 0.4286 0.2857  plane waves:    1501
 k-point 20 :   0.4286 0.4286 0.4286  plane waves:    1520

 maximum and minimum number of plane-waves per node :       764      733

 maximum number of plane-waves:      1524
 maximum index in each direction: 
   IXMAX=    7   IYMAX=    7   IZMAX=    7
   IXMIN=   -7   IYMIN=   -7   IZMIN=   -7


 real space projection operators:
  total allocation   :       1847.09 KBytes
  max/ min on nodes  :        928.43        918.66


 parallel 3D FFT for wavefunctions:
    minimum data exchange during FFTs selected (reduces bandwidth)
 parallel 3D FFT for charge:
    minimum data exchange during FFTs selected (reduces bandwidth)


 total amount of memory used by VASP MPI-rank0    44448. kBytes
=======================================================================

   base      :      30000. kBytes
   nonlr-proj:       1688. kBytes
   fftplans  :       6844. kBytes
   grid      :       3330. kBytes
   one-center:         46. kBytes
   wavefun   :       2540. kBytes
 
     INWAV:  cpu time    0.0010: real time    0.0004
 Broyden mixing: mesh for mixing (old mesh)
   NGX = 15   NGY = 15   NGZ = 15
  (NGX  = 56   NGY  = 56   NGZ  = 56)
  gives a total of   3375 points

 initial charge density was supplied:
 charge density of overlapping atoms calculated
 number of electron      32.0000000 magnetization 
 keeping initial charge density in first step


--------------------------------------------------------------------------------------------------------


 Maximum index for non-local projection operator         3143
 Maximum index for augmentation-charges        49359 (set IRDMAX)


--------------------------------------------------------------------------------------------------------


 First call to EWALD:  gamma=   0.454
 Maximum number of real-space cells 3x 3x 3
 Maximum number of reciprocal cells 3x 3x 3

    FEWALD:  cpu time    0.0020: real time    0.0016


--------------------------------------- Iteration      1(   1)  ---------------------------------------


    POTLOK:  cpu time    0.0300: real time    0.3676
    SETDIJ:  cpu time    0.0610: real time    0.0617
     EDDAV:  cpu time    0.4109: real time    0.4158
       DOS:  cpu time    0.0010: real time    0.0010
    --------------------------------------------
      LOOP:  cpu time    0.5029: real time    0.8462

 eigenvalue-minimisations  :   800
 total energy-change (2. order) : 0.3103238E+03  (-0.1520595E+04)
 number of electron      32.0000000 magnetization 
 augmentation part       32.0000000 magnetization 

 Free energy of the ion-electron system (eV)
  ---------------------------------------------------
  alpha Z        PSCENC =       185.39985751
  Ewald energy   TEWEN  =     -1934.07799583
  -Hartree energ DENC   =      -403.14003404
  -exchange      EXHF   =         0.00000000
  -V(xc)+E(xc)   XCENC  =        82.31787849
  PAW double counting   =      1333.61297253    -1284.78446064
  entropy T*S    EENTRO =        -0.03339522
  eigenvalues    EBANDS =        96.71191040
  atomic energy  EATOM  =      2234.31706254
  Solvation  Ediel_sol  =         0.00000000
  ---------------------------------------------------
  free energy    TOTEN  =       310.32379573 eV

  energy without entropy =      310.35719095  energy(sigma->0) =      310.34049334


--------------------------------------------------------------------------------------------------------




--------------------------------------- Iteration      1(   2)  ---------------------------------------


     EDDAV:  cpu time    0.4899: real time    0.4934
       DOS:  cpu time    0.0010: real time    0.0008
    --------------------------------------------
      LOOP:  cpu time    0.4909: real time    0.4941

 eigenvalue-minimisations  :  1112
 total energy-change (2. order) :-0.3320127E+03  (-0.3211477E+03)
 number of electron      32.0000000 magnetization 
 augmentation part       32.0000000 magnetization 

 Free energy of the ion-electron system (eV)
  ---------------------------------------------------
  alpha Z        PSCENC =       185.39985751
  Ewald energy   TEWEN  =     -1934.07799583
  -Hartree energ DENC   =      -403.14003404
  -exchange      EXHF   =         0.00000000
  -V(xc)+E(xc)   XCENC  =        82.31787849
  PAW double counting   =      1333.61297253    -1284.78446064
  entropy T*S    EENTRO =        -0.00126880
  eigenvalues    EBANDS =      -235.33293999
  atomic energy  EATOM  =      2234.31706254
  Solvation  Ediel_sol  =         0.00000000
  ---------------------------------------------------
  free energy    TOTEN  =       -21.68892823 eV

  energy without entropy =      -21.68765943  energy(sigma->0) =      -21.68829383


--------------------------------------------------------------------------------------------------------




--------------------------------------- Iteration      1(   3)  ---------------------------------------


     EDDAV:  cpu time    0.4279: real time    0.4277
       DOS:  cpu time    0.0000: real time    0.0005
    --------------------------------------------
      LOOP:  cpu time    0.4279: real time    0.4282

 eigenvalue-minimisations  :   932
 total energy-change (2. order) :-0.2755525E+02  (-0.2738200E+02)
 number of electron      32.0000000 magnetization 
 augmentation part       32.0000000 magnetization 

 Free energy of the ion-electron system (eV)
  ---------------------------------------------------
  alpha Z        PSCENC =       185.39985751
  Ewald energy   TEWEN  =     -1934.07799583
  -Hartree energ DENC   =      -403.14003404
  -exchange      EXHF   =         0.00000000
  -V(xc)+E(xc)   XCENC  =        82.31787849
  PAW double counting   =      1333.61297253    -1284.78446064
  entropy T*S    EENTRO =        -0.00000000
  eigenvalues    EBANDS =      -262.88945425
  atomic energy  EATOM  =      2234.31706254
  Solvation  Ediel_sol  =         0.00000000
  ---------------------------------------------------
  free energy    TOTEN  =       -49.24417370 eV

  energy without entropy =      -49.24417370  energy(sigma->0) =      -49.24417370


--------------------------------------------------------------------------------------------------------




--------------------------------------- Iteration      1(   4)  ---------------------------------------


     EDDAV:  cpu time    0.5819: real time    0.5819
       DOS:  cpu time    0.0010: real time    0.0005
    --------------------------------------------
      LOOP:  cpu time    0.5829: real time    0.5823

 eigenvalue-minimisations  :  1364
 total energy-change (2. order) :-0.9635715E+00  (-0.9623984E+00)
 number of electron      32.0000000 magnetization 
 augmentation part       32.0000000 magnetization 

 Free energy of the ion-electron system (eV)
  ---------------------------------------------------
  alpha Z        PSCENC =       185.39985751
  Ewald energy   TEWEN  =     -1934.07799583
  -Hartree energ DENC   =      -403.14003404
  -exchange      EXHF   =         0.00000000
  -V(xc)+E(xc)   XCENC  =        82.31787849
  PAW double counting   =      1333.61297253    -1284.78446064
  entropy T*S    EENTRO =        -0.00000000
  eigenvalues    EBANDS =      -263.85302572
  atomic energy  EATOM  =      2234.31706254
  Solvation  Ediel_sol  =         0.00000000
  ---------------------------------------------------
  free energy    TOTEN  =       -50.20774516 eV

  energy without entropy =      -50.20774516  energy(sigma->0) =      -50.20774516


--------------------------------------------------------------------------------------------------------




--------------------------------------- Iteration      1(   5)  ---------------------------------------


     EDDAV:  cpu time    0.4629: real time    0.4657
       DOS:  cpu time    0.0000: real time    0.0005
    CHARGE:  cpu time    0.0760: real time    0.0762
    MIXING:  cpu time    0.0010: real time    0.0009
    --------------------------------------------
      LOOP:  cpu time    0.5399: real time    0.5434

 eigenvalue-minimisations  :  1032
 total energy-change (2. order) :-0.2508194E-01  (-0.2507458E-01)
 number of electron      31.9999999 magnetization 
 augmentation part        3.4008390 magnetization 

 Broyden mixing:
  rms(total) = 0.18264E+01    rms(broyden)= 0.18262E+01
  rms(prec ) = 0.47650E+01
  weight for this iteration     100.00

 Free energy of the ion-electron system (eV)
  ---------------------------------------------------
  alpha Z        PSCENC =       185.39985751
  Ewald energy   TEWEN  =     -1934.07799583
  -Hartree energ DENC   =      -403.14003404
  -exchange      EXHF   =         0.00000000
  -V(xc)+E(xc)   XCENC  =        82.31787849
  PAW double counting   =      1333.61297253    -1284.78446064
  entropy T*S    EENTRO =        -0.00000000
  eigenvalues    EBANDS =      -263.87810766
  atomic energy  EATOM  =      2234.31706254
  Solvation  Ediel_sol  =         0.00000000
  ---------------------------------------------------
  free energy    TOTEN  =       -50.23282711 eV

  energy without entropy =      -50.23282711  energy(sigma->0) =      -50.23282711


--------------------------------------------------------------------------------------------------------




--------------------------------------- Iteration      1(   6)  ---------------------------------------


    POTLOK:  cpu time    0.0250: real time    0.0260
    SETDIJ:  cpu time    0.0560: real time    0.0556
    EDDIAG:  cpu time    0.0680: real time    0.0685
  RMM-DIIS:  cpu time    0.2600: real time    0.2601
    ORTHCH:  cpu time    0.0060: real time    0.0058
       DOS:  cpu time    0.0010: real time    0.0006
    CHARGE:  cpu time    0.0780: real time    0.0785
    MIXING:  cpu time    0.0010: real time    0.0011
    --------------------------------------------
      LOOP:  cpu time    0.4949: real time    0.4962

 eigenvalue-minimisations  :   807
 total energy-change (2. order) : 0.9843543E+01  (-0.5835435E+01)
 number of electron      32.0000000 magnetization 
 augmentation part        3.4801707 magnetization 

 Broyden mixing:
  rms(total) = 0.62345E+00    rms(broyden)= 0.62298E+00
  rms(prec ) = 0.11366E+01
  weight for this iteration     100.00

 eigenvalues of (default mixing * dielectric matrix)
  average eigenvalue GAMMA=   0.7962
  0.7962

 Free energy of the ion-electron system (eV)
  ---------------------------------------------------
  alpha Z        PSCENC =       185.39985751
  Ewald energy   TEWEN  =     -1934.07799583
  -Hartree energ DENC   =      -457.88492501
  -exchange      EXHF   =         0.00000000
  -V(xc)+E(xc)   XCENC  =        87.11167066
  PAW double counting   =      1487.80185470    -1442.20093047
  entropy T*S    EENTRO =        -0.00005360
  eigenvalues    EBANDS =      -200.85582456
  atomic energy  EATOM  =      2234.31706254
  Solvation  Ediel_sol  =         0.00000000
  ---------------------------------------------------
  free energy    TOTEN  =       -40.38928404 eV

  energy without entropy =      -40.38923044  energy(sigma->0) =      -40.38925724


--------------------------------------------------------------------------------------------------------




--------------------------------------- Iteration      1(   7)  ---------------------------------------


    POTLOK:  cpu time    0.0260: real time    0.0289
    SETDIJ:  cpu time    0.0560: real time    0.0555
    EDDIAG:  cpu time    0.0680: real time    0.0681
  RMM-DIIS:  cpu time    0.2820: real time    0.2829
    ORTHCH:  cpu time    0.0060: real time    0.0056
       DOS:  cpu time    0.0010: real time    0.0005
    CHARGE:  cpu time    0.0750: real time    0.0752
    MIXING:  cpu time    0.0010: real time    0.0009
    --------------------------------------------
      LOOP:  cpu time    0.5149: real time    0.5175

 eigenvalue-minimisations  :   863
 total energy-change (2. order) : 0.5946450E+00  (-0.1514981E+00)
 number of electron      32.0000000 magnetization 
 augmentation part        3.3975628 magnetization 

 Broyden mixing:
  rms(total) = 0.32127E+00    rms(broyden)= 0.32125E+00
  rms(prec ) = 0.56583E+00
  weight for this iteration     100.00

 eigenvalues of (default mixing * dielectric matrix)
  average eigenvalue GAMMA=   1.7001
  0.8841  2.5161

 Free energy of the ion-electron system (eV)
  ---------------------------------------------------
  alpha Z        PSCENC =       185.39985751
  Ewald energy   TEWEN  =     -1934.07799583
  -Hartree energ DENC   =      -445.62192295
  -exchange      EXHF   =         0.00000000
  -V(xc)+E(xc)   XCENC  =        86.24634927
  PAW double counting   =      1498.42499678    -1454.10843395
  entropy T*S    EENTRO =        -0.00000000
  eigenvalues    EBANDS =      -210.37455240
  atomic energy  EATOM  =      2234.31706254
  Solvation  Ediel_sol  =         0.00000000
  ---------------------------------------------------
  free energy    TOTEN  =       -39.79463904 eV

  energy without entropy =      -39.79463904  energy(sigma->0) =      -39.79463904


--------------------------------------------------------------------------------------------------------




--------------------------------------- Iteration      1(   8)  ---------------------------------------


    POTLOK:  cpu time    0.0250: real time    0.0258
    SETDIJ:  cpu time    0.0550: real time    0.0553
    EDDIAG:  cpu time    0.0680: real time    0.0675
  RMM-DIIS:  cpu time    0.2740: real time    0.2749
    ORTHCH:  cpu time    0.0060: real time    0.0057
       DOS:  cpu time    0.0010: real time    0.0005
    CHARGE:  cpu time    0.0780: real time    0.0782
    MIXING:  cpu time    0.0010: real time    0.0014
    --------------------------------------------
      LOOP:  cpu time    0.5079: real time    0.5093

 eigenvalue-minimisations  :   843
 total energy-change (2. order) : 0.8124103E-01  (-0.9342677E-01)
 number of electron      32.0000000 magnetization 
 augmentation part        3.4559170 magnetization 

 Broyden mixing:
  rms(total) = 0.84928E-01    rms(broyden)= 0.84870E-01
  rms(prec ) = 0.19167E+00
  weight for this iteration     100.00

 eigenvalues of (default mixing * dielectric matrix)
  average eigenvalue GAMMA=   1.3305
  2.2947  0.8484  0.8484

 Free energy of the ion-electron system (eV)
  ---------------------------------------------------
  alpha Z        PSCENC =       185.39985751
  Ewald energy   TEWEN  =     -1934.07799583
  -Hartree energ DENC   =      -436.93917828
  -exchange      EXHF   =         0.00000000
  -V(xc)+E(xc)   XCENC  =        85.89752737
  PAW double counting   =      1547.14077335    -1504.85426737
  entropy T*S    EENTRO =        -0.00000000
  eigenvalues    EBANDS =      -216.59717730
  atomic energy  EATOM  =      2234.31706254
  Solvation  Ediel_sol  =         0.00000000
  ---------------------------------------------------
  free energy    TOTEN  =       -39.71339801 eV

  energy without entropy =      -39.71339801  energy(sigma->0) =      -39.71339801


--------------------------------------------------------------------------------------------------------




--------------------------------------- Iteration      1(   9)  ---------------------------------------


    POTLOK:  cpu time    0.0250: real time    0.0291
    SETDIJ:  cpu time    0.0570: real time    0.0556
    EDDIAG:  cpu time    0.0670: real time    0.0680
  RMM-DIIS:  cpu time    0.3080: real time    0.3085
    ORTHCH:  cpu time    0.0060: real time    0.0057
       DOS:  cpu time    0.0000: real time    0.0005
    CHARGE:  cpu time    0.0770: real time    0.0765
    MIXING:  cpu time    0.0020: real time    0.0010
    --------------------------------------------
      LOOP:  cpu time    0.5419: real time    0.5448

 eigenvalue-minimisations  :   944
 total energy-change (2. order) : 0.1458782E-01  (-0.5800646E-02)
 number of electron      32.0000000 magnetization 
 augmentation part        3.4485965 magnetization 

 Broyden mixing:
  rms(total) = 0.57561E-01    rms(broyden)= 0.57560E-01
  rms(prec ) = 0.12760E+00
  weight for this iteration     100.00

 eigenvalues of (default mixing * dielectric matrix)
  average eigenvalue GAMMA=   1.5340
  0.9114  0.9114  2.1566  2.1566

 Free energy of the ion-electron system (eV)
  ---------------------------------------------------
  alpha Z        PSCENC =       185.39985751
  Ewald energy   TEWEN  =     -1934.07799583
  -Hartree energ DENC   =      -438.81143922
  -exchange      EXHF   =         0.00000000
  -V(xc)+E(xc)   XCENC  =        86.03232803
  PAW double counting   =      1554.72095801    -1512.57790914
  entropy T*S    EENTRO =        -0.00000000
  eigenvalues    EBANDS =      -214.70167209
  atomic energy  EATOM  =      2234.31706254
  Solvation  Ediel_sol  =         0.00000000
  ---------------------------------------------------
  free energy    TOTEN  =       -39.69881019 eV

  energy without entropy =      -39.69881019  energy(sigma->0) =      -39.69881019


--------------------------------------------------------------------------------------------------------




--------------------------------------- Iteration      1(  10)  ---------------------------------------


    POTLOK:  cpu time    0.0250: real time    0.0259
    SETDIJ:  cpu time    0.0560: real time    0.0554
    EDDIAG:  cpu time    0.0670: real time    0.0678
  RMM-DIIS:  cpu time    0.2850: real time    0.2853
    ORTHCH:  cpu time    0.0060: real time    0.0058
       DOS:  cpu time    0.0010: real time    0.0005
    CHARGE:  cpu time    0.0780: real time    0.0782
    MIXING:  cpu time    0.0010: real time    0.0010
    --------------------------------------------
      LOOP:  cpu time    0.5189: real time    0.5200

 eigenvalue-minimisations  :   893
 total energy-change (2. order) : 0.2618606E-02  (-0.1368213E-01)
 number of electron      32.0000000 magnetization 
 augmentation part        3.4146943 magnetization 

 Broyden mixing:
  rms(total) = 0.34654E-01    rms(broyden)= 0.34636E-01
  rms(prec ) = 0.69931E-01
  weight for this iteration     100.00

 eigenvalues of (default mixing * dielectric matrix)
  average eigenvalue GAMMA=   1.4138
  2.4934  0.9143  1.0260  1.3177  1.3177

 Free energy of the ion-electron system (eV)
  ---------------------------------------------------
  alpha Z        PSCENC =       185.39985751
  Ewald energy   TEWEN  =     -1934.07799583
  -Hartree energ DENC   =      -442.44242771
  -exchange      EXHF   =         0.00000000
  -V(xc)+E(xc)   XCENC  =        86.25088301
  PAW double counting   =      1561.54330405    -1519.33984251
  entropy T*S    EENTRO =        -0.00000000
  eigenvalues    EBANDS =      -211.34703265
  atomic energy  EATOM  =      2234.31706254
  Solvation  Ediel_sol  =         0.00000000
  ---------------------------------------------------
  free energy    TOTEN  =       -39.69619159 eV

  energy without entropy =      -39.69619159  energy(sigma->0) =      -39.69619159


--------------------------------------------------------------------------------------------------------




--------------------------------------- Iteration      1(  11)  ---------------------------------------


    POTLOK:  cpu time    0.0260: real time    0.0277
    SETDIJ:  cpu time    0.0560: real time    0.0559
    EDDIAG:  cpu time    0.0680: real time    0.0681
  RMM-DIIS:  cpu time    0.2910: real time    0.2912
    ORTHCH:  cpu time    0.0060: real time    0.0058
       DOS:  cpu time    0.0000: real time    0.0005
    CHARGE:  cpu time    0.0770: real time    0.0769
    MIXING:  cpu time    0.0010: real time    0.0010
    --------------------------------------------
      LOOP:  cpu time    0.5249: real time    0.5272

 eigenvalue-minimisations  :   944
 total energy-change (2. order) : 0.2571402E-02  (-0.1452818E-02)
 number of electron      32.0000000 magnetization 
 augmentation part        3.4204831 magnetization 

 Broyden mixing:
  rms(total) = 0.88820E-02    rms(broyden)= 0.88819E-02
  rms(prec ) = 0.19877E-01
  weight for this iteration     100.00

 eigenvalues of (default mixing * dielectric matrix)
  average eigenvalue GAMMA=   1.5293
  2.2384  2.0629  2.0629  0.9171  0.9171  0.9776

 Free energy of the ion-electron system (eV)
  ---------------------------------------------------
  alpha Z        PSCENC =       185.39985751
  Ewald energy   TEWEN  =     -1934.07799583
  -Hartree energ DENC   =      -441.27026348
  -exchange      EXHF   =         0.00000000
  -V(xc)+E(xc)   XCENC  =        86.19059809
  PAW double counting   =      1561.98602900    -1519.81318835
  entropy T*S    EENTRO =        -0.00000000
  eigenvalues    EBANDS =      -212.42571967
  atomic energy  EATOM  =      2234.31706254
  Solvation  Ediel_sol  =         0.00000000
  ---------------------------------------------------
  free energy    TOTEN  =       -39.69362019 eV

  energy without entropy =      -39.69362019  energy(sigma->0) =      -39.69362019


--------------------------------------------------------------------------------------------------------




--------------------------------------- Iteration      1(  12)  ---------------------------------------


    POTLOK:  cpu time    0.0260: real time    0.0257
    SETDIJ:  cpu time    0.0560: real time    0.0560
    EDDIAG:  cpu time    0.0680: real time    0.0680
  RMM-DIIS:  cpu time    0.2860: real time    0.2866
    ORTHCH:  cpu time    0.0060: real time    0.0057
       DOS:  cpu time    0.0010: real time    0.0005
    CHARGE:  cpu time    0.0770: real time    0.0777
    MIXING:  cpu time    0.0020: real time    0.0011
    --------------------------------------------
      LOOP:  cpu time    0.5219: real time    0.5213

 eigenvalue-minimisations  :   932
 total energy-change (2. order) :-0.9775982E-03  (-0.1041630E-02)
 number of electron      32.0000000 magnetization 
 augmentation part        3.4192182 magnetization 

 Broyden mixing:
  rms(total) = 0.18326E-01    rms(broyden)= 0.18323E-01
  rms(prec ) = 0.41610E-01
  weight for this iteration     100.00

 eigenvalues of (default mixing * dielectric matrix)
  average eigenvalue GAMMA=   1.5467
  2.8913  1.8287  1.8287  1.2419  1.2419  0.8974  0.8974

 Free energy of the ion-electron system (eV)
  ---------------------------------------------------
  alpha Z        PSCENC =       185.39985751
  Ewald energy   TEWEN  =     -1934.07799583
  -Hartree energ DENC   =      -440.66606642
  -exchange      EXHF   =         0.00000000
  -V(xc)+E(xc)   XCENC  =        86.14649844
  PAW double counting   =      1560.24824416    -1517.95074958
  entropy T*S    EENTRO =        -0.00000000
  eigenvalues    EBANDS =      -213.11144860
  atomic energy  EATOM  =      2234.31706254
  Solvation  Ediel_sol  =         0.00000000
  ---------------------------------------------------
  free energy    TOTEN  =       -39.69459779 eV

  energy without entropy =      -39.69459779  energy(sigma->0) =      -39.69459779


--------------------------------------------------------------------------------------------------------




--------------------------------------- Iteration      1(  13)  ---------------------------------------


    POTLOK:  cpu time    0.0250: real time    0.0281
    SETDIJ:  cpu time    0.0570: real time    0.0562
    EDDIAG:  cpu time    0.0680: real time    0.0684
  RMM-DIIS:  cpu time    0.2870: real time    0.2867
    ORTHCH:  cpu time    0.0060: real time    0.0059
       DOS:  cpu time    0.0000: real time    0.0005
    CHARGE:  cpu time    0.0780: real time    0.0784
    MIXING:  cpu time    0.0020: real time    0.0011
    --------------------------------------------
      LOOP:  cpu time    0.5229: real time    0.5252

 eigenvalue-minimisations  :   901
 total energy-change (2. order) : 0.4017704E-03  (-0.7807519E-03)
 number of electron      32.0000000 magnetization 
 augmentation part        3.4198739 magnetization 

 Broyden mixing:
  rms(total) = 0.82726E-02    rms(broyden)= 0.82681E-02
  rms(prec ) = 0.22488E-01
  weight for this iteration     100.00

 eigenvalues of (default mixing * dielectric matrix)
  average eigenvalue GAMMA=   1.5383
  2.4840  2.1797  2.1797  1.3087  1.3087  1.2218  0.8118  0.8118

 Free energy of the ion-electron system (eV)
  ---------------------------------------------------
  alpha Z        PSCENC =       185.39985751
  Ewald energy   TEWEN  =     -1934.07799583
  -Hartree energ DENC   =      -441.45626211
  -exchange      EXHF   =         0.00000000
  -V(xc)+E(xc)   XCENC  =        86.20685918
  PAW double counting   =      1562.54960534    -1520.27314586
  entropy T*S    EENTRO =        -0.00000000
  eigenvalues    EBANDS =      -212.36017678
  atomic energy  EATOM  =      2234.31706254
  Solvation  Ediel_sol  =         0.00000000
  ---------------------------------------------------
  free energy    TOTEN  =       -39.69419601 eV

  energy without entropy =      -39.69419601  energy(sigma->0) =      -39.69419601


--------------------------------------------------------------------------------------------------------




--------------------------------------- Iteration      1(  14)  ---------------------------------------


    POTLOK:  cpu time    0.0260: real time    0.0265
    SETDIJ:  cpu time    0.0570: real time    0.0568
    EDDIAG:  cpu time    0.0690: real time    0.0691
  RMM-DIIS:  cpu time    0.2720: real time    0.2725
    ORTHCH:  cpu time    0.0060: real time    0.0058
       DOS:  cpu time    0.0010: real time    0.0005
    CHARGE:  cpu time    0.0790: real time    0.0795
    MIXING:  cpu time    0.0020: real time    0.0012
    --------------------------------------------
      LOOP:  cpu time    0.5119: real time    0.5118

 eigenvalue-minimisations  :   865
 total energy-change (2. order) : 0.9590978E-04  (-0.1862200E-03)
 number of electron      32.0000000 magnetization 
 augmentation part        3.4146165 magnetization 

 Broyden mixing:
  rms(total) = 0.30415E-02    rms(broyden)= 0.30410E-02
  rms(prec ) = 0.83808E-02
  weight for this iteration     100.00

 eigenvalues of (default mixing * dielectric matrix)
  average eigenvalue GAMMA=   1.5726
  2.8290  2.8290  2.6811  1.2333  1.2333  1.1439  0.7975  0.7975  0.6086

 Free energy of the ion-electron system (eV)
  ---------------------------------------------------
  alpha Z        PSCENC =       185.39985751
  Ewald energy   TEWEN  =     -1934.07799583
  -Hartree energ DENC   =      -441.28484485
  -exchange      EXHF   =         0.00000000
  -V(xc)+E(xc)   XCENC  =        86.18879833
  PAW double counting   =      1562.07384264    -1519.78056209
  entropy T*S    EENTRO =        -0.00000000
  eigenvalues    EBANDS =      -212.53025835
  atomic energy  EATOM  =      2234.31706254
  Solvation  Ediel_sol  =         0.00000000
  ---------------------------------------------------
  free energy    TOTEN  =       -39.69410011 eV

  energy without entropy =      -39.69410011  energy(sigma->0) =      -39.69410011


--------------------------------------------------------------------------------------------------------




--------------------------------------- Iteration      1(  15)  ---------------------------------------


    POTLOK:  cpu time    0.0260: real time    0.0292
    SETDIJ:  cpu time    0.0560: real time    0.0566
    EDDIAG:  cpu time    0.0690: real time    0.0688
  RMM-DIIS:  cpu time    0.2450: real time    0.2446
    ORTHCH:  cpu time    0.0050: real time    0.0058
       DOS:  cpu time    0.0010: real time    0.0005
    CHARGE:  cpu time    0.0770: real time    0.0772
    MIXING:  cpu time    0.0010: real time    0.0012
    --------------------------------------------
      LOOP:  cpu time    0.4799: real time    0.4838

 eigenvalue-minimisations  :   755
 total energy-change (2. order) :-0.3152959E-04  (-0.5731562E-04)
 number of electron      32.0000000 magnetization 
 augmentation part        3.4140100 magnetization 

 Broyden mixing:
  rms(total) = 0.21556E-02    rms(broyden)= 0.21554E-02
  rms(prec ) = 0.55806E-02
  weight for this iteration     100.00

 eigenvalues of (default mixing * dielectric matrix)
  average eigenvalue GAMMA=   1.5452
  3.0921  3.0921  2.4544  1.2402  1.2402  1.0331  0.8232  0.7579  0.8593  0.8593

 Free energy of the ion-electron system (eV)
  ---------------------------------------------------
  alpha Z        PSCENC =       185.39985751
  Ewald energy   TEWEN  =     -1934.07799583
  -Hartree energ DENC   =      -441.32332259
  -exchange      EXHF   =         0.00000000
  -V(xc)+E(xc)   XCENC  =        86.19199686
  PAW double counting   =      1562.14082987    -1519.83539955
  entropy T*S    EENTRO =        -0.00000000
  eigenvalues    EBANDS =      -212.50716044
  atomic energy  EATOM  =      2234.31706254
  Solvation  Ediel_sol  =         0.00000000
  ---------------------------------------------------
  free energy    TOTEN  =       -39.69413163 eV

  energy without entropy =      -39.69413163  energy(sigma->0) =      -39.69413163


--------------------------------------------------------------------------------------------------------




--------------------------------------- Iteration      1(  16)  ---------------------------------------


    POTLOK:  cpu time    0.0260: real time    0.0259
    SETDIJ:  cpu time    0.0570: real time    0.0571
    EDDIAG:  cpu time    0.0690: real time    0.0688
  RMM-DIIS:  cpu time    0.2460: real time    0.2462
    ORTHCH:  cpu time    0.0060: real time    0.0057
       DOS:  cpu time    0.0000: real time    0.0004
    CHARGE:  cpu time    0.0800: real time    0.0796
    MIXING:  cpu time    0.0010: real time    0.0013
    --------------------------------------------
      LOOP:  cpu time    0.4849: real time    0.4850

 eigenvalue-minimisations  :   778
 total energy-change (2. order) : 0.4193699E-05  (-0.1236782E-04)
 number of electron      32.0000000 magnetization 
 augmentation part        3.4148079 magnetization 

 Broyden mixing:
  rms(total) = 0.69246E-03    rms(broyden)= 0.69246E-03
  rms(prec ) = 0.14546E-02
  weight for this iteration     100.00

 eigenvalues of (default mixing * dielectric matrix)
  average eigenvalue GAMMA=   1.5183
  2.7802  2.7802  2.7525  1.2018  1.2018  1.2429  1.2429  0.9754  0.9754  0.7742
  0.7742

 Free energy of the ion-electron system (eV)
  ---------------------------------------------------
  alpha Z        PSCENC =       185.39985751
  Ewald energy   TEWEN  =     -1934.07799583
  -Hartree energ DENC   =      -441.30963840
  -exchange      EXHF   =         0.00000000
  -V(xc)+E(xc)   XCENC  =        86.19158968
  PAW double counting   =      1562.03621513    -1519.70652757
  entropy T*S    EENTRO =        -0.00000000
  eigenvalues    EBANDS =      -212.54469051
  atomic energy  EATOM  =      2234.31706254
  Solvation  Ediel_sol  =         0.00000000
  ---------------------------------------------------
  free energy    TOTEN  =       -39.69412744 eV

  energy without entropy =      -39.69412744  energy(sigma->0) =      -39.69412744


--------------------------------------------------------------------------------------------------------




--------------------------------------- Iteration      1(  17)  ---------------------------------------


    POTLOK:  cpu time    0.0260: real time    0.0259
    SETDIJ:  cpu time    0.0570: real time    0.0564
    EDDIAG:  cpu time    0.0690: real time    0.0689
  RMM-DIIS:  cpu time    0.2090: real time    0.2093
    ORTHCH:  cpu time    0.0060: real time    0.0058
       DOS:  cpu time    0.0000: real time    0.0005
    --------------------------------------------
      LOOP:  cpu time    0.3669: real time    0.3669

 eigenvalue-minimisations  :   637
 total energy-change (2. order) :-0.6496874E-05  (-0.6731113E-05)
 number of electron      32.0000000 magnetization 
 augmentation part        3.4148079 magnetization 

 Free energy of the ion-electron system (eV)
  ---------------------------------------------------
  alpha Z        PSCENC =       185.39985751
  Ewald energy   TEWEN  =     -1934.07799583
  -Hartree energ DENC   =      -441.36579288
  -exchange      EXHF   =         0.00000000
  -V(xc)+E(xc)   XCENC  =        86.19559370
  PAW double counting   =      1562.17700548    -1519.84338183
  entropy T*S    EENTRO =        -0.00000000
  eigenvalues    EBANDS =      -212.49648263
  atomic energy  EATOM  =      2234.31706254
  Solvation  Ediel_sol  =         0.00000000
  ---------------------------------------------------
  free energy    TOTEN  =       -39.69413394 eV

  energy without entropy =      -39.69413394  energy(sigma->0) =      -39.69413394


--------------------------------------------------------------------------------------------------------




 average (electrostatic) potential at core
  the test charge radii are     1.1929  1.2598  0.7215
  (the norm of the test charge is              1.0000)
       1 -36.1347       2 -26.7944       3 -71.0535       4 -71.0535       5 -71.0535
 
 
 
 E-fermi :   3.4126     XC(G=0): -11.1505     alpha+bet :-12.6354


 k-point     1 :       0.0000    0.0000    0.0000
  band No.  band energies     occupation 
      1     -30.0813      2.00000
      2     -14.8167      2.00000
      3     -13.8107      2.00000
      4     -13.8107      2.00000
      5     -12.1454      2.00000
      6     -12.1454      2.00000
      7     -12.1454      2.00000
      8      -0.2096      2.00000
      9      -0.2096      2.00000
     10      -0.2096      2.00000
     11       1.4785      2.00000
     12       1.4785      2.00000
     13       1.4785      2.00000
     14       2.3188      2.00000
     15       2.3188      2.00000
     16       2.3188      2.00000
     17       4.3445      0.00000
     18       4.3445      0.00000
     19       4.3449      0.00000
     20       8.0264      0.00000

 k-point     2 :       0.1429    0.0000    0.0000
  band No.  band energies     occupation 
      1     -30.0769      2.00000
      2     -14.8296      2.00000
      3     -13.8325      2.00000
      4     -13.8026      2.00000
      5     -12.1363      2.00000
      6     -12.1363      2.00000
      7     -12.0105      2.00000
      8      -0.4741      2.00000
      9      -0.2230      2.00000
     10      -0.2230      2.00000
     11       1.2094      2.00000
     12       1.2094      2.00000
     13       1.3019      2.00000
     14       1.7162      2.00000
     15       2.1924      2.00000
     16       2.1924      2.00000
     17       4.3734      0.00000
     18       4.7944      0.00000
     19       4.7944      0.00000
     20       8.3588      0.00000

 k-point     3 :       0.2857    0.0000    0.0000
  band No.  band energies     occupation 
      1     -30.0670      2.00000
      2     -14.9153      2.00000
      3     -13.7858      2.00000
      4     -13.7667      2.00000
      5     -12.1158      2.00000
      6     -12.1158      2.00000
      7     -11.7559      2.00000
      8      -1.0982      2.00000
      9      -0.2424      2.00000
     10      -0.2424      2.00000
     11       0.6908      2.00000
     12       0.6908      2.00000
     13       0.7738      2.00000
     14       0.9484      2.00000
     15       2.0336      2.00000
     16       2.0336      2.00000
     17       4.4402      0.00000
     18       5.6048      0.00000
     19       5.6048      0.00000
     20       9.1708      0.00000

 k-point     4 :       0.4286    0.0000    0.0000
  band No.  band energies     occupation 
      1     -30.0590      2.00000
      2     -15.0162      2.00000
      3     -13.7721      2.00000
      4     -13.6369      2.00000
      5     -12.0992      2.00000
      6     -12.0992      2.00000
      7     -11.5844      2.00000
      8      -1.6292      2.00000
      9      -0.2312      2.00000
     10      -0.2312      2.00000
     11       0.2387      2.00000
     12       0.3176      2.00000
     13       0.3176      2.00000
     14       0.6974      2.00000
     15       1.9440      2.00000
     16       1.9440      2.00000
     17       4.4957      0.00000
     18       6.1706      0.00000
     19       6.1706      0.00000
     20       9.8221      0.00000

 k-point     5 :       0.1429    0.1429    0.0000
  band No.  band energies     occupation 
      1     -30.0726      2.00000
      2     -14.8161      2.00000
      3     -13.8669      2.00000
      4     -13.7967      2.00000
      5     -12.1270      2.00000
      6     -12.0627      2.00000
      7     -11.9653      2.00000
      8      -0.6360      2.00000
      9      -0.3414      2.00000
     10      -0.2348      2.00000
     11       0.6731      2.00000
     12       1.0059      2.00000
     13       1.4824      2.00000
     14       1.5372      2.00000
     15       1.8773      2.00000
     16       2.0114      2.00000
     17       4.7605      0.00000
     18       4.8647      0.00000
     19       5.0451      0.00000
     20       8.6901      0.00000

 k-point     6 :       0.2857    0.1429    0.0000
  band No.  band energies     occupation 
      1     -30.0630      2.00000
      2     -14.8456      2.00000
      3     -13.8582      2.00000
      4     -13.7579      2.00000
      5     -12.1058      2.00000
      6     -12.0299      2.00000
      7     -11.7717      2.00000
      8      -1.1525      2.00000
      9      -0.5084      2.00000
     10      -0.2510      2.00000
     11       0.0024      2.00000
     12       0.5641      2.00000
     13       0.9012      2.00000
     14       1.4607      2.00000
     15       1.6963      2.00000
     16       1.7877      2.00000
     17       4.8531      0.00000
     18       5.6152      0.00000
     19       5.6707      0.00000
     20       9.4036      0.00000

 k-point     7 :       0.4286    0.1429    0.0000
  band No.  band energies     occupation 
      1     -30.0552      2.00000
      2     -14.9164      2.00000
      3     -13.7732      2.00000
      4     -13.7198      2.00000
      5     -12.0887      2.00000
      6     -12.0188      2.00000
      7     -11.6280      2.00000
      8      -1.6435      2.00000
      9      -0.6948      2.00000
     10      -0.3548      2.00000
     11      -0.2344      2.00000
     12       0.2170      2.00000
     13       0.5990      2.00000
     14       1.3976      2.00000
     15       1.5450      2.00000
     16       1.6740      2.00000
     17       4.8955      0.00000
     18       6.1715      0.00000
     19       6.1920      0.00000
     20       9.9788      0.00000

 k-point     8 :       0.2857    0.2857    0.0000
  band No.  band energies     occupation 
      1     -30.0540      2.00000
      2     -14.7097      2.00000
      3     -13.9761      2.00000
      4     -13.7265      2.00000
      5     -12.0832      2.00000
      6     -11.8905      2.00000
      7     -11.7785      2.00000
      8      -1.3867      2.00000
      9      -0.9207      2.00000
     10      -0.7758      2.00000
     11      -0.2638      2.00000
     12       0.2671      2.00000
     13       0.8683      2.00000
     14       1.2171      2.00000
     15       1.4287      2.00000
     16       2.0088      2.00000
     17       5.5660      0.00000
     18       5.6903      0.00000
     19       5.9840      0.00000
     20       9.8725      0.00000

 k-point     9 :       0.4286    0.2857    0.0000
  band No.  band energies     occupation 
      1     -30.0468      2.00000
      2     -14.6536      2.00000
      3     -13.9365      2.00000
      4     -13.7599      2.00000
      5     -12.0649      2.00000
      6     -11.8639      2.00000
      7     -11.7092      2.00000
      8      -1.6985      2.00000
      9      -1.4416      2.00000
     10      -0.9921      2.00000
     11      -0.2437      2.00000
     12      -0.0020      2.00000
     13       0.8320      2.00000
     14       1.1435      2.00000
     15       1.2373      2.00000
     16       2.1304      2.00000
     17       5.6429      0.00000
     18       6.1751      0.00000
     19       6.3585      0.00000
     20      10.4346      0.00000

 k-point    10 :       0.4286    0.4286    0.0000
  band No.  band energies     occupation 
      1     -30.0400      2.00000
      2     -14.3534      2.00000
      3     -14.0508      2.00000
      4     -13.8901      2.00000
      5     -12.0456      2.00000
      6     -11.7603      2.00000
      7     -11.7456      2.00000
      8      -1.9175      2.00000
      9      -1.7888      2.00000
     10      -1.4940      2.00000
     11      -0.2462      2.00000
     12      -0.1798      2.00000
     13       0.9764      2.00000
     14       1.0098      2.00000
     15       1.0889      2.00000
     16       2.4548      2.00000
     17       6.1666      0.00000
     18       6.1883      0.00000
     19       6.6064      0.00000
     20      10.4571      0.00000

 k-point    11 :       0.1429    0.1429    0.1429
  band No.  band energies     occupation 
      1     -30.0685      2.00000
      2     -14.7862      2.00000
      3     -13.8438      2.00000
      4     -13.8438      2.00000
      5     -12.0788      2.00000
      6     -12.0788      2.00000
      7     -11.9026      2.00000
      8      -0.8031      2.00000
      9      -0.3471      2.00000
     10      -0.3471      2.00000
     11       0.5682      2.00000
     12       0.5682      2.00000
     13       1.1651      2.00000
     14       1.6754      2.00000
     15       1.8218      2.00000
     16       1.8218      2.00000
     17       5.0107      0.00000
     18       5.1027      0.00000
     19       5.1027      0.00000
     20       8.9684      0.00000

 k-point    12 :       0.2857    0.1429    0.1429
  band No.  band energies     occupation 
      1     -30.0591      2.00000
      2     -14.7742      2.00000
      3     -13.8554      2.00000
      4     -13.7898      2.00000
      5     -12.1175      2.00000
      6     -11.9932      2.00000
      7     -11.7688      2.00000
      8      -1.2198      2.00000
      9      -0.6232      2.00000
     10      -0.3617      2.00000
     11      -0.0124      2.00000
     12       0.0439      2.00000
     13       0.8884      2.00000
     14       1.5645      2.00000
     15       1.6552      2.00000
     16       1.6917      2.00000
     17       5.1253      0.00000
     18       5.6941      0.00000
     19       5.7013      0.00000
     20       9.6026      0.00000

 k-point    13 :       0.4286    0.1429    0.1429
  band No.  band energies     occupation 
      1     -30.0515      2.00000
      2     -14.8170      2.00000
      3     -13.7802      2.00000
      4     -13.7440      2.00000
      5     -12.1512      2.00000
      6     -11.9298      2.00000
      7     -11.6771      2.00000
      8      -1.6553      2.00000
      9      -0.8491      2.00000
     10      -0.4484      2.00000
     11      -0.3897      2.00000
     12      -0.2311      2.00000
     13       0.9755      2.00000
     14       1.3089      2.00000
     15       1.5172      2.00000
     16       1.6044      2.00000
     17       5.1744      0.00000
     18       6.2017      0.00000
     19       6.2178      0.00000
     20      10.1757      0.00000

 k-point    14 :       0.2857    0.2857    0.1429
  band No.  band energies     occupation 
      1     -30.0503      2.00000
      2     -14.6291      2.00000
      3     -13.9260      2.00000
      4     -13.7471      2.00000
      5     -12.1224      2.00000
      6     -11.9555      2.00000
      7     -11.7507      2.00000
      8      -1.4289      2.00000
      9      -0.9160      2.00000
     10      -0.7159      2.00000
     11      -0.4840      2.00000
     12      -0.1011      2.00000
     13       0.4474      2.00000
     14       1.4994      2.00000
     15       1.5598      2.00000
     16       2.0182      2.00000
     17       5.6997      0.00000
     18       5.7956      0.00000
     19       6.0212      0.00000
     20      10.0535      0.00000

 k-point    15 :       0.4286    0.2857    0.1429
  band No.  band energies     occupation 
      1     -30.0432      2.00000
      2     -14.5566      2.00000
      3     -13.9012      2.00000
      4     -13.7306      2.00000
      5     -12.1592      2.00000
      6     -11.8725      2.00000
      7     -11.7642      2.00000
      8      -1.6959      2.00000
      9      -1.3742      2.00000
     10      -0.9824      2.00000
     11      -0.5049      2.00000
     12      -0.3591      2.00000
     13       0.4706      2.00000
     14       1.3938      2.00000
     15       1.4921      2.00000
     16       2.1400      2.00000
     17       5.7863      0.00000
     18       6.2472      0.00000
     19       6.3927      0.00000
     20      10.6297      0.00000

 k-point    16 :       0.4286    0.4286    0.1429
  band No.  band energies     occupation 
      1     -30.0365      2.00000
      2     -14.2594      2.00000
      3     -13.9842      2.00000
      4     -13.8284      2.00000
      5     -12.1286      2.00000
      6     -11.8595      2.00000
      7     -11.8172      2.00000
      8      -1.8216      2.00000
      9      -1.7253      2.00000
     10      -1.4903      2.00000
     11      -0.5201      2.00000
     12      -0.4621      2.00000
     13       0.3348      2.00000
     14       1.4332      2.00000
     15       1.4771      2.00000
     16       2.4692      2.00000
     17       6.2640      0.00000
     18       6.2841      0.00000
     19       6.6457      0.00000
     20      10.1885      0.00000

 k-point    17 :       0.2857    0.2857    0.2857
  band No.  band energies     occupation 
      1     -30.0419      2.00000
      2     -14.4464      2.00000
      3     -13.7995      2.00000
      4     -13.7995      2.00000
      5     -12.1157      2.00000
      6     -12.1157      2.00000
      7     -11.7672      2.00000
      8      -1.5192      2.00000
      9      -0.9045      2.00000
     10      -0.9045      2.00000
     11      -0.5655      2.00000
     12      -0.5655      2.00000
     13      -0.5416      2.00000
     14       1.8067      2.00000
     15       1.8067      2.00000
     16       2.1474      2.00000
     17       6.0716      0.00000
     18       6.1201      0.00000
     19       6.1201      0.00000
     20      10.3906      0.00000

 k-point    18 :       0.4286    0.2857    0.2857
  band No.  band energies     occupation 
      1     -30.0351      2.00000
      2     -14.3064      2.00000
      3     -13.8358      2.00000
      4     -13.6780      2.00000
      5     -12.2646      2.00000
      6     -12.0099      2.00000
      7     -11.8679      2.00000
      8      -1.6971      2.00000
      9      -1.3072      2.00000
     10      -0.9983      2.00000
     11      -0.8934      2.00000
     12      -0.8215      2.00000
     13      -0.4328      2.00000
     14       1.8371      2.00000
     15       1.9710      2.00000
     16       2.2500      2.00000
     17       6.1686      0.00000
     18       6.4587      0.00000
     19       6.4831      0.00000
     20      10.4507      0.00000

 k-point    19 :       0.4286    0.4286    0.2857
  band No.  band energies     occupation 
      1     -30.0286      2.00000
      2     -14.0235      2.00000
      3     -13.8083      2.00000
      4     -13.6902      2.00000
      5     -12.2855      2.00000
      6     -12.1074      2.00000
      7     -12.0134      2.00000
      8      -1.7890      2.00000
      9      -1.4814      2.00000
     10      -1.4114      2.00000
     11      -0.9382      2.00000
     12      -0.8482      2.00000
     13      -0.7429      2.00000
     14       2.0604      2.00000
     15       2.0966      2.00000
     16       2.5060      2.00000
     17       6.5280      0.00000
     18       6.5401      0.00000
     19       6.7331      0.00000
     20       9.9530      0.00000

 k-point    20 :       0.4286    0.4286    0.4286
  band No.  band energies     occupation 
      1     -30.0223      2.00000
      2     -13.7664      2.00000
      3     -13.6221      2.00000
      4     -13.6221      2.00000
      5     -12.3509      2.00000
      6     -12.3509      2.00000
      7     -12.2374      2.00000
      8      -1.8773      2.00000
      9      -1.4735      2.00000
     10      -1.4735      2.00000
     11      -1.1728      2.00000
     12      -1.0650      2.00000
     13      -1.0650      2.00000
     14       2.4731      2.00000
     15       2.4731      2.00000
     16       2.5609      2.00000
     17       6.7961      0.00000
     18       6.8102      0.00000
     19       6.8104      0.00000
     20       9.7799      0.00000


--------------------------------------------------------------------------------------------------------


 soft charge-density along one line, spin component           1
         0         1         2         3         4         5         6         7         8         9
 total charge-density along one line
 
 pseudopotential strength for first ion, spin component:           1
-11.346  -7.402  -0.000  -0.000  -0.000   0.000   0.000   0.000
 -7.402  -5.734  -0.000  -0.000  -0.000   0.000   0.000   0.000
 -0.000  -0.000 -14.872  -0.000  -0.000   0.103   0.000   0.000
 -0.000  -0.000  -0.000 -14.872  -0.000   0.000   0.103   0.000
 -0.000  -0.000  -0.000  -0.000 -14.872   0.000   0.000   0.103
  0.000   0.000   0.103   0.000   0.000   0.037   0.000   0.000
  0.000   0.000   0.000   0.103   0.000   0.000   0.037   0.000
  0.000   0.000   0.000   0.000   0.103   0.000   0.000   0.037
 -0.000  -0.000  -0.000  -0.000  -0.000   0.000   0.000   0.000
 -0.000  -0.000  -0.000  -0.000  -0.000   0.000   0.000   0.000
 -0.000  -0.000   0.000  -0.000   0.000  -0.000   0.000  -0.000
 -0.000  -0.000  -0.000  -0.000  -0.000   0.000   0.000   0.000
  0.000   0.000   0.000  -0.000  -0.000  -0.000   0.000   0.000
 -0.000  -0.000  -0.000  -0.000  -0.000   0.000  -0.000  -0.000
 -0.000  -0.000  -0.000  -0.000  -0.000  -0.000  -0.000  -0.000
 -0.000  -0.000   0.000  -0.000   0.000   0.000   0.000   0.000
 -0.000  -0.000  -0.000  -0.000  -0.000  -0.000  -0.000  -0.000
  0.000   0.000   0.000  -0.000  -0.000  -0.000  -0.000  -0.000
 total augmentation occupancy for first ion, spin component:           1
  2.105  -0.226   0.000   0.000   0.000   0.000   0.000   0.000  -0.000   0.000   0.000  -0.000  -0.000   0.000  -0.000  -0.000
 -0.226   0.472   0.000   0.000   0.000   0.000   0.000   0.000   0.000   0.000   0.000  -0.000   0.000   0.000  -0.000   0.000
  0.000   0.000   2.025   0.000   0.000   0.071  -0.000   0.000   0.000   0.000   0.000   0.000   0.000   0.000   0.000   0.000
  0.000   0.000   0.000   2.025  -0.000  -0.000   0.071   0.000   0.000   0.000   0.000   0.000   0.000   0.000   0.000   0.000
  0.000   0.000   0.000  -0.000   2.025  -0.000  -0.000   0.071   0.000   0.000   0.000   0.000   0.000   0.000   0.000   0.000
  0.000   0.000   0.071  -0.000   0.000   0.297   0.000   0.000   0.000   0.000   0.000   0.000   0.000   0.000   0.000   0.000
  0.000   0.000   0.000   0.071   0.000   0.000   0.297   0.000   0.000   0.000   0.000   0.000   0.000   0.000   0.000   0.000
  0.000   0.000   0.000   0.000   0.071   0.000   0.000   0.297   0.000   0.000   0.000   0.000   0.000   0.000   0.000   0.000
 -0.000  -0.000   0.000   0.000   0.000   0.000   0.000   0.000   0.094  -0.000   0.000   0.000   0.000  -0.426  -0.000  -0.000
  0.000   0.000   0.000   0.000   0.000   0.000   0.000   0.000   0.000   0.094   0.000   0.000  -0.000  -0.000  -0.426  -0.000
  0.000   0.000   0.000   0.000   0.000   0.000   0.000   0.000   0.000   0.000   0.063  -0.000   0.000   0.000  -0.000  -0.276
 -0.000   0.000   0.000   0.000   0.000   0.000   0.000   0.000   0.000   0.000   0.000   0.094   0.000   0.000   0.000  -0.000
[...]
     16       1.8133      2.00000
     17       5.2164      0.00000
     18       5.3321      0.00000
     19       5.6172      0.00000
     20       6.9693      0.00000

 k-point     9 :       0.4286    0.2857    0.0000
  band No.  band energies     occupation 
      1     -30.3667      2.00000
      2     -14.7561      2.00000
      3     -14.0860      2.00000
      4     -13.9045      2.00000
      5     -12.3790      2.00000
      6     -12.1810      2.00000
      7     -12.0366      2.00000
      8      -1.8169      2.00000
      9      -1.5269      2.00000
     10      -1.1369      2.00000
     11      -0.3746      2.00000
     12      -0.1161      2.00000
     13       0.6644      2.00000
     14       0.9630      2.00000
     15       1.0160      2.00000
     16       1.9316      2.00000
     17       5.2871      0.00000
     18       5.7905      0.00000
     19       5.9699      0.00000
     20       7.0589      0.00000

 k-point    10 :       0.4286    0.4286    0.0000
  band No.  band energies     occupation 
      1     -30.3609      2.00000
      2     -14.4707      2.00000
      3     -14.1957      2.00000
      4     -14.0337      2.00000
      5     -12.3623      2.00000
      6     -12.0818      2.00000
      7     -12.0691      2.00000
      8      -1.9907      2.00000
      9      -1.9091      2.00000
     10      -1.6020      2.00000
     11      -0.3555      2.00000
     12      -0.2824      2.00000
     13       0.7451      2.00000
     14       0.8297      2.00000
     15       0.9032      2.00000
     16       2.2441      2.00000
     17       5.7822      0.00000
     18       5.8023      0.00000
     19       6.2057      0.00000
     20       7.1906      0.00000

 k-point    11 :       0.1429    0.1429    0.1429
  band No.  band energies     occupation 
      1     -30.3852      2.00000
      2     -14.8870      2.00000
      3     -13.9792      2.00000
      4     -13.9792      2.00000
      5     -12.3840      2.00000
      6     -12.3840      2.00000
      7     -12.2248      2.00000
      8      -0.9520      2.00000
      9      -0.5264      2.00000
     10      -0.5264      2.00000
     11       0.4317      2.00000
     12       0.4317      2.00000
     13       0.9512      2.00000
     14       1.4993      2.00000
     15       1.6126      2.00000
     16       1.6126      2.00000
     17       4.6893      0.00000
     18       4.7805      0.00000
     19       4.7805      0.00000
     20       7.1520      0.00000

 k-point    12 :       0.2857    0.1429    0.1429
  band No.  band energies     occupation 
      1     -30.3772      2.00000
      2     -14.8734      2.00000
      3     -14.0006      2.00000
      4     -13.9277      2.00000
      5     -12.4213      2.00000
      6     -12.3041      2.00000
      7     -12.0976      2.00000
      8      -1.3546      2.00000
      9      -0.7721      2.00000
     10      -0.5284      2.00000
     11      -0.1543      2.00000
     12      -0.0850      2.00000
     13       0.7013      2.00000
     14       1.3654      2.00000
     15       1.4805      2.00000
     16       1.4941      2.00000
     17       4.7975      0.00000
     18       5.3378      0.00000
     19       5.3487      0.00000
     20       7.1445      0.00000

 k-point    13 :       0.4286    0.1429    0.1429
  band No.  band energies     occupation 
      1     -30.3708      2.00000
      2     -14.9106      2.00000
      3     -13.9392      2.00000
      4     -13.8839      2.00000
      5     -12.4539      2.00000
      6     -12.2485      2.00000
      7     -12.0081      2.00000
      8      -1.7759      2.00000
      9      -0.9561      2.00000
     10      -0.5953      2.00000
     11      -0.5220      2.00000
     12      -0.3829      2.00000
     13       0.7833      2.00000
     14       1.1213      2.00000
     15       1.3510      2.00000
     16       1.4124      2.00000
     17       4.8421      0.00000
     18       5.8166      0.00000
     19       5.8353      0.00000
     20       7.1308      0.00000

 k-point    14 :       0.2857    0.2857    0.1429
  band No.  band energies     occupation 
      1     -30.3697      2.00000
      2     -14.7366      2.00000
      3     -14.0691      2.00000
      4     -13.8924      2.00000
      5     -12.4257      2.00000
      6     -12.2639      2.00000
      7     -12.0815      2.00000
      8      -1.5463      2.00000
      9      -1.0615      2.00000
     10      -0.8471      2.00000
     11      -0.6291      2.00000
     12      -0.2213      2.00000
     13       0.2606      2.00000
     14       1.3139      2.00000
     15       1.3720      2.00000
     16       1.8251      2.00000
     17       5.3411      0.00000
     18       5.4339      0.00000
     19       5.6517      0.00000
     20       7.6005      0.00000

 k-point    15 :       0.4286    0.2857    0.1429
  band No.  band energies     occupation 
      1     -30.3637      2.00000
      2     -14.6656      2.00000
      3     -14.0531      2.00000
      4     -13.8775      2.00000
      5     -12.4604      2.00000
      6     -12.1895      2.00000
      7     -12.0887      2.00000
      8      -1.8162      2.00000
      9      -1.4628      2.00000
     10      -1.1262      2.00000
     11      -0.6321      2.00000
     12      -0.4854      2.00000
     13       0.2778      2.00000
     14       1.2147      2.00000
     15       1.3099      2.00000
     16       1.9421      2.00000
     17       5.4222      0.00000
     18       5.8593      0.00000
     19       6.0020      0.00000
     20       7.6722      0.00000

 k-point    16 :       0.4286    0.4286    0.1429
  band No.  band energies     occupation 
      1     -30.3579      2.00000
      2     -14.3840      2.00000
      3     -14.1325      2.00000
      4     -13.9758      2.00000
      5     -12.4343      2.00000
      6     -12.1727      2.00000
      7     -12.1357      2.00000
      8      -1.9425      2.00000
      9      -1.8111      2.00000
     10      -1.5984      2.00000
     11      -0.6372      2.00000
     12      -0.5747      2.00000
     13       0.1275      2.00000
     14       1.2520      2.00000
     15       1.2921      2.00000
     16       2.2579      2.00000
     17       5.8740      0.00000
     18       5.8931      0.00000
     19       6.2407      0.00000
     20       7.8110      0.00000

 k-point    17 :       0.2857    0.2857    0.2857
  band No.  band energies     occupation 
      1     -30.3625      2.00000
      2     -14.5658      2.00000
      3     -13.9482      2.00000
      4     -13.9482      2.00000
      5     -12.4129      2.00000
      6     -12.4129      2.00000
      7     -12.0957      2.00000
      8      -1.6336      2.00000
      9      -1.0482      2.00000
     10      -1.0482      2.00000
     11      -0.7070      2.00000
     12      -0.6843      2.00000
     13      -0.6843      2.00000
     14       1.6165      2.00000
     15       1.6165      2.00000
     16       1.9507      2.00000
     17       5.6898      0.00000
     18       5.7444      0.00000
     19       5.7444      0.00000
     20       8.7383      0.00000

 k-point    18 :       0.4286    0.2857    0.2857
  band No.  band energies     occupation 
      1     -30.3568      2.00000
      2     -14.4316      2.00000
      3     -13.9912      2.00000
      4     -13.8315      2.00000
      5     -12.5526      2.00000
      6     -12.3130      2.00000
      7     -12.1853      2.00000
      8      -1.8235      2.00000
      9      -1.4034      2.00000
     10      -1.1411      2.00000
     11      -1.0277      2.00000
     12      -0.9486      2.00000
     13      -0.5761      2.00000
     14       1.6504      2.00000
     15       1.7737      2.00000
     16       2.0494      2.00000
     17       5.7841      0.00000
     18       6.0592      0.00000
     19       6.0872      0.00000
     20       8.6988      0.00000

 k-point    19 :       0.4286    0.4286    0.2857
  band No.  band energies     occupation 
      1     -30.3512      2.00000
      2     -14.1654      2.00000
      3     -13.9651      2.00000
      4     -13.8475      2.00000
      5     -12.5718      2.00000
      6     -12.4012      2.00000
      7     -12.3164      2.00000
      8      -1.9298      2.00000
      9      -1.5898      2.00000
     10      -1.5102      2.00000
     11      -1.0693      2.00000
     12      -0.9682      2.00000
     13      -0.8883      2.00000
     14       1.8641      2.00000
     15       1.8978      2.00000
     16       2.2929      2.00000
     17       6.1239      0.00000
     18       6.1361      0.00000
     19       6.3213      0.00000
     20       8.9507      0.00000

 k-point    20 :       0.4286    0.4286    0.4286
  band No.  band energies     occupation 
      1     -30.3458      2.00000
      2     -13.9249      2.00000
      3     -13.7873      2.00000
      4     -13.7873      2.00000
      5     -12.6280      2.00000
      6     -12.6280      2.00000
      7     -12.5225      2.00000
      8      -2.0307      2.00000
      9      -1.5820      2.00000
     10      -1.5820      2.00000
     11      -1.2898      2.00000
     12      -1.1888      2.00000
     13      -1.1888      2.00000
     14       2.2609      2.00000
     15       2.2609      2.00000
     16       2.3451      2.00000
     17       6.3773      0.00000
     18       6.3915      0.00000
     19       6.3915      0.00000
     20       9.4086      0.00000


--------------------------------------------------------------------------------------------------------


 soft charge-density along one line, spin component           1
         0         1         2         3         4         5         6         7         8         9
 total charge-density along one line
 
 pseudopotential strength for first ion, spin component:           1
-11.289  -7.485  -0.000  -0.000  -0.000   0.000   0.000   0.000
 -7.485  -5.739  -0.000  -0.000  -0.000   0.000   0.000   0.000
 -0.000  -0.000 -14.926  -0.000  -0.000   0.107   0.000   0.000
 -0.000  -0.000  -0.000 -14.926  -0.000   0.000   0.107   0.000
 -0.000  -0.000  -0.000  -0.000 -14.926   0.000   0.000   0.107
  0.000   0.000   0.107   0.000   0.000   0.037   0.000   0.000
  0.000   0.000   0.000   0.107   0.000   0.000   0.037   0.000
  0.000   0.000   0.000   0.000   0.107   0.000   0.000   0.037
 -0.000  -0.000  -0.000   0.000  -0.000   0.000  -0.000   0.000
 -0.000  -0.000  -0.000  -0.000   0.000   0.000   0.000  -0.000
 -0.000  -0.000   0.000  -0.000   0.000  -0.000   0.000  -0.000
 -0.000  -0.000   0.000  -0.000  -0.000  -0.000   0.000   0.000
  0.000   0.000   0.000  -0.000  -0.000  -0.000   0.000   0.000
 -0.000  -0.000  -0.000   0.000  -0.000   0.000   0.000  -0.000
 -0.000  -0.000  -0.000  -0.000   0.000  -0.000  -0.000   0.000
 -0.000  -0.000   0.000  -0.000   0.000   0.000   0.000   0.000
 -0.000  -0.000   0.000  -0.000  -0.000   0.000  -0.000  -0.000
  0.000   0.000   0.000  -0.000  -0.000  -0.000  -0.000  -0.000
 total augmentation occupancy for first ion, spin component:           1
  2.103  -0.221   0.000   0.000   0.000   0.000   0.000   0.000  -0.000   0.000  -0.000   0.000   0.000  -0.000  -0.000   0.000
 -0.221   0.456   0.000   0.000   0.000   0.000   0.000   0.000   0.000  -0.000   0.000  -0.000   0.000  -0.000   0.000   0.000
  0.000   0.000   2.024  -0.000  -0.000   0.070  -0.000  -0.000   0.000   0.000   0.000   0.000   0.000   0.000   0.000   0.000
  0.000   0.000  -0.000   2.024  -0.000  -0.000   0.070  -0.000   0.000   0.000   0.000   0.000   0.000   0.000   0.000   0.000
  0.000   0.000  -0.000  -0.000   2.024  -0.000  -0.000   0.070   0.000   0.000   0.000   0.000   0.000   0.000   0.000   0.000
  0.000   0.000   0.070  -0.000   0.000   0.278   0.000  -0.000   0.000   0.000   0.000   0.000   0.000   0.000   0.000   0.000
  0.000   0.000   0.000   0.070   0.000   0.000   0.278  -0.000   0.000   0.000   0.000   0.000   0.000   0.000   0.000   0.000
  0.000   0.000  -0.000  -0.000   0.070  -0.000  -0.000   0.278   0.000   0.000   0.000   0.000   0.000   0.000   0.000   0.000
 -0.000   0.000   0.000   0.000   0.000   0.000   0.000   0.000   0.089  -0.000  -0.000  -0.000  -0.000  -0.393  -0.000  -0.000
 -0.000   0.000   0.000   0.000   0.000   0.000   0.000   0.000  -0.000   0.089   0.000  -0.000  -0.000   0.000  -0.393   0.000
  0.000  -0.000   0.000   0.000   0.000   0.000   0.000   0.000  -0.000   0.000   0.060  -0.000   0.000   0.000  -0.000  -0.254
 -0.000  -0.000   0.000   0.000   0.000   0.000   0.000   0.000   0.000  -0.000  -0.000   0.089   0.000   0.000  -0.000   0.000
  0.000  -0.000   0.000   0.000   0.000   0.000   0.000   0.000  -0.000   0.000  -0.000   0.000   0.060   0.000  -0.000  -0.000
 -0.000  -0.000   0.000   0.000   0.000   0.000   0.000   0.000  -0.393   0.000   0.000   0.000   0.000   1.840  -0.000   0.000
  0.000   0.000   0.000   0.000   0.000   0.000   0.000   0.000  -0.000  -0.393   0.000   0.000  -0.000   0.000   1.840  -0.000
  0.000   0.000   0.000   0.000   0.000   0.000   0.000   0.000   0.000   0.000  -0.254   0.000  -0.000   0.000  -0.000   1.148
  0.000  -0.000   0.000   0.000   0.000   0.000   0.000   0.000  -0.000  -0.000   0.000  -0.393   0.000   0.000   0.000  -0.000
  0.000   0.000   0.000   0.000   0.000   0.000   0.000   0.000   0.000   0.000  -0.000   0.000  -0.254  -0.000   0.000   0.000


------------------------ aborting loop because EDIFF is reached ----------------------------------------


    CHARGE:  cpu time    0.0770: real time    0.0773
    FORLOC:  cpu time    0.0030: real time    0.0032
    FORNL :  cpu time    0.4569: real time    0.4563
    STRESS:  cpu time    1.4258: real time    1.4252
    FORCOR:  cpu time    0.0270: real time    0.0274
    FORHAR:  cpu time    0.0060: real time    0.0066
    MIXING:  cpu time    0.0030: real time    0.0025
    OFIELD:  cpu time    0.0000: real time    0.0000

  FORCE on cell =-STRESS in cart. coord.  units (eV):
  Direction    XX          YY          ZZ          XY          YZ          ZX
  --------------------------------------------------------------------------------------
  Alpha Z   179.60204   179.60204   179.60204
  Ewald    -637.90153  -637.90153  -637.90153     0.00000     0.00000     0.00000
  Hartree   149.85113   149.85113   149.85113    -0.00000    -0.00000    -0.00000
  E(xc)    -144.86519  -144.86519  -144.86519     0.00000     0.00000     0.00000
  Local     -13.98433   -13.98433   -13.98433    -0.00000     0.00000     0.00000
  n-local  -123.44790  -119.52532  -115.33041    -0.43848    -0.37457    -0.27697
  augment    28.93943    28.93943    28.93943     0.00000     0.00000     0.00000
  Kinetic   548.53485   560.27432   564.55162    -2.48154    -2.65826    -1.72149
  Fock        0.00000     0.00000     0.00000     0.00000     0.00000     0.00000
  -------------------------------------------------------------------------------------
  Total      -0.00606    -0.00606    -0.00606    -0.00000    -0.00000    -0.00000
  in kB      -0.15790    -0.15790    -0.15790    -0.00000    -0.00000    -0.00000
  external pressure =       -0.16 kB  Pullay stress =        0.00 kB


 VOLUME and BASIS-vectors are now :
 -----------------------------------------------------------------------------
  energy-cutoff  :      500.00
  volume of cell :       61.48
      direct lattice vectors                 reciprocal lattice vectors
     3.946846342  0.000000000 -0.000000000     0.253366844  0.000000000 -0.000000000
    -0.000000000  3.946846342  0.000000000    -0.000000000  0.253366844  0.000000000
     0.000000000 -0.000000000  3.946846342     0.000000000 -0.000000000  0.253366844

  length of vectors
     3.946846342  3.946846342  3.946846342     0.253366844  0.253366844  0.253366844


 FORCES acting on ions
    electron-ion (+dipol)            ewald-force                    non-local-force                 convergence-correction
 -----------------------------------------------------------------------------------------------
   -.334E-14 -.348E-14 -.392E-14   -.612E-14 -.323E-14 -.321E-14   0.209E-24 -.483E-25 0.000E+00   -.273E-13 -.311E-14 0.207E-13
   0.589E-14 -.327E-12 0.268E-12   0.477E-14 0.490E-14 0.421E-14   0.736E-25 -.243E-25 0.000E+00   0.900E-14 0.994E-15 -.119E-13
   0.157E-12 0.173E-11 0.110E-11   0.565E-14 0.273E-14 -.453E-14   0.423E-24 -.520E-25 0.000E+00   0.256E-13 0.215E-14 0.184E-13
   0.158E-12 -.318E-14 0.366E-11   0.765E-14 -.446E-14 0.241E-14   0.495E-24 -.181E-24 0.000E+00   0.312E-13 -.371E-14 -.437E-13
   -.634E-14 0.162E-12 0.156E-12   -.117E-13 -.147E-15 0.245E-14   -.159E-24 0.745E-25 0.000E+00   -.199E-13 0.518E-14 -.433E-13
 -----------------------------------------------------------------------------------------------
   0.312E-12 0.156E-11 0.518E-11   0.257E-15 -.198E-15 0.132E-14   0.104E-23 -.231E-24 0.000E+00   0.186E-13 0.149E-14 -.598E-13
 
 
 POSITION                                       TOTAL-FORCE (eV/Angst)
 -----------------------------------------------------------------------------------
     -0.00000      0.00000      0.00000         0.000000      0.000000      0.000000
      1.97342      1.97342      1.97342         0.000000      0.000000      0.000000
      1.97342      1.97342     -0.00000         0.000000      0.000000      0.000000
      1.97342      0.00000      1.97342         0.000000     -0.000000      0.000000
     -0.00000      1.97342      1.97342        -0.000000     -0.000000      0.000000
 -----------------------------------------------------------------------------------
    total drift:                                0.000000      0.000000      0.000000


--------------------------------------------------------------------------------------------------------



  FREE ENERGIE OF THE ION-ELECTRON SYSTEM (eV)
  ---------------------------------------------------
  free  energy   TOTEN  =       -39.73164983 eV

  energy  without entropy=      -39.73164983  energy(sigma->0) =      -39.73164983
 
 d Force = 0.0000000E+00[ 0.000E+00, 0.000E+00]  d Energy = 0.7048581E-05-0.705E-05
 d Force = 0.0000000E+00[ 0.000E+00, 0.000E+00]  d Ewald  =-0.3547796E+00 0.355E+00


--------------------------------------------------------------------------------------------------------


    POTLOK:  cpu time    0.0810: real time    0.0801


--------------------------------------------------------------------------------------------------------


 Quasi-Newton relaxation of ions (Broydens 2nd method)
  g(Force)  = 0.278E-63   g(Stress)= 0.106E-05

 retain information from N=  1 steps
 eigenvalues of (default step * inverse Hessian matrix)
  average eigenvalue of G=   0.3190
 eigenvalue spectrum of G is  0.3190


--------------------------------------------------------------------------------------------------------


  
 reached required accuracy - stopping structural energy minimisation
 writing wavefunctions
     LOOP+:  cpu time    3.9674: real time    4.0218
    4ORBIT:  cpu time    0.0000: real time    0.0000

 total amount of memory used by VASP MPI-rank0    44448. kBytes
=======================================================================

   base      :      30000. kBytes
   nonlr-proj:       1688. kBytes
   fftplans  :       6844. kBytes
   grid      :       3330. kBytes
   one-center:         46. kBytes
   wavefun   :       2540. kBytes
 
  
  
 General timing and accounting informations for this job:
 ========================================================
  
                  Total CPU time used (sec):       34.528
                            User time (sec):       30.643
                          System time (sec):        3.884
                         Elapsed time (sec):       37.274
  
                   Maximum memory used (kb):       68136.
                   Average memory used (kb):           0.
  
                          Minor page faults:      1034361
                          Major page faults:          143
                 Voluntary context switches:         3886
