unknown system                          
           1
     3.905268    0.000000    0.000000
     0.000000    3.905268    0.000000
     0.000000    0.000000    3.905268
   Sr   Ti   O 
   1   1   3
Direct configuration=     1
   0.00000000  0.00000000  0.00000000
   0.50000000  0.50000000  0.50000000
   0.50000000  0.50000000  0.00000000
   0.50000000  0.00000000  0.50000000
   0.00000000  0.50000000  0.50000000
unknown system                          
           1
     3.991195    0.000000   -0.000000
    -0.000000    3.991195    0.000000
     0.000000    0.000000    3.991195
   Sr   Ti   O 
   1   1   3
Direct configuration=     2
   0.00000000  0.00000000  0.00000000
   0.50000000  0.50000000  0.50000000
   0.50000000  0.50000000  0.00000000
   0.50000000  0.00000000  0.50000000
   0.00000000  0.50000000  0.50000000
unknown system                          
           1
     3.948348    0.000000   -0.000000
    -0.000000    3.948348   -0.000000
     0.000000   -0.000000    3.948348
   Sr   Ti   O 
   1   1   3
Direct configuration=     3
  -0.00000000 -0.00000000 -0.00000000
   0.50000000  0.50000000  0.50000000
   0.50000000  0.50000000 -0.00000000
   0.50000000  0.00000000  0.50000000
  -0.00000000  0.50000000  0.50000000
unknown system                          
           1
     3.946115    0.000000   -0.000000
    -0.000000    3.946115    0.000000
     0.000000    0.000000    3.946115
   Sr   Ti   O 
   1   1   3
Direct configuration=     4
  -0.00000000  0.00000000 -0.00000000
   0.50000000  0.50000000  0.50000000
   0.50000000  0.50000000 -0.00000000
   0.50000000 -0.00000000  0.50000000
  -0.00000000  0.50000000  0.50000000
unknown system                          
           1
     3.946846    0.000000   -0.000000
    -0.000000    3.946846    0.000000
     0.000000   -0.000000    3.946846
   Sr   Ti   O 
   1   1   3
Direct configuration=     5
  -0.00000000  0.00000000  0.00000000
   0.50000000  0.50000000  0.50000000
   0.50000000  0.50000000 -0.00000000
   0.50000000 -0.00000000  0.50000000
  -0.00000000  0.50000000  0.50000000
