unknown system                          
   1.00000000000000     
     3.946846    0.000000    0.000000
     0.000000    3.946846    0.000000
     0.000000    0.000000    3.946846
   Sr   Ti   O 
     1     1     3
Direct
  0.000000  0.000000  0.000000
  0.500000  0.500000  0.500000
  0.500000  0.500000  0.000000
  0.500000  0.000000  0.500000
  0.000000  0.500000  0.500000
 
   48   48   48
 0.19914747874E+03 0.19918119326E+03 0.19875597118E+03 0.19650907651E+03 0.19078798490E+03
 0.18028655223E+03 0.16453355404E+03 0.14410137143E+03 0.12051464492E+03 0.95907503575E+02
 0.72522729199E+02 0.52193314773E+02 0.35972385233E+02 0.24032278872E+02 0.15836596796E+02
 0.10473935373E+02 0.70717752043E+01 0.49721380848E+01 0.36946818208E+01 0.29227776268E+01
 0.24611251829E+01 0.21919479678E+01 0.20431857307E+01 0.19704318895E+01 0.19488672388E+01
 0.19704318895E+01 0.20431857307E+01 0.21919479678E+01 0.24611251829E+01 0.29227776268E+01
 0.36946818208E+01 0.49721380848E+01 0.70717752043E+01 0.10473935373E+02 0.15836596796E+02
 0.24032278872E+02 0.35972385233E+02 0.52193314773E+02 0.72522729199E+02 0.95907503575E+02
 0.12051464492E+03 0.14410137143E+03 0.16453355404E+03 0.18028655223E+03 0.19078798490E+03
 0.19650907651E+03 0.19875597118E+03 0.19918119326E+03 0.19918119326E+03 0.19912466111E+03
 0.19845142371E+03 0.19585899666E+03 0.18977304180E+03 0.17896166918E+03 0.16300797934E+03
 0.14251132466E+03 0.11899537327E+03 0.94569209815E+02 0.71434012341E+02 0.51375335791E+02
 0.35404772988E+02 0.23667855662E+02 0.15618836512E+02 0.10351918284E+02 0.70105843627E+01
 0.49481434648E+01 0.36928805808E+01 0.29341509960E+01 0.24803499816E+01 0.22158275713E+01
 0.20697177089E+01 0.19983000722E+01 0.19771381325E+01 0.19983000722E+01 0.20697177089E+01
 0.22158275713E+01 0.24803499816E+01 0.29341509960E+01 0.36928805808E+01 0.49481434648E+01
 0.70105843627E+01 0.10351918284E+02 0.15618836512E+02 0.23667855662E+02 0.35404772988E+02
 0.51375335791E+02 0.71434012341E+02 0.94569209815E+02 0.11899537327E+03 0.14251132466E+03
 0.16300797934E+03 0.17896166918E+03 0.18977304180E+03 0.19585899666E+03 0.19845142371E+03
 0.19912466111E+03 0.19875597118E+03 0.19845142371E+03 0.19709744022E+03 0.19355956041E+03
 0.18648194479E+03 0.17484073843E+03 0.15837136288E+03 0.13774797787E+03 0.11448901582E+03
 0.90629098803E+02 0.68247779059E+02 0.48993435143E+02 0.33759086308E+02 0.22615322360E+02
 0.14992119278E+02 0.10002893021E+02 0.68384448469E+01 0.48845857656E+01 0.36947147153E+01
 0.29754717447E+01 0.25458289364E+01 0.22961358502E+01 0.21588232187E+01 0.20920147750E+01
 0.20722785218E+01 0.20920147750E+01 0.21588232187E+01 0.22961358502E+01 0.25458289364E+01
 0.29754717447E+01 0.36947147153E+01 0.48845857656E+01 0.68384448469E+01 0.10002893021E+02
 0.14992119278E+02 0.22615322360E+02 0.33759086308E+02 0.48993435143E+02 0.68247779059E+02
 0.90629098803E+02 0.11448901582E+03 0.13774797787E+03 0.15837136288E+03 0.17484073843E+03
 0.18648194479E+03 0.19355956041E+03 0.19709744022E+03 0.19845142371E+03 0.19650907651E+03
 0.19585899666E+03 0.19355956041E+03 0.18871874045E+03 0.18029713481E+03 0.16757334138E+03
 0.15050398979E+03 0.12986859438E+03 0.10716912209E+03 0.84317969689E+02 0.63202150258E+02
 0.45257920538E+02 0.31199823288E+02 0.20990637895E+02 0.14031297850E+02 0.94746904701E+01
 0.65868111190E+01 0.48036100032E+01 0.37177930893E+01 0.30627092716E+01 0.26734741188E+01
 0.24494511587E+01 0.23279222086E+01 0.22696532515E+01 0.22526119790E+01 0.22696532515E+01
 0.23279222086E+01 0.24494511587E+01 0.26734741188E+01 0.30627092716E+01 0.37177930893E+01
 0.48036100032E+01 0.65868111190E+01 0.94746904701E+01 0.14031297850E+02 0.20990637895E+02
 0.31199823288E+02 0.45257920538E+02 0.63202150258E+02 0.84317969689E+02 0.10716912209E+03
 0.12986859438E+03 0.15050398979E+03 0.16757334138E+03 0.18029713481E+03 0.18871874045E+03
 0.19355956041E+03 0.19585899666E+03 0.19078798490E+03 0.18977304180E+03 0.18648194479E+03
 0.18029713481E+03 0.17053892528E+03 0.15683058951E+03 0.13937853836E+03 0.11907277407E+03
 0.97376552123E+02 0.76034564535E+02 0.56684535740E+02 0.40498416684E+02 0.27977928116E+02
 0.18966927148E+02 0.12846052569E+02 0.88375707065E+01 0.63010254990E+01 0.47359485713E+01
 0.37848812639E+01 0.32145006068E+01 0.28798307461E+01 0.26912529430E+01 0.25919553724E+01
 0.25459108557E+01 0.25327652891E+01 0.25459108557E+01 0.25919553724E+01 0.26912529430E+01
 0.28798307461E+01 0.32145006068E+01 0.37848812639E+01 0.47359485713E+01 0.63010254990E+01
 0.88375707065E+01 0.12846052569E+02 0.18966927148E+02 0.27977928116E+02 0.40498416684E+02
 0.56684535740E+02 0.76034564535E+02 0.97376552123E+02 0.11907277407E+03 0.13937853836E+03
 0.15683058951E+03 0.17053892528E+03 0.18029713481E+03 0.18648194479E+03 0.18977304180E+03
 0.18028655223E+03 0.17896166918E+03 0.17484073843E+03 0.16757334138E+03 0.15683058951E+03
 0.14257054293E+03 0.12523523163E+03 0.10580165122E+03 0.85659506049E+02 0.66344194917E+02
 0.49206065948E+02 0.35128819269E+02 0.24396760775E+02 0.16747124092E+02 0.11563403769E+02
 0.81737009949E+01 0.60348494008E+01 0.47195961689E+01 0.39262290543E+01 0.34579444239E+01
 0.31912196276E+01 0.30481438143E+01 0.29781307735E+01 0.29485111550E+01 0.29406594151E+01
 0.29485111550E+01 0.29781307735E+01 0.30481438143E+01 0.31912196276E+01 0.34579444239E+01
 0.39262290543E+01 0.47195961689E+01 0.60348494008E+01 0.81737009949E+01 0.11563403769E+02
 0.16747124092E+02 0.24396760775E+02 0.35128819269E+02 0.49206065948E+02 0.66344194917E+02
 0.85659506049E+02 0.10580165122E+03 0.12523523163E+03 0.14257054293E+03 0.15683058951E+03
 0.16757334138E+03 0.17484073843E+03 0.17896166918E+03 0.16453355404E+03 0.16300797934E+03
 0.15837136288E+03 0.15050398979E+03 0.13937853836E+03 0.12523523163E+03 0.10870033609E+03
 0.90788859465E+02 0.72772653365E+02 0.55944279391E+02 0.41351409552E+02 0.29595882947E+02
 0.20768643134E+02 0.14532267151E+02 0.10312498224E+02 0.75673504458E+01 0.58469461960E+01
 0.48012944176E+01 0.41853179751E+01 0.38382315839E+01 0.36569736035E+01 0.35743006035E+01
 0.35449548457E+01 0.35389163156E+01 0.35388032087E+01 0.35389163156E+01 0.35449548457E+01
 0.35743006035E+01 0.36569736035E+01 0.38382315839E+01 0.41853179751E+01 0.48012944176E+01
 0.58469461960E+01 0.75673504458E+01 0.10312498224E+02 0.14532267151E+02 0.20768643134E+02
 0.29595882947E+02 0.41351409552E+02 0.55944279391E+02 0.72772653365E+02 0.90788859465E+02
 0.10870033609E+03 0.12523523163E+03 0.13937853836E+03 0.15050398979E+03 0.15837136288E+03
 0.16300797934E+03 0.14410137143E+03 0.14251132466E+03 0.13774797787E+03 0.12986859438E+03
 0.11907277407E+03 0.10580165122E+03 0.90788859465E+02 0.75022769221E+02 0.59612156795E+02
 0.45587777686E+02 0.33704805406E+02 0.24317566129E+02 0.17369692711E+02 0.12493016519E+02
 0.92093820219E+01 0.70980918733E+01 0.57991348261E+01 0.50375721675E+01 0.46209762461E+01
 0.44206022482E+01 0.43504405064E+01 0.43511461754E+01 0.43805945331E+01 0.44097445081E+01
 0.44213676670E+01 0.44097445081E+01 0.43805945331E+01 0.43511461754E+01 0.43504405064E+01
 0.44206022482E+01 0.46209762461E+01 0.50375721675E+01 0.57991348261E+01 0.70980918733E+01
 0.92093820219E+01 0.12493016519E+02 0.17369692711E+02 0.24317566129E+02 0.33704805406E+02
 0.45587777686E+02 0.59612156795E+02 0.75022769221E+02 0.90788859465E+02 0.10580165122E+03
 0.11907277407E+03 0.12986859438E+03 0.13774797787E+03 0.14251132466E+03 0.12051464492E+03
 0.11899537327E+03 0.11448901582E+03 0.10716912209E+03 0.97376552123E+02 0.85659506049E+02
 0.72772653365E+02 0.59612156795E+02 0.47089229868E+02 0.35974608767E+02 0.26765678881E+02
 0.19624090974E+02 0.14403256395E+02 0.10761778667E+02 0.83485131852E+01 0.68385315384E+01
 0.59572498275E+01 0.54967562585E+01 0.53091730022E+01 0.52910248852E+01 0.53680503871E+01
 0.54846777389E+01 0.55986773816E+01 0.56795310808E+01 0.57085798447E+01 0.56795310808E+01
 0.55986773816E+01 0.54846777389E+01 0.53680503871E+01 0.52910248852E+01 0.53091730022E+01
 0.54967562585E+01 0.59572498275E+01 0.68385315384E+01 0.83485131852E+01 0.10761778667E+02
 0.14403256395E+02 0.19624090974E+02 0.26765678881E+02 0.35974608767E+02 0.47089229868E+02
 0.59612156795E+02 0.72772653365E+02 0.85659506049E+02 0.97376552123E+02 0.10716912209E+03
 0.11448901582E+03 0.11899537327E+03 0.95907503575E+02 0.94569209815E+02 0.90629098803E+02
 0.84317969689E+02 0.76034564535E+02 0.66344194917E+02 0.55944279391E+02 0.45587777686E+02
 0.35974608767E+02 0.27640014700E+02 0.20876669157E+02 0.15717374614E+02 0.11985166148E+02
 0.94311012628E+01 0.78016959701E+01 0.68560818856E+01 0.63943672792E+01 0.62633815362E+01
 0.63489745063E+01 0.65643338253E+01 0.68402237838E+01 0.71194094301E+01 0.73550165220E+01
 0.75114207060E+01 0.75661264965E+01 0.75114207060E+01 0.73550165220E+01 0.71194094301E+01
 0.68402237838E+01 0.65643338253E+01 0.63489745063E+01 0.62633815362E+01 0.63943672792E+01
 0.68560818856E+01 0.78016959701E+01 0.94311012628E+01 0.11985166148E+02 0.15717374614E+02
 0.20876669157E+02 0.27640014700E+02 0.35974608767E+02 0.45587777686E+02 0.55944279391E+02
 0.66344194917E+02 0.76034564535E+02 0.84317969689E+02 0.90629098803E+02 0.94569209815E+02
 0.72522729199E+02 0.71434012341E+02 0.68247779059E+02 0.63202150258E+02 0.56684535740E+02
 0.49206065948E+02 0.41351409552E+02 0.33704805406E+02 0.26765678881E+02 0.20876669157E+02
 0.16186703010E+02 0.12661782749E+02 0.10170915764E+02 0.85512394796E+01 0.76220135901E+01
 0.72158963921E+01 0.71929933214E+01 0.74407917396E+01 0.78672110936E+01 0.83927548794E+01
 0.89452471013E+01 0.94583126043E+01 0.98732000294E+01 0.10142778380E+02 0.10236223247E+02
 0.10142778380E+02 0.98732000294E+01 0.94583126043E+01 0.89452471013E+01 0.83927548794E+01
 0.78672110936E+01 0.74407917396E+01 0.71929933214E+01 0.72158963921E+01 0.76220135901E+01
 0.85512394796E+01 0.10170915764E+02 0.12661782749E+02 0.16186703010E+02 0.20876669157E+02
 0.26765678881E+02 0.33704805406E+02 0.41351409552E+02 0.49206065948E+02 0.56684535740E+02
 0.63202150258E+02 0.68247779059E+02 0.71434012341E+02 0.52193314773E+02 0.51375335791E+02
 0.48993435143E+02 0.45257920538E+02 0.40498416684E+02 0.35128819269E+02 0.29595882947E+02
 0.24317566129E+02 0.19624090974E+02 0.15717374614E+02 0.12661782749E+02 0.10434217428E+02
 0.89630020060E+01 0.81401318075E+01 0.78492524304E+01 0.79822451499E+01 0.84440922053E+01
 0.91501016342E+01 0.10020069961E+02 0.10972900278E+02 0.11923925364E+02 0.12786197743E+02
 0.13476103300E+02 0.13922481036E+02 0.14076999140E+02 0.13922481036E+02 0.13476103300E+02
 0.12786197743E+02 0.11923925364E+02 0.10972900278E+02 0.10020069961E+02 0.91501016342E+01
 0.84440922053E+01 0.79822451499E+01 0.78492524304E+01 0.81401318075E+01 0.89630020060E+01
 0.10434217428E+02 0.12661782749E+02 0.15717374614E+02 0.19624090974E+02 0.24317566129E+02
 0.29595882947E+02 0.35128819269E+02 0.40498416684E+02 0.45257920538E+02 0.48993435143E+02
 0.51375335791E+02 0.35972385233E+02 0.35404772988E+02 0.33759086308E+02 0.31199823288E+02
 0.27977928116E+02 0.24396760775E+02 0.20768643134E+02 0.17369692711E+02 0.14403256395E+02
 0.11985166148E+02 0.10170915764E+02 0.89630020060E+01 0.83236250772E+01 0.81951463455E+01
 0.85143395014E+01 0.92188737162E+01 0.10247331180E+02 0.11535004234E+02 0.13007549690E+02
 0.14574594501E+02 0.16126088726E+02 0.17534798946E+02 0.18667430516E+02 0.19403814906E+02
 0.19659449817E+02 0.19403814906E+02 0.18667430516E+02 0.17534798946E+02 0.16126088726E+02
 0.14574594501E+02 0.13007549690E+02 0.11535004234E+02 0.10247331180E+02 0.92188737162E+01
 0.85143395014E+01 0.81951463455E+01 0.83236250772E+01 0.89630020060E+01 0.10170915764E+02
 0.11985166148E+02 0.14403256395E+02 0.17369692711E+02 0.20768643134E+02 0.24396760775E+02
 0.27977928116E+02 0.31199823288E+02 0.33759086308E+02 0.35404772988E+02 0.24032278872E+02
 0.23667855662E+02 0.22615322360E+02 0.20990637895E+02 0.18966927148E+02 0.16747124092E+02
 0.14532267151E+02 0.12493016519E+02 0.10761778667E+02 0.94311012628E+01 0.85512394796E+01
 0.81401318075E+01 0.81951463455E+01 0.87024469297E+01 0.96424431285E+01 0.10991401868E+02
 0.12719289019E+02 0.14783109801E+02 0.17115318597E+02 0.19609526215E+02 0.22109842167E+02
 0.24412731098E+02 0.26288087947E+02 0.27518749460E+02 0.27948048182E+02 0.27518749460E+02
 0.26288087947E+02 0.24412731098E+02 0.22109842167E+02 0.19609526215E+02 0.17115318597E+02
 0.14783109801E+02 0.12719289019E+02 0.10991401868E+02 0.96424431285E+01 0.87024469297E+01
 0.81951463455E+01 0.81401318075E+01 0.85512394796E+01 0.94311012628E+01 0.10761778667E+02
 0.12493016519E+02 0.14532267151E+02 0.16747124092E+02 0.18966927148E+02 0.20990637895E+02
 0.22615322360E+02 0.23667855662E+02 0.15836596796E+02 0.15618836512E+02 0.14992119278E+02
 0.14031297850E+02 0.12846052569E+02 0.11563403769E+02 0.10312498224E+02 0.92093820219E+01
 0.83485131852E+01 0.78016959701E+01 0.76220135901E+01 0.78492524304E+01 0.85143395014E+01
 0.96424431285E+01 0.11255402417E+02 0.13372854156E+02 0.16008649977E+02 0.19157438521E+02
 0.22768593849E+02 0.26712213939E+02 0.30751806289E+02 0.34543640975E+02 0.37677096689E+02
 0.39753536401E+02 0.40481386273E+02 0.39753536401E+02 0.37677096689E+02 0.34543640975E+02
 0.30751806289E+02 0.26712213939E+02 0.22768593849E+02 0.19157438521E+02 0.16008649977E+02
 0.13372854156E+02 0.11255402417E+02 0.96424431285E+01 0.85143395014E+01 0.78492524304E+01
 0.76220135901E+01 0.78016959701E+01 0.83485131852E+01 0.92093820219E+01 0.10312498224E+02
 0.11563403769E+02 0.12846052569E+02 0.14031297850E+02 0.14992119278E+02 0.15618836512E+02
 0.10473935373E+02 0.10351918284E+02 0.10002893021E+02 0.94746904701E+01 0.88375707065E+01
 0.81737009949E+01 0.75673504458E+01 0.70980918733E+01 0.68385315384E+01 0.68560818856E+01
 0.72158963921E+01 0.79822451499E+01 0.92188737162E+01 0.10991401868E+02 0.13372854156E+02
 0.16447881107E+02 0.20306052117E+02 0.25013257954E+02 0.30556028491E+02 0.36769003686E+02
 0.43276378133E+02 0.49488655408E+02 0.54681443435E+02 0.58146003202E+02 0.59364184088E+02
 0.58146003202E+02 0.54681443435E+02 0.49488655408E+02 0.43276378133E+02 0.36769003686E+02
 0.30556028491E+02 0.25013257954E+02 0.20306052117E+02 0.16447881107E+02 0.13372854156E+02
 0.10991401868E+02 0.92188737162E+01 0.79822451499E+01 0.72158963921E+01 0.68560818856E+01
 0.68385315384E+01 0.70980918733E+01 0.75673504458E+01 0.81737009949E+01 0.88375707065E+01
 0.94746904701E+01 0.10002893021E+02 0.10351918284E+02 0.70717752043E+01 0.70105843627E+01
 0.68384448469E+01 0.65868111190E+01 0.63010254990E+01 0.60348494008E+01 0.58469461960E+01
 0.57991348261E+01 0.59572498275E+01 0.63943672792E+01 0.71929933214E+01 0.84440922053E+01
 0.10247331180E+02 0.12719289019E+02 0.16008649977E+02 0.20306052117E+02 0.25829829018E+02
 0.32768892428E+02 0.41173923146E+02 0.50817376561E+02 0.61085290686E+02 0.70992304489E+02
 0.79414361247E+02 0.85147575576E+02 0.87188377824E+02 0.85147575576E+02 0.79414361247E+02
 0.70992304489E+02 0.61085290686E+02 0.50817376561E+02 0.41173923146E+02 0.32768892428E+02
 0.25829829018E+02 0.20306052117E+02 0.16008649977E+02 0.12719289019E+02 0.10247331180E+02
 0.84440922053E+01 0.71929933214E+01 0.63943672792E+01 0.59572498275E+01 0.57991348261E+01
 0.58469461960E+01 0.60348494008E+01 0.63010254990E+01 0.65868111190E+01 0.68384448469E+01
 0.70105843627E+01 0.49721380848E+01 0.49481434648E+01 0.48845857656E+01 0.48036100032E+01
 0.47359485713E+01 0.47195961689E+01 0.48012944176E+01 0.50375721675E+01 0.54967562585E+01
 0.62633815362E+01 0.74407917396E+01 0.91501016342E+01 0.11535004234E+02 0.14783109801E+02
 0.19157438521E+02 0.25013257954E+02 0.32768892428E+02 0.42799508386E+02 0.55238317000E+02
 0.69732201678E+02 0.85560834914E+02 0.10156205580E+03 0.11563785248E+03 0.12536396393E+03
 0.12884345599E+03 0.12536396393E+03 0.11563785248E+03 0.10156205580E+03 0.85560834914E+02
 0.69732201678E+02 0.55238317000E+02 0.42799508386E+02 0.32768892428E+02 0.25013257954E+02
 0.19157438521E+02 0.14783109801E+02 0.11535004234E+02 0.91501016342E+01 0.74407917396E+01
 0.62633815362E+01 0.54967562585E+01 0.50375721675E+01 0.48012944176E+01 0.47195961689E+01
 0.47359485713E+01 0.48036100032E+01 0.48845857656E+01 0.49481434648E+01 0.36946818208E+01
 0.36928805808E+01 0.36947147153E+01 0.37177930893E+01 0.37848812639E+01 0.39262290543E+01
 0.41853179751E+01 0.46209762461E+01 0.53091730022E+01 0.63489745063E+01 0.78672110936E+01
 0.10020069961E+02 0.13007549690E+02 0.17115318597E+02 0.22768593849E+02 0.30556028491E+02
 0.41173923146E+02 0.55238317000E+02 0.72960668367E+02 0.94424250497E+02 0.11909633399E+03
 0.14453217421E+03 0.16691188652E+03 0.18227677241E+03 0.18774539039E+03 0.18227677241E+03
 0.16691188652E+03 0.14453217421E+03 0.11909633399E+03 0.94424250497E+02 0.72960668367E+02
 0.55238317000E+02 0.41173923146E+02 0.30556028491E+02 0.22768593849E+02 0.17115318597E+02
 0.13007549690E+02 0.10020069961E+02 0.78672110936E+01 0.63489745063E+01 0.53091730022E+01
 0.46209762461E+01 0.41853179751E+01 0.39262290543E+01 0.37848812639E+01 0.37177930893E+01
 0.36947147153E+01 0.36928805808E+01 0.29227776268E+01 0.29341509960E+01 0.29754717447E+01
 0.30627092716E+01 0.32145006068E+01 0.34579444239E+01 0.38382315839E+01 0.44206022482E+01
 0.52910248852E+01 0.65643338253E+01 0.83927548794E+01 0.10972900278E+02 0.14574594501E+02
 0.19609526215E+02 0.26712213939E+02 0.36769003686E+02 0.50817376561E+02 0.69732201678E+02
 0.94424250497E+02 0.12583056138E+03 0.16234967852E+03 0.19958293643E+03 0.23170184554E+03
 0.25333975489E+03 0.26095389663E+03 0.25333975489E+03 0.23170184554E+03 0.19958293643E+03
 0.16234967852E+03 0.12583056138E+03 0.94424250497E+02 0.69732201678E+02 0.50817376561E+02
 0.36769003686E+02 0.26712213939E+02 0.19609526215E+02 0.14574594501E+02 0.10972900278E+02
 0.83927548794E+01 0.65643338253E+01 0.52910248852E+01 0.44206022482E+01 0.38382315839E+01
 0.34579444239E+01 0.32145006068E+01 0.30627092716E+01 0.29754717447E+01 0.29341509960E+01
 0.24611251829E+01 0.24803499816E+01 0.25458289364E+01 0.26734741188E+01 0.28798307461E+01
 0.31912196276E+01 0.36569736035E+01 0.43504405064E+01 0.53680503871E+01 0.68402237838E+01
 0.89452471013E+01 0.11923925364E+02 0.16126088726E+02 0.22109842167E+02 0.30751806289E+02
 0.43276378133E+02 0.61085290686E+02 0.85560834914E+02 0.11909633399E+03 0.16234967852E+03
 0.21195634164E+03 0.26117168933E+03 0.30230413703E+03 0.32924584094E+03 0.33856849287E+03
 0.32924584094E+03 0.30230413703E+03 0.26117168933E+03 0.21195634164E+03 0.16234967852E+03
 0.11909633399E+03 0.85560834914E+02 0.61085290686E+02 0.43276378133E+02 0.30751806289E+02
 0.22109842167E+02 0.16126088726E+02 0.11923925364E+02 0.89452471013E+01 0.68402237838E+01
 0.53680503871E+01 0.43504405064E+01 0.36569736035E+01 0.31912196276E+01 0.28798307461E+01
 0.26734741188E+01 0.25458289364E+01 0.24803499816E+01 0.21919479678E+01 0.22158275713E+01
 0.22961358502E+01 0.24494511587E+01 0.26912529430E+01 0.30481438143E+01 0.35743006035E+01
 0.43511461754E+01 0.54846777389E+01 0.71194094301E+01 0.94583126043E+01 0.12786197743E+02
 0.17534798946E+02 0.24412731098E+02 0.34543640975E+02 0.49488655408E+02 0.70992304489E+02
 0.10156205580E+03 0.14453217421E+03 0.19958293643E+03 0.26117168933E+03 0.32017470782E+03
 0.36757830603E+03 0.39751970064E+03 0.40764914061E+03 0.39751970064E+03 0.36757830603E+03
 0.32017470782E+03 0.26117168933E+03 0.19958293643E+03 0.14453217421E+03 0.10156205580E+03
 0.70992304489E+02 0.49488655408E+02 0.34543640975E+02 0.24412731098E+02 0.17534798946E+02
 0.12786197743E+02 0.94583126043E+01 0.71194094301E+01 0.54846777389E+01 0.43511461754E+01
 0.35743006035E+01 0.30481438143E+01 0.26912529430E+01 0.24494511587E+01 0.22961358502E+01
 0.22158275713E+01 0.20431857307E+01 0.20697177089E+01 0.21588232187E+01 0.23279222086E+01
 0.25919553724E+01 0.29781307735E+01 0.35449548457E+01 0.43805945331E+01 0.55986773816E+01
 0.73550165220E+01 0.98732000294E+01 0.13476103300E+02 0.18667430516E+02 0.26288087947E+02
 0.37677096689E+02 0.54681443435E+02 0.79414361247E+02 0.11563785248E+03 0.16691188652E+03
 0.23170184554E+03 0.30230413703E+03 0.36757830603E+03 0.41786118365E+03 0.44833140398E+03
 0.45836167464E+03 0.44833140398E+03 0.41786118365E+03 0.36757830603E+03 0.30230413703E+03
 0.23170184554E+03 0.16691188652E+03 0.11563785248E+03 0.79414361247E+02 0.54681443435E+02
 0.37677096689E+02 0.26288087947E+02 0.18667430516E+02 0.13476103300E+02 0.98732000294E+01
 0.73550165220E+01 0.55986773816E+01 0.43805945331E+01 0.35449548457E+01 0.29781307735E+01
 0.25919553724E+01 0.23279222086E+01 0.21588232187E+01 0.20697177089E+01 0.19704318895E+01
 0.19983000722E+01 0.20920147750E+01 0.22696532515E+01 0.25459108557E+01 0.29485111550E+01
 0.35389163156E+01 0.44097445081E+01 0.56795310808E+01 0.75114207060E+01 0.10142778380E+02
 0.13922481036E+02 0.19403814906E+02 0.27518749460E+02 0.39753536401E+02 0.58146003202E+02
 0.85147575576E+02 0.12536396393E+03 0.18227677241E+03 0.25333975489E+03 0.32924584094E+03
 0.39751970064E+03 0.44833140398E+03 0.47801580543E+03 0.48753908441E+03 0.47801580543E+03
 0.44833140398E+03 0.39751970064E+03 0.32924584094E+03 0.25333975489E+03 0.18227677241E+03
 0.12536396393E+03 0.85147575576E+02 0.58146003202E+02 0.39753536401E+02 0.27518749460E+02
 0.19403814906E+02 0.13922481036E+02 0.10142778380E+02 0.75114207060E+01 0.56795310808E+01
 0.44097445081E+01 0.35389163156E+01 0.29485111550E+01 0.25459108557E+01 0.22696532515E+01
 0.20920147750E+01 0.19983000722E+01 0.19488672388E+01 0.19771381325E+01 0.20722785218E+01
 0.22526119790E+01 0.25327652891E+01 0.29406594151E+01 0.35388032087E+01 0.44213676670E+01
 0.57085798447E+01 0.75661264965E+01 0.10236223247E+02 0.14076999140E+02 0.19659449817E+02
 0.27948048182E+02 0.40481386273E+02 0.59364184088E+02 0.87188377824E+02 0.12884345599E+03
 0.18774539039E+03 0.26095389663E+03 0.33856849287E+03 0.40764914061E+03 0.45836167464E+03
 0.48753908441E+03 0.49679519721E+03 0.48753908441E+03 0.45836167464E+03 0.40764914061E+03
 0.33856849287E+03 0.26095389663E+03 0.18774539039E+03 0.12884345599E+03 0.87188377824E+02
 0.59364184088E+02 0.40481386273E+02 0.27948048182E+02 0.19659449817E+02 0.14076999140E+02
 0.10236223247E+02 0.75661264965E+01 0.57085798447E+01 0.44213676670E+01 0.35388032087E+01
 0.29406594151E+01 0.25327652891E+01 0.22526119790E+01 0.20722785218E+01 0.19771381325E+01
 0.19704318895E+01 0.19983000722E+01 0.20920147750E+01 0.22696532515E+01 0.25459108557E+01
 0.29485111550E+01 0.35389163156E+01 0.44097445081E+01 0.56795310808E+01 0.75114207060E+01
 0.10142778380E+02 0.13922481036E+02 0.19403814906E+02 0.27518749460E+02 0.39753536401E+02
 0.58146003202E+02 0.85147575576E+02 0.12536396393E+03 0.18227677241E+03 0.25333975489E+03
 0.32924584094E+03 0.39751970064E+03 0.44833140398E+03 0.47801580543E+03 0.48753908441E+03
 0.47801580543E+03 0.44833140398E+03 0.39751970064E+03 0.32924584094E+03 0.25333975489E+03
 0.18227677241E+03 0.12536396393E+03 0.85147575576E+02 0.58146003202E+02 0.39753536401E+02
 0.27518749460E+02 0.19403814906E+02 0.13922481036E+02 0.10142778380E+02 0.75114207060E+01
 0.56795310808E+01 0.44097445081E+01 0.35389163156E+01 0.29485111550E+01 0.25459108557E+01
 0.22696532515E+01 0.20920147750E+01 0.19983000722E+01 0.20431857307E+01 0.20697177089E+01
 0.21588232187E+01 0.23279222086E+01 0.25919553724E+01 0.29781307735E+01 0.35449548457E+01
 0.43805945331E+01 0.55986773816E+01 0.73550165220E+01 0.98732000294E+01 0.13476103300E+02
 0.18667430516E+02 0.26288087947E+02 0.37677096689E+02 0.54681443435E+02 0.79414361247E+02
 0.11563785248E+03 0.16691188652E+03 0.23170184554E+03 0.30230413703E+03 0.36757830603E+03
 0.41786118365E+03 0.44833140398E+03 0.45836167464E+03 0.44833140398E+03 0.41786118365E+03
 0.36757830603E+03 0.30230413703E+03 0.23170184554E+03 0.16691188652E+03 0.11563785248E+03
 0.79414361247E+02 0.54681443435E+02 0.37677096689E+02 0.26288087947E+02 0.18667430516E+02
 0.13476103300E+02 0.98732000294E+01 0.73550165220E+01 0.55986773816E+01 0.43805945331E+01
 0.35449548457E+01 0.29781307735E+01 0.25919553724E+01 0.23279222086E+01 0.21588232187E+01
 0.20697177089E+01 0.21919479678E+01 0.22158275713E+01 0.22961358502E+01 0.24494511587E+01
 0.26912529430E+01 0.30481438143E+01 0.35743006035E+01 0.43511461754E+01 0.54846777389E+01
 0.71194094301E+01 0.94583126043E+01 0.12786197743E+02 0.17534798946E+02 0.24412731098E+02
 0.34543640975E+02 0.49488655408E+02 0.70992304489E+02 0.10156205580E+03 0.14453217421E+03
 0.19958293643E+03 0.26117168933E+03 0.32017470782E+03 0.36757830603E+03 0.39751970064E+03
 0.40764914061E+03 0.39751970064E+03 0.36757830603E+03 0.32017470782E+03 0.26117168933E+03
 0.19958293643E+03 0.14453217421E+03 0.10156205580E+03 0.70992304489E+02 0.49488655408E+02
 0.34543640975E+02 0.24412731098E+02 0.17534798946E+02 0.12786197743E+02 0.94583126043E+01
 0.71194094301E+01 0.54846777389E+01 0.43511461754E+01 0.35743006035E+01 0.30481438143E+01
 0.26912529430E+01 0.24494511587E+01 0.22961358502E+01 0.22158275713E+01 0.24611251829E+01
 0.24803499816E+01 0.25458289364E+01 0.26734741188E+01 0.28798307461E+01 0.31912196276E+01
 0.36569736035E+01 0.43504405064E+01 0.53680503871E+01 0.68402237838E+01 0.89452471013E+01
 0.11923925364E+02 0.16126088726E+02 0.22109842167E+02 0.30751806289E+02 0.43276378133E+02
 0.61085290686E+02 0.85560834914E+02 0.11909633399E+03 0.16234967852E+03 0.21195634164E+03
 0.26117168933E+03 0.30230413703E+03 0.32924584094E+03 0.33856849287E+03 0.32924584094E+03
 0.30230413703E+03 0.26117168933E+03 0.21195634164E+03 0.16234967852E+03 0.11909633399E+03
 0.85560834914E+02 0.61085290686E+02 0.43276378133E+02 0.30751806289E+02 0.22109842167E+02
 0.16126088726E+02 0.11923925364E+02 0.89452471013E+01 0.68402237838E+01 0.53680503871E+01
 0.43504405064E+01 0.36569736035E+01 0.31912196276E+01 0.28798307461E+01 0.26734741188E+01
 0.25458289364E+01 0.24803499816E+01 0.29227776268E+01 0.29341509960E+01 0.29754717447E+01
 0.30627092716E+01 0.32145006068E+01 0.34579444239E+01 0.38382315839E+01 0.44206022482E+01
 0.52910248852E+01 0.65643338253E+01 0.83927548794E+01 0.10972900278E+02 0.14574594501E+02
 0.19609526215E+02 0.26712213939E+02 0.36769003686E+02 0.50817376561E+02 0.69732201678E+02
 0.94424250497E+02 0.12583056138E+03 0.16234967852E+03 0.19958293643E+03 0.23170184554E+03
 0.25333975489E+03 0.26095389663E+03 0.25333975489E+03 0.23170184554E+03 0.19958293643E+03
 0.16234967852E+03 0.12583056138E+03 0.94424250497E+02 0.69732201678E+02 0.50817376561E+02
 0.36769003686E+02 0.26712213939E+02 0.19609526215E+02 0.14574594501E+02 0.10972900278E+02
 0.83927548794E+01 0.65643338253E+01 0.52910248852E+01 0.44206022482E+01 0.38382315839E+01
 0.34579444239E+01 0.32145006068E+01 0.30627092716E+01 0.29754717447E+01 0.29341509960E+01
 0.36946818208E+01 0.36928805808E+01 0.36947147153E+01 0.37177930893E+01 0.37848812639E+01
 0.39262290543E+01 0.41853179751E+01 0.46209762461E+01 0.53091730022E+01 0.63489745063E+01
 0.78672110936E+01 0.10020069961E+02 0.13007549690E+02 0.17115318597E+02 0.22768593849E+02
 0.30556028491E+02 0.41173923146E+02 0.55238317000E+02 0.72960668367E+02 0.94424250497E+02
 0.11909633399E+03 0.14453217421E+03 0.16691188652E+03 0.18227677241E+03 0.18774539039E+03
 0.18227677241E+03 0.16691188652E+03 0.14453217421E+03 0.11909633399E+03 0.94424250497E+02
 0.72960668367E+02 0.55238317000E+02 0.41173923146E+02 0.30556028491E+02 0.22768593849E+02
 0.17115318597E+02 0.13007549690E+02 0.10020069961E+02 0.78672110936E+01 0.63489745063E+01
 0.53091730022E+01 0.46209762461E+01 0.41853179751E+01 0.39262290543E+01 0.37848812639E+01
 0.37177930893E+01 0.36947147153E+01 0.36928805808E+01 0.49721380848E+01 0.49481434648E+01
 0.48845857656E+01 0.48036100032E+01 0.47359485713E+01 0.47195961689E+01 0.48012944176E+01
 0.50375721675E+01 0.54967562585E+01 0.62633815362E+01 0.74407917396E+01 0.91501016342E+01
 0.11535004234E+02 0.14783109801E+02 0.19157438521E+02 0.25013257954E+02 0.32768892428E+02
 0.42799508386E+02 0.55238317000E+02 0.69732201678E+02 0.85560834914E+02 0.10156205580E+03
 0.11563785248E+03 0.12536396393E+03 0.12884345599E+03 0.12536396393E+03 0.11563785248E+03
 0.10156205580E+03 0.85560834914E+02 0.69732201678E+02 0.55238317000E+02 0.42799508386E+02
 0.32768892428E+02 0.25013257954E+02 0.19157438521E+02 0.14783109801E+02 0.11535004234E+02
 0.91501016342E+01 0.74407917396E+01 0.62633815362E+01 0.54967562585E+01 0.50375721675E+01
 0.48012944176E+01 0.47195961689E+01 0.47359485713E+01 0.48036100032E+01 0.48845857656E+01
 0.49481434648E+01 0.70717752043E+01 0.70105843627E+01 0.68384448469E+01 0.65868111190E+01
 0.63010254990E+01 0.60348494008E+01 0.58469461960E+01 0.57991348261E+01 0.59572498275E+01
 0.63943672792E+01 0.71929933214E+01 0.84440922053E+01 0.10247331180E+02 0.12719289019E+02
 0.16008649977E+02 0.20306052117E+02 0.25829829018E+02 0.32768892428E+02 0.41173923146E+02
 0.50817376561E+02 0.61085290686E+02 0.70992304489E+02 0.79414361247E+02 0.85147575576E+02
 0.87188377824E+02 0.85147575576E+02 0.79414361247E+02 0.70992304489E+02 0.61085290686E+02
 0.50817376561E+02 0.41173923146E+02 0.32768892428E+02 0.25829829018E+02 0.20306052117E+02
 0.16008649977E+02 0.12719289019E+02 0.10247331180E+02 0.84440922053E+01 0.71929933214E+01
 0.63943672792E+01 0.59572498275E+01 0.57991348261E+01 0.58469461960E+01 0.60348494008E+01
 0.63010254990E+01 0.65868111190E+01 0.68384448469E+01 0.70105843627E+01 0.10473935373E+02
 0.10351918284E+02 0.10002893021E+02 0.94746904701E+01 0.88375707065E+01 0.81737009949E+01
 0.75673504458E+01 0.70980918733E+01 0.68385315384E+01 0.68560818856E+01 0.72158963921E+01
 0.79822451499E+01 0.92188737162E+01 0.10991401868E+02 0.13372854156E+02 0.16447881107E+02
 0.20306052117E+02 0.25013257954E+02 0.30556028491E+02 0.36769003686E+02 0.43276378133E+02
 0.49488655408E+02 0.54681443435E+02 0.58146003202E+02 0.59364184088E+02 0.58146003202E+02
 0.54681443435E+02 0.49488655408E+02 0.43276378133E+02 0.36769003686E+02 0.30556028491E+02
 0.25013257954E+02 0.20306052117E+02 0.16447881107E+02 0.13372854156E+02 0.10991401868E+02
 0.92188737162E+01 0.79822451499E+01 0.72158963921E+01 0.68560818856E+01 0.68385315384E+01