unknown system                          
   1.00000000000000     
     2.573869    0.000000    0.000000
     1.286934    2.229036    0.000000
     0.000000    0.000000   30.304665
   Cu   H 
     4     1
Direct
  0.000000  0.000000  0.395979
  0.333333  0.333333  0.465326
  0.666667  0.666667  0.534674
  0.000000  0.000000  0.604021
  0.644235  0.711529  0.637020
 
   20   20  240
 -.76614E-02 -.71308E-02 -.55263E-02 -.32818E-02 -.10289E-02 0.62520E-03 0.12653E-02 0.76189E-03 -.63334E-03 -.22433E-02
 -.31698E-02 -.27942E-02 -.12541E-02 0.55412E-03 0.15347E-02 0.10779E-02 -.66762E-03 -.30505E-02 -.53491E-02 -.70091E-02
 -.72206E-02 -.60689E-02 -.36816E-02 -.94942E-03 0.89230E-03 0.99690E-03 -.62714E-03 -.31590E-02 -.53750E-02 -.61922E-02
 -.51822E-02 -.28449E-02 -.39107E-03 0.96319E-03 0.72398E-03 -.71999E-03 -.26023E-02 -.43956E-02 -.59298E-02 -.70233E-02
 -.57491E-02 -.41168E-02 -.16392E-02 0.46371E-03 0.80442E-03 -.13633E-02 -.56079E-02 -.10389E-01 -.13742E-01 -.14264E-01
 -.11859E-01 -.77698E-02 -.38198E-02 -.13711E-02 -.73892E-03 -.13988E-02 -.26459E-02 -.40375E-02 -.53077E-02 -.60586E-02
 -.35866E-02 -.22312E-02 -.79327E-03 -.34920E-03 -.21779E-02 -.69934E-02 -.14133E-01 -.21433E-01 -.26138E-01 -.26356E-01
 -.22082E-01 -.15110E-01 -.79892E-02 -.27703E-02 -.28974E-03 -.19405E-03 -.14601E-02 -.30011E-02 -.40546E-02 -.42655E-02
 -.12077E-02 -.78581E-03 -.11028E-02 -.31931E-02 -.83350E-02 -.16951E-01 -.27549E-01 -.36841E-01 -.41260E-01 -.38910E-01
 -.30601E-01 -.19354E-01 -.88481E-02 -.17750E-02 0.10854E-02 0.76557E-03 -.81943E-03 -.20479E-02 -.23022E-02 -.18473E-02
 0.89869E-03 0.34076E-03 -.22154E-02 -.81068E-02 -.18141E-01 -.31318E-01 -.44363E-01 -.52848E-01 -.53427E-01 -.45698E-01
 -.32442E-01 -.18161E-01 -.68976E-02 -.60967E-03 0.11637E-02 0.42856E-03 -.67551E-03 -.95776E-03 -.38593E-03 0.44523E-03
 0.20166E-02 0.62759E-03 -.46850E-02 -.15122E-01 -.29953E-01 -.45948E-01 -.58242E-01 -.62480E-01 -.57073E-01 -.44094E-01
 -.28177E-01 -.14131E-01 -.48169E-02 -.47830E-03 0.44752E-03 -.65227E-04 -.60660E-03 -.53988E-03 0.22405E-03 0.13655E-02
 0.14329E-02 -.77748E-03 -.85996E-02 -.22208E-01 -.39026E-01 -.54300E-01 -.62960E-01 -.61987E-01 -.51948E-01 -.36692E-01
 -.21295E-01 -.95910E-02 -.28700E-02 -.30385E-03 -.28087E-03 -.13928E-02 -.25742E-02 -.29127E-02 -.18497E-02 0.19326E-03
 -.68311E-03 -.34515E-02 -.12233E-01 -.26018E-01 -.41298E-01 -.53231E-01 -.57650E-01 -.53017E-01 -.41193E-01 -.26460E-01
 -.13363E-01 -.47553E-02 -.11716E-02 -.15046E-02 -.40445E-02 -.70681E-02 -.90019E-02 -.87007E-02 -.60568E-02 -.24890E-02
 -.29728E-02 -.56342E-02 -.13596E-01 -.25172E-01 -.36880E-01 -.44621E-01 -.45419E-01 -.38849E-01 -.27312E-01 -.14921E-01
 -.56658E-02 -.18490E-02 -.34837E-02 -.86825E-02 -.14624E-01 -.18637E-01 -.19090E-01 -.15879E-01 -.10434E-01 -.52306E-02
 -.39077E-02 -.60309E-02 -.12427E-01 -.20944E-01 -.28429E-01 -.31873E-01 -.29704E-01 -.22570E-01 -.13180E-01 -.52773E-02
 -.21571E-02 -.52549E-02 -.13415E-01 -.23286E-01 -.30817E-01 -.33115E-01 -.29634E-01 -.22099E-01 -.13460E-01 -.66813E-02
 -.30133E-02 -.47375E-02 -.95751E-02 -.14912E-01 -.18234E-01 -.18037E-01 -.14329E-01 -.86146E-02 -.34740E-02 -.18172E-02
 -.57909E-02 -.15567E-01 -.28703E-01 -.40806E-01 -.47453E-01 -.46313E-01 -.38148E-01 -.26175E-01 -.14425E-01 -.61666E-02
 -.97535E-03 -.24549E-02 -.56829E-02 -.81730E-02 -.85507E-02 -.67601E-02 -.37608E-02 -.11402E-02 -.84431E-03 -.48067E-02
 -.14150E-01 -.28124E-01 -.43573E-01 -.55720E-01 -.60207E-01 -.55275E-01 -.42699E-01 -.26901E-01 -.12842E-01 -.39298E-02
 0.10593E-02 0.91239E-05 -.17418E-02 -.26103E-02 -.21960E-02 -.92535E-03 0.30375E-03 0.22371E-03 -.27621E-02 -.10195E-01
 -.22651E-01 -.38681E-01 -.54471E-01 -.64928E-01 -.65993E-01 -.56883E-01 -.40732E-01 -.23062E-01 -.90191E-02 -.11512E-02
 0.20386E-02 0.14526E-02 0.45910E-03 -.18330E-03 -.18981E-03 0.35002E-03 0.73800E-03 -.50236E-03 -.52876E-02 -.15035E-01
 -.29474E-01 -.45899E-01 -.59601E-01 -.65709E-01 -.61659E-01 -.48754E-01 -.31611E-01 -.15709E-01 -.47151E-02 0.68784E-03
 0.13626E-02 0.85085E-03 0.12576E-04 -.58828E-03 -.44374E-03 0.42109E-03 0.91429E-03 -.10211E-02 -.74327E-02 -.18943E-01
 -.33741E-01 -.47757E-01 -.56233E-01 -.56027E-01 -.47300E-01 -.33447E-01 -.19208E-01 -.82569E-02 -.18401E-02 0.85788E-03
 -.75627E-03 -.14377E-02 -.19086E-02 -.17461E-02 -.72729E-03 0.67132E-03 0.97909E-03 -.18277E-02 -.91184E-02 -.20308E-01
 -.32470E-01 -.41428E-01 -.43846E-01 -.39018E-01 -.29151E-01 -.18003E-01 -.88635E-02 -.32201E-02 -.76129E-03 -.30633E-03
 -.33897E-02 -.39730E-02 -.36923E-02 -.26617E-02 -.11761E-02 0.13790E-03 0.14751E-03 -.24832E-02 -.83725E-02 -.16502E-01
 -.24231E-01 -.28539E-01 -.27724E-01 -.22320E-01 -.14645E-01 -.74344E-02 -.25757E-02 -.58055E-03 -.81793E-03 -.21198E-02
 -.56242E-02 -.58202E-02 -.50063E-02 -.37007E-02 -.22525E-02 -.94290E-03 -.34633E-03 -.13186E-02 -.43652E-02 -.89136E-02
 -.13276E-01 -.15507E-01 -.14538E-01 -.10773E-01 -.58016E-02 -.15561E-02 0.56565E-03 0.23525E-03 -.17842E-02 -.41324E-02
 -.70801E-02 -.69268E-02 -.58703E-02 -.43412E-02 -.25779E-02 -.78340E-03 0.58681E-03 0.84689E-03 -.45405E-03 -.29943E-02
 -.56157E-02 -.69167E-02 -.61213E-02 -.35955E-02 -.65267E-03 0.12003E-02 0.10827E-02 -.85056E-03 -.35988E-02 -.59400E-02
 0.21686E-03 0.41373E-03 0.40813E-03 0.20555E-03 0.58251E-05 -.87319E-05 0.15735E-03 0.34840E-03 0.41766E-03 0.32838E-03
 0.13549E-03 -.69361E-04 -.18415E-03 -.13027E-03 0.75801E-04 0.28940E-03 0.33723E-03 0.19030E-03 0.16651E-04 0.19434E-04
 0.20413E-03 0.30995E-03 0.68067E-03 0.10432E-02 0.96827E-03 0.27295E-03 -.76187E-03 -.15534E-02 -.16191E-02 -.90627E-03
 0.17497E-03 0.10136E-02 0.11773E-02 0.67307E-03 -.79911E-04 -.56021E-03 -.52172E-03 -.14079E-03 0.19505E-03 0.26563E-03
 -.11080E-03 0.58263E-04 0.65706E-03 0.10854E-02 0.78907E-03 -.22576E-03 -.13960E-02 -.20485E-02 -.18578E-02 -.99723E-03
 0.15949E-04 0.62439E-03 0.54730E-03 -.30435E-04 -.56442E-03 -.56875E-03 -.42448E-04 0.52048E-03 0.61276E-03 0.23284E-03
 -.28692E-03 -.23153E-03 -.15221E-05 0.14316E-03 0.65421E-04 -.20381E-03 -.59035E-03 -.10556E-02 -.15318E-02 -.18564E-02
 -.18560E-02 -.15064E-02 -.95926E-03 -.39426E-03 0.11404E-03 0.54959E-03 0.82614E-03 0.79955E-03 0.44739E-03 -.17283E-04
 0.61883E-04 -.35133E-03 -.72169E-03 -.73443E-03 -.38172E-03 -.49739E-04 -.24656E-03 -.11716E-02 -.24789E-02 -.34486E-02
 -.34630E-02 -.24380E-02 -.88777E-03 0.42681E-03 0.99837E-03 0.85421E-03 0.42935E-03 0.16569E-03 0.17566E-03 0.23270E-03
 0.62751E-03 -.12244E-03 -.81920E-03 -.11384E-02 -.12108E-02 -.14153E-02 -.19810E-02 -.27724E-02 -.33781E-02 -.33739E-02
 -.25907E-02 -.12703E-02 -.11077E-05 0.61776E-03 0.41413E-03 -.18787E-03 -.49991E-03 -.16858E-03 0.51427E-03 0.90657E-03
 0.87812E-03 0.34977E-03 -.47528E-03 -.15562E-02 -.27403E-02 -.36732E-02 -.39725E-02 -.35336E-02 -.26287E-02 -.16802E-02
 -.96225E-03 -.52609E-03 -.33612E-03 -.36165E-03 -.50865E-03 -.56082E-03 -.30983E-03 0.22846E-03 0.78184E-03 0.10399E-02
 0.73805E-03 0.65579E-03 -.24463E-03 -.18503E-02 -.34948E-02 -.43686E-02 -.40908E-02 -.29796E-02 -.17878E-02 -.11260E-02
 -.10553E-02 -.11613E-02 -.98939E-03 -.43598E-03 0.21350E-03 0.57841E-03 0.52342E-03 0.26432E-03 0.16674E-03 0.40223E-03
 0.36843E-03 0.44237E-03 -.21484E-03 -.13779E-02 -.25301E-02 -.32220E-02 -.33036E-02 -.29380E-02 -.24354E-02 -.20120E-02
 -.16254E-02 -.10375E-02 -.10455E-03 0.95414E-03 0.16191E-02 0.14888E-02 0.68526E-03 -.17886E-03 -.49155E-03 -.15183E-03
 -.20303E-03 -.22804E-03 -.30185E-03 -.59296E-03 -.12696E-02 -.22507E-02 -.31132E-02 -.33546E-02 -.27936E-02 -.16971E-02
 -.51719E-03 0.45167E-03 0.11456E-02 0.15584E-02 0.16264E-02 0.13240E-02 0.79446E-03 0.29122E-03 -.20412E-04 -.15426E-03
 -.74849E-03 -.91375E-03 -.68703E-03 -.62980E-03 -.11344E-02 -.20056E-02 -.25743E-02 -.22737E-02 -.11493E-02 0.17080E-03
 0.99618E-03 0.10978E-02 0.80075E-03 0.63968E-03 0.91639E-03 0.14960E-02 0.19345E-02 0.18119E-02 0.10517E-02 0.12737E-04
 -.70203E-03 -.11470E-02 -.12599E-02 -.12829E-02 -.12963E-02 -.11870E-02 -.80366E-03 -.14835E-03 0.55120E-03 0.95790E-03
 0.87526E-03 0.45369E-03 0.15374E-03 0.42553E-03 0.13226E-02 0.23863E-02 0.29440E-02 0.26012E-02 0.15163E-02 0.24195E-03
 0.65943E-04 -.76902E-03 -.13177E-02 -.12593E-02 -.63836E-03 0.10285E-03 0.49148E-03 0.42423E-03 0.19268E-03 0.15098E-03
 0.41387E-03 0.86402E-03 0.13512E-02 0.17981E-02 0.21438E-02 0.22949E-02 0.21937E-02 0.18822E-02 0.14337E-02 0.84120E-03
 0.82222E-03 -.36884E-04 -.55610E-03 -.41974E-03 0.74834E-04 0.31124E-03 -.13664E-04 -.55740E-03 -.63857E-03 0.12606E-03
 0.14655E-02 0.26694E-02 0.31227E-02 0.26985E-02 0.17743E-02 0.94812E-03 0.66578E-03 0.94796E-03 0.13769E-02 0.14066E-02
 0.87467E-03 0.55950E-03 0.28725E-03 0.10355E-03 -.84628E-04 -.35406E-03 -.59857E-03 -.53209E-03 0.95027E-04 0.12295E-02
 0.24437E-02 0.31644E-02 0.30496E-02 0.22240E-02 0.11877E-02 0.47645E-03 0.33128E-03 0.60709E-03 0.94586E-03 0.10537E-02
 0.44510E-03 0.68875E-03 0.46924E-03 -.14336E-04 -.31069E-03 -.15412E-03 0.32167E-03 0.78129E-03 0.10334E-02 0.11538E-02
 0.13207E-02 0.16044E-02 0.19190E-02 0.21050E-02 0.20132E-02 0.15666E-02 0.84635E-03 0.13977E-03 -.19158E-03 -.47651E-05
 0.13920E-03 0.45043E-03 0.25654E-03 0.40225E-05 0.17712E-03 0.75514E-03 0.12271E-02 0.11201E-02 0.47956E-03 -.15453E-03
 -.19598E-03 0.54475E-03 0.17382E-02 0.27366E-02 0.29362E-02 0.21370E-02 0.72087E-03 -.53267E-03 -.96884E-03 -.55090E-03
 0.64526E-04 0.21628E-03 0.23828E-03 0.28116E-03 0.42181E-03 0.55813E-03 0.51956E-03 0.26925E-03 -.13775E-04 -.53195E-04
 0.31336E-03 0.10000E-02 0.17015E-02 0.20555E-02 0.18479E-02 0.11502E-02 0.29873E-03 -.30397E-03 -.44630E-03 -.22789E-03
 0.22826E-04 0.21301E-03 0.35546E-03 0.15635E-03 -.31050E-03 -.63320E-03 -.43536E-03 0.27966E-03 0.11254E-02 0.16294E-02
 0.15474E-02 0.97989E-03 0.27730E-03 -.16593E-03 -.13564E-03 0.26268E-03 0.66749E-03 0.73929E-03 0.45066E-03 0.10395E-03
 0.59081E-04 0.34811E-03 0.34286E-03 -.17166E-03 -.79622E-03 -.87716E-03 -.13768E-03 0.10455E-02 0.19384E-02 0.19915E-02
 0.11753E-02 -.50665E-04 -.10183E-02 -.12126E-02 -.57752E-03 0.41492E-03 0.10700E-02 0.10031E-02 0.45000E-03 0.14964E-04
 0.80137E-02 0.78783E-02 0.62717E-02 0.36534E-02 0.10576E-02 -.56323E-03 -.83200E-03 0.53157E-04 0.15558E-02 0.29516E-02
 0.34773E-02 0.27065E-02 0.97017E-03 -.70161E-03 -.12692E-02 -.42059E-03 0.13615E-02 0.33938E-02 0.53111E-02 0.69664E-02
 0.75136E-02 0.65383E-02 0.48595E-02 0.28750E-02 0.99776E-03 -.29043E-03 -.46966E-03 0.75163E-03 0.30579E-02 0.54255E-02
 0.65789E-02 0.57951E-02 0.34461E-02 0.80982E-03 -.72369E-03 -.44697E-03 0.13981E-02 0.39303E-02 0.61685E-02 0.74388E-02
 0.53807E-02 0.40109E-02 0.26968E-02 0.15471E-02 0.89815E-03 0.15054E-02 0.39919E-02 0.80390E-02 0.12191E-01 0.14587E-01
 0.14056E-01 0.10769E-01 0.60957E-02 0.19087E-02 -.26423E-03 0.99172E-04 0.23021E-02 0.48559E-02 0.63876E-02 0.64143E-02
 0.28555E-02 0.15327E-02 0.59880E-03 0.72615E-03 0.29760E-02 0.80818E-02 0.15379E-01 0.22562E-01 0.26789E-01 0.26357E-01
 0.21609E-01 0.14526E-01 0.75693E-02 0.26506E-02 0.60763E-03 0.11000E-02 0.28766E-02 0.44440E-02 0.48711E-02 0.41519E-02
 0.11981E-02 -.59696E-04 -.26330E-03 0.23767E-02 0.91795E-02 0.19674E-01 0.31095E-01 0.39441E-01 0.41579E-01 0.36955E-01
 0.27711E-01 0.17297E-01 0.86776E-02 0.32794E-02 0.98831E-03 0.80082E-03 0.15460E-02 0.23323E-02 0.26490E-02 0.22650E-02
 0.27564E-03 -.52258E-03 0.11244E-02 0.73090E-02 0.18536E-01 0.32822E-01 0.46072E-01 0.53758E-01 0.53126E-01 0.44619E-01
 0.31593E-01 0.18435E-01 0.83729E-02 0.23924E-02 -.27155E-03 -.88387E-03 -.37519E-03 0.62403E-03 0.14176E-02 0.13162E-02
 -.28108E-03 0.42136E-03 0.48766E-02 0.14423E-01 0.28505E-01 0.44271E-01 0.57193E-01 0.62766E-01 0.58713E-01 0.46404E-01
 0.30285E-01 0.15493E-01 0.52888E-02 0.10657E-03 -.14848E-02 -.11828E-02 -.13621E-03 0.88640E-03 0.12180E-02 0.58914E-03
 0.69718E-04 0.27453E-02 0.98404E-02 0.21739E-01 0.36976E-01 0.52019E-01 0.62135E-01 0.63386E-01 0.54833E-01 0.39382E-01
 0.22417E-01 0.89994E-02 0.15496E-02 -.54004E-03 0.42816E-03 0.21423E-02 0.31711E-02 0.29931E-02 0.17792E-02 0.33278E-03
 0.14728E-02 0.52495E-02 0.13965E-01 0.26974E-01 0.41517E-01 0.53250E-01 0.57948E-01 0.53605E-01 0.41602E-01 0.26148E-01
 0.12274E-01 0.35921E-02 0.10135E-02 0.29288E-02 0.64790E-02 0.90637E-02 0.93310E-02 0.73609E-02 0.42706E-02 0.17027E-02
 0.26270E-02 0.62360E-02 0.15312E-01 0.27699E-01 0.39288E-01 0.45799E-01 0.44870E-01 0.37084E-01 0.25436E-01 0.13847E-01
 0.56882E-02 0.28094E-02 0.50932E-02 0.10580E-01 0.16285E-01 0.19493E-01 0.18885E-01 0.14866E-01 0.91732E-02 0.42432E-02
 0.24679E-02 0.52585E-02 0.13214E-01 0.22919E-01 0.30198E-01 0.32199E-01 0.28592E-01 0.21255E-01 0.13041E-01 0.66740E-02
 0.42070E-02 0.66497E-02 0.13484E-01 0.22441E-01 0.30126E-01 0.33440E-01 0.30977E-01 0.23596E-01 0.14030E-01 0.59053E-02
 0.16637E-02 0.33544E-02 0.87874E-02 0.14763E-01 0.18459E-01 0.18481E-01 0.15140E-01 0.10051E-01 0.54882E-02 0.37892E-02
 0.67408E-02 0.14829E-01 0.26583E-01 0.38609E-01 0.46704E-01 0.47692E-01 0.40989E-01 0.28948E-01 0.15810E-01 0.58473E-02
 0.11664E-02 0.15856E-02 0.42046E-02 0.71447E-02 0.88851E-02 0.84567E-02 0.59022E-02 0.26592E-02 0.12905E-02 0.44360E-02
 0.13456E-01 0.27434E-01 0.43048E-01 0.55524E-01 0.60500E-01 0.56074E-01 0.43860E-01 0.28248E-01 0.14188E-01 0.49389E-02
 0.65391E-03 0.31058E-03 0.12165E-02 0.24523E-02 0.30277E-02 0.21358E-02 0.62597E-04 -.12707E-02 0.10382E-02 0.92645E-02
 0.23493E-01 0.41005E-01 0.56947E-01 0.66136E-01 0.65353E-01 0.55012E-01 0.39051E-01 0.22871E-01 0.10591E-01 0.35190E-02
 -.21592E-03 -.18448E-03 0.26332E-03 0.53121E-03 0.16982E-03 -.90887E-03 -.18643E-02 -.75167E-03 0.47587E-02 0.15980E-01
 0.31910E-01 0.48900E-01 0.61760E-01 0.65998E-01 0.60094E-01 0.46379E-01 0.29820E-01 0.15408E-01 0.58892E-02 0.12331E-02
 -.40814E-03 0.50791E-03 0.83034E-03 0.46378E-03 -.19705E-03 -.66590E-03 -.24281E-03 0.23288E-02 0.86552E-02 0.19577E-01
 0.33819E-01 0.47663E-01 0.56354E-01 0.56518E-01 0.48021E-01 0.34012E-01 0.19225E-01 0.76910E-02 0.12021E-02 -.83864E-03
 0.10752E-02 0.22433E-02 0.22675E-02 0.16570E-02 0.11211E-02 0.98839E-03 0.15653E-02 0.38207E-02 0.92086E-02 0.18342E-01
 0.29660E-01 0.39557E-01 0.44166E-01 0.41529E-01 0.32604E-01 0.20621E-01 0.94370E-02 0.19062E-02 -.10892E-02 -.64800E-03
 0.35272E-02 0.43075E-02 0.40703E-02 0.32319E-02 0.21786E-02 0.12201E-02 0.10265E-02 0.27938E-02 0.75352E-02 0.14920E-01
 0.22809E-01 0.28163E-01 0.28752E-01 0.24386E-01 0.16869E-01 0.89291E-02 0.29466E-02 0.10595E-03 0.16458E-03 0.18219E-02
 0.56463E-02 0.61782E-02 0.56938E-02 0.41030E-02 0.18411E-02 -.76841E-04 -.40624E-03 0.16739E-02 0.59503E-02 0.11027E-01
 0.14867E-01 0.15831E-01 0.13591E-01 0.92985E-02 0.48673E-02 0.18794E-02 0.88857E-03 0.14903E-02 0.28949E-02 0.44296E-02
 0.71461E-02 0.75714E-02 0.65506E-02 0.40700E-02 0.11313E-02 -.80819E-03 -.78728E-03 0.11166E-02 0.39315E-02 0.63209E-02
 0.71546E-02 0.60030E-02 0.34265E-02 0.76796E-03 -.63273E-03 -.29649E-03 0.12216E-02 0.30048E-02 0.45718E-02 0.59639E-02
 0.14492E-04 0.74686E-03 0.83801E-03 0.37130E-03 0.18718E-04 0.18973E-03 0.59928E-03 0.73575E-03 0.52145E-03 0.29615E-03
 0.25570E-03 0.20462E-03 -.48671E-04 -.29878E-03 -.19760E-03 0.17579E-03 0.29712E-03 -.13086E-03 -.69229E-03 -.68436E-03
 0.12320E-03 0.33750E-03 0.55780E-03 0.76232E-03 0.80811E-03 0.49145E-03 -.17225E-03 -.75912E-03 -.68824E-03 0.21725E-03
 0.14432E-02 0.21535E-02 0.18969E-02 0.94758E-03 -.25353E-04 -.55299E-03 -.62505E-03 -.47881E-03 -.28842E-03 -.88762E-04
 -.60382E-03 -.59192E-03 0.62973E-04 0.69229E-03 0.71337E-03 0.20277E-03 -.24629E-03 -.11429E-03 0.65010E-03 0.16896E-02
 0.25057E-02 0.26726E-02 0.20192E-02 0.81529E-03 -.25722E-03 -.54930E-03 -.27090E-04 0.63598E-03 0.68660E-03 0.50486E-04
 -.98029E-03 -.78283E-03 -.16866E-03 0.31976E-03 0.66459E-03 0.12500E-02 0.21590E-02 0.29036E-02 0.29708E-02 0.24319E-02
 0.17995E-02 0.13710E-02 0.98393E-03 0.47619E-03 0.11269E-03 0.28224E-03 0.84718E-03 0.11109E-02 0.58372E-03 -.39041E-03
 -.78232E-04 -.17501E-03 -.18257E-03 0.24350E-03 0.14498E-02 0.32364E-02 0.47172E-02 0.49647E-02 0.38692E-02 0.22686E-02
 0.11660E-02 0.87260E-03 0.95344E-03 0.88727E-03 0.59895E-03 0.33933E-03 0.25053E-03 0.22744E-03 0.14516E-03 0.24608E-04
 0.86233E-03 0.20795E-03 -.58749E-04 0.61741E-03 0.21263E-02 0.38067E-02 0.49207E-02 0.50881E-02 0.44274E-02 0.34064E-02
 0.25218E-02 0.19835E-02 0.16064E-02 0.10378E-02 0.17128E-03 -.64179E-03 -.85977E-03 -.29606E-03 0.60764E-03 0.11156E-02
 0.64833E-03 0.31173E-03 0.52931E-03 0.12073E-02 0.20493E-02 0.30268E-02 0.42451E-02 0.54401E-02 0.59397E-02 0.52990E-02
 0.38314E-02 0.23151E-02 0.12143E-02 0.39443E-03 -.37151E-03 -.87548E-03 -.69697E-03 0.12270E-03 0.92028E-03 0.10677E-02
 0.19646E-03 0.92054E-03 0.16531E-02 0.20661E-02 0.23906E-02 0.32345E-02 0.47478E-02 0.61404E-02 0.62838E-02 0.48348E-02
 0.26272E-02 0.88861E-03 0.17732E-03 0.15441E-03 0.22968E-03 0.17175E-03 0.67562E-04 -.28530E-04 -.14199E-03 -.15110E-03
 0.43877E-03 0.16429E-02 0.25617E-02 0.32070E-02 0.38302E-02 0.45496E-02 0.50985E-02 0.49761E-02 0.39068E-02 0.21903E-02
 0.58928E-03 -.19109E-03 -.59320E-05 0.65355E-03 0.10530E-02 0.75056E-03 -.12035E-03 -.98681E-03 -.12529E-02 -.69311E-03
 0.39455E-03 0.12365E-02 0.24597E-02 0.38637E-02 0.47796E-02 0.46658E-02 0.36695E-02 0.24568E-02 0.15389E-02 0.92381E-03
 0.42916E-03 0.10265E-03 0.13162E-03 0.41838E-03 0.51341E-03 0.99523E-04 -.58799E-03 -.98790E-03 -.81517E-03 -.26612E-03
 -.60408E-03 -.40422E-04 0.15181E-02 0.31909E-02 0.38299E-02 0.31665E-02 0.20556E-02 0.15066E-02 0.16327E-02 0.17048E-02
 0.11281E-02 0.11001E-03 -.68197E-03 -.88347E-03 -.65960E-03 -.31263E-03 0.25915E-04 0.25499E-03 0.16031E-03 -.29244E-03
 -.10481E-02 -.56069E-03 0.56313E-03 0.16244E-02 0.20867E-02 0.20211E-02 0.18970E-02 0.19772E-02 0.20094E-02 0.15442E-02
 0.48786E-03 -.72603E-03 -.14853E-02 -.14632E-02 -.78339E-03 0.12784E-03 0.77411E-03 0.79541E-03 0.17222E-03 -.66654E-03
 0.15819E-03 0.77264E-04 0.84870E-04 0.48258E-03 0.11993E-02 0.17432E-02 0.16704E-02 0.10328E-02 0.28208E-03 -.21874E-03
 -.47197E-03 -.64108E-03 -.73304E-03 -.61727E-03 -.30159E-03 -.16001E-04 0.46945E-04 -.30974E-04 -.28200E-04 0.95209E-04
 0.14302E-02 0.63351E-03 0.19228E-04 0.24549E-03 0.90269E-03 0.99227E-03 0.11565E-03 -.10392E-02 -.14607E-02 -.87917E-03
 0.73623E-04 0.62688E-03 0.54354E-03 0.47206E-04 -.59240E-03 -.11489E-02 -.12755E-02 -.65367E-03 0.52404E-03 0.14559E-02
 0.10923E-02 0.49517E-03 0.14627E-03 0.23977E-03 0.33341E-03 -.38421E-04 -.73236E-03 -.11145E-02 -.76698E-03 0.65636E-04
 0.75653E-03 0.88500E-03 0.46766E-03 -.24960E-03 -.99857E-03 -.14656E-02 -.13098E-02 -.45615E-03 0.64476E-03 0.12719E-02
 0.13375E-03 0.34384E-03 0.22652E-03 -.22724E-04 -.66506E-04 0.21635E-03 0.59459E-03 0.71908E-03 0.46453E-03 0.19667E-04
 -.32474E-03 -.42469E-03 -.33396E-03 -.19160E-03 -.11879E-03 -.18566E-03 -.38045E-03 -.57089E-03 -.56022E-03 -.26865E-03
 0.13812E-03 0.45797E-03 0.63707E-04 -.26892E-03 0.19110E-03 0.12029E-02 0.17641E-02 0.12001E-02 -.14110E-03 -.13025E-02
 -.16303E-02 -.11591E-02 -.28998E-03 0.58908E-03 0.11217E-02 0.96091E-03 0.71655E-04 -.97762E-03 -.13495E-02 -.76326E-03
 0.54126E-03 0.32597E-03 -.17118E-03 -.26705E-03 0.25196E-03 0.82313E-03 0.74828E-03 -.13589E-04 -.84477E-03 -.11727E-02
 -.96972E-03 -.54052E-03 -.64851E-04 0.44078E-03 0.82421E-03 0.77968E-03 0.26259E-03 -.27096E-03 -.28541E-03 0.18765E-03
 0.21446E-03 0.64521E-04 -.24552E-04 -.18356E-03 -.42754E-03 -.60767E-03 -.51976E-03 -.10652E-03 0.41812E-03 0.67289E-03
 0.40494E-03 -.26332E-03 -.87827E-03 -.98664E-03 -.48223E-03 0.32630E-03 0.96843E-03 0.11521E-02 0.91679E-03 0.52229E-03
 -.23480E-03 0.32677E-03 0.51684E-03 -.27157E-04 -.75649E-03 -.82946E-03 -.28501E-04 0.10476E-02 0.16110E-02 0.13396E-02
 0.44750E-03 -.62959E-03 -.14390E-02 -.15637E-02 -.82602E-03 0.40226E-03 0.12838E-02 0.11913E-02 0.35464E-03 -.32861E-03
 -.76959E-02 -.61200E-02 -.43965E-02 -.27959E-02 -.98261E-03 0.92354E-03 0.19699E-02 0.13161E-02 -.66373E-03 -.25538E-02
 -.31776E-02 -.24900E-02 -.12163E-02 0.31390E-05 0.81388E-03 0.75345E-03 -.72927E-03 -.35407E-02 -.64974E-02 -.80714E-02
 -.69720E-02 -.55714E-02 -.34713E-02 -.11346E-02 0.71040E-03 0.11478E-02 -.31505E-03 -.30810E-02 -.55854E-02 -.63467E-02
 -.50476E-02 -.26383E-02 -.46425E-03 0.64276E-03 0.54533E-03 -.56773E-03 -.24324E-02 -.46160E-02 -.64550E-02 -.73220E-02
 -.63214E-02 -.48872E-02 -.22592E-02 0.33215E-04 0.40417E-03 -.17884E-02 -.59301E-02 -.10506E-01 -.13737E-01 -.14281E-01
 -.11890E-01 -.76623E-02 -.35055E-02 -.96970E-03 -.37594E-03 -.10014E-02 -.20436E-02 -.32764E-02 -.47481E-02 -.60668E-02
 -.45924E-02 -.28136E-02 -.71131E-03 -.19156E-03 -.24653E-02 -.74936E-02 -.14270E-01 -.21142E-01 -.25939E-01 -.26585E-01
 -.22397E-01 -.14993E-01 -.75139E-02 -.25165E-02 -.48561E-03 -.30842E-03 -.89561E-03 -.19975E-02 -.35417E-02 -.47710E-02
 -.11765E-02 -.10782E-03 -.18200E-03 -.26947E-02 -.83616E-02 -.16989E-01 -.27225E-01 -.36433E-01 -.41271E-01 -.39340E-01
 -.30944E-01 -.19338E-01 -.88497E-02 -.23080E-02 0.12966E-03 0.60234E-04 -.86624E-03 -.17809E-02 -.23031E-02 -.21201E-02
 0.15777E-02 0.90349E-03 -.18871E-02 -.79706E-02 -.18067E-01 -.31217E-01 -.44249E-01 -.52801E-01 -.53490E-01 -.45825E-01
 -.32556E-01 -.18250E-01 -.70553E-02 -.96339E-03 0.57599E-03 -.27359E-03 -.12567E-02 -.11905E-02 -.17654E-03 0.10038E-02
 0.16431E-02 -.16799E-03 -.52318E-02 -.15205E-01 -.29966E-01 -.46235E-01 -.58596E-01 -.62481E-01 -.56726E-01 -.43823E-01
 -.28183E-01 -.14060E-01 -.42758E-02 0.31008E-03 0.80519E-03 -.41952E-03 -.11449E-02 -.55309E-03 0.73604E-03 0.16962E-02
 0.30438E-03 -.16764E-02 -.87562E-02 -.21986E-01 -.39113E-01 -.54771E-01 -.63239E-01 -.61705E-01 -.51488E-01 -.36632E-01
 -.21543E-01 -.94451E-02 -.19671E-02 0.83132E-03 0.28923E-03 -.14954E-02 -.27472E-02 -.27624E-02 -.17620E-02 -.37927E-03
 -.71055E-03 -.31054E-02 -.11685E-01 -.25648E-01 -.41288E-01 -.53378E-01 -.57653E-01 -.52880E-01 -.41220E-01 -.26856E-01
 -.13938E-01 -.51148E-02 -.11381E-02 -.12537E-02 -.38447E-02 -.70051E-02 -.90147E-02 -.87788E-02 -.62511E-02 -.27242E-02
 -.20335E-02 -.51267E-02 -.13468E-01 -.25061E-01 -.36654E-01 -.44496E-01 -.45558E-01 -.39093E-01 -.27447E-01 -.15075E-01
 -.61938E-02 -.27983E-02 -.43846E-02 -.90294E-02 -.14465E-01 -.18489E-01 -.19253E-01 -.16046E-01 -.10088E-01 -.43315E-02
 -.39017E-02 -.67007E-02 -.13018E-01 -.20918E-01 -.28105E-01 -.31878E-01 -.30045E-01 -.22622E-01 -.12615E-01 -.46263E-02
 -.21772E-02 -.59485E-02 -.14022E-01 -.23267E-01 -.30492E-01 -.33116E-01 -.29969E-01 -.22140E-01 -.12880E-01 -.60077E-02
 -.39531E-02 -.56149E-02 -.98831E-02 -.14712E-01 -.18068E-01 -.18223E-01 -.14546E-01 -.83190E-02 -.26077E-02 -.89368E-03
 -.52852E-02 -.15422E-01 -.28552E-01 -.40533E-01 -.47302E-01 -.46468E-01 -.38438E-01 -.26356E-01 -.14604E-01 -.66990E-02
 -.97254E-03 -.22142E-02 -.54609E-02 -.80823E-02 -.85675E-02 -.68755E-02 -.39897E-02 -.13769E-02 -.84779E-03 -.44378E-02
 -.13586E-01 -.27727E-01 -.43516E-01 -.55826E-01 -.60210E-01 -.55178E-01 -.42774E-01 -.27324E-01 -.13431E-01 -.43133E-02
 0.21506E-02 0.54522E-03 -.18594E-02 -.27893E-02 -.20503E-02 -.83244E-03 -.24217E-03 -.86315E-03 -.36282E-02 -.10346E-01
 -.22446E-01 -.38789E-01 -.54958E-01 -.65216E-01 -.65714E-01 -.56411E-01 -.40643E-01 -.23279E-01 -.88673E-02 -.27600E-03
 0.23816E-02 0.10594E-02 -.11575E-03 -.20026E-03 0.35296E-03 0.71786E-03 0.38157E-03 -.13017E-02 -.58460E-02 -.15137E-01
 -.29526E-01 -.46243E-01 -.60001E-01 -.65712E-01 -.61266E-01 -.48420E-01 -.31566E-01 -.15607E-01 -.41524E-02 0.14860E-02
 0.67260E-03 0.24939E-03 -.23828E-03 -.36965E-03 0.13459E-03 0.10956E-02 0.14428E-02 -.72547E-03 -.73012E-02 -.18857E-01
 -.33639E-01 -.47659E-01 -.56194E-01 -.56071E-01 -.47400E-01 -.33550E-01 -.19303E-01 -.84074E-02 -.21567E-02 0.31294E-03
 -.77747E-03 -.11671E-02 -.19190E-02 -.20333E-02 -.71712E-03 0.13225E-02 0.18817E-02 -.13191E-02 -.91015E-02 -.20286E-01
 -.32094E-01 -.40989E-01 -.43850E-01 -.39462E-01 -.29533E-01 -.18040E-01 -.89073E-02 -.37608E-02 -.16889E-02 -.97154E-03
 -.23684E-02 -.34588E-02 -.42159E-02 -.36897E-02 -.17662E-02 0.23227E-03 0.32984E-03 -.27410E-02 -.88383E-02 -.16600E-01
 -.23905E-01 -.28324E-01 -.27963E-01 -.22663E-01 -.14559E-01 -.69861E-02 -.23431E-02 -.78841E-03 -.92908E-03 -.15378E-02
 -.50598E-02 -.58330E-02 -.55874E-02 -.44611E-02 -.28372E-02 -.13386E-02 -.74415E-03 -.17750E-02 -.47242E-02 -.90496E-02
 -.13276E-01 -.15529E-01 -.14569E-01 -.10643E-01 -.54411E-02 -.11126E-02 0.93778E-03 0.61172E-03 -.12038E-02 -.33748E-02
 -.73771E-02 -.66801E-02 -.53650E-02 -.41012E-02 -.27280E-02 -.96072E-03 0.69573E-03 0.10937E-02 -.42791E-03 -.32297E-02
 -.57798E-02 -.67826E-02 -.58920E-02 -.36113E-02 -.90038E-03 0.10691E-02 0.12360E-02 -.70719E-03 -.38395E-02 -.64679E-02
 0.39208E-03 0.16105E-02 0.16644E-02 0.76386E-03 0.10539E-03 0.35028E-03 0.91963E-03 0.91624E-03 0.32130E-03 -.12412E-03
 -.44182E-04 0.95166E-04 -.21226E-03 -.67235E-03 -.59263E-03 0.25513E-04 0.33337E-03 -.22439E-03 -.10073E-02 -.86089E-03
 0.63261E-03 0.94893E-03 0.97996E-03 0.91303E-03 0.83288E-03 0.46013E-03 -.46293E-03 -.15881E-02 -.20595E-02 -.13689E-02
 0.38404E-05 0.99433E-03 0.99204E-03 0.33584E-03 -.22622E-03 -.36266E-03 -.29725E-03 -.27519E-03 -.19382E-03 0.14420E-03
 -.56666E-03 -.62852E-03 0.92643E-04 0.69231E-03 0.39091E-03 -.74382E-03 -.19857E-02 -.26541E-02 -.25299E-02 -.17660E-02
 -.69017E-03 0.24673E-03 0.59693E-03 0.27880E-03 -.20069E-03 -.13613E-03 0.61367E-03 0.13645E-02 0.12889E-02 0.35616E-03
 -.12302E-02 -.76549E-03 0.11441E-03 0.28709E-03 -.37202E-03 -.11168E-02 -.15047E-02 -.19058E-02 -.27049E-02 -.34578E-02
 -.33134E-02 -.21658E-02 -.89535E-03 -.28904E-03 -.94143E-04 0.47154E-03 0.14432E-02 0.18699E-02 0.10387E-02 -.44625E-03
 0.13698E-03 0.36708E-03 0.19633E-03 -.38951E-03 -.88188E-03 -.10498E-02 -.14432E-02 -.27366E-02 -.46400E-02 -.58557E-02
 -.53315E-02 -.33856E-02 -.13616E-02 -.25826E-03 0.40654E-04 0.19125E-03 0.43034E-03 0.48046E-03 0.22158E-03 0.42535E-05
 0.13553E-02 0.46917E-03 -.58842E-03 -.14196E-02 -.21036E-02 -.29838E-02 -.42110E-02 -.54863E-02 -.62033E-02 -.58486E-02
 -.43758E-02 -.23240E-02 -.57537E-03 0.16447E-03 -.14898E-03 -.84529E-03 -.10466E-02 -.37484E-03 0.75060E-03 0.15015E-02
 0.54855E-03 -.46648E-03 -.12923E-02 -.24185E-02 -.42778E-02 -.63065E-02 -.73215E-02 -.67757E-02 -.52745E-02 -.37533E-02
 -.24913E-02 -.12351E-02 -.65720E-04 0.40456E-03 -.11098E-03 -.89742E-03 -.86312E-03 0.18913E-03 0.12835E-02 0.13943E-02
 -.38486E-03 -.35880E-03 -.89004E-03 -.27693E-02 -.55547E-02 -.76022E-02 -.76127E-02 -.59394E-02 -.40862E-02 -.30373E-02
 -.24445E-02 -.15046E-02 -.20062E-03 0.70782E-03 0.75994E-03 0.37023E-03 0.18695E-03 0.25107E-03 0.14797E-03 -.19637E-03
 0.27750E-03 0.56146E-03 -.34301E-03 -.23793E-02 -.46672E-02 -.61303E-02 -.63026E-02 -.55628E-02 -.46114E-02 -.37807E-02
 -.28776E-02 -.16241E-02 -.13243E-03 0.10898E-02 0.15463E-02 0.11313E-02 0.19149E-03 -.68243E-03 -.96522E-03 -.50730E-03
 0.60186E-03 -.24035E-04 -.92480E-03 -.18554E-02 -.30203E-02 -.44724E-02 -.55988E-02 -.55744E-02 -.43028E-02 -.26044E-02
 -.13510E-02 -.63252E-03 0.12166E-04 0.71181E-03 0.99191E-03 0.49320E-03 -.34831E-03 -.66842E-03 -.17478E-03 0.51177E-03
 -.90928E-03 -.18872E-02 -.19529E-02 -.17465E-02 -.23354E-02 -.36833E-02 -.44392E-02 -.34665E-02 -.12606E-02 0.51689E-03
 0.80891E-03 0.89519E-04 -.50402E-03 -.51728E-03 -.32435E-03 -.21829E-03 0.40107E-04 0.60164E-03 0.93827E-03 0.37245E-03
 -.17795E-02 -.22514E-02 -.20539E-02 -.18585E-02 -.20927E-02 -.23368E-02 -.17985E-02 -.33863E-03 0.11946E-02 0.17478E-02
 0.10649E-02 -.17933E-03 -.11125E-02 -.13386E-02 -.94808E-03 -.19078E-03 0.61615E-03 0.10051E-02 0.56168E-03 -.60669E-03
 0.52992E-05 -.64336E-03 -.13632E-02 -.15776E-02 -.11215E-02 -.42521E-03 -.72677E-05 0.74663E-04 0.12980E-03 0.28698E-03
 0.27654E-03 -.15958E-03 -.81335E-03 -.11636E-02 -.95872E-03 -.46974E-03 -.10932E-03 0.36106E-04 0.14361E-03 0.22325E-03
 0.19248E-02 0.47923E-03 -.76886E-03 -.74375E-03 0.76705E-04 0.31123E-03 -.57880E-03 -.16345E-02 -.16199E-02 -.52688E-03
 0.48963E-03 0.51565E-03 -.22635E-03 -.94969E-03 -.13079E-02 -.14446E-02 -.12937E-02 -.45225E-03 0.10276E-02 0.21689E-02
 0.12699E-02 0.19843E-03 -.28471E-03 0.79699E-04 0.46390E-03 0.47975E-04 -.90427E-03 -.13470E-02 -.73429E-03 0.32960E-03
 0.81674E-03 0.38409E-03 -.46782E-03 -.11544E-02 -.15342E-02 -.16228E-02 -.11976E-02 -.87471E-04 0.12405E-02 0.18401E-02
 -.18506E-03 0.13827E-03 0.26331E-03 0.24953E-03 0.31868E-03 0.57893E-03 0.88705E-03 0.98752E-03 0.74923E-03 0.25215E-03
 -.30836E-03 -.74526E-03 -.93137E-03 -.82720E-03 -.53031E-03 -.26622E-03 -.23683E-03 -.42751E-03 -.59705E-03 -.51092E-03
 0.17897E-03 0.78565E-03 0.31387E-03 -.21740E-03 0.24844E-03 0.14579E-02 0.21350E-02 0.14824E-02 0.21676E-04 -.11213E-02
 -.14056E-02 -.10884E-02 -.52442E-03 0.22211E-03 0.96913E-03 0.11082E-02 0.19677E-03 -.12229E-02 -.18910E-02 -.11633E-02
 0.11690E-02 0.82661E-03 -.18938E-03 -.66372E-03 -.10229E-03 0.69644E-03 0.69140E-03 -.13886E-03 -.89884E-03 -.95280E-03
 -.55478E-03 -.23252E-03 0.14630E-04 0.51703E-03 0.11316E-02 0.11791E-02 0.38019E-03 -.52463E-03 -.51616E-03 0.41864E-03
 0.71978E-03 0.34548E-03 -.97701E-04 -.50927E-03 -.82959E-03 -.98561E-03 -.83009E-03 -.27201E-03 0.49201E-03 0.98656E-03
 0.83572E-03 0.16076E-03 -.47032E-03 -.54461E-03 -.44397E-04 0.61860E-03 0.10449E-02 0.11549E-02 0.10932E-02 0.95869E-03
 -.50843E-04 0.78052E-03 0.99111E-03 0.15850E-03 -.88748E-03 -.10030E-02 0.98893E-05 0.12771E-02 0.18458E-02 0.15157E-02
 0.68705E-03 -.24246E-03 -.10324E-02 -.13476E-02 -.83756E-03 0.32598E-03 0.12768E-02 0.12063E-02 0.30141E-03 -.36720E-03
 0.79874E-02 0.88946E-02 0.73962E-02 0.41289E-02 0.10997E-02 -.26034E-03 -.12218E-03 0.60662E-03 0.15231E-02 0.26460E-02
 0.34811E-02 0.30190E-02 0.10065E-02 -.12583E-02 -.19902E-02 -.73926E-03 0.13024E-02 0.28973E-02 0.41544E-02 0.59040E-02
 0.77634E-02 0.70365E-02 0.50677E-02 0.26883E-02 0.81871E-03 -.13363E-03 -.15307E-03 0.83180E-03 0.28518E-02 0.52812E-02
 0.67272E-02 0.60128E-02 0.33781E-02 0.49141E-03 -.90004E-03 -.29347E-03 0.15640E-02 0.37006E-02 0.56342E-02 0.71367E-02