unknown system                          
   1.00000000000000     
     2.573869    0.000000    0.000000
     1.286934    2.229036    0.000000
     0.000000    0.000000   30.304665
   Cu   H 
     4     1
Direct
  0.000000  0.000000  0.395979
  0.333333  0.333333  0.465326
  0.666667  0.666667  0.534674
  0.000000  0.000000  0.604021
  0.644235  0.711529  0.637020
 
   20   20  240
 -.76613800578E-02 -.71308415493E-02 -.55263135940E-02 -.32817863016E-02 -.10289229946E-02
 0.62519836638E-03 0.12652908574E-02 0.76188931239E-03 -.63333615682E-03 -.22433230147E-02
 -.31698327415E-02 -.27941684212E-02 -.12540762323E-02 0.55412248869E-03 0.15346626354E-02
 0.10778547326E-02 -.66762312008E-03 -.30504948527E-02 -.53491457194E-02 -.70091278839E-02
 -.72206321313E-02 -.60689431605E-02 -.36815545925E-02 -.94941824727E-03 0.89230229582E-03
 0.99689575083E-03 -.62714279846E-03 -.31590411840E-02 -.53749957699E-02 -.61921791364E-02
 -.51821792598E-02 -.28449414442E-02 -.39107015497E-03 0.96318716439E-03 0.72398486172E-03
 -.71999051590E-03 -.26022615539E-02 -.43956179329E-02 -.59297655255E-02 -.70232659232E-02
 -.57490655490E-02 -.41168064012E-02 -.16392201217E-02 0.46371299365E-03 0.80442430063E-03
 -.13633461162E-02 -.56078943841E-02 -.10388882436E-01 -.13742073592E-01 -.14263568729E-01
 -.11858586475E-01 -.77698258504E-02 -.38197999761E-02 -.13711463984E-02 -.73892464606E-03
 -.13988119166E-02 -.26458525328E-02 -.40374997053E-02 -.53077417223E-02 -.60585601401E-02
 -.35866361154E-02 -.22311551369E-02 -.79326527674E-03 -.34919743587E-03 -.21779059216E-02
 -.69933565532E-02 -.14132534331E-01 -.21432600392E-01 -.26137847778E-01 -.26355908681E-01
 -.22081621725E-01 -.15110355086E-01 -.79892252375E-02 -.27702707605E-02 -.28974392151E-03
 -.19404782535E-03 -.14601339330E-02 -.30010578539E-02 -.40545837314E-02 -.42655482464E-02
 -.12076738462E-02 -.78581110867E-03 -.11027798997E-02 -.31930836948E-02 -.83350060981E-02
 -.16950886675E-01 -.27549275156E-01 -.36840870078E-01 -.41259572117E-01 -.38910223362E-01
 -.30601055648E-01 -.19354103289E-01 -.88481458834E-02 -.17749714824E-02 0.10854459741E-02
 0.76557065145E-03 -.81943486737E-03 -.20479401835E-02 -.23021680832E-02 -.18473464020E-02
 0.89869268669E-03 0.34075857428E-03 -.22154481057E-02 -.81068147720E-02 -.18140744354E-01
 -.31318098027E-01 -.44362648864E-01 -.52847831661E-01 -.53427160034E-01 -.45697550626E-01
 -.32442009803E-01 -.18161460413E-01 -.68975944046E-02 -.60966902446E-03 0.11637154022E-02
 0.42855534082E-03 -.67551188977E-03 -.95775889218E-03 -.38592662452E-03 0.44523350948E-03
 0.20165602320E-02 0.62758685219E-03 -.46849805396E-02 -.15122091581E-01 -.29952985067E-01
 -.45948263095E-01 -.58242370179E-01 -.62480231599E-01 -.57072671905E-01 -.44093783874E-01
 -.28176852206E-01 -.14130544719E-01 -.48169404461E-02 -.47829808860E-03 0.44752208331E-03
 -.65226660055E-04 -.60659708619E-03 -.53987606640E-03 0.22404656968E-03 0.13654602872E-02
 0.14329250941E-02 -.77748218797E-03 -.85996261596E-02 -.22207901752E-01 -.39026315426E-01
 -.54299608179E-01 -.62960339798E-01 -.61987437606E-01 -.51948368729E-01 -.36692323518E-01
 -.21295347745E-01 -.95910360340E-02 -.28699632405E-02 -.30384793059E-03 -.28086793169E-03
 -.13928001706E-02 -.25741942670E-02 -.29126547532E-02 -.18497349342E-02 0.19325899442E-03
 -.68310584341E-03 -.34514878837E-02 -.12233037677E-01 -.26017632279E-01 -.41297955611E-01
 -.53230860568E-01 -.57650074202E-01 -.53017166406E-01 -.41192681500E-01 -.26459601802E-01
 -.13362815482E-01 -.47553039646E-02 -.11716250510E-02 -.15046025213E-02 -.40445269406E-02
 -.70681132154E-02 -.90018673806E-02 -.87006826098E-02 -.60567810849E-02 -.24890195207E-02
 -.29728075462E-02 -.56341586316E-02 -.13595651066E-01 -.25171564071E-01 -.36879828013E-01
 -.44621439952E-01 -.45418700879E-01 -.38849054280E-01 -.27311709488E-01 -.14920883864E-01
 -.56658469478E-02 -.18489879326E-02 -.34837171483E-02 -.86824949315E-02 -.14623933890E-01
 -.18637496917E-01 -.19089624858E-01 -.15878709674E-01 -.10433554272E-01 -.52305838526E-02
 -.39077012269E-02 -.60309043535E-02 -.12427333041E-01 -.20944024996E-01 -.28429482463E-01
 -.31872957443E-01 -.29703986173E-01 -.22570136274E-01 -.13179613677E-01 -.52772598232E-02
 -.21570514472E-02 -.52549323906E-02 -.13414664243E-01 -.23285850800E-01 -.30816932743E-01
 -.33115305518E-01 -.29634206233E-01 -.22098695423E-01 -.13460364438E-01 -.66812686636E-02
 -.30132687418E-02 -.47375495647E-02 -.95750725636E-02 -.14911555217E-01 -.18234020998E-01
 -.18037402847E-01 -.14329379303E-01 -.86146192742E-02 -.34740254134E-02 -.18172413345E-02
 -.57909193573E-02 -.15567009222E-01 -.28703417658E-01 -.40806282111E-01 -.47452824627E-01
 -.46313343507E-01 -.38148367540E-01 -.26174624494E-01 -.14424904501E-01 -.61665731318E-02
 -.97535375731E-03 -.24548531063E-02 -.56829212635E-02 -.81729709878E-02 -.85507218768E-02
 -.67600839978E-02 -.37608333887E-02 -.11402033255E-02 -.84431358786E-03 -.48066557000E-02
 -.14150041726E-01 -.28124494159E-01 -.43573222824E-01 -.55719640749E-01 -.60206775257E-01
 -.55274860146E-01 -.42698708893E-01 -.26901087385E-01 -.12841749304E-01 -.39297923200E-02
 0.10592943021E-02 0.91239085762E-05 -.17417779178E-02 -.26102641056E-02 -.21959815678E-02
 -.92535143502E-03 0.30375490307E-03 0.22370686057E-03 -.27621353564E-02 -.10195415683E-01
 -.22651442945E-01 -.38681439335E-01 -.54471108973E-01 -.64928485734E-01 -.65993287872E-01
 -.56882678581E-01 -.40731897068E-01 -.23061699719E-01 -.90190748307E-02 -.11511535018E-02
 0.20386019789E-02 0.14525940112E-02 0.45909741982E-03 -.18330279684E-03 -.18981185008E-03
 0.35001650478E-03 0.73799679056E-03 -.50235555572E-03 -.52876164203E-02 -.15035302654E-01
 -.29474469462E-01 -.45899139382E-01 -.59601355204E-01 -.65709324428E-01 -.61658588687E-01
 -.48754076974E-01 -.31610851550E-01 -.15709016479E-01 -.47150691072E-02 0.68784166371E-03
 0.13625817919E-02 0.85084603469E-03 0.12576297706E-04 -.58828151703E-03 -.44373937325E-03
 0.42109496181E-03 0.91429007271E-03 -.10211348659E-02 -.74326605647E-02 -.18943164795E-01
 -.33741242181E-01 -.47756852844E-01 -.56233177498E-01 -.56026815984E-01 -.47300458348E-01
 -.33446588672E-01 -.19207986569E-01 -.82569424301E-02 -.18401480546E-02 0.85787568582E-03
 -.75627491708E-03 -.14376563341E-02 -.19086355414E-02 -.17460742402E-02 -.72728672370E-03
 0.67131721522E-03 0.97909240571E-03 -.18277015199E-02 -.91183582689E-02 -.20307620951E-01
 -.32469894141E-01 -.41428166886E-01 -.43846288378E-01 -.39017574450E-01 -.29150937834E-01
 -.18003390534E-01 -.88634596885E-02 -.32201334569E-02 -.76129286589E-03 -.30633479673E-03
 -.33897162377E-02 -.39729752577E-02 -.36923116659E-02 -.26617427171E-02 -.11761361367E-02
 0.13790438129E-03 0.14750687089E-03 -.24831673298E-02 -.83724672162E-02 -.16501915704E-01
 -.24230563033E-01 -.28538793301E-01 -.27723916204E-01 -.22320364862E-01 -.14644610415E-01
 -.74343930415E-02 -.25756688528E-02 -.58055320483E-03 -.81792640526E-03 -.21198082586E-02
 -.56242377455E-02 -.58201997525E-02 -.50063161502E-02 -.37007254828E-02 -.22525390856E-02
 -.94290023981E-03 -.34632819296E-03 -.13186319057E-02 -.43651852036E-02 -.89135539770E-02
 -.13276228037E-01 -.15506859588E-01 -.14538383218E-01 -.10773287598E-01 -.58016462197E-02
 -.15561009987E-02 0.56565208665E-03 0.23524840219E-03 -.17841745664E-02 -.41323751911E-02
 -.70800638335E-02 -.69268442040E-02 -.58703093584E-02 -.43412395308E-02 -.25779179729E-02
 -.78340414899E-03 0.58681250601E-03 0.84688994612E-03 -.45405207922E-03 -.29943105441E-02
 -.56156543678E-02 -.69166630394E-02 -.61213109363E-02 -.35955298538E-02 -.65267489237E-03
 0.12003233119E-02 0.10826972673E-02 -.85055880436E-03 -.35988214427E-02 -.59399582424E-02
 0.21685591389E-03 0.41373286149E-03 0.40812749944E-03 0.20554504380E-03 0.58251431483E-05
 -.87318861404E-05 0.15735278315E-03 0.34840289693E-03 0.41765539406E-03 0.32838237455E-03
 0.13548607044E-03 -.69360558946E-04 -.18415209951E-03 -.13026669608E-03 0.75800699918E-04
 0.28939634106E-03 0.33723323884E-03 0.19030093716E-03 0.16650536622E-04 0.19433867578E-04
 0.20412526828E-03 0.30994899760E-03 0.68066711754E-03 0.10432073290E-02 0.96827231275E-03
 0.27294911662E-03 -.76187135289E-03 -.15533657091E-02 -.16191048149E-02 -.90627102440E-03
 0.17496881524E-03 0.10136415353E-02 0.11773347532E-02 0.67307019106E-03 -.79911138698E-04
 -.56020849041E-03 -.52172306295E-03 -.14079282505E-03 0.19505101409E-03 0.26562979167E-03
 -.11080019158E-03 0.58262516745E-04 0.65706075253E-03 0.10853587790E-02 0.78907235542E-03
 -.22576332825E-03 -.13960299587E-02 -.20485119527E-02 -.18578047210E-02 -.99722926212E-03
 0.15949117010E-04 0.62438509050E-03 0.54729617421E-03 -.30435260989E-04 -.56442155979E-03
 -.56875307604E-03 -.42447996179E-04 0.52048095586E-03 0.61275726978E-03 0.23283678024E-03
 -.28692428850E-03 -.23153272809E-03 -.15221498018E-05 0.14316180162E-03 0.65420597302E-04
 -.20381033767E-03 -.59034768881E-03 -.10555643664E-02 -.15318271257E-02 -.18563962067E-02
 -.18560074512E-02 -.15063502058E-02 -.95925728512E-03 -.39425832669E-03 0.11404105351E-03
 0.54958805376E-03 0.82614063427E-03 0.79955013155E-03 0.44738876807E-03 -.17282751060E-04
 0.61883270632E-04 -.35133305019E-03 -.72168826179E-03 -.73442664780E-03 -.38172308788E-03
 -.49738874161E-04 -.24656485659E-03 -.11716368457E-02 -.24789363023E-02 -.34486224975E-02
 -.34629685537E-02 -.24380448999E-02 -.88777424965E-03 0.42681267269E-03 0.99836870467E-03
 0.85420995475E-03 0.42935405099E-03 0.16568543134E-03 0.17565664956E-03 0.23270212091E-03
 0.62750857646E-03 -.12244022820E-03 -.81920222880E-03 -.11384422133E-02 -.12108185279E-02
 -.14152726054E-02 -.19809823308E-02 -.27724029781E-02 -.33781274915E-02 -.33739143296E-02
 -.25906672677E-02 -.12702994713E-02 -.11076825821E-05 0.61775714866E-03 0.41413157533E-03
 -.18787494324E-03 -.49990853165E-03 -.16858364225E-03 0.51426659505E-03 0.90656594915E-03
 0.87811617249E-03 0.34977189569E-03 -.47528207135E-03 -.15561944232E-02 -.27403207217E-02
 -.36732045509E-02 -.39724946886E-02 -.35336394906E-02 -.26286850007E-02 -.16802182585E-02
 -.96225338901E-03 -.52608703541E-03 -.33611984318E-03 -.36165305367E-03 -.50864812363E-03
 -.56082474933E-03 -.30983336151E-03 0.22846121283E-03 0.78183551798E-03 0.10399029440E-02
 0.73804970350E-03 0.65579277184E-03 -.24462884600E-03 -.18502625352E-02 -.34948117578E-02
 -.43686389701E-02 -.40908292174E-02 -.29795549842E-02 -.17877825885E-02 -.11260063867E-02
 -.10552962534E-02 -.11613440433E-02 -.98938564981E-03 -.43598429177E-03 0.21350345357E-03
 0.57841398854E-03 0.52341658431E-03 0.26432316894E-03 0.16673715507E-03 0.40223386633E-03
 0.36843045125E-03 0.44236978697E-03 -.21484333404E-03 -.13778578935E-02 -.25301470801E-02
 -.32219818638E-02 -.33035981896E-02 -.29379948370E-02 -.24353621810E-02 -.20120342774E-02
 -.16254465449E-02 -.10375070764E-02 -.10454888414E-03 0.95413645453E-03 0.16190630838E-02
 0.14888156441E-02 0.68525560400E-03 -.17886218966E-03 -.49154710512E-03 -.15182792654E-03
 -.20302912811E-03 -.22803720302E-03 -.30184907380E-03 -.59295925752E-03 -.12696091703E-02
 -.22506828454E-02 -.31131869348E-02 -.33546057888E-02 -.27935844415E-02 -.16971255609E-02
 -.51718530365E-03 0.45166684279E-03 0.11455585671E-02 0.15584274809E-02 0.16264313470E-02
 0.13239515296E-02 0.79446184142E-03 0.29121579714E-03 -.20412366386E-04 -.15425565745E-03
 -.74848721231E-03 -.91375345980E-03 -.68702602698E-03 -.62979511783E-03 -.11344390334E-02
 -.20056389311E-02 -.25742651660E-02 -.22737471555E-02 -.11493466026E-02 0.17080116080E-03
 0.99617782649E-03 0.10977583355E-02 0.80075154782E-03 0.63967540023E-03 0.91639423825E-03
 0.14960102098E-02 0.19344845382E-02 0.18118790678E-02 0.10516823660E-02 0.12736966116E-04
 -.70202508335E-03 -.11470220506E-02 -.12598732638E-02 -.12828543432E-02 -.12962877158E-02
 -.11869658278E-02 -.80366186301E-03 -.14835397012E-03 0.55120101054E-03 0.95790376780E-03
 0.87526315273E-03 0.45368703856E-03 0.15374306201E-03 0.42553306454E-03 0.13226010101E-02
 0.23862543028E-02 0.29440477131E-02 0.26012300328E-02 0.15163499502E-02 0.24194595867E-03
 0.65943004174E-04 -.76901993880E-03 -.13177219294E-02 -.12592844180E-02 -.63835666520E-03
 0.10284665903E-03 0.49147782142E-03 0.42422881458E-03 0.19268343134E-03 0.15098109042E-03
 0.41386961759E-03 0.86402189482E-03 0.13511912249E-02 0.17981333709E-02 0.21437695353E-02
 0.22949493200E-02 0.21936516253E-02 0.18821714395E-02 0.14337175750E-02 0.84119700937E-03
 0.82222448466E-03 -.36884300059E-04 -.55609713610E-03 -.41974413520E-03 0.74834011194E-04
 0.31123972184E-03 -.13664027250E-04 -.55739758778E-03 -.63857292605E-03 0.12606188103E-03
 0.14654669263E-02 0.26693833734E-02 0.31226521797E-02 0.26985408141E-02 0.17742891145E-02
 0.94811622981E-03 0.66577791186E-03 0.94795754484E-03 0.13769207838E-02 0.14065577812E-02
 0.87466960481E-03 0.55949590154E-03 0.28724654518E-03 0.10354996078E-03 -.84628498129E-04
 -.35406490619E-03 -.59857133721E-03 -.53208908621E-03 0.95026614797E-04 0.12294692961E-02
 0.24436904439E-02 0.31643679345E-02 0.30496075769E-02 0.22239634624E-02 0.11877350522E-02
 0.47645275082E-03 0.33128138599E-03 0.60709293078E-03 0.94585598008E-03 0.10536751248E-02
 0.44510304687E-03 0.68874969560E-03 0.46923688970E-03 -.14336244277E-04 -.31068571838E-03
 -.15412207830E-03 0.32167360739E-03 0.78128786085E-03 0.10334257326E-02 0.11538153852E-02
 0.13207127217E-02 0.16044323774E-02 0.19190147863E-02 0.21049962293E-02 0.20131630648E-02
 0.15665875218E-02 0.84634856840E-03 0.13976718441E-03 -.19157986773E-03 -.47650998170E-05
 0.13920274012E-03 0.45042567166E-03 0.25654265119E-03 0.40224658164E-05 0.17711920009E-03
 0.75513825763E-03 0.12270620088E-02 0.11200729472E-02 0.47956356804E-03 -.15453462727E-03
 -.19598379055E-03 0.54475016926E-03 0.17382176159E-02 0.27366157861E-02 0.29361882885E-02
 0.21370308577E-02 0.72086841297E-03 -.53267355076E-03 -.96883762049E-03 -.55090490272E-03
 0.64525589835E-04 0.21627925139E-03 0.23828189467E-03 0.28115531097E-03 0.42181069341E-03
 0.55812582858E-03 0.51955598462E-03 0.26925028384E-03 -.13775022573E-04 -.53195369119E-04
 0.31335528703E-03 0.10000259783E-02 0.17014780988E-02 0.20555307433E-02 0.18478728666E-02
 0.11502270954E-02 0.29872985269E-03 -.30397124203E-03 -.44629682114E-03 -.22788945620E-03
 0.22825573978E-04 0.21301440688E-03 0.35545997866E-03 0.15634927718E-03 -.31049547255E-03
 -.63319559905E-03 -.43535943362E-03 0.27965994671E-03 0.11254211519E-02 0.16293553652E-02
 0.15474281448E-02 0.97989448085E-03 0.27729646774E-03 -.16592786242E-03 -.13564496406E-03
 0.26268417756E-03 0.66749283118E-03 0.73929424252E-03 0.45065682667E-03 0.10395266952E-03
 0.59081158497E-04 0.34811238390E-03 0.34286259950E-03 -.17165868610E-03 -.79621858413E-03
 -.87715702489E-03 -.13767719388E-03 0.10454524777E-02 0.19383630204E-02 0.19914782077E-02
 0.11753383148E-02 -.50665091194E-04 -.10182652987E-02 -.12125587799E-02 -.57751739108E-03
 0.41491614263E-03 0.10700488183E-02 0.10031343274E-02 0.45000278510E-03 0.14964272168E-04
 0.80137485486E-02 0.78783118969E-02 0.62716644311E-02 0.36534461862E-02 0.10576453525E-02
 -.56323260253E-03 -.83199832980E-03 0.53156800892E-04 0.15557742948E-02 0.29515954971E-02
 0.34772897483E-02 0.27064740215E-02 0.97016703970E-03 -.70161363902E-03 -.12691687289E-02
 -.42059389710E-03 0.13615425490E-02 0.33938166318E-02 0.53110906631E-02 0.69663946731E-02
 0.75135900704E-02 0.65382974817E-02 0.48595122641E-02 0.28750052322E-02 0.99775839121E-03
 -.29042664657E-03 -.46966335405E-03 0.75162767370E-03 0.30579455731E-02 0.54255405220E-02
 0.65788527568E-02 0.57950712949E-02 0.34461200133E-02 0.80981586897E-03 -.72369294362E-03
 -.44697442695E-03 0.13981099400E-02 0.39302967625E-02 0.61685152644E-02 0.74387942145E-02
 0.53806856491E-02 0.40108557763E-02 0.26968013746E-02 0.15470760681E-02 0.89815251143E-03
 0.15053593006E-02 0.39919019145E-02 0.80390401446E-02 0.12191452379E-01 0.14587252407E-01
 0.14055989615E-01 0.10768547131E-01 0.60957253547E-02 0.19086972872E-02 -.26423338022E-03
 0.99172333535E-04 0.23020807832E-02 0.48559319063E-02 0.63876371530E-02 0.64142610005E-02
 0.28554774416E-02 0.15326791238E-02 0.59880423828E-03 0.72614705196E-03 0.29759973408E-02
 0.80817616441E-02 0.15379343465E-01 0.22561910227E-01 0.26788917161E-01 0.26357202698E-01
 0.21609341740E-01 0.14526236776E-01 0.75692517219E-02 0.26505581924E-02 0.60763063159E-03
 0.11000158182E-02 0.28765826558E-02 0.44440246626E-02 0.48711062460E-02 0.41519164471E-02
 0.11981479926E-02 -.59695750139E-04 -.26330059697E-03 0.23767164324E-02 0.91794505847E-02
 0.19673569023E-01 0.31095001128E-01 0.39440890935E-01 0.41579158073E-01 0.36954868044E-01
 0.27711395789E-01 0.17297005954E-01 0.86776246189E-02 0.32793557069E-02 0.98830892382E-03
 0.80082249519E-03 0.15460055477E-02 0.23322897947E-02 0.26489815728E-02 0.22649510000E-02
 0.27563859960E-03 -.52258345724E-03 0.11244193574E-02 0.73089912271E-02 0.18536040986E-01
 0.32822225115E-01 0.46071561623E-01 0.53758312559E-01 0.53125640886E-01 0.44618983340E-01
 0.31592953131E-01 0.18435360423E-01 0.83728881195E-02 0.23923656642E-02 -.27154572965E-03
 -.88386568979E-03 -.37518964587E-03 0.62402828308E-03 0.14176305632E-02 0.13162204267E-02
 -.28108458610E-03 0.42136329571E-03 0.48765854037E-02 0.14423468968E-01 0.28504529787E-01
 0.44270681122E-01 0.57193396208E-01 0.62765636438E-01 0.58712594801E-01 0.46403579066E-01
 0.30285385806E-01 0.15493108371E-01 0.52887622222E-02 0.10656529017E-03 -.14847866857E-02
 -.11827625363E-02 -.13621144248E-03 0.88640200703E-03 0.12180100486E-02 0.58913954129E-03
 0.69717709870E-04 0.27453041491E-02 0.98403798088E-02 0.21739240162E-01 0.36976127371E-01
 0.52019337059E-01 0.62134796024E-01 0.63386228462E-01 0.54833454983E-01 0.39382304426E-01
 0.22417492138E-01 0.89993998824E-02 0.15496136947E-02 -.54003909955E-03 0.42815826313E-03
 0.21423455463E-02 0.31710770532E-02 0.29930842776E-02 0.17791645773E-02 0.33277675835E-03
 0.14728123765E-02 0.52494772431E-02 0.13965486648E-01 0.26973590142E-01 0.41517328814E-01
 0.53250059237E-01 0.57948123824E-01 0.53604680342E-01 0.41602181711E-01 0.26147562920E-01
 0.12273631129E-01 0.35921257724E-02 0.10135132412E-02 0.29288438266E-02 0.64790266267E-02
 0.90637094616E-02 0.93310059498E-02 0.73608988671E-02 0.42705738661E-02 0.17027363753E-02
 0.26270067153E-02 0.62359586798E-02 0.15312389889E-01 0.27698771582E-01 0.39287658590E-01
 0.45799324745E-01 0.44869872716E-01 0.37083621322E-01 0.25435844889E-01 0.13846866287E-01
 0.56882322416E-02 0.28094039250E-02 0.50932204233E-02 0.10580386770E-01 0.16284707320E-01
 0.19493347167E-01 0.18884662207E-01 0.14865856344E-01 0.91731906577E-02 0.42432488294E-02
 0.24679062080E-02 0.52585270916E-02 0.13214148732E-01 0.22918940222E-01 0.30198430873E-01
 0.32199121933E-01 0.28591720638E-01 0.21255315352E-01 0.13040860407E-01 0.66740051119E-02
 0.42069753927E-02 0.66496823078E-02 0.13484369058E-01 0.22441127386E-01 0.30125668829E-01
 0.33439728472E-01 0.30977362900E-01 0.23596147925E-01 0.14030415854E-01 0.59052630936E-02
 0.16636932412E-02 0.33543671211E-02 0.87873928306E-02 0.14763084885E-01 0.18458544544E-01
 0.18480968791E-01 0.15140121123E-01 0.10050718373E-01 0.54881500776E-02 0.37891978604E-02
 0.67407743922E-02 0.14828899469E-01 0.26583077170E-01 0.38609398978E-01 0.46704122437E-01
 0.47692263735E-01 0.40988778620E-01 0.28948310902E-01 0.15809832868E-01 0.58472771903E-02
 0.11664060589E-02 0.15856059523E-02 0.42045682023E-02 0.71446618366E-02 0.88851116112E-02
 0.84567027586E-02 0.59022127831E-02 0.26592295734E-02 0.12904699166E-02 0.44360097817E-02
 0.13455638058E-01 0.27433533752E-01 0.43047883565E-01 0.55523744465E-01 0.60500203275E-01
 0.56074042359E-01 0.43860468788E-01 0.28248276982E-01 0.14187717621E-01 0.49388724198E-02
 0.65391271687E-03 0.31058357511E-03 0.12164600291E-02 0.24522530389E-02 0.30277207857E-02
 0.21357532097E-02 0.62596775727E-04 -.12707261591E-02 0.10382282571E-02 0.92645247241E-02
 0.23493476089E-01 0.41004815304E-01 0.56946619367E-01 0.66135894785E-01 0.65353476903E-01
 0.55012033449E-01 0.39050850767E-01 0.22870575599E-01 0.10591322096E-01 0.35189562609E-02
 -.21592259512E-03 -.18448444146E-03 0.26332138619E-03 0.53120628988E-03 0.16981971091E-03
 -.90887065495E-03 -.18643355923E-02 -.75166794376E-03 0.47587068353E-02 0.15980071948E-01
 0.31910103879E-01 0.48900275544E-01 0.61759569868E-01 0.65997606201E-01 0.60093723282E-01
 0.46379052149E-01 0.29819809689E-01 0.15407660456E-01 0.58891705540E-02 0.12331174696E-02
 -.40813652218E-03 0.50790887022E-03 0.83034165246E-03 0.46378374782E-03 -.19704967195E-03
 -.66589541507E-03 -.24280888540E-03 0.23287694489E-02 0.86551647021E-02 0.19577469380E-01
 0.33818651505E-01 0.47663456236E-01 0.56354464403E-01 0.56518472632E-01 0.48020648914E-01
 0.34011580291E-01 0.19224508688E-01 0.76909961314E-02 0.12021184121E-02 -.83863812543E-03
 0.10751682682E-02 0.22432756309E-02 0.22674963581E-02 0.16570325265E-02 0.11211493552E-02
 0.98838592294E-03 0.15652900357E-02 0.38206771190E-02 0.92085848585E-02 0.18341516716E-01
 0.29660338088E-01 0.39557493416E-01 0.44166036771E-01 0.41528503169E-01 0.32604036767E-01
 0.20620720484E-01 0.94369800938E-02 0.19062379085E-02 -.10892419015E-02 -.64800419872E-03
 0.35272247425E-02 0.43074799403E-02 0.40702527451E-02 0.32318778436E-02 0.21786180109E-02
 0.12200779452E-02 0.10265404204E-02 0.27937868590E-02 0.75352004385E-02 0.14920111332E-01
 0.22809405336E-01 0.28163479785E-01 0.28752462781E-01 0.24386482762E-01 0.16869315146E-01
 0.89290818429E-02 0.29465923576E-02 0.10594635228E-03 0.16458468281E-03 0.18218720005E-02
 0.56463356432E-02 0.61781902093E-02 0.56938266865E-02 0.41029888906E-02 0.18410680825E-02
 -.76841276126E-04 -.40623678562E-03 0.16738863574E-02 0.59502754934E-02 0.11026676672E-01
 0.14866998613E-01 0.15830832397E-01 0.13590516144E-01 0.92984690828E-02 0.48673135806E-02
 0.18794463556E-02 0.88857020550E-03 0.14902708814E-02 0.28948634744E-02 0.44296115683E-02
 0.71460788497E-02 0.75714314215E-02 0.65506458089E-02 0.40699727919E-02 0.11312703357E-02
 -.80819168363E-03 -.78728408420E-03 0.11165963523E-02 0.39315118032E-02 0.63209375931E-02
 0.71545667886E-02 0.60029555716E-02 0.34264501892E-02 0.76796222245E-03 -.63272845240E-03
 -.29649005555E-03 0.12216424222E-02 0.30048140468E-02 0.45717535391E-02 0.59639189396E-02
 0.14492152218E-04 0.74685952927E-03 0.83800510862E-03 0.37130098082E-03 0.18717683702E-04
 0.18973268334E-03 0.59928413280E-03 0.73574909259E-03 0.52144917928E-03 0.29615094524E-03
 0.25570498008E-03 0.20461982580E-03 -.48671259563E-04 -.29877663976E-03 -.19760284411E-03
 0.17579134928E-03 0.29711508589E-03 -.13086367653E-03 -.69228853641E-03 -.68435840717E-03
 0.12319912821E-03 0.33750125124E-03 0.55779789932E-03 0.76231871310E-03 0.80811112841E-03
 0.49144649554E-03 -.17225051122E-03 -.75911515879E-03 -.68824270126E-03 0.21724776043E-03
 0.14431858390E-02 0.21535026986E-02 0.18969449997E-02 0.94757583177E-03 -.25353188661E-04
 -.55298512358E-03 -.62505332286E-03 -.47881210719E-03 -.28842080707E-03 -.88761897132E-04
 -.60381702224E-03 -.59192280094E-03 0.62972842557E-04 0.69229010580E-03 0.71336724137E-03
 0.20276908212E-03 -.24629414028E-03 -.11429282317E-03 0.65009570423E-03 0.16896375466E-02
 0.25057022193E-02 0.26725678824E-02 0.20191981865E-02 0.81529260135E-03 -.25722354559E-03
 -.54929728563E-03 -.27090454353E-04 0.63597722664E-03 0.68659627971E-03 0.50485776342E-04
 -.98029387533E-03 -.78282827758E-03 -.16866143443E-03 0.31975672255E-03 0.66459332729E-03
 0.12500250363E-02 0.21589744688E-02 0.29036126565E-02 0.29708163784E-02 0.24319068651E-02
 0.17995026260E-02 0.13710286603E-02 0.98392603697E-03 0.47618709677E-03 0.11269117630E-03
 0.28223771918E-03 0.84718212150E-03 0.11109332685E-02 0.58371715170E-03 -.39041176990E-03
 -.78232060787E-04 -.17500956244E-03 -.18256543956E-03 0.24349769813E-03 0.14498076625E-02
 0.32364323311E-02 0.47172498266E-02 0.49647303249E-02 0.38692203980E-02 0.22686355399E-02
 0.11659784555E-02 0.87260325647E-03 0.95344386677E-03 0.88727444883E-03 0.59894633598E-03
 0.33933267650E-03 0.25053213375E-03 0.22743924313E-03 0.14516282175E-03 0.24608044441E-04
 0.86232847282E-03 0.20795205694E-03 -.58749283248E-04 0.61741166301E-03 0.21263413831E-02
 0.38066500409E-02 0.49207399440E-02 0.50880556705E-02 0.44274337807E-02 0.34064191684E-02
 0.25218450606E-02 0.19834590565E-02 0.16064247512E-02 0.10377929398E-02 0.17128358989E-03
 -.64179109648E-03 -.85976989773E-03 -.29605571564E-03 0.60763917887E-03 0.11156231971E-02
 0.64832859152E-03 0.31173492556E-03 0.52931166809E-03 0.12073215856E-02 0.20493099081E-02
 0.30268252796E-02 0.42451247105E-02 0.54400794638E-02 0.59397061917E-02 0.52989513497E-02
 0.38314234655E-02 0.23150567733E-02 0.12142577730E-02 0.39442575822E-03 -.37150866124E-03
 -.87548069168E-03 -.69696832377E-03 0.12269682735E-03 0.92028295776E-03 0.10676570095E-02
 0.19645715424E-03 0.92054368727E-03 0.16531373847E-02 0.20660895733E-02 0.23906100664E-02
 0.32345444953E-02 0.47477580935E-02 0.61404228126E-02 0.62838265900E-02 0.48348147140E-02
 0.26271967924E-02 0.88861068228E-03 0.17732359888E-03 0.15440578077E-03 0.22968052827E-03
 0.17175493903E-03 0.67561565920E-04 -.28529701424E-04 -.14199382329E-03 -.15109903161E-03
 0.43877171240E-03 0.16429164925E-02 0.25616720197E-02 0.32070249772E-02 0.38302389799E-02
 0.45495804248E-02 0.50984725697E-02 0.49761259424E-02 0.39067778671E-02 0.21902687895E-02
 0.58927834501E-03 -.19108813470E-03 -.59319865109E-05 0.65355082067E-03 0.10530062356E-02
 0.75055908109E-03 -.12034755097E-03 -.98680750526E-03 -.12529201478E-02 -.69311284329E-03
 0.39455117316E-03 0.12365024630E-02 0.24596815616E-02 0.38637400020E-02 0.47795690038E-02
 0.46658115556E-02 0.36695297957E-02 0.24568213719E-02 0.15388621062E-02 0.92381279676E-03
 0.42916286125E-03 0.10264841494E-03 0.13162184915E-03 0.41838241863E-03 0.51341226266E-03
 0.99523113477E-04 -.58799161229E-03 -.98789671367E-03 -.81517396092E-03 -.26612038209E-03
 -.60408116610E-03 -.40422372148E-04 0.15180599680E-02 0.31909380763E-02 0.38298820726E-02
 0.31665061123E-02 0.20555746031E-02 0.15065671903E-02 0.16326890248E-02 0.17048337804E-02
 0.11280935430E-02 0.11000880869E-03 -.68196604894E-03 -.88347254590E-03 -.65959980268E-03
 -.31263301658E-03 0.25915310960E-04 0.25499421861E-03 0.16031088182E-03 -.29244186495E-03
 -.10480934971E-02 -.56068860447E-03 0.56313132747E-03 0.16243681090E-02 0.20867180361E-02
 0.20210738317E-02 0.18970053821E-02 0.19771963379E-02 0.20093781266E-02 0.15442130950E-02
 0.48785993539E-03 -.72602829156E-03 -.14852789288E-02 -.14631793968E-02 -.78338766720E-03
 0.12783904139E-03 0.77410682487E-03 0.79541163645E-03 0.17222158379E-03 -.66654463491E-03
 0.15819459358E-03 0.77263905347E-04 0.84870410834E-04 0.48257680379E-03 0.11993073382E-02
 0.17432084379E-02 0.16703815235E-02 0.10327739949E-02 0.28207864661E-03 -.21874478638E-03
 -.47197446834E-03 -.64107595383E-03 -.73304221969E-03 -.61727030947E-03 -.30159420969E-03
 -.16000788104E-04 0.46944509709E-04 -.30974378742E-04 -.28200388396E-04 0.95208811878E-04
 0.14301842260E-02 0.63351059909E-03 0.19227804842E-04 0.24548574210E-03 0.90269114916E-03
 0.99226940564E-03 0.11565406670E-03 -.10391761636E-02 -.14607344923E-02 -.87916814453E-03
 0.73623007072E-04 0.62688234908E-03 0.54353656819E-03 0.47205553809E-04 -.59239852139E-03
 -.11489304051E-02 -.12755322977E-02 -.65367226074E-03 0.52403879606E-03 0.14558836309E-02
 0.10923068489E-02 0.49516771588E-03 0.14627124349E-03 0.23977217445E-03 0.33341007168E-03
 -.38420930878E-04 -.73235611527E-03 -.11144712544E-02 -.76697732391E-03 0.65635509809E-04
 0.75653407347E-03 0.88499745667E-03 0.46765643407E-03 -.24959521672E-03 -.99857205466E-03
 -.14655546890E-02 -.13097585099E-02 -.45614955718E-03 0.64476037362E-03 0.12718938333E-02
 0.13375272457E-03 0.34383664591E-03 0.22652266466E-03 -.22724209202E-04 -.66505721378E-04
 0.21634891864E-03 0.59459042821E-03 0.71908083132E-03 0.46452671092E-03 0.19667271097E-04
 -.32473709435E-03 -.42468727921E-03 -.33396223517E-03 -.19160191282E-03 -.11878932557E-03
 -.18565726172E-03 -.38044770158E-03 -.57088714583E-03 -.56022289594E-03 -.26864830406E-03
 0.13811991033E-03 0.45796727440E-03 0.63707043864E-04 -.26892085799E-03 0.19110130555E-03
 0.12028786555E-02 0.17641058642E-02 0.12001206752E-02 -.14109784998E-03 -.13025072403E-02
 -.16302613509E-02 -.11590558620E-02 -.28998438326E-03 0.58907645494E-03 0.11217022149E-02
 0.96091166471E-03 0.71654961229E-04 -.97762120045E-03 -.13494598278E-02 -.76326167584E-03
 0.54126113707E-03 0.32597491401E-03 -.17117959266E-03 -.26704718641E-03 0.25195812074E-03
 0.82313430340E-03 0.74828496574E-03 -.13589091694E-04 -.84477116426E-03 -.11727447981E-02
 -.96972106548E-03 -.54051523977E-03 -.64851391784E-04 0.44078040056E-03 0.82421366642E-03
 0.77968470727E-03 0.26258857861E-03 -.27095953948E-03 -.28541269364E-03 0.18765209148E-03
 0.21446127295E-03 0.64521327317E-04 -.24552465561E-04 -.18355928125E-03 -.42754388772E-03
 -.60766514775E-03 -.51975705333E-03 -.10651695881E-03 0.41811786495E-03 0.67288579042E-03
 0.40494238480E-03 -.26332009097E-03 -.87827294212E-03 -.98663927601E-03 -.48222524124E-03
 0.32630436113E-03 0.96843385823E-03 0.11520934728E-02 0.91678854201E-03 0.52228813638E-03
 -.23480181108E-03 0.32677169838E-03 0.51684406742E-03 -.27156866281E-04 -.75648811745E-03
 -.82945715475E-03 -.28500712048E-04 0.10475563805E-02 0.16109643679E-02 0.13395784968E-02
 0.44750368505E-03 -.62958708975E-03 -.14389978283E-02 -.15636826163E-02 -.82602409287E-03
 0.40225702828E-03 0.12837867621E-02 0.11912529496E-02 0.35464042577E-03 -.32860607905E-03
 -.76958836511E-02 -.61199940774E-02 -.43965449864E-02 -.27959076642E-02 -.98260702900E-03
 0.92353830790E-03 0.19699450065E-02 0.13161153066E-02 -.66373389950E-03 -.25537594965E-02
 -.31776409857E-02 -.24900220804E-02 -.12162959452E-02 0.31390127191E-05 0.81388411483E-03
 0.75344565097E-03 -.72927413301E-03 -.35407184046E-02 -.64974378075E-02 -.80714258703E-02
 -.69720009821E-02 -.55714231489E-02 -.34712785550E-02 -.11346124780E-02 0.71040482682E-03