    5    5    1    1
  0.3477306E+02  0.2573869E-09  0.2573869E-09  0.3030466E-08  0.5000000E-15
  1.000000000000000E-004
  CAR 
 unknown system                          
     45     31     28
 
  0.0000000E+00  0.0000000E+00  0.0000000E+00  0.1000000E-01
    1      -11.612323   1.000000
    2      -10.597228   1.000000
    3       -8.988518   1.000000
    4       -7.530157   1.000000
    5       -6.081365   1.000000
    6       -5.564431   1.000000
    7       -5.536425   1.000000
    8       -5.514354   1.000000
    9       -5.319669   1.000000
   10       -5.281872   1.000000
   11       -5.279668   1.000000
   12       -5.226996   1.000000
   13       -5.226332   1.000000
   14       -4.971076   1.000000
   15       -4.970739   1.000000
   16       -4.877686   1.000000
   17       -4.768297   1.000000
   18       -4.728936   1.000000
   19       -4.477490   1.000000
   20       -4.477060   1.000000
   21       -4.259081   1.000000
   22       -4.258057   1.000000
   23       -3.987184   1.000000
   24       -3.986958   1.000000
   25       -2.920649   1.000000
   26        1.605471   0.000000
   27        1.917919   0.000000
   28        2.350579   0.000000
 
  0.1000000E+00  0.6938894E-17  0.0000000E+00  0.4000000E-01
    1      -11.308150   1.000000
    2      -10.299460   1.000000
    3       -8.725553   1.000000
    4       -7.309348   1.000000
    5       -6.108469   1.000000
    6       -5.665322   1.000000
    7       -5.616216   1.000000
    8       -5.435624   1.000000
    9       -5.369056   1.000000
   10       -5.332021   1.000000
   11       -5.288074   1.000000
   12       -5.201594   1.000000
   13       -5.128134   1.000000
   14       -5.112480   1.000000
   15       -4.994435   1.000000
   16       -4.887166   1.000000
   17       -4.761107   1.000000
   18       -4.696956   1.000000
   19       -4.486908   1.000000
   20       -4.452883   1.000000
   21       -4.288773   1.000000
   22       -4.254684   1.000000
   23       -3.982687   1.000000
   24       -3.767764   1.000000
   25       -2.234919   0.111632
   26        1.850385   0.000000
   27        2.221824   0.000000
   28        2.653320   0.000000
 
  0.2000000E+00 -0.1387779E-16  0.0000000E+00  0.4000000E-01
    1      -10.437549   1.000000
    2       -9.456897   1.000000
    3       -8.041536   1.000000
    4       -6.792828   1.000000
    5       -6.237586   1.000000
    6       -5.937159   1.000000
    7       -5.737680   1.000000
    8       -5.630838   1.000000
    9       -5.478193   1.000000
   10       -5.258035   1.000000
   11       -5.204853   1.000000
   12       -5.172336   1.000000
   13       -5.079804   1.000000
   14       -5.003393   1.000000
   15       -4.871548   1.000000
   16       -4.819259   1.000000
   17       -4.784420   1.000000
   18       -4.603345   1.000000
   19       -4.562653   1.000000
   20       -4.433481   1.000000
   21       -4.255437   1.000000
   22       -4.078314   1.000000
   23       -3.977807   1.000000
   24       -2.912943   1.000000
   25       -0.911238   0.000000
   26        2.577450   0.000000
   27        3.131864   0.000000
   28        3.560925   0.000000
 
  0.3000000E+00 -0.2775558E-16  0.0000000E+00  0.4000000E-01
    1       -9.186690   1.000000
    2       -8.296659   1.000000
    3       -7.360962   1.000000
    4       -6.560563   1.000000
    5       -6.339200   1.000000
    6       -6.159058   1.000000
    7       -5.863406   1.000000
    8       -5.641891   1.000000
    9       -5.517494   1.000000
   10       -5.278803   1.000000
   11       -5.171966   1.000000
   12       -5.052301   1.000000
   13       -4.880076   1.000000
   14       -4.825088   1.000000
   15       -4.734127   1.000000
   16       -4.601573   1.000000
   17       -4.506250   1.000000
   18       -4.367028   1.000000
   19       -4.332101   1.000000
   20       -4.244239   1.000000
   21       -4.127294   1.000000
   22       -3.964760   1.000000
   23       -3.601408   1.000000
   24       -1.755316   0.000000
   25        0.751306   0.000000
   26        3.746226   0.000000
   27        4.614762   0.000000
   28        5.029027   0.000000
 
  0.4000000E+00 -0.2775558E-16  0.0000000E+00  0.4000000E-01
    1       -8.194539   1.000000
    2       -7.379630   1.000000
    3       -7.021518   1.000000
    4       -6.577233   1.000000
    5       -6.508445   1.000000
    6       -6.296757   1.000000
    7       -5.999964   1.000000
    8       -5.434451   1.000000
    9       -5.310979   1.000000
   10       -5.256507   1.000000
   11       -5.204719   1.000000
   12       -4.917667   1.000000
   13       -4.830485   1.000000
   14       -4.479259   1.000000
   15       -4.350068   1.000000
   16       -4.311548   1.000000
   17       -4.103466   1.000000
   18       -4.099317   1.000000
   19       -4.047478   1.000000
   20       -3.965952   1.000000
   21       -3.810701   1.000000
   22       -3.522113   1.000000
   23       -2.530473   0.998471
   24       -0.362145   0.000000
   25        2.146738   0.000000
   26        2.447591   0.000000
   27        3.265277   0.000000
   28        4.548853   0.000000
 
  0.5000000E+00 -0.2775558E-16  0.0000000E+00  0.2000000E-01
    1       -7.964989   1.000000
    2       -7.112862   1.000000
    3       -6.903999   1.000000
    4       -6.596839   1.000000
    5       -6.547284   1.000000
    6       -6.344173   1.000000
    7       -6.034215   1.000000
    8       -5.406726   1.000000
    9       -5.299684   1.000000
   10       -5.229941   1.000000
   11       -5.005020   1.000000
   12       -4.932545   1.000000
   13       -4.597723   1.000000
   14       -4.440756   1.000000
   15       -4.254456   1.000000
   16       -4.137203   1.000000
   17       -4.043927   1.000000
   18       -3.949208   1.000000
   19       -3.890980   1.000000
   20       -3.693721   1.000000
   21       -3.665578   1.000000
   22       -2.187756   0.029723
   23       -1.360967   0.000000
   24       -0.818019   0.000000
   25        1.172862   0.000000
   26        1.669309   0.000000
   27        2.765694   0.000000
   28        3.936730   0.000000
 
  0.0000000E+00  0.1000000E+00  0.0000000E+00  0.2000000E-01
    1      -11.310560   1.000000
    2      -10.299478   1.000000
    3       -8.723368   1.000000
    4       -7.308155   1.000000
    5       -6.086061   1.000000
    6       -5.671763   1.000000
    7       -5.604680   1.000000
    8       -5.430470   1.000000
    9       -5.371590   1.000000
   10       -5.330310   1.000000
   11       -5.287939   1.000000
   12       -5.206381   1.000000
   13       -5.127576   1.000000
   14       -5.115686   1.000000
   15       -4.994283   1.000000
   16       -4.889189   1.000000
   17       -4.778822   1.000000
   18       -4.700420   1.000000
   19       -4.488995   1.000000
   20       -4.452548   1.000000
   21       -4.288482   1.000000
   22       -4.255581   1.000000
   23       -3.982883   1.000000
   24       -3.770699   1.000000
   25       -2.236437   0.115766
   26        1.850648   0.000000
   27        2.221685   0.000000
   28        2.653105   0.000000
 
  0.2000000E+00  0.1000000E+00  0.0000000E+00  0.2000000E-01
    1      -10.717469   1.000000
    2       -9.727488   1.000000
    3       -8.249012   1.000000
    4       -6.929036   1.000000
    5       -6.196868   1.000000
    6       -5.838098   1.000000
    7       -5.740721   1.000000
    8       -5.549510   1.000000
    9       -5.463765   1.000000
   10       -5.320958   1.000000
   11       -5.242101   1.000000
   12       -5.161482   1.000000
   13       -5.099334   1.000000
   14       -5.087863   1.000000
   15       -4.923106   1.000000
   16       -4.841379   1.000000
   17       -4.704326   1.000000
   18       -4.600805   1.000000
   19       -4.589741   1.000000
   20       -4.441538   1.000000
   21       -4.342837   1.000000
   22       -4.077341   1.000000
   23       -4.020622   1.000000
   24       -3.153703   1.000000
   25       -1.297540   0.000000
   26        2.337163   0.000000
   27        2.829191   0.000000
   28        3.258885   0.000000
 
  0.3000000E+00  0.1000000E+00  0.0000000E+00  0.4000000E-01
    1       -9.639805   1.000000
    2       -8.704012   1.000000
    3       -7.539324   1.000000
    4       -6.537772   1.000000
    5       -6.230182   1.000000
    6       -6.037704   1.000000
    7       -5.855985   1.000000
    8       -5.740701   1.000000
    9       -5.596863   1.000000
   10       -5.301414   1.000000
   11       -5.257523   1.000000
   12       -5.170648   1.000000
   13       -5.034308   1.000000
   14       -4.927259   1.000000
   15       -4.833364   1.000000
   16       -4.745910   1.000000
   17       -4.576917   1.000000
   18       -4.472881   1.000000
   19       -4.350960   1.000000
   20       -4.293282   1.000000
   21       -4.140349   1.000000
   22       -4.042426   1.000000
   23       -3.713729   1.000000
   24       -2.167885   0.015159
   25        0.148063   0.000000
   26        3.310926   0.000000
   27        4.038003   0.000000
   28        4.473369   0.000000
 
  0.4000000E+00  0.1000000E+00  0.0000000E+00  0.4000000E-01
    1       -8.456327   1.000000
    2       -7.615320   1.000000
    3       -7.054990   1.000000
    4       -6.518187   1.000000
    5       -6.358390   1.000000
    6       -6.156200   1.000000
    7       -5.934186   1.000000
    8       -5.621748   1.000000
    9       -5.530229   1.000000
   10       -5.319951   1.000000
   11       -5.228206   1.000000
   12       -5.082558   1.000000
   13       -4.900432   1.000000
   14       -4.729000   1.000000
   15       -4.627812   1.000000
   16       -4.489227   1.000000
   17       -4.366503   1.000000
   18       -4.237212   1.000000
   19       -4.159330   1.000000
   20       -3.986721   1.000000
   21       -3.935223   1.000000
   22       -3.616520   1.000000
   23       -2.832967   1.000000
   24       -0.772111   0.000000
   25        1.900544   0.000000
   26        3.928763   0.000000
   27        4.392814   0.000000
   28        5.225927   0.000000
 
  0.5000000E+00  0.1000000E+00  0.0000000E+00  0.4000000E-01
    1       -7.923083   1.000000
    2       -7.036635   1.000000
    3       -6.823867   1.000000
    4       -6.505062   1.000000
    5       -6.461724   1.000000
    6       -6.245225   1.000000
    7       -6.023188   1.000000
    8       -5.514567   1.000000
    9       -5.374481   1.000000
   10       -5.250074   1.000000
   11       -5.193251   1.000000
   12       -5.008890   1.000000
   13       -4.779009   1.000000
   14       -4.519272   1.000000
   15       -4.387755   1.000000
   16       -4.244159   1.000000
   17       -4.126150   1.000000
   18       -4.071606   1.000000
   19       -4.019340   1.000000
   20       -3.864307   1.000000
   21       -3.403995   1.000000
   22       -2.322085   0.505913
   23       -1.353281   0.000000
   24        0.076687   0.000000
   25        1.693013   0.000000
   26        1.941307   0.000000
   27        3.051450   0.000000
   28        4.357420   0.000000
 
 -0.4000000E+00  0.1000000E+00  0.0000000E+00  0.4000000E-01
    1       -7.911408   1.000000
    2       -7.034790   1.000000
    3       -6.822053   1.000000
    4       -6.501541   1.000000
    5       -6.459579   1.000000
    6       -6.251883   1.000000
    7       -6.029249   1.000000
    8       -5.528553   1.000000
    9       -5.368553   1.000000
   10       -5.249850   1.000000
   11       -5.210090   1.000000
   12       -5.009971   1.000000
   13       -4.783553   1.000000
   14       -4.509499   1.000000
   15       -4.391847   1.000000
   16       -4.244105   1.000000
   17       -4.126629   1.000000
   18       -4.068413   1.000000
   19       -4.019449   1.000000
   20       -3.862696   1.000000
   21       -3.384974   1.000000
   22       -2.323163   0.511993
   23       -1.362003   0.000000
   24        0.072045   0.000000
   25        1.690843   0.000000
   26        1.940753   0.000000
   27        3.053501   0.000000
   28        4.353909   0.000000
 
 -0.3000000E+00  0.1000000E+00  0.0000000E+00  0.4000000E-01
    1       -8.449472   1.000000
    2       -7.606146   1.000000
    3       -7.045226   1.000000
    4       -6.514742   1.000000
    5       -6.358658   1.000000
    6       -6.163167   1.000000
    7       -5.945054   1.000000
    8       -5.631293   1.000000
    9       -5.538226   1.000000
   10       -5.324029   1.000000
   11       -5.240130   1.000000
   12       -5.080167   1.000000
   13       -4.906571   1.000000
   14       -4.731747   1.000000
   15       -4.602730   1.000000
   16       -4.494202   1.000000
   17       -4.365003   1.000000
   18       -4.226835   1.000000
   19       -4.155469   1.000000
   20       -3.981783   1.000000
   21       -3.929314   1.000000
   22       -3.616988   1.000000
   23       -2.848549   1.000000
   24       -0.792368   0.000000
   25        1.886694   0.000000
   26        3.939244   0.000000
   27        4.393680   0.000000
   28        5.229041   0.000000
 
 -0.2000000E+00  0.1000000E+00  0.0000000E+00  0.4000000E-01
    1       -9.647440   1.000000
    2       -8.698722   1.000000
    3       -7.520438   1.000000
    4       -6.527906   1.000000
    5       -6.218457   1.000000
    6       -6.043431   1.000000
    7       -5.866224   1.000000
    8       -5.742707   1.000000
    9       -5.597468   1.000000
   10       -5.303795   1.000000
   11       -5.259224   1.000000
   12       -5.181531   1.000000
   13       -5.029881   1.000000
   14       -4.908046   1.000000
   15       -4.828845   1.000000
   16       -4.747896   1.000000
   17       -4.571045   1.000000
   18       -4.480945   1.000000
   19       -4.359627   1.000000
   20       -4.292903   1.000000
   21       -4.139458   1.000000
   22       -4.041866   1.000000
   23       -3.728308   1.000000
   24       -2.188326   0.030272
   25        0.137985   0.000000
   26        3.310317   0.000000
   27        4.037546   0.000000
   28        4.480924   0.000000
 
 -0.1000000E+00  0.1000000E+00  0.0000000E+00  0.4000000E-01
    1      -10.724196   1.000000
    2       -9.726585   1.000000
    3       -8.240417   1.000000
    4       -6.924497   1.000000
    5       -6.156332   1.000000
    6       -5.840809   1.000000
    7       -5.745856   1.000000
    8       -5.550470   1.000000
    9       -5.462556   1.000000
   10       -5.314484   1.000000
   11       -5.222713   1.000000
   12       -5.163884   1.000000
   13       -5.118748   1.000000
   14       -5.089536   1.000000
   15       -4.922646   1.000000
   16       -4.840688   1.000000
   17       -4.707198   1.000000
   18       -4.627269   1.000000
   19       -4.591904   1.000000
   20       -4.441061   1.000000
   21       -4.344104   1.000000
   22       -4.082123   1.000000
   23       -4.021806   1.000000
   24       -3.167285   1.000000
   25       -1.302832   0.000000
   26        2.337633   0.000000
   27        2.828839   0.000000
   28        3.258935   0.000000
 
  0.0000000E+00  0.2000000E+00  0.0000000E+00  0.2000000E-01
    1      -10.449983   1.000000
    2       -9.456205   1.000000
    3       -8.028786   1.000000
    4       -6.784245   1.000000
    5       -6.183284   1.000000
    6       -5.929224   1.000000
    7       -5.731419   1.000000
    8       -5.631362   1.000000
    9       -5.476137   1.000000
   10       -5.259096   1.000000
   11       -5.205238   1.000000
   12       -5.170260   1.000000
   13       -5.095352   1.000000
   14       -5.012924   1.000000
   15       -4.871374   1.000000
   16       -4.823580   1.000000
   17       -4.793185   1.000000
   18       -4.607132   1.000000
   19       -4.571242   1.000000
   20       -4.435860   1.000000
   21       -4.256265   1.000000
   22       -4.092222   1.000000
   23       -3.978015   1.000000
   24       -2.935716   1.000000
   25       -0.920657   0.000000
   26        2.577360   0.000000
   27        3.131373   0.000000
   28        3.560713   0.000000
 
  0.4000000E+00  0.2000000E+00  0.0000000E+00  0.2000000E-01
    1       -8.568141   1.000000
    2       -7.693451   1.000000
    3       -7.023572   1.000000
    4       -6.466708   1.000000
    5       -6.138814   1.000000
    6       -6.043471   1.000000
    7       -5.900247   1.000000
    8       -5.833258   1.000000
    9       -5.570687   1.000000
   10       -5.411896   1.000000
   11       -5.347102   1.000000
   12       -5.292215   1.000000
   13       -4.976448   1.000000
   14       -4.905286   1.000000
   15       -4.742533   1.000000
   16       -4.626918   1.000000
   17       -4.407516   1.000000
   18       -4.263915   1.000000
   19       -4.198260   1.000000
   20       -3.979452   1.000000
   21       -3.923844   1.000000
   22       -3.567680   1.000000
   23       -2.838044   1.000000
   24       -0.899140   0.000000
   25        1.699632   0.000000
   26        4.532041   0.000000
   27        5.342001   0.000000
   28        5.649577   0.000000
 
  0.5000000E+00  0.2000000E+00  0.0000000E+00  0.4000000E-01
    1       -7.846300   1.000000
    2       -6.880591   1.000000
    3       -6.652334   1.000000
    4       -6.393532   1.000000
    5       -6.253449   1.000000
    6       -6.061391   1.000000
    7       -5.956506   1.000000
    8       -5.745505   1.000000
    9       -5.575385   1.000000
   10       -5.504545   1.000000
   11       -5.331948   1.000000
   12       -5.057440   1.000000
   13       -4.958254   1.000000
   14       -4.808786   1.000000
   15       -4.626609   1.000000
   16       -4.524092   1.000000
   17       -4.371948   1.000000
   18       -4.191613   1.000000
   19       -4.033168   1.000000
   20       -3.884028   1.000000
   21       -3.204351   1.000000
   22       -2.351804   0.668258
   23       -1.236089   0.000000
   24        0.783041   0.000000
   25        2.995070   0.000000
   26        3.164379   0.000000
   27        3.929885   0.000000
   28        5.103260   0.000000
 
 -0.4000000E+00  0.2000000E+00  0.0000000E+00  0.4000000E-01
    1       -7.669087   1.000000
    2       -6.668469   1.000000
    3       -6.549749   1.000000
    4       -6.322431   1.000000
    5       -6.199602   1.000000
    6       -6.143492   1.000000
    7       -5.963576   1.000000
    8       -5.809647   1.000000
    9       -5.544070   1.000000
   10       -5.449115   1.000000
   11       -5.255477   1.000000
   12       -5.096012   1.000000
   13       -4.887949   1.000000
   14       -4.692701   1.000000
   15       -4.558870   1.000000
   16       -4.439280   1.000000
   17       -4.277158   1.000000
   18       -4.106786   1.000000
   19       -4.058999   1.000000
   20       -3.954177   1.000000
   21       -2.394982   0.852158
   22       -0.727566   0.000000
   23       -0.178572   0.000000
   24        0.583233   0.000000
   25        2.068341   0.000000
   26        2.142840   0.000000
   27        3.412338   0.000000
   28        4.540898   0.000000
 
 -0.3000000E+00  0.2000000E+00  0.0000000E+00  0.4000000E-01
    1       -7.819955   1.000000
    2       -6.871353   1.000000
    3       -6.652522   1.000000
    4       -6.393394   1.000000
    5       -6.253518   1.000000
    6       -6.074570   1.000000
    7       -5.960000   1.000000
    8       -5.756732   1.000000
    9       -5.579213   1.000000
   10       -5.512262   1.000000
   11       -5.340475   1.000000
   12       -5.056991   1.000000
   13       -4.960141   1.000000
   14       -4.809743   1.000000
   15       -4.624022   1.000000
   16       -4.529928   1.000000
   17       -4.369974   1.000000
   18       -4.193639   1.000000
   19       -4.027956   1.000000
   20       -3.883033   1.000000
   21       -3.165305   1.000000
   22       -2.357426   0.696589
   23       -1.263140   0.000000
   24        0.746485   0.000000
   25        2.998758   0.000000
   26        3.157684   0.000000
   27        3.917603   0.000000
   28        5.071337   0.000000
 
 -0.2000000E+00  0.2000000E+00  0.0000000E+00  0.4000000E-01
    1       -8.581654   1.000000
    2       -7.672658   1.000000
    3       -6.989309   1.000000
    4       -6.463585   1.000000
    5       -6.135855   1.000000
    6       -6.044810   1.000000
    7       -5.900888   1.000000
    8       -5.837217   1.000000
    9       -5.570831   1.000000
   10       -5.411779   1.000000
   11       -5.372174   1.000000
   12       -5.294259   1.000000
   13       -4.974102   1.000000
   14       -4.897953   1.000000
   15       -4.766502   1.000000
   16       -4.612590   1.000000
   17       -4.407922   1.000000
   18       -4.262874   1.000000
   19       -4.181123   1.000000
   20       -3.977329   1.000000
   21       -3.913023   1.000000
   22       -3.571691   1.000000
   23       -2.866962   1.000000
   24       -0.945592   0.000000
   25        1.663956   0.000000
   26        4.507516   0.000000
   27        5.354615   0.000000
   28        5.630359   0.000000
 
 -0.1000000E+00  0.2000000E+00  0.0000000E+00  0.4000000E-01
    1       -9.662164   1.000000
    2       -8.697602   1.000000
    3       -7.506450   1.000000
    4       -6.508655   1.000000
    5       -6.208729   1.000000
    6       -6.031210   1.000000
    7       -5.853158   1.000000
    8       -5.741494   1.000000
    9       -5.596371   1.000000
   10       -5.299156   1.000000
   11       -5.255913   1.000000
   12       -5.186171   1.000000
   13       -5.040856   1.000000
   14       -4.921656   1.000000
   15       -4.833844   1.000000
   16       -4.747931   1.000000
   17       -4.570848   1.000000
   18       -4.482327   1.000000
   19       -4.365443   1.000000
   20       -4.293302   1.000000
   21       -4.139444   1.000000
   22       -4.042293   1.000000
   23       -3.739138   1.000000
   24       -2.208311   0.055446
   25        0.127016   0.000000
   26        3.307341   0.000000
   27        4.037360   0.000000
   28        4.482257   0.000000
 
  0.0000000E+00  0.3000000E+00  0.0000000E+00  0.2000000E-01
    1       -9.229523   1.000000
    2       -8.288642   1.000000
    3       -7.321558   1.000000
    4       -6.516587   1.000000
    5       -6.331240   1.000000
    6       -6.126529   1.000000
    7       -5.842147   1.000000
    8       -5.638484   1.000000
    9       -5.510380   1.000000
   10       -5.277050   1.000000
   11       -5.185697   1.000000
   12       -5.055420   1.000000
   13       -4.894782   1.000000
   14       -4.826100   1.000000
   15       -4.730733   1.000000
   16       -4.618356   1.000000
   17       -4.505896   1.000000
   18       -4.371237   1.000000
   19       -4.334819   1.000000
   20       -4.244698   1.000000
   21       -4.127194   1.000000
   22       -3.964876   1.000000
   23       -3.638255   1.000000
   24       -1.811827   0.000000
   25        0.712681   0.000000
   26        3.722055   0.000000
   27        4.617842   0.000000
   28        4.985980   0.000000
 
 -0.4000000E+00  0.3000000E+00  0.0000000E+00  0.2000000E-01
    1       -7.556314   1.000000
    2       -6.451818   1.000000
    3       -6.351186   1.000000
    4       -6.226813   1.000000
    5       -6.123225   1.000000
    6       -6.047735   1.000000
    7       -5.951377   1.000000
    8       -5.889048   1.000000
    9       -5.692426   1.000000
   10       -5.534872   1.000000
   11       -5.416121   1.000000
   12       -5.037619   1.000000
   13       -4.987040   1.000000
   14       -4.802646   1.000000
   15       -4.649073   1.000000
   16       -4.492441   1.000000
   17       -4.443837   1.000000
   18       -4.148778   1.000000
   19       -4.070022   1.000000
   20       -3.978314   1.000000
   21       -1.985879   0.000001
   22       -0.391633   0.000000
   23        0.722196   0.000000
   24        2.031455   0.000000
   25        2.381666   0.000000
   26        2.911925   0.000000
   27        3.195896   0.000000
   28        4.051391   0.000000
 
 -0.3000000E+00  0.3000000E+00  0.0000000E+00  0.4000000E-01
    1       -7.540505   1.000000
    2       -6.443774   1.000000
    3       -6.363294   1.000000
    4       -6.227154   1.000000
    5       -6.129547   1.000000
    6       -6.046709   1.000000
    7       -5.951912   1.000000
    8       -5.887147   1.000000
    9       -5.690063   1.000000
   10       -5.537981   1.000000
   11       -5.417900   1.000000
   12       -5.038004   1.000000
   13       -4.986860   1.000000
   14       -4.802731   1.000000
   15       -4.654139   1.000000
   16       -4.495136   1.000000
   17       -4.444109   1.000000
   18       -4.146657   1.000000
   19       -4.069757   1.000000
   20       -3.977782   1.000000
   21       -1.949475   0.000000
   22       -0.404416   0.000000
   23        0.679484   0.000000
   24        1.966988   0.000000
   25        2.387500   0.000000
   26        2.956666   0.000000
   27        3.192968   0.000000
   28        3.844501   0.000000
 
 -0.2000000E+00  0.3000000E+00  0.0000000E+00  0.4000000E-01
    1       -7.850562   1.000000
    2       -6.858582   1.000000
    3       -6.647070   1.000000
    4       -6.383692   1.000000
    5       -6.253231   1.000000
    6       -6.040593   1.000000
    7       -5.960555   1.000000
    8       -5.746714   1.000000
    9       -5.582677   1.000000
   10       -5.512025   1.000000
   11       -5.332105   1.000000
   12       -5.057625   1.000000
   13       -4.963895   1.000000
   14       -4.813874   1.000000
   15       -4.628213   1.000000
   16       -4.532817   1.000000
   17       -4.371818   1.000000
   18       -4.194820   1.000000
   19       -4.025812   1.000000
   20       -3.883083   1.000000
   21       -3.150400   1.000000
   22       -2.361012   0.714073
   23       -1.281762   0.000000
   24        0.693812   0.000000
   25        2.810001   0.000000
   26        3.107251   0.000000
   27        4.039642   0.000000
   28        5.223777   0.000000
 
 -0.1000000E+00  0.3000000E+00  0.0000000E+00  0.4000000E-01
    1       -8.508216   1.000000
    2       -7.590699   1.000000
    3       -7.011689   1.000000
    4       -6.478687   1.000000
    5       -6.356443   1.000000
    6       -6.131651   1.000000
    7       -5.920137   1.000000
    8       -5.619488   1.000000
    9       -5.529711   1.000000
   10       -5.330966   1.000000
   11       -5.234238   1.000000
   12       -5.083791   1.000000
   13       -4.912749   1.000000
   14       -4.731673   1.000000
   15       -4.626712   1.000000
   16       -4.494960   1.000000
   17       -4.366549   1.000000
   18       -4.221191   1.000000
   19       -4.158668   1.000000
   20       -3.984614   1.000000
   21       -3.930427   1.000000
   22       -3.619750   1.000000
   23       -2.877230   1.000000
   24       -0.851390   0.000000
   25        1.806439   0.000000
   26        3.813624   0.000000
   27        4.431359   0.000000
   28        5.282761   0.000000
 
  0.0000000E+00  0.4000000E+00  0.0000000E+00  0.2000000E-01
    1       -8.274980   1.000000
    2       -7.356904   1.000000
    3       -6.999325   1.000000
    4       -6.532739   1.000000
    5       -6.505380   1.000000
    6       -6.249548   1.000000
    7       -5.959067   1.000000
    8       -5.425897   1.000000
    9       -5.305514   1.000000
   10       -5.271990   1.000000
   11       -5.159964   1.000000
   12       -4.928296   1.000000
   13       -4.848766   1.000000
   14       -4.488102   1.000000
   15       -4.346126   1.000000
   16       -4.311325   1.000000
   17       -4.101341   1.000000
   18       -4.096400   1.000000
   19       -4.047170   1.000000
   20       -3.965872   1.000000
   21       -3.810579   1.000000
   22       -3.518897   1.000000
   23       -2.578230   0.999862
   24       -0.466356   0.000000
   25        1.783337   0.000000
   26        2.494660   0.000000
   27        3.346421   0.000000
   28        4.664699   0.000000
 
 -0.2000000E+00  0.4000000E+00  0.0000000E+00  0.2000000E-01
    1       -7.685379   1.000000
    2       -6.661957   1.000000
    3       -6.548524   1.000000
    4       -6.319404   1.000000
    5       -6.198519   1.000000
    6       -6.103297   1.000000
    7       -5.967187   1.000000
    8       -5.821241   1.000000
    9       -5.526834   1.000000
   10       -5.448524   1.000000
   11       -5.244834   1.000000
   12       -5.097755   1.000000
   13       -4.897753   1.000000
   14       -4.693032   1.000000
   15       -4.562444   1.000000
   16       -4.449004   1.000000
   17       -4.277864   1.000000
   18       -4.102817   1.000000
   19       -4.059015   1.000000
   20       -3.954035   1.000000
   21       -2.311146   0.444377
   22       -0.751875   0.000000
   23       -0.217781   0.000000
   24        0.536081   0.000000
   25        1.673679   0.000000
   26        2.194872   0.000000
   27        3.514481   0.000000
   28        4.691191   0.000000
 
 -0.1000000E+00  0.4000000E+00  0.0000000E+00  0.4000000E-01
    1       -7.975642   1.000000
    2       -7.018858   1.000000
    3       -6.823828   1.000000
    4       -6.494607   1.000000
    5       -6.432874   1.000000
    6       -6.204011   1.000000
    7       -5.992426   1.000000
    8       -5.532974   1.000000
    9       -5.370493   1.000000
   10       -5.234558   1.000000
   11       -5.183349   1.000000
   12       -5.017475   1.000000
   13       -4.782837   1.000000
   14       -4.521460   1.000000
   15       -4.396000   1.000000
   16       -4.248595   1.000000
   17       -4.126259   1.000000
   18       -4.065042   1.000000
   19       -4.016180   1.000000
   20       -3.863305   1.000000
   21       -3.340868   1.000000
   22       -2.327684   0.537444
   23       -1.394996   0.000000
   24        0.019431   0.000000
   25        1.187077   0.000000
   26        2.024118   0.000000
   27        3.146970   0.000000
   28        4.497383   0.000000
 
  0.0000000E+00  0.5000000E+00  0.0000000E+00  0.1000000E-01
    1       -8.036249   1.000000
    2       -7.096844   1.000000
    3       -6.910942   1.000000
    4       -6.586034   1.000000