unknown system                          
   1.00000000000000     
     2.573869    0.000000    0.000000
     1.286934    2.229036    0.000000
     0.000000    0.000000   30.304665
   Cu   H 
     4     1
Direct
  0.000000  0.000000  0.395979
  0.333333  0.333333  0.465326
  0.666667  0.666667  0.534674
  0.000000  0.000000  0.604021
  0.644235  0.711529  0.637020
 
   10   10  120
 0.20310E-10 0.28496E-10 0.21138E-12 0.38530E-10 0.20470E-13 0.16211E-11 0.21386E-13 0.24790E-11 0.19961E-12 0.16780E-10
 0.26765E-10 0.13659E-10 0.34302E-12 0.15774E-10 0.26312E-13 0.55557E-10 0.23148E-13 0.16155E-11 0.21613E-13 0.95857E-11
 0.10155E-12 0.10960E-12 0.12904E-12 0.21921E-12 0.60368E-14 0.32807E-13 0.38511E-13 0.19458E-12 0.36408E-13 0.24259E-12
 0.24200E-10 0.20089E-10 0.10422E-12 0.23231E-13 0.23481E-13 0.50435E-12 0.31086E-14 0.43777E-12 0.22637E-12 0.11631E-09
 0.14405E-13 0.15016E-13 0.66058E-14 0.12296E-13 0.15821E-13 0.29171E-13 0.39552E-14 0.26243E-13 0.51445E-13 0.52333E-13
 0.48040E-11 0.24587E-10 0.13187E-12 0.29675E-12 0.12892E-13 0.44071E-11 0.20497E-13 0.38257E-12 0.28366E-13 0.52660E-08
 0.91038E-14 0.70777E-15 0.18749E-13 0.38691E-13 0.24425E-14 0.50376E-14 0.74385E-14 0.36360E-14 0.28172E-14 0.25563E-13
 0.83581E-11 0.12096E-10 0.25758E-12 0.21432E-11 0.73941E-13 0.63669E-12 0.59952E-14 0.44673E-13 0.24203E-13 0.55656E-11
 0.32127E-13 0.42114E-13 0.12927E-13 0.54699E-13 0.18097E-13 0.11546E-13 0.19984E-14 0.50529E-13 0.79756E-13 0.43285E-13
 0.19008E-10 0.11916E-10 0.40121E-12 0.13672E-09 0.38539E-13 0.48757E-10 0.89651E-14 0.11469E-11 0.17272E-12 0.16354E-10
 0.10661E-11 0.22475E-12 0.49591E-12 0.24446E-11 0.58564E-14 0.49875E-12 0.10357E-12 0.60882E-13 0.34438E-13 0.83480E-12
 0.11035E-11 0.18794E-08 0.36636E-12 0.40620E-11 0.12712E-13 0.57079E-11 0.78312E-13 0.19770E-11 0.53929E-13 0.11626E-10
 0.26526E-12 0.23996E-12 0.18306E-12 0.17882E-12 0.32752E-14 0.17916E-13 0.69000E-13 0.18052E-12 0.37359E-13 0.28554E-12
 0.14270E-11 0.55244E-11 0.53485E-13 0.36915E-14 0.87708E-14 0.21831E-12 0.21413E-13 0.70051E-12 0.20384E-12 0.32701E-09
 0.43576E-14 0.10103E-13 0.40384E-14 0.39274E-14 0.53568E-14 0.13087E-13 0.48850E-14 0.17319E-13 0.37359E-13 0.29116E-13
 0.29270E-12 0.64102E-10 0.95535E-13 0.90927E-13 0.84238E-14 0.40964E-11 0.39579E-13 0.40173E-11 0.57843E-13 0.37771E-11
 0.49225E-13 0.37748E-14 0.43507E-13 0.98435E-13 0.34694E-14 0.15030E-13 0.27395E-13 0.10769E-13 0.59397E-14 0.46754E-13
 0.43772E-11 0.98775E-11 0.34490E-12 0.23712E-11 0.33987E-13 0.11955E-10 0.22427E-13 0.39627E-12 0.60230E-13 0.14078E-09
 0.10943E-13 0.53190E-13 0.19571E-13 0.84543E-13 0.19054E-13 0.22038E-13 0.43993E-14 0.86181E-13 0.95118E-13 0.27721E-13
 0.32704E-12 0.13034E-10 0.35212E-12 0.14076E-08 0.19623E-13 0.11302E-10 0.20428E-13 0.36513E-11 0.17818E-12 0.38823E-11
 0.26260E-13 0.15613E-13 0.70881E-13 0.96437E-13 0.15127E-14 0.34583E-13 0.60521E-13 0.16653E-14 0.53638E-14 0.44256E-13
 0.55053E-13 0.22284E-10 0.25145E-12 0.95292E-12 0.56344E-14 0.10284E-11 0.20348E-12 0.21120E-11 0.60701E-13 0.12902E-10
 0.43354E-13 0.45207E-12 0.14205E-12 0.75828E-13 0.17486E-14 0.27756E-14 0.69569E-13 0.12512E-12 0.29449E-13 0.29694E-12
 0.32349E-13 0.17685E-11 0.12976E-13 0.84655E-15 0.36082E-14 0.63172E-13 0.56607E-13 0.81668E-12 0.18105E-12 0.16997E-08
 0.98532E-15 0.63838E-14 0.21788E-14 0.14988E-14 0.20262E-14 0.56899E-14 0.41633E-14 0.74246E-14 0.18222E-13 0.14211E-13
 0.24758E-13 0.16997E-11 0.37331E-13 0.18180E-13 0.47184E-14 0.42451E-11 0.74524E-13 0.12387E-10 0.47060E-13 0.20467E-11
 0.33598E-13 0.46768E-14 0.63366E-13 0.21040E-12 0.32613E-14 0.42605E-13 0.82157E-13 0.24758E-13 0.88540E-14 0.80824E-13
 0.10229E-12 0.80927E-11 0.33504E-12 0.25758E-11 0.13198E-13 0.56256E-10 0.54429E-13 0.75281E-12 0.64559E-13 0.69775E-10
 0.24702E-14 0.44256E-13 0.21767E-13 0.11807E-12 0.13503E-13 0.24286E-13 0.67724E-14 0.58981E-13 0.76564E-13 0.14891E-13
 0.24578E-13 0.11791E-10 0.27924E-12 0.16246E-08 0.68279E-14 0.40644E-11 0.46199E-13 0.13171E-10 0.16656E-12 0.17127E-11
 0.60923E-14 0.64393E-14 0.16764E-13 0.23342E-13 0.66613E-15 0.64393E-14 0.13420E-13 0.40246E-15 0.12768E-14 0.74940E-14
 0.10603E-13 0.45639E-11 0.21320E-12 0.59905E-12 0.38303E-14 0.55139E-12 0.11828E-11 0.22591E-11 0.10127E-12 0.16560E-10
 0.94091E-14 0.11857E-11 0.15037E-12 0.66169E-13 0.11241E-14 0.32058E-14 0.96742E-13 0.10297E-12 0.25896E-13 0.30939E-12
 0.67724E-14 0.10283E-11 0.99504E-14 0.36082E-15 0.20817E-14 0.46019E-13 0.46382E-12 0.11183E-11 0.14722E-12 0.91256E-08
 0.47184E-15 0.57176E-14 0.16098E-14 0.90206E-15 0.10270E-14 0.33029E-14 0.44270E-14 0.63005E-14 0.11546E-13 0.92149E-14
 0.51070E-14 0.61351E-12 0.28588E-13 0.16195E-13 0.41772E-14 0.41026E-11 0.22268E-12 0.10067E-09 0.71776E-13 0.12123E-11
 0.86459E-14 0.42868E-13 0.12870E-12 0.95313E-12 0.37609E-14 0.20967E-12 0.27725E-12 0.36970E-13 0.14516E-13 0.20955E-12
 0.21691E-13 0.66814E-11 0.43777E-12 0.27691E-11 0.74385E-14 0.43304E-09 0.44686E-13 0.29676E-12 0.10303E-12 0.75677E-11
 0.74940E-15 0.53207E-13 0.27325E-13 0.14656E-12 0.11935E-13 0.38219E-13 0.11685E-13 0.71221E-13 0.71554E-13 0.66197E-14
 0.79103E-14 0.14098E-10 0.21370E-12 0.15927E-09 0.43160E-14 0.16978E-11 0.16387E-12 0.43162E-09 0.15354E-12 0.10025E-11
 0.18041E-14 0.27339E-14 0.57732E-14 0.81324E-14 0.38858E-15 0.18319E-14 0.25535E-14 0.55511E-16 0.30531E-15 0.15404E-14
 0.26923E-14 0.19701E-11 0.96756E-13 0.18864E-12 0.21372E-14 0.24239E-12 0.93541E-11 0.22595E-11 0.11906E-12 0.18910E-10
 0.29976E-14 0.40718E-11 0.12493E-12 0.30434E-13 0.47184E-15 0.23592E-15 0.55178E-13 0.65323E-13 0.21594E-13 0.36177E-12
 0.16931E-14 0.48761E-12 0.21372E-14  0.0000     0.10686E-14 0.19387E-13 0.32716E-11 0.13687E-11 0.15699E-12 0.55075E-09
 0.19429E-15 0.40939E-14 0.95757E-15 0.29143E-15 0.30531E-15 0.15821E-14 0.34417E-14 0.31919E-14 0.63005E-14 0.49266E-14
 0.16653E-14 0.19093E-12 0.12088E-13 0.47323E-14 0.30392E-14 0.46180E-11 0.49424E-12 0.13544E-11 0.32835E-13 0.13665E-11
 0.18319E-14 0.97436E-13 0.13896E-12 0.47148E-11 0.31919E-14 0.56943E-12 0.14244E-12 0.16265E-13 0.12851E-13 0.35241E-12
 0.70083E-14 0.55390E-11 0.43633E-12 0.29950E-11 0.31086E-14 0.97877E-12 0.10186E-13 0.41411E-13 0.51237E-13 0.35955E-11
 0.19429E-15 0.48239E-13 0.32557E-13 0.21337E-12 0.81601E-14 0.26062E-13 0.11269E-13 0.28061E-13 0.48656E-13 0.35250E-14
 0.29282E-14 0.13997E-10 0.18106E-12 0.59382E-10 0.16931E-14 0.18383E-11 0.34817E-12 0.18964E-10 0.15381E-12 0.64326E-12
 0.52736E-15 0.13878E-14 0.30254E-14 0.36637E-14 0.83267E-16 0.66613E-15 0.80491E-15 -.55511E-16 0.12490E-15 0.26368E-15
 0.72164E-15 0.10216E-11 0.37900E-13 0.10288E-12 0.12768E-14 0.14232E-12 0.10801E-08 0.22218E-11 0.18002E-12 0.30355E-10
 0.15821E-14 0.23812E-09 0.11752E-12 0.22912E-13 0.36082E-15 0.23592E-15 0.36582E-13 0.44992E-13 0.20636E-13 0.34783E-12
 0.54123E-15 0.31525E-12 0.13323E-14 0.69389E-17 0.74940E-15 0.13912E-13 0.32185E-08 0.15860E-11 0.13209E-12 0.18177E-09
 0.55511E-16 0.33168E-14 0.74940E-15 0.19429E-15 0.20123E-15 0.80491E-15 0.29421E-14 0.22482E-14 0.43854E-14 0.31641E-14
 0.61062E-15 0.92995E-13 0.85348E-14 0.34417E-14 0.23176E-14 0.49108E-11 0.11389E-11 0.44692E-12 0.23703E-13 0.12583E-11
 0.58287E-15 0.49633E-12 0.13781E-12 0.10170E-08 0.28866E-14 0.13752E-11 0.72220E-13 0.64948E-14 0.11102E-13 0.57937E-12
 0.29837E-14 0.46243E-11 0.66180E-12 0.28695E-11 0.14710E-14 0.23523E-12 0.24425E-14 0.13517E-13 0.40939E-13 0.18529E-11
 0.11102E-15 0.61298E-13 0.43118E-13 0.26823E-12 0.69389E-14 0.25313E-13 0.10880E-13 0.17347E-13 0.44409E-13 0.41633E-16
 0.12768E-14 0.23822E-10 0.84030E-13 0.45042E-10 0.74940E-15 0.15692E-11 0.61443E-12 0.43352E-11 0.13722E-12 0.45972E-12
 0.37470E-15 0.92981E-15 0.14294E-14 0.21094E-14 0.16653E-15 0.44409E-15 0.33307E-15 0.55511E-16 0.69389E-16 0.11102E-15
 0.31919E-15 0.61359E-12 0.38858E-15 0.32419E-13 0.86042E-15 0.84016E-13 0.36032E-09 0.21103E-11 0.18212E-12 0.37100E-10
 0.68001E-15 0.13111E-10 0.10295E-12 0.14017E-13 0.22898E-15  0.0000     0.14669E-13 0.20942E-13 0.13489E-13 0.34277E-12
 0.22204E-15 0.18033E-12 0.36776E-15 -.31225E-16 0.49613E-15 0.89026E-14 0.75640E-07 0.18074E-11 0.13137E-12 0.96652E-10
 0.97145E-16 0.26090E-14 0.50307E-15 0.83267E-16 0.79797E-16 0.41633E-15 0.22204E-14 0.14988E-14 0.27756E-14 0.19984E-14
 0.33307E-15 0.43764E-13 0.48919E-14 0.18457E-14 0.18319E-14 0.57360E-11 0.47451E-12 0.93037E-13 0.10242E-13 0.21273E-11
 0.27756E-15 0.60429E-12 0.89470E-13 0.46708E-08 0.24980E-14 0.71290E-12 0.19401E-13 0.21094E-14 0.41633E-14 0.30312E-12
 0.14710E-14 0.38744E-11 0.64136E-12 0.23229E-11 0.72164E-15 0.45519E-13 0.66613E-15 0.49960E-14 0.18457E-13 0.12895E-11
 0.27756E-16 0.48489E-13 0.45408E-13 0.36408E-12 0.51625E-14 0.15044E-13 0.56899E-14 0.65503E-14 0.31614E-13 0.55511E-15
 0.79103E-15 0.34128E-10 0.16265E-13 0.42560E-11 0.49960E-15 0.37958E-11 0.30140E-12 0.23633E-11 0.13109E-12 0.33767E-12
 0.15266E-15 0.61062E-15 0.94369E-15 0.18041E-14 0.55511E-16 0.27756E-15 0.13878E-15 0.13878E-16 0.27756E-16 0.20817E-16
 0.83267E-16 0.37122E-12 0.77161E-14 0.63421E-14 0.58287E-15 0.54769E-13 0.13914E-09 0.19602E-11 0.23524E-12 0.79638E-10
 0.48572E-15 0.26657E-11 0.88617E-13 0.99920E-14 0.15786E-15  0.0000     0.40107E-14 0.76397E-14 0.12546E-13 0.37070E-12
 0.83267E-16 0.11199E-12 0.13878E-15 -.93675E-16 0.36082E-15 0.60906E-14 0.26527E-10 0.19617E-11 0.12061E-12 0.58597E-10
 0.69389E-16 0.21372E-14 0.29837E-15 0.34694E-16 -.52042E-17 0.20817E-15 0.16653E-14 0.10825E-14 0.18319E-14 0.14433E-14
 0.22204E-15 0.22551E-13 0.31850E-14 0.10391E-14 0.14433E-14 0.60619E-11 0.15762E-12 0.40273E-13 0.61895E-14 0.28712E-11
 0.83267E-16 0.26509E-12 0.48475E-13 0.34347E-10 0.21372E-14 0.33207E-12 0.82989E-14 0.99920E-15 0.19984E-14 0.11688E-12
 0.88818E-15 0.32572E-11 0.10557E-11 0.93564E-13 0.36082E-15 0.14794E-13 0.24980E-15 0.23592E-14 0.12906E-13 0.86731E-12
 0.27756E-16 0.57815E-13 0.57759E-13 0.54641E-12 0.40246E-14 0.11491E-13 0.32196E-14 0.31364E-14 0.19096E-13 0.52042E-14
 0.52042E-15 0.51885E-09 0.36082E-15 0.81627E-11 0.16653E-15 0.98044E-11 0.13631E-12 0.13140E-11 0.12390E-12 0.26254E-12
 0.97145E-16 0.38858E-15 0.54817E-15 0.12490E-14 0.41633E-16 0.55511E-16 0.83267E-16  0.0000     0.27756E-16 0.13878E-16
 0.69389E-16 0.16530E-12 0.40204E-13 0.10408E-16 0.40246E-15 0.36401E-13 0.50364E-11 0.20677E-11 0.25686E-12 0.15606E-09
 0.20817E-15 0.12237E-11 0.76938E-13 0.76050E-14 0.12663E-15 0.69389E-17 0.16966E-14 0.52042E-15 0.84377E-14 0.37546E-12
  0.0000     0.65104E-13 0.11102E-15 -.47705E-16 0.33654E-15 0.44860E-14 0.23741E-11 0.20579E-11 0.82906E-13 0.41022E-10
 0.13878E-16 0.17208E-14 0.24893E-15 0.27756E-16 0.77195E-16 0.83267E-16 0.14294E-14 0.68001E-15 0.12629E-14 0.80491E-15
 0.11102E-15 0.10908E-13 0.22829E-14 0.73726E-15 0.12282E-14 0.10020E-10 0.34361E-13 0.17875E-13 0.39690E-14 0.11538E-10
 0.13878E-16 0.89179E-13 0.27648E-13 0.18959E-11 0.18319E-14 0.13251E-12 0.39968E-14 0.49960E-15 0.80491E-15 0.31850E-13
 0.47184E-15 0.27806E-11 0.11932E-11 0.89281E-11 0.16653E-15 0.59397E-14 0.13878E-15 0.11935E-14 0.85487E-14 0.68620E-12
 -.13878E-16 0.51958E-13 0.63033E-13 0.69589E-12 0.33584E-14 0.83267E-14 0.16931E-14 0.16653E-14 0.11241E-13 0.27624E-13
 0.33307E-15 0.22242E-10 0.63810E-13 0.66623E-11 0.83267E-16 0.24295E-10 0.50002E-13 0.97333E-12 0.12517E-12 0.20664E-12
  0.0000     0.31919E-15 0.53429E-15 0.12768E-14 0.48572E-16 0.55511E-16 0.16653E-15 0.34694E-16 0.11102E-15 -.13878E-16
 0.20817E-16 0.98532E-13 0.59959E-13 0.10068E-13 0.27756E-15 0.30052E-13 0.11743E-11 0.25415E-11 0.34484E-12 0.13670E-08
 0.24286E-15 0.81025E-12 0.67533E-13 0.70534E-14 0.16046E-15 -.27756E-16 0.40246E-15 0.87916E-14 0.90622E-14 0.47414E-12
 0.55511E-16 0.34892E-13 -.34694E-16 -.89338E-16 0.20817E-15 0.35172E-14 0.58945E-12 0.21069E-11 0.93654E-13 0.25771E-10
 -.20817E-16 0.16445E-14 0.20990E-15 0.20817E-16 0.66787E-16 0.41633E-16 0.11796E-14 0.67307E-15 0.94369E-15 0.61756E-15
 0.30531E-15 0.82122E-14 0.15474E-14 0.50307E-15 0.11657E-14 0.86866E-11 0.13836E-13 0.98810E-14 0.24286E-14 0.26025E-10
 0.13878E-16 0.31627E-13 0.16070E-13 0.41737E-12 0.16723E-14 0.70055E-13 0.25258E-14 0.31919E-15 0.44409E-15 0.13198E-13
 0.41633E-15 0.23454E-11 0.15899E-11 0.11498E-09 0.83267E-16 0.28588E-14 0.55511E-16 0.83267E-15 0.56968E-14 0.51081E-12
 0.27756E-16 0.68251E-13 0.80651E-13 0.13418E-11 0.27478E-14 0.59952E-14 0.10963E-14 0.83961E-15 0.63005E-14 0.38532E-13
 0.27062E-15 0.62934E-11 0.10448E-12 0.49024E-11 0.48572E-16 0.41392E-11 0.26562E-13 0.65455E-12 0.16617E-12 0.27585E-12
 0.11102E-15 0.34001E-15 0.38858E-15 0.10478E-14 0.13878E-16 0.11796E-15 -.20817E-16 0.69389E-16 0.41633E-16 -.41633E-16
 0.69389E-17 0.38908E-12 0.87465E-13 0.20088E-13 0.13878E-15 0.19353E-13 0.51870E-12 0.27112E-11 0.32937E-12 0.39050E-08
 0.11796E-15 0.69910E-12 0.54470E-13 0.55407E-14 0.83267E-16 0.34694E-17 0.13878E-16 0.51140E-13 0.43507E-14 0.37680E-12
  0.0000     0.15876E-13 0.24286E-16 -.24286E-16 0.22204E-15 0.25500E-14 0.25117E-12 0.20811E-11 0.68140E-13 0.21906E-10
 -.27756E-16 0.12351E-14 0.11102E-15 0.27756E-16 0.24286E-16 -.55511E-16 0.83267E-15 0.38858E-15 0.55511E-15 0.38858E-15
 -.41633E-16 0.30323E-14 0.10478E-14 0.30531E-15 0.91593E-15 0.26184E-10 0.35597E-14 0.49960E-14 0.15613E-14 0.20239E-10
 0.27756E-16 0.14461E-13 0.77438E-14 0.13246E-12 0.12212E-14 0.35069E-13 0.11796E-14 0.83267E-16 0.20817E-15 0.31988E-14
 0.28449E-15 0.19961E-11 0.18553E-11 0.16366E-10  0.0000     0.10408E-14 0.27756E-16 0.38858E-15 0.39066E-14 0.42621E-12
 0.41633E-16 0.47393E-13 0.84682E-13 0.17307E-11 0.21094E-14 0.41564E-14 0.51348E-15 0.31225E-15 0.17625E-14 0.11977E-12
 0.83267E-16 0.38355E-12 0.19777E-11 0.38486E-11  0.0000     0.45308E-12 0.12358E-13 0.53298E-12 0.16916E-12 0.22927E-12
 0.69389E-17 0.45103E-15 0.50654E-15 0.94369E-15 0.27756E-16  0.0000     0.69389E-16 0.90206E-16 0.48572E-16 0.27756E-16
  0.0000     0.28159E-12 0.91559E-13 0.48149E-13 0.11796E-15 0.16966E-13 0.31029E-12 0.29679E-11 0.64988E-12 0.11017E-09
 0.13878E-15 0.64659E-12 0.48676E-13 0.68903E-14 0.97145E-16 -.27756E-16 0.69389E-17 0.11430E-12 0.47323E-14 0.41771E-12
 0.69389E-17 0.43507E-14 -.41633E-16 -.69389E-17 0.15266E-15 0.26645E-14 0.12419E-12 0.19881E-11 0.73122E-13 0.16030E-10
 -.27756E-16 0.12004E-14 0.14572E-15 0.48572E-16 -.69389E-17 -.20817E-16 0.72164E-15 0.42327E-15 0.61062E-15 0.24980E-15
 0.83267E-16 0.24564E-14 0.94369E-15 0.28449E-15 0.88818E-15 0.24218E-10 0.19082E-14 0.38719E-14 0.14572E-14 0.67825E-11
 0.41633E-16 0.76467E-14 0.56621E-14 0.58724E-13 0.11657E-14 0.23107E-13 0.10339E-14 0.15266E-15 0.14572E-15 0.17000E-14
 0.25674E-15 0.16849E-11 0.21306E-11 0.18730E-10 -.13878E-16 0.85348E-15 0.97145E-16 0.45103E-15 0.33307E-14 0.33807E-12
 -.41633E-16 0.53520E-13 0.10486E-12 0.28407E-11 0.19568E-14 0.35943E-14 0.52736E-15 0.31919E-15 0.12490E-14 0.21685E-12
 0.13878E-15 0.94154E-13 0.54055E-11 0.30199E-11 -.55511E-16 0.26805E-12 0.82087E-14 0.41018E-12 0.21420E-12 0.26873E-12
 -.34694E-16 0.46491E-15 0.47878E-15 0.10547E-14 -.27756E-16 0.69389E-17 0.69389E-17 0.62450E-16 0.69389E-16 -.13878E-16
 -.34694E-16 0.20297E-12 0.95972E-13 0.69243E-13 0.90206E-16 0.12504E-13 0.19769E-12 0.32200E-11 0.91949E-12 0.54056E-10
 0.69389E-16 0.60971E-12 0.51424E-13 0.55095E-14 0.14572E-15 -.69389E-17 0.55511E-16 0.20758E-12 0.32335E-14 0.42474E-12
 -.48572E-16 0.99920E-15 0.69389E-17 0.34694E-16 0.11796E-15 0.25049E-14 0.74045E-13 0.19012E-11 0.53180E-13 0.12556E-10
 -.62450E-16 0.99920E-15 0.10408E-15 -.27756E-16 0.69389E-17 -.76328E-16 0.70083E-15 0.27756E-15 0.43715E-15 0.18735E-15
 0.13878E-16 0.12143E-14 0.65919E-15 0.22204E-15 0.61756E-15 0.88327E-10 0.65919E-15 0.22760E-14 0.86042E-15 0.18637E-11
 0.41633E-16 0.48433E-14 0.34348E-14 0.27894E-13 0.10200E-14 0.14620E-13 0.62450E-15 0.97145E-16 0.97145E-16 0.49266E-15
 0.21511E-15 0.14333E-11 0.23581E-11 0.60488E-08 -.48572E-16 0.33307E-15 0.20817E-16 0.27756E-15 0.22690E-14 0.32804E-12
 -.20817E-16 0.54665E-13 0.13978E-12 0.35964E-11 0.16237E-14 0.25605E-14 0.27062E-15 0.18041E-15 0.25674E-15 0.63245E-12
 0.41633E-16 0.18971E-13 0.16957E-09 0.24290E-11 -.62450E-16 0.11634E-12 0.47462E-14 0.36232E-12 0.21901E-12 0.29014E-12
 -.69389E-17 0.47184E-15 0.47184E-15 0.78410E-15 -.69389E-17 -.97145E-16  0.0000     0.27756E-16 0.12490E-15 -.55511E-16
 -.34694E-16 0.15864E-12 0.94737E-13 0.13698E-12 0.41633E-16 0.99920E-14 0.13391E-12 0.35321E-11 0.11561E-11 0.14728E-10
 0.55511E-16 0.57220E-12 0.58238E-13 0.53152E-14 0.69389E-16  0.0000     0.16653E-15 0.33683E-12 0.16792E-14 0.45001E-12
 -.41633E-16 0.11310E-14 -.13878E-16 0.13878E-16 0.20817E-15 0.24841E-14 0.53568E-13 0.16853E-11 0.44173E-13 0.10707E-10
 -.76328E-16 0.11310E-14 0.83267E-16 0.13878E-16 0.83267E-16 -.20817E-16 0.40246E-15 0.26368E-15 0.35388E-15 -.41633E-16
 0.69389E-17 0.61062E-15 0.51348E-15 0.24980E-15 0.67307E-15 0.24208E-09 0.17347E-15 0.16584E-14 0.68001E-15 0.10080E-11
 -.20817E-16 0.26923E-14 0.23800E-14 0.14932E-13 0.77716E-15 0.99643E-14 0.45103E-15 0.27756E-16 0.76328E-16 0.15959E-15
 0.10408E-15 0.12184E-11 0.25797E-11 0.29884E-10 -.48572E-16 0.19429E-15 -.13878E-16 0.18041E-15 0.18804E-14 0.31081E-12
 -.76328E-16 0.49752E-13 0.15917E-12 0.50109E-11 0.13670E-14 0.20955E-14 0.18735E-15 0.27756E-16 0.23592E-15 0.40814E-11
 0.20817E-16 0.59466E-14 0.75862E-10 0.19937E-11 -.18041E-15 0.66058E-13 0.30601E-14 0.31362E-12 0.23775E-12 0.34629E-12
 0.27756E-16 0.52736E-15 0.51348E-15 0.99920E-15 0.48572E-16  0.0000     0.20817E-16 0.13878E-16 0.62450E-16 -.13878E-16
 -.20817E-16 0.12853E-12 0.85841E-13 0.27472E-12 0.83267E-16 0.82573E-14 0.11369E-12 0.39409E-11 0.17707E-11 0.93555E-11
 0.34694E-16 0.62327E-12 0.64608E-13 0.54401E-14 0.83267E-16 0.34694E-16 0.13878E-15 0.43450E-12 0.18319E-14 0.46409E-12
 -.20817E-16 0.85210E-14 -.69389E-17 0.69389E-17 0.13878E-15 0.24564E-14 0.52965E-13 0.15756E-11 0.47219E-13 0.84123E-11
 -.34694E-16 0.14017E-14 0.11796E-15 0.27756E-16 0.55511E-16 -.69389E-16 0.37470E-15 0.19429E-15 0.27062E-15 0.13878E-16
 -.41633E-16 0.37470E-15 0.43715E-15 0.15266E-15 0.54817E-15 0.13675E-03 0.23592E-15 0.12351E-14 0.70083E-15 0.57258E-12
 0.13878E-16 0.17278E-14 0.16237E-14 0.90206E-14 0.65226E-15 0.73969E-14 0.52042E-15 0.10582E-15 0.72858E-16 0.27756E-16
 0.22204E-15 0.10520E-11 0.55697E-11 0.87459E-10 -.69389E-17 0.16653E-15 0.83267E-16 0.27409E-15 0.16133E-14 0.34085E-12
 -.13878E-16 0.51861E-13 0.25337E-12 0.74241E-11 0.11380E-14 0.18215E-14 0.65919E-16 0.15959E-15 -.55511E-16 0.13546E-09
 0.69389E-16 0.14044E-13 0.15885E-10 0.16335E-11 -.13878E-16 0.40287E-13 0.24286E-14 0.33819E-12 0.28240E-12 0.36519E-12
 -.55511E-16 0.54123E-15 0.39552E-15 0.79103E-15 0.27756E-16 -.48572E-16 -.34694E-16 0.13184E-15 0.55511E-16 -.13878E-16
 -.76328E-16 0.10456E-12 0.78756E-13 0.27945E-12 -.48572E-16 0.59258E-14 0.86570E-13 0.45052E-11 0.18114E-11 0.44613E-11
 0.48572E-16 0.66053E-12 0.60348E-13 0.41217E-14 -.13878E-16 0.55511E-16 0.20817E-15 0.58310E-12 0.44409E-15 0.39120E-12
 -.48572E-16 0.17965E-13 -.41633E-16 0.55511E-16 0.11796E-15 0.19568E-14 0.42980E-13 0.13883E-11 0.36082E-13 0.73225E-11
 -.97145E-16 0.96451E-15 0.62450E-16 -.48572E-16 -.62450E-16 -.55511E-16 0.18735E-15 0.23592E-15 0.16653E-15 0.41633E-16
 -.69389E-16 -.13878E-16 0.20817E-15 0.62450E-16 0.38164E-15 0.10207E-09 0.24286E-16 0.72858E-15 0.35909E-15 0.31499E-12
 -.13878E-16 0.12559E-14 0.10894E-14 0.55789E-14 0.44409E-15 0.51660E-14 0.11970E-15 -.12577E-15 -.50307E-16 -.10755E-15
 0.13184E-15 0.92441E-12 0.76456E-11 0.53352E-10  0.0000     -.10061E-15 -.28623E-16 0.18475E-15 0.11362E-14 0.34617E-12
 -.41633E-16 0.39323E-13 0.25407E-12 0.87727E-11 0.12525E-14 0.12039E-14 0.17347E-17 -.48572E-16 0.24980E-15 0.66621E-11
  0.0000     0.28699E-13 0.58120E-11 0.13637E-11 -.13531E-15 0.21590E-13 0.14121E-14 0.33098E-12 0.28770E-12 0.36863E-12
 0.27756E-16 0.65226E-15 0.49960E-15 0.80491E-15 0.11102E-15 0.11102E-15 0.48572E-16 0.16653E-15 0.55511E-16 -.20817E-16
 0.69389E-17 0.92079E-13 0.72470E-13 0.67082E-12 0.83267E-16 0.57107E-14 0.59619E-13 0.45141E-11 0.28215E-11 0.43513E-11
 0.41633E-16 0.63987E-12 0.61257E-13 0.52319E-14 -.13878E-16 0.34694E-16 0.27756E-15 0.79252E-12 0.65226E-15 0.40803E-12
 -.20817E-16 0.57114E-13 0.27756E-16 0.41633E-16 0.18041E-15 0.25535E-14 0.32849E-13 0.14970E-11 0.29948E-13 0.59060E-11
 -.27756E-16 0.13600E-14 0.16653E-15 0.69389E-17 0.83267E-16 0.27756E-16 0.16653E-15 0.26368E-15 0.22898E-15 0.62450E-16
 0.83267E-16 0.83267E-16 0.24286E-15 0.16653E-15 0.56205E-15 0.56030E-10 0.27756E-16 0.67654E-15 0.43021E-15 0.36791E-12
 -.27756E-16 0.79103E-15 0.80491E-15 0.33168E-14 0.36082E-15 0.65781E-14 0.21944E-15 0.16653E-15 0.95843E-16 -.67654E-16
 0.16653E-15 0.77137E-12 0.72124E-11 0.14640E-09 0.55511E-16 -.15613E-16  0.0000     0.22378E-15 0.97145E-15 0.40418E-12
 0.20817E-16 0.46574E-13 0.40783E-12 0.11545E-10 0.12906E-14 0.13253E-14 0.19863E-15 0.14572E-15 0.49960E-15 0.17717E-11
 0.55511E-16 0.21746E-13 0.44683E-11 0.11471E-11 -.52042E-16 0.21658E-13 0.11588E-14 0.38136E-12 0.31497E-12 0.42907E-12
 -.27756E-16 0.61756E-15 0.43021E-15 0.82573E-15 0.27756E-16 -.41633E-16 -.27756E-16 0.55511E-16 0.55511E-16  0.0000    
 -.55511E-16 0.77688E-13 0.64886E-13 0.70852E-12 -.69389E-17 0.44548E-14 0.66461E-13 0.50099E-11 0.37521E-11 0.22828E-11
 0.69389E-16 0.70387E-12 0.83669E-13 0.51278E-14 -.27756E-16 0.27756E-16 0.29143E-15 0.90699E-12 0.20817E-15 0.38597E-12
 -.90206E-16 0.75544E-13 0.69389E-17 0.13878E-16 0.12490E-15 0.25258E-14 0.38483E-13 0.15456E-11 0.28325E-13 0.49879E-11
 -.27756E-16 0.15196E-14 0.11102E-15 -.41633E-16 0.27756E-16 0.55511E-16 0.97145E-16 0.22204E-15 0.19429E-15 -.55511E-16
 -.27756E-16 -.13878E-16 0.13878E-15 0.27756E-16 0.52736E-15 0.27006E-10 0.41633E-16 0.53083E-15 0.11102E-15 0.22903E-12
  0.0000     0.70777E-15 0.86042E-15 0.24911E-14 0.37470E-15 0.51209E-14 0.18735E-15  0.0000      0.0000     -.69389E-17
 0.41633E-16 0.67302E-12 0.15467E-10 0.27184E-09 0.69389E-17 -.72858E-16 -.55511E-16 -.57246E-16 0.79103E-15 0.40772E-12
 -.41633E-16 0.42646E-13 0.46038E-12 0.14207E-10 0.18839E-14 0.10547E-14 -.79797E-16 -.13878E-16 0.36776E-15 0.79352E-12
 0.11102E-15 0.30101E-13 0.32333E-11 0.97776E-12 -.55511E-16 0.11005E-13 0.70083E-15 0.37354E-12 0.35727E-12 0.47579E-12
 -.27756E-16 0.76328E-15 0.55511E-15 0.99920E-15  0.0000     0.97145E-16 0.15266E-15 0.41633E-16 0.27756E-16 0.55511E-16
 0.41633E-16 0.68556E-13 0.57940E-13 0.11217E-11 0.13878E-16 0.36915E-14 0.58294E-13 0.51815E-11 0.46456E-11 0.21469E-11
 0.55511E-16 0.69814E-12 0.71887E-13 0.46282E-14  0.0000     0.83267E-16 0.29143E-15 0.10571E-11 0.24980E-15 0.37516E-12
 -.27756E-16 0.11674E-12 -.69389E-17  0.0000     0.13878E-15 0.23453E-14 0.35041E-13 0.17696E-11 0.29185E-13 0.40357E-11
 -.55511E-16 0.16306E-14  0.0000     -.27756E-16 0.27756E-16  0.0000     0.18041E-15 0.20817E-15 0.24286E-15 0.27756E-16
 0.41633E-16 -.55511E-16 0.12490E-15 -.27756E-16 0.55511E-15 0.98956E-11 0.13878E-16 0.38858E-15 0.26368E-15 0.26240E-12
  0.0000     0.53429E-15 0.43021E-15 0.18319E-14 0.34694E-15 0.55095E-14 0.35041E-15 0.18041E-15 0.16653E-15 0.55511E-16
 0.97145E-16 0.57376E-12 0.27768E-10 0.21750E-07 0.41633E-16 0.12490E-15 0.83267E-16 0.24286E-15 0.99920E-15 0.43476E-12
  0.0000     0.39260E-13 0.71107E-12 0.19057E-10 0.16584E-14 0.12906E-14 0.79797E-16 0.11102E-15 0.61756E-15 0.50379E-12
 0.55511E-16 0.20706E-13 0.29588E-11 0.82090E-12  0.0000     0.95757E-14 0.69389E-15 0.38061E-12 0.39593E-12 0.53701E-12
 -.41633E-16 0.10131E-14 0.47184E-15 0.87430E-15  0.0000     -.69389E-16 -.69389E-16 0.27756E-16 0.41633E-16  0.0000    
 -.69389E-16 0.59633E-13 0.52069E-13 0.16190E-11 -.13878E-16 0.30809E-14 0.54734E-13 0.57453E-11 0.49114E-11 0.19990E-11
  0.0000     0.75435E-12 0.89401E-13 0.46213E-14 -.13878E-16 0.55511E-16 0.27756E-15 0.11660E-11 0.27756E-16 0.30220E-12
 -.41633E-16 0.18119E-12  0.0000     0.55511E-16 0.13878E-15 0.25535E-14 0.34042E-13 0.17054E-11 0.20164E-13 0.35087E-11
 -.12490E-15 0.16515E-14 0.13878E-15 -.13878E-16 0.27756E-16 0.27756E-16 0.41633E-16 0.20817E-15 0.69389E-16 -.27756E-16
 -.83267E-16 0.27756E-16 0.13878E-15  0.0000     0.58287E-15 0.84379E-11 -.69389E-16 0.34694E-15 0.15266E-15 0.24028E-12
 -.11102E-15 0.37470E-15 0.38858E-15 0.12629E-14 0.26368E-15 0.47184E-14 0.18041E-15 -.83267E-16 -.27756E-16 -.11102E-15
 0.69389E-16 0.50505E-12 0.66416E-10 0.41868E-05 -.83267E-16  0.0000     -.27756E-16 0.23592E-15 0.58287E-15 0.48002E-12
 -.83267E-16 0.33168E-13 0.68362E-12 0.21908E-10 0.17486E-14 0.10131E-14 -.11102E-15 -.83267E-16 0.63838E-15 0.31539E-12
 0.12490E-15 0.96867E-14 0.22733E-11 0.70242E-12 -.11102E-15 0.66960E-14 0.41633E-15 0.40994E-12 0.39850E-12 0.58206E-12
 -.13878E-16 0.99920E-15 0.61062E-15 0.97145E-15 -.69389E-16 -.55511E-16  0.0000     0.41633E-16 0.13878E-16 0.55511E-16
 0.13878E-16 0.53776E-13 0.46102E-13 0.12199E-11 -.13878E-16 0.28866E-14 0.58509E-13 0.64249E-11 0.61206E-11 0.15563E-11
 0.41633E-16 0.82541E-12 0.85348E-13 0.52736E-14 -.27756E-16 0.13878E-16 0.26368E-15 0.12386E-11 0.23592E-15 0.27167E-12
 -.41633E-16 0.16641E-12 0.27756E-16 -.27756E-16 0.83267E-16 0.28311E-14 0.36457E-13 0.22164E-11 0.21844E-13 0.28023E-11
 -.27756E-16 0.19706E-14 0.13878E-15 -.69389E-16 0.55511E-16 -.13878E-16 0.11102E-15 0.15266E-15 0.55511E-16 0.41633E-16
 -.11102E-15 0.55511E-16 0.12490E-15 0.41633E-16 0.65226E-15 0.36349E-11 0.13878E-16 0.36082E-15 0.19429E-15 0.25473E-12
 -.97145E-16 0.33307E-15 0.31919E-15 0.10547E-14 0.31919E-15 0.55789E-14 0.23592E-15 -.13878E-16 -.83267E-16 -.27756E-16
 0.13878E-15 0.43875E-12 0.44339E-09 0.51875E-10 0.41633E-16 -.13878E-16 0.97145E-16 0.55511E-16 0.83267E-15 0.51119E-12
 -.27756E-16 0.29990E-13 0.11586E-11 0.26765E-10 0.20817E-14 0.12768E-14 -.27756E-16 0.83267E-16 0.70777E-15 0.25260E-12
 0.16653E-15 0.93675E-14 0.24356E-11 0.60309E-12 -.27756E-16 0.59119E-14 0.52736E-15 0.42674E-12 0.46453E-12 0.62095E-12
 -.27756E-16 0.12074E-14 0.62450E-15 0.94369E-15  0.0000     -.55511E-16 0.55511E-16 0.27756E-16 0.13878E-16 0.27756E-16
 0.20817E-16 0.48114E-13 0.41245E-13 0.49107E-11 -.41633E-16 0.23037E-14 0.53332E-13 0.64017E-11 0.72100E-11 0.11864E-11
 -.27756E-16 0.85218E-12 0.10314E-12 0.48850E-14  0.0000     0.55511E-16 0.16653E-15 0.12930E-11 0.11102E-15 0.23105E-12
 -.69389E-16 0.43468E-12 0.13878E-16 -.13878E-16 0.13878E-15 0.24564E-14 0.35985E-13 0.20479E-11 0.16223E-13 0.23904E-11
 -.55511E-16 0.21233E-14 0.16653E-15 -.13878E-16 0.55511E-16  0.0000     0.97145E-16 0.13878E-15 0.13878E-15 0.27756E-16
 -.55511E-16 0.55511E-16 0.83267E-16 -.13878E-16 0.76328E-15 0.40012E-11 0.55511E-16 0.27756E-15 0.20817E-15 0.23238E-12
 -.27756E-16 0.26368E-15 0.30531E-15 0.77716E-15 0.22204E-15 0.53707E-14 0.23592E-15 -.83267E-16 -.13878E-16  0.0000    
 0.97145E-16 0.37484E-12 0.17206E-07 0.12501E-09 0.27756E-16 0.69389E-16 0.41633E-16 0.19429E-15 0.94369E-15 0.52768E-12
 -.69389E-16 0.29490E-13 0.12129E-11 0.27981E-10 0.22898E-14 0.11241E-14 0.97145E-16 0.69389E-16 0.65226E-15 0.19498E-12
 0.55511E-16 0.54123E-14 0.23025E-11 0.52010E-12 -.83267E-16 0.45380E-14 0.49960E-15 0.44931E-12 0.47629E-12 0.71232E-12
 -.13878E-16 0.11900E-14 0.60368E-15 0.97145E-15 -.83267E-16 0.13878E-16  0.0000     0.55511E-16 0.62450E-16 -.34694E-16
 -.10408E-16 0.44388E-13 0.36665E-13 0.18154E-11 -.55511E-16 0.25258E-14 0.56663E-13 0.71590E-11 0.76684E-11 0.93239E-12
 0.69389E-17 0.92085E-12 0.11383E-12 0.70777E-14 -.27756E-16 -.41633E-16 0.13878E-15 0.12940E-11 0.20817E-16 0.18858E-12
 -.27756E-16 0.29729E-12 -.13878E-16 -.27756E-16 0.55511E-16 0.39413E-14 0.37664E-13 0.23674E-11 0.12573E-13 0.20154E-11
 -.69389E-16 0.24564E-14 0.13878E-15 -.83267E-16 0.55511E-16  0.0000     0.55511E-16 0.55511E-16 0.13878E-15 0.41633E-16
 -.41633E-16 0.27756E-16 0.69389E-16 -.55511E-16 0.88818E-15 0.20609E-11 -.83267E-16 0.16653E-15 0.83267E-16 0.24808E-12
 -.41633E-16 0.24980E-15 0.23592E-15 0.69389E-15 0.19429E-15 0.61062E-14 0.19429E-15 -.55511E-16 -.55511E-16 -.11102E-15
 0.27756E-16 0.32940E-12 0.45017E-09 0.42805E-10 0.13878E-16 0.13878E-16 -.55511E-16 0.12490E-15 0.11380E-14 0.58184E-12
 -.27756E-16 0.23592E-13 0.13067E-11 0.30621E-10 0.27062E-14 0.15404E-14 0.13878E-16 -.69389E-16 0.51348E-15 0.15535E-12
 0.10755E-15 0.48538E-14 0.27036E-11 0.44785E-12 -.13878E-16 0.42327E-14 0.30531E-15 0.48636E-12 0.50319E-12 0.75961E-12
 -.52042E-16 0.12178E-14 0.82920E-15 0.10963E-14 0.27756E-16 -.41633E-16 -.13878E-16  0.0000     0.11796E-15 -.53776E-16
 -.31225E-16 0.41012E-13 0.32446E-13 0.61547E-12 -.27756E-16 0.35388E-14 0.61728E-13 0.81146E-11 0.89137E-11 0.70677E-12
 0.48572E-16 0.10462E-11 0.13470E-12 0.64809E-14  0.0000     0.41633E-16 0.11102E-15 0.12436E-11 0.13878E-15 0.16251E-12
 -.69389E-16 0.13964E-12  0.0000     -.83267E-16 0.16653E-15 0.34278E-14 0.43812E-13 0.28520E-11 0.18860E-13 0.20914E-11
 -.13878E-16 0.30531E-14 0.11102E-15  0.0000      0.0000     0.27756E-16 0.83267E-16 0.27756E-16 0.13878E-15 -.27756E-16
 -.15266E-15 0.83267E-16 0.27756E-16 0.55511E-16 0.11796E-14 0.53077E-11 -.55511E-16 0.23592E-15 0.97145E-16 0.35852E-12
 -.55511E-16 0.30531E-15 0.23592E-15 0.61062E-15 0.29143E-15 0.74940E-14 0.19429E-15 -.55511E-16 -.27756E-16 -.27756E-16
 0.13878E-15 0.29464E-12 0.46074E-10 0.12958E-10 0.13878E-16 0.55511E-16 -.55511E-16 0.18041E-15 0.11796E-14 0.69567E-12
 -.90206E-16 0.24418E-13 0.20027E-11 0.40318E-10 0.33445E-14 0.16653E-14 -.41633E-16 -.13878E-16 0.40246E-15 0.14570E-12
 0.81532E-16 0.30618E-14 0.32949E-11 0.38100E-12 -.55511E-16 0.43437E-14 0.27756E-15 0.56782E-12 0.61827E-12 0.94250E-12
 0.33610E-17 0.14611E-14 0.83074E-15 0.12882E-14 0.37297E-16 0.13715E-16 0.67871E-16 0.99747E-17 0.77724E-16 -.19394E-16
 0.16534E-17 0.39226E-13 0.28683E-13 0.39331E-12 -.81532E-16 0.38823E-14 0.79883E-13 0.89346E-11 0.10254E-10 0.63022E-12
 0.96494E-17 0.11776E-11 0.16565E-12 0.92088E-14 -.56379E-16 0.73726E-17 0.61149E-16 0.11816E-11 0.14867E-15 0.12033E-12
 0.40549E-16 0.12298E-12 0.10002E-15 0.27756E-16 0.18388E-15 0.52059E-14 0.59363E-13 0.33591E-11 0.16591E-13 0.23228E-11