       N       E                     dE             d eps       ncg     rms          rms(c)
DAV:   1     0.196102585478E+03    0.19610E+03   -0.13934E+04  1808   0.922E+02
DAV:   2    -0.108235110302E+02   -0.20693E+03   -0.20097E+03  1836   0.265E+02
DAV:   3    -0.209496081718E+02   -0.10126E+02   -0.99196E+01  1896   0.779E+01
DAV:   4    -0.210775626712E+02   -0.12795E+00   -0.12754E+00  1916   0.776E+00
DAV:   5    -0.210788617107E+02   -0.12990E-02   -0.12990E-02  1980   0.551E-01    0.145E+01
RMM:   6    -0.190106692013E+02    0.20682E+01   -0.42844E+01  1900   0.640E+01    0.733E+00
RMM:   7    -0.172851767220E+02    0.17255E+01   -0.70129E+00  1868   0.267E+01    0.151E+00
RMM:   8    -0.173151193335E+02   -0.29943E-01   -0.11808E-01  1909   0.266E+00    0.212E+00
RMM:   9    -0.171992654015E+02    0.11585E+00   -0.70615E-02  1903   0.226E+00    0.739E-01
RMM:  10    -0.171890117196E+02    0.10254E-01   -0.20202E-02  1931   0.120E+00    0.459E-01
RMM:  11    -0.171835237739E+02    0.54879E-02   -0.84468E-03  1911   0.733E-01    0.181E-01
RMM:  12    -0.171823744613E+02    0.11493E-02   -0.18886E-03  1901   0.358E-01    0.922E-02
RMM:  13    -0.171820006556E+02    0.37381E-03   -0.56386E-04  1871   0.193E-01    0.589E-02
RMM:  14    -0.171818952985E+02    0.10536E-03   -0.32584E-04  1850   0.124E-01    0.419E-02
RMM:  15    -0.171820411396E+02   -0.14584E-03   -0.16386E-04  1797   0.993E-02    0.155E-02
RMM:  16    -0.171823957361E+02   -0.35460E-03   -0.11493E-04  1723   0.351E-02    0.137E-02
RMM:  17    -0.171824732354E+02   -0.77499E-04   -0.24585E-05  1693   0.216E-02    0.874E-03
RMM:  18    -0.171825458210E+02   -0.72586E-04   -0.76701E-06  1327   0.132E-02    0.688E-03
RMM:  19    -0.171825714842E+02   -0.25663E-04   -0.20763E-06  1172   0.107E-02    0.662E-03
RMM:  20    -0.171826039671E+02   -0.32483E-04   -0.17054E-06  1130   0.724E-03    0.597E-03
RMM:  21    -0.171826194796E+02   -0.15513E-04   -0.65234E-07  1081   0.472E-03    0.568E-03
RMM:  22    -0.171826260066E+02   -0.65270E-05   -0.23683E-07  1075   0.367E-03    0.568E-03
RMM:  23    -0.171826275363E+02   -0.15298E-05   -0.92124E-08  1016   0.279E-03    0.564E-03
RMM:  24    -0.171826275890E+02   -0.52704E-07   -0.45971E-09   308   0.108E-03
   1 F= -.17182628E+02 E0= -.17173468E+02  d E =-.183190E-01
