PROCAR lm decomposed
# of k-points:   31         # of bands:   28         # of ions:    5

 k-point     1 :    0.00000000 0.00000000 0.00000000     weight = 0.01000000

band     1 # energy  -11.61232299 # occ.  2.00000000
 
ion      s     py     pz     px    dxy    dyz    dz2    dxz  x2-y2    tot
    1  0.007  0.000  0.001  0.000  0.000  0.000  0.000  0.000  0.000  0.008
    2  0.043  0.000  0.002  0.000  0.000  0.000  0.000  0.000  0.000  0.045
    3  0.134  0.000  0.003  0.000  0.000  0.000  0.000  0.000  0.000  0.137
    4  0.304  0.000  0.000  0.000  0.000  0.000  0.009  0.000  0.000  0.314
    5  0.088  0.000  0.001  0.000  0.000  0.000  0.000  0.000  0.000  0.089
tot    0.576  0.000  0.007  0.000  0.000  0.000  0.009  0.000  0.000  0.592
 
band     2 # energy  -10.59722776 # occ.  2.00000000
 
ion      s     py     pz     px    dxy    dyz    dz2    dxz  x2-y2    tot
    1  0.117  0.000  0.010  0.000  0.000  0.000  0.000  0.000  0.000  0.128
    2  0.263  0.000  0.000  0.000  0.000  0.000  0.002  0.000  0.000  0.266
    3  0.050  0.000  0.018  0.000  0.000  0.000  0.001  0.000  0.000  0.068
    4  0.067  0.000  0.008  0.000  0.000  0.000  0.011  0.000  0.000  0.087
    5  0.039  0.000  0.000  0.000  0.000  0.000  0.000  0.000  0.000  0.040
tot    0.537  0.000  0.037  0.000  0.000  0.000  0.015  0.000  0.000  0.588
 
band     3 # energy   -8.98851808 # occ.  2.00000000
 
ion      s     py     pz     px    dxy    dyz    dz2    dxz  x2-y2    tot
    1  0.190  0.000  0.002  0.000  0.000  0.000  0.020  0.000  0.000  0.212
    2  0.004  0.000  0.045  0.000  0.000  0.000  0.001  0.000  0.000  0.050
    3  0.203  0.000  0.000  0.000  0.000  0.000  0.040  0.000  0.000  0.243
    4  0.009  0.000  0.031  0.000  0.000  0.000  0.025  0.000  0.000  0.066
    5  0.032  0.000  0.000  0.000  0.000  0.000  0.000  0.000  0.000  0.032
tot    0.437  0.000  0.079  0.000  0.000  0.000  0.086  0.000  0.000  0.603
 
band     4 # energy   -7.53015724 # occ.  2.00000000
 
ion      s     py     pz     px    dxy    dyz    dz2    dxz  x2-y2    tot
    1  0.109  0.000  0.005  0.000  0.000  0.000  0.131  0.000  0.000  0.245
    2  0.101  0.000  0.003  0.000  0.000  0.000  0.226  0.000  0.000  0.329
    3  0.032  0.000  0.014  0.000  0.000  0.000  0.091  0.000  0.000  0.137
    4  0.000  0.000  0.011  0.000  0.000  0.000  0.014  0.000  0.000  0.026
    5  0.006  0.000  0.000  0.000  0.000  0.000  0.000  0.000  0.000  0.006
tot    0.247  0.000  0.034  0.000  0.000  0.000  0.462  0.000  0.000  0.743
 
band     5 # energy   -6.08136517 # occ.  2.00000000
 
ion      s     py     pz     px    dxy    dyz    dz2    dxz  x2-y2    tot
    1  0.000  0.000  0.000  0.000  0.000  0.000  0.004  0.000  0.000  0.004
    2  0.001  0.000  0.001  0.000  0.000  0.000  0.006  0.000  0.000  0.007
    3  0.002  0.000  0.002  0.000  0.000  0.000  0.078  0.000  0.000  0.082
    4  0.005  0.000  0.042  0.000  0.000  0.001  0.593  0.000  0.009  0.650
    5  0.048  0.000  0.001  0.000  0.000  0.000  0.000  0.000  0.000  0.049
tot    0.056  0.000  0.045  0.000  0.000  0.001  0.680  0.000  0.009  0.792
 
band     6 # energy   -5.56443091 # occ.  2.00000000
 
ion      s     py     pz     px    dxy    dyz    dz2    dxz  x2-y2    tot
    1  0.000  0.000  0.001  0.000  0.000  0.000  0.025  0.000  0.000  0.026
    2  0.001  0.000  0.001  0.000  0.000  0.000  0.002  0.000  0.004  0.008
    3  0.000  0.000  0.006  0.000  0.000  0.014  0.244  0.000  0.008  0.273
    4  0.003  0.000  0.008  0.000  0.000  0.000  0.131  0.000  0.496  0.638
    5  0.002  0.001  0.000  0.000  0.000  0.000  0.000  0.000  0.000  0.003
tot    0.007  0.001  0.016  0.000  0.000  0.015  0.403  0.000  0.508  0.948
 
band     7 # energy   -5.53642481 # occ.  2.00000000
 
ion      s     py     pz     px    dxy    dyz    dz2    dxz  x2-y2    tot
    1  0.000  0.000  0.000  0.000  0.000  0.000  0.000  0.000  0.000  0.000
    2  0.000  0.000  0.000  0.000  0.008  0.000  0.000  0.000  0.000  0.008
    3  0.000  0.000  0.000  0.000  0.023  0.000  0.000  0.025  0.000  0.048
    4  0.000  0.000  0.000  0.000  0.906  0.000  0.000  0.004  0.000  0.910
    5  0.000  0.000  0.000  0.001  0.000  0.000  0.000  0.000  0.000  0.001
tot    0.000  0.000  0.000  0.001  0.937  0.000  0.000  0.029  0.000  0.967
 
band     8 # energy   -5.51435439 # occ.  2.00000000
 
ion      s     py     pz     px    dxy    dyz    dz2    dxz  x2-y2    tot
    1  0.000  0.000  0.001  0.000  0.000  0.000  0.037  0.000  0.000  0.037
    2  0.001  0.000  0.003  0.000  0.000  0.000  0.003  0.000  0.004  0.012
    3  0.002  0.000  0.003  0.000  0.000  0.014  0.368  0.000  0.007  0.393
    4  0.001  0.000  0.013  0.000  0.000  0.000  0.079  0.000  0.401  0.494
    5  0.003  0.001  0.000  0.000  0.000  0.000  0.000  0.000  0.000  0.004
tot    0.007  0.001  0.020  0.000  0.000  0.014  0.487  0.000  0.412  0.940
 
band     9 # energy   -5.31966926 # occ.  2.00000000
 
ion      s     py     pz     px    dxy    dyz    dz2    dxz  x2-y2    tot
    1  0.001  0.000  0.005  0.000  0.000  0.000  0.256  0.000  0.000  0.262
    2  0.004  0.000  0.000  0.000  0.000  0.000  0.584  0.000  0.001  0.590
    3  0.001  0.000  0.013  0.000  0.000  0.001  0.052  0.000  0.000  0.067
    4  0.002  0.000  0.006  0.000  0.000  0.001  0.000  0.000  0.003  0.012
    5  0.003  0.000  0.000  0.000  0.000  0.000  0.000  0.000  0.000  0.003
tot    0.010  0.000  0.025  0.000  0.000  0.001  0.892  0.000  0.004  0.933
 
band    10 # energy   -5.28187224 # occ.  2.00000000
 
ion      s     py     pz     px    dxy    dyz    dz2    dxz  x2-y2    tot
    1  0.000  0.000  0.000  0.000  0.014  0.000  0.000  0.001  0.000  0.015
    2  0.000  0.000  0.000  0.000  0.008  0.000  0.000  0.054  0.000  0.063
    3  0.000  0.000  0.000  0.000  0.722  0.000  0.000  0.025  0.004  0.750
    4  0.000  0.000  0.000  0.000  0.019  0.000  0.000  0.119  0.000  0.139
    5  0.000  0.000  0.000  0.000  0.000  0.000  0.000  0.000  0.000  0.000
tot    0.000  0.000  0.000  0.000  0.763  0.001  0.000  0.198  0.004  0.967
 
band    11 # energy   -5.27966795 # occ.  2.00000000
 
ion      s     py     pz     px    dxy    dyz    dz2    dxz  x2-y2    tot
    1  0.000  0.000  0.000  0.000  0.000  0.000  0.000  0.000  0.015  0.016
    2  0.000  0.000  0.000  0.000  0.000  0.053  0.000  0.000  0.018  0.072
    3  0.000  0.000  0.000  0.000  0.003  0.019  0.000  0.000  0.741  0.763
    4  0.000  0.000  0.000  0.000  0.000  0.104  0.000  0.001  0.011  0.116
    5  0.000  0.000  0.000  0.000  0.000  0.000  0.000  0.000  0.000  0.000
tot    0.000  0.000  0.000  0.000  0.004  0.176  0.001  0.001  0.785  0.966
 
band    12 # energy   -5.22699620 # occ.  2.00000000
 
ion      s     py     pz     px    dxy    dyz    dz2    dxz  x2-y2    tot
    1  0.000  0.000  0.000  0.000  0.007  0.002  0.000  0.026  0.000  0.036
    2  0.000  0.000  0.000  0.000  0.787  0.001  0.000  0.008  0.055  0.851
    3  0.000  0.000  0.000  0.000  0.000  0.004  0.000  0.049  0.000  0.054
    4  0.000  0.000  0.000  0.000  0.013  0.001  0.000  0.011  0.001  0.026
    5  0.000  0.000  0.000  0.000  0.000  0.000  0.000  0.000  0.000  0.000
tot    0.000  0.000  0.000  0.000  0.808  0.007  0.000  0.095  0.057  0.967
 
band    13 # energy   -5.22633191 # occ.  2.00000000
 
ion      s     py     pz     px    dxy    dyz    dz2    dxz  x2-y2    tot
    1  0.000  0.000  0.000  0.000  0.001  0.027  0.001  0.002  0.006  0.036
    2  0.000  0.000  0.000  0.000  0.055  0.011  0.000  0.001  0.779  0.846
    3  0.000  0.000  0.000  0.000  0.000  0.051  0.000  0.003  0.003  0.058
    4  0.000  0.000  0.000  0.000  0.001  0.011  0.000  0.001  0.014  0.027
    5  0.000  0.000  0.000  0.000  0.000  0.000  0.000  0.000  0.000  0.000
tot    0.000  0.000  0.000  0.000  0.057  0.099  0.001  0.007  0.802  0.967
 
band    14 # energy   -4.97107605 # occ.  2.00000000
 
ion      s     py     pz     px    dxy    dyz    dz2    dxz  x2-y2    tot
    1  0.000  0.000  0.000  0.000  0.305  0.004  0.000  0.003  0.530  0.842
    2  0.000  0.000  0.000  0.000  0.001  0.052  0.000  0.030  0.001  0.083
    3  0.000  0.000  0.000  0.000  0.010  0.002  0.000  0.001  0.020  0.033
    4  0.000  0.000  0.000  0.000  0.001  0.005  0.000  0.004  0.001  0.010
    5  0.000  0.000  0.000  0.000  0.000  0.000  0.000  0.000  0.000  0.000
tot    0.000  0.000  0.000  0.000  0.316  0.063  0.000  0.037  0.551  0.968
 
band    15 # energy   -4.97073903 # occ.  2.00000000
 
ion      s     py     pz     px    dxy    dyz    dz2    dxz  x2-y2    tot
    1  0.000  0.000  0.000  0.000  0.529  0.003  0.000  0.005  0.305  0.841
    2  0.000  0.000  0.000  0.000  0.001  0.030  0.000  0.052  0.000  0.084
    3  0.000  0.000  0.000  0.000  0.018  0.001  0.000  0.002  0.011  0.032
    4  0.000  0.000  0.000  0.000  0.001  0.003  0.000  0.006  0.001  0.011
    5  0.000  0.000  0.000  0.000  0.000  0.000  0.000  0.000  0.000  0.000
tot    0.000  0.000  0.000  0.000  0.549  0.036  0.000  0.065  0.317  0.968
 
band    16 # energy   -4.87768612 # occ.  2.00000000
 
ion      s     py     pz     px    dxy    dyz    dz2    dxz  x2-y2    tot
    1  0.027  0.000  0.000  0.000  0.000  0.000  0.397  0.000  0.000  0.424
    2  0.013  0.000  0.045  0.000  0.000  0.000  0.051  0.000  0.001  0.110
    3  0.000  0.000  0.078  0.000  0.000  0.002  0.001  0.000  0.004  0.086
    4  0.014  0.000  0.042  0.000  0.000  0.014  0.026  0.000  0.002  0.098
    5  0.016  0.000  0.000  0.000  0.000  0.000  0.000  0.000  0.000  0.016
tot    0.070  0.000  0.166  0.000  0.000  0.016  0.476  0.000  0.007  0.735
 
band    17 # energy   -4.76829660 # occ.  2.00000000
 
ion      s     py     pz     px    dxy    dyz    dz2    dxz  x2-y2    tot
    1  0.000  0.000  0.000  0.000  0.001  0.000  0.000  0.004  0.000  0.005
    2  0.000  0.000  0.000  0.000  0.023  0.000  0.000  0.005  0.000  0.028
    3  0.000  0.000  0.000  0.000  0.150  0.000  0.000  0.089  0.000  0.239
    4  0.000  0.000  0.000  0.000  0.002  0.000  0.000  0.709  0.000  0.711
    5  0.000  0.000  0.000  0.001  0.000  0.000  0.000  0.000  0.000  0.001
tot    0.000  0.000  0.000  0.001  0.176  0.000  0.000  0.807  0.000  0.984
 
band    18 # energy   -4.72893563 # occ.  2.00000000
 
ion      s     py     pz     px    dxy    dyz    dz2    dxz  x2-y2    tot
    1  0.001  0.000  0.000  0.000  0.000  0.004  0.006  0.000  0.000  0.011
    2  0.000  0.000  0.001  0.000  0.000  0.003  0.002  0.000  0.022  0.028
    3  0.000  0.000  0.002  0.000  0.000  0.105  0.000  0.000  0.129  0.236
    4  0.000  0.000  0.002  0.000  0.000  0.691  0.000  0.000  0.007  0.700
    5  0.000  0.000  0.000  0.000  0.000  0.000  0.000  0.000  0.000  0.001
tot    0.002  0.001  0.004  0.000  0.000  0.803  0.008  0.000  0.158  0.976
 
band    19 # energy   -4.47749009 # occ.  2.00000000
 
ion      s     py     pz     px    dxy    dyz    dz2    dxz  x2-y2    tot
    1  0.000  0.000  0.000  0.000  0.090  0.002  0.000  0.046  0.003  0.141
    2  0.000  0.000  0.000  0.000  0.060  0.014  0.000  0.429  0.002  0.506
    3  0.000  0.000  0.000  0.000  0.025  0.008  0.000  0.245  0.001  0.278
    4  0.000  0.000  0.000  0.000  0.011  0.002  0.000  0.046  0.000  0.059
    5  0.000  0.000  0.000  0.000  0.000  0.000  0.000  0.000  0.000  0.000
tot    0.000  0.000  0.000  0.000  0.186  0.025  0.000  0.766  0.006  0.984
 
band    20 # energy   -4.47705980 # occ.  2.00000000
 
ion      s     py     pz     px    dxy    dyz    dz2    dxz  x2-y2    tot
    1  0.000  0.000  0.000  0.000  0.003  0.048  0.000  0.002  0.090  0.143
    2  0.000  0.000  0.000  0.000  0.002  0.432  0.000  0.014  0.059  0.507
    3  0.000  0.000  0.000  0.000  0.001  0.235  0.000  0.008  0.023  0.266
    4  0.000  0.000  0.000  0.000  0.000  0.057  0.000  0.002  0.009  0.068
    5  0.000  0.000  0.000  0.000  0.000  0.000  0.000  0.000  0.000  0.000
tot    0.000  0.000  0.000  0.000  0.006  0.771  0.000  0.025  0.181  0.984
 
band    21 # energy   -4.25908105 # occ.  2.00000000
 
ion      s     py     pz     px    dxy    dyz    dz2    dxz  x2-y2    tot
    1  0.000  0.000  0.000  0.000  0.011  0.001  0.000  0.324  0.000  0.336
    2  0.000  0.000  0.000  0.000  0.000  0.000  0.000  0.118  0.000  0.118
    3  0.000  0.000  0.000  0.000  0.010  0.001  0.000  0.436  0.000  0.448
    4  0.000  0.000  0.000  0.000  0.011  0.000  0.000  0.073  0.000  0.085
    5  0.000  0.000  0.000  0.000  0.000  0.000  0.000  0.000  0.000  0.000
tot    0.000  0.000  0.000  0.000  0.032  0.003  0.000  0.951  0.000  0.986
 
band    22 # energy   -4.25805655 # occ.  2.00000000
 
ion      s     py     pz     px    dxy    dyz    dz2    dxz  x2-y2    tot
    1  0.000  0.000  0.000  0.000  0.000  0.322  0.000  0.001  0.011  0.334
    2  0.000  0.000  0.000  0.000  0.000  0.116  0.000  0.000  0.000  0.117
    3  0.000  0.000  0.000  0.000  0.000  0.430  0.000  0.001  0.011  0.442
    4  0.000  0.000  0.000  0.000  0.000  0.084  0.000  0.000  0.009  0.094
    5  0.000  0.000  0.000  0.000  0.000  0.000  0.000  0.000  0.000  0.000
tot    0.000  0.000  0.000  0.000  0.000  0.952  0.000  0.003  0.031  0.986
 
band    23 # energy   -3.98718373 # occ.  2.00000000
 
ion      s     py     pz     px    dxy    dyz    dz2    dxz  x2-y2    tot
    1  0.000  0.000  0.000  0.000  0.007  0.049  0.000  0.523  0.001  0.579
    2  0.000  0.000  0.000  0.000  0.021  0.023  0.000  0.249  0.002  0.295
    3  0.000  0.000  0.000  0.000  0.006  0.008  0.000  0.090  0.001  0.105
    4  0.000  0.000  0.000  0.000  0.001  0.001  0.000  0.008  0.000  0.010
    5  0.000  0.000  0.000  0.000  0.000  0.000  0.000  0.000  0.000  0.000
tot    0.000  0.000  0.000  0.000  0.035  0.081  0.000  0.870  0.003  0.990
 
band    24 # energy   -3.98695835 # occ.  2.00000000
 
ion      s     py     pz     px    dxy    dyz    dz2    dxz  x2-y2    tot
    1  0.000  0.000  0.000  0.000  0.001  0.524  0.000  0.049  0.007  0.580
    2  0.000  0.000  0.000  0.000  0.002  0.248  0.000  0.023  0.021  0.294
    3  0.000  0.000  0.000  0.000  0.001  0.089  0.000  0.008  0.006  0.104
    4  0.000  0.000  0.000  0.000  0.000  0.009  0.000  0.001  0.001  0.011
    5  0.000  0.000  0.000  0.000  0.000  0.000  0.000  0.000  0.000  0.000
tot    0.000  0.000  0.000  0.000  0.003  0.870  0.000  0.081  0.035  0.990
 
band    25 # energy   -2.92064902 # occ.  2.00000000
 
ion      s     py     pz     px    dxy    dyz    dz2    dxz  x2-y2    tot
    1  0.020  0.000  0.152  0.000  0.000  0.000  0.031  0.000  0.000  0.203
    2  0.015  0.000  0.079  0.000  0.000  0.000  0.023  0.000  0.000  0.117
    3  0.012  0.000  0.036  0.000  0.000  0.000  0.018  0.000  0.000  0.066
    4  0.009  0.000  0.012  0.000  0.000  0.000  0.008  0.000  0.000  0.030
    5  0.004  0.000  0.000  0.000  0.000  0.000  0.000  0.000  0.000  0.004
tot    0.060  0.000  0.280  0.000  0.000  0.000  0.081  0.000  0.000  0.420
 
band    26 # energy    1.60547074 # occ.  0.00000000
 
ion      s     py     pz     px    dxy    dyz    dz2    dxz  x2-y2    tot
    1  0.018  0.000  0.002  0.000  0.000  0.000  0.018  0.000  0.000  0.037
    2  0.025  0.000  0.001  0.000  0.000  0.000  0.023  0.000  0.000  0.049
    3  0.032  0.000  0.001  0.000  0.000  0.000  0.029  0.000  0.000  0.062
    4  0.035  0.000  0.000  0.000  0.000  0.000  0.036  0.000  0.000  0.071
    5  0.000  0.000  0.002  0.000  0.000  0.000  0.000  0.000  0.000  0.003
tot    0.110  0.000  0.006  0.000  0.000  0.000  0.106  0.000  0.000  0.222
 
band    27 # energy    1.91791923 # occ.  0.00000000
 
ion      s     py     pz     px    dxy    dyz    dz2    dxz  x2-y2    tot
    1  0.005  0.000  0.003  0.000  0.000  0.000  0.005  0.000  0.000  0.014
    2  0.001  0.000  0.004  0.000  0.000  0.000  0.001  0.000  0.000  0.006
    3  0.000  0.000  0.004  0.000  0.000  0.000  0.000  0.000  0.000  0.005
    4  0.003  0.000  0.003  0.000  0.000  0.000  0.005  0.000  0.000  0.010
    5  0.001  0.000  0.001  0.000  0.000  0.000  0.000  0.000  0.000  0.002
tot    0.010  0.000  0.015  0.000  0.000  0.000  0.011  0.000  0.000  0.037
 
band    28 # energy    2.35057941 # occ.  0.00000000
 
ion      s     py     pz     px    dxy    dyz    dz2    dxz  x2-y2    tot
    1  0.005  0.000  0.002  0.000  0.000  0.000  0.005  0.000  0.000  0.012
    2  0.001  0.000  0.003  0.000  0.000  0.000  0.001  0.000  0.000  0.005
    3  0.000  0.000  0.003  0.000  0.000  0.000  0.000  0.000  0.000  0.003
    4  0.002  0.000  0.002  0.000  0.000  0.000  0.003  0.000  0.000  0.007
    5  0.001  0.000  0.000  0.000  0.000  0.000  0.000  0.000  0.000  0.001
tot    0.009  0.000  0.011  0.000  0.000  0.000  0.009  0.000  0.000  0.029
 

 k-point     2 :    0.10000000 0.00000000 0.00000000     weight = 0.04000000

band     1 # energy  -11.30815047 # occ.  2.00000000
 
ion      s     py     pz     px    dxy    dyz    dz2    dxz  x2-y2    tot
    1  0.006  0.000  0.001  0.000  0.000  0.000  0.000  0.000  0.000  0.007
    2  0.040  0.000  0.001  0.001  0.000  0.000  0.000  0.000  0.000  0.043
    3  0.127  0.001  0.003  0.003  0.000  0.000  0.000  0.000  0.000  0.134
    4  0.296  0.002  0.000  0.008  0.001  0.000  0.008  0.000  0.000  0.316
    5  0.092  0.000  0.001  0.000  0.000  0.000  0.000  0.000  0.000  0.093
tot    0.561  0.004  0.007  0.012  0.001  0.000  0.008  0.001  0.000  0.592
 
band     2 # energy  -10.29945991 # occ.  2.00000000
 
ion      s     py     pz     px    dxy    dyz    dz2    dxz  x2-y2    tot
    1  0.112  0.001  0.010  0.002  0.000  0.000  0.000  0.001  0.000  0.126
    2  0.256  0.002  0.000  0.006  0.000  0.000  0.002  0.000  0.000  0.266
    3  0.052  0.000  0.017  0.001  0.000  0.000  0.000  0.001  0.000  0.073
    4  0.060  0.001  0.008  0.002  0.000  0.000  0.011  0.001  0.000  0.084
    5  0.040  0.000  0.000  0.000  0.000  0.000  0.000  0.000  0.000  0.040
tot    0.520  0.004  0.036  0.011  0.001  0.001  0.013  0.003  0.000  0.589
 
band     3 # energy   -8.72555328 # occ.  2.00000000
 
ion      s     py     pz     px    dxy    dyz    dz2    dxz  x2-y2    tot
    1  0.179  0.001  0.002  0.004  0.000  0.000  0.017  0.000  0.000  0.205
    2  0.005  0.000  0.044  0.000  0.000  0.002  0.001  0.005  0.000  0.057
    3  0.194  0.002  0.000  0.005  0.000  0.000  0.037  0.000  0.000  0.239
    4  0.006  0.000  0.031  0.000  0.001  0.002  0.026  0.006  0.000  0.073
    5  0.033  0.000  0.000  0.000  0.000  0.000  0.000  0.000  0.000  0.033
tot    0.417  0.003  0.079  0.010  0.001  0.003  0.081  0.011  0.001  0.607
 
band     4 # energy   -7.30934848 # occ.  2.00000000
 
ion      s     py     pz     px    dxy    dyz    dz2    dxz  x2-y2    tot
    1  0.105  0.001  0.004  0.004  0.001  0.000  0.133  0.000  0.000  0.249
    2  0.090  0.001  0.004  0.004  0.001  0.000  0.229  0.001  0.000  0.329
    3  0.026  0.000  0.015  0.001  0.000  0.001  0.088  0.003  0.000  0.135
    4  0.000  0.000  0.011  0.000  0.001  0.001  0.014  0.004  0.000  0.031
    5  0.005  0.000  0.000  0.000  0.000  0.000  0.000  0.000  0.000  0.005
tot    0.226  0.003  0.034  0.009  0.003  0.002  0.464  0.008  0.001  0.750
 
band     5 # energy   -6.10846916 # occ.  2.00000000
 
ion      s     py     pz     px    dxy    dyz    dz2    dxz  x2-y2    tot
    1  0.000  0.000  0.000  0.000  0.000  0.000  0.004  0.000  0.000  0.004
    2  0.001  0.000  0.000  0.000  0.002  0.000  0.001  0.000  0.001  0.004
    3  0.000  0.000  0.005  0.000  0.012  0.000  0.123  0.001  0.004  0.145
    4  0.007  0.000  0.039  0.001  0.016  0.024  0.427  0.087  0.015  0.616
    5  0.044  0.000  0.001  0.000  0.000  0.000  0.000  0.000  0.000  0.044
tot    0.052  0.000  0.044  0.001  0.030  0.024  0.555  0.088  0.019  0.814
 
band     6 # energy   -5.66532236 # occ.  2.00000000
 
ion      s     py     pz     px    dxy    dyz    dz2    dxz  x2-y2    tot
    1  0.001  0.000  0.000  0.000  0.002  0.000  0.011  0.000  0.001  0.016
    2  0.001  0.000  0.002  0.000  0.025  0.001  0.094  0.002  0.009  0.133
    3  0.000  0.000  0.016  0.000  0.001  0.029  0.073  0.083  0.001  0.203
    4  0.005  0.000  0.006  0.000  0.265  0.004  0.188  0.017  0.089  0.576
    5  0.001  0.000  0.000  0.000  0.000  0.000  0.000  0.000  0.000  0.002
tot    0.009  0.000  0.024  0.001  0.293  0.033  0.367  0.103  0.099  0.930
 
band     7 # energy   -5.61621619 # occ.  2.00000000
 
ion      s     py     pz     px    dxy    dyz    dz2    dxz  x2-y2    tot
    1  0.000  0.000  0.001  0.000  0.000  0.000  0.045  0.000  0.000  0.047
    2  0.001  0.000  0.002  0.000  0.015  0.005  0.001  0.014  0.005  0.043
    3  0.001  0.000  0.003  0.000  0.015  0.000  0.276  0.000  0.005  0.301
    4  0.000  0.000  0.006  0.000  0.286  0.006  0.122  0.015  0.117  0.554
    5  0.001  0.000  0.000  0.000  0.000  0.000  0.000  0.000  0.000  0.001
tot    0.003  0.000  0.012  0.001  0.317  0.011  0.445  0.029  0.127  0.946
 
band     8 # energy   -5.43562376 # occ.  2.00000000
 
ion      s     py     pz     px    dxy    dyz    dz2    dxz  x2-y2    tot
    1  0.000  0.000  0.000  0.000  0.001  0.000  0.001  0.001  0.000  0.003
    2  0.000  0.000  0.000  0.000  0.005  0.001  0.008  0.002  0.009  0.026
    3  0.000  0.000  0.000  0.000  0.014  0.026  0.011  0.009  0.006  0.066
    4  0.000  0.001  0.000  0.000  0.231  0.000  0.001  0.004  0.635  0.871
    5  0.000  0.001  0.000  0.000  0.000  0.000  0.000  0.000  0.000  0.001
tot    0.001  0.002  0.001  0.000  0.251  0.027  0.020  0.015  0.650  0.967
 
band     9 # energy   -5.36905638 # occ.  2.00000000
 
ion      s     py     pz     px    dxy    dyz    dz2    dxz  x2-y2    tot
    1  0.001  0.000  0.002  0.000  0.016  0.003  0.070  0.009  0.005  0.107
    2  0.001  0.000  0.002  0.000  0.013  0.014  0.156  0.048  0.006  0.242
    3  0.000  0.000  0.005  0.000  0.301  0.005  0.040  0.009  0.110  0.470
    4  0.000  0.000  0.002  0.000  0.034  0.007  0.041  0.028  0.009  0.123
    5  0.002  0.000  0.000  0.000  0.000  0.000  0.000  0.000  0.000  0.002
tot    0.005  0.000  0.012  0.001  0.365  0.028  0.307  0.094  0.131  0.943
 
band    10 # energy   -5.33202123 # occ.  2.00000000
 
ion      s     py     pz     px    dxy    dyz    dz2    dxz  x2-y2    tot
    1  0.004  0.000  0.001  0.000  0.030  0.005  0.033  0.014  0.010  0.096
    2  0.003  0.000  0.008  0.000  0.051  0.026  0.212  0.074  0.018  0.392
    3  0.000  0.000  0.021  0.000  0.093  0.005  0.073  0.007  0.028  0.227
    4  0.002  0.000  0.006  0.000  0.066  0.020  0.022  0.060  0.025  0.201
    5  0.002  0.000  0.000  0.000  0.000  0.000  0.000  0.000  0.000  0.002
tot    0.011  0.000  0.036  0.001  0.239  0.056  0.340  0.155  0.082  0.919
 
band    11 # energy   -5.28807442 # occ.  2.00000000
 
ion      s     py     pz     px    dxy    dyz    dz2    dxz  x2-y2    tot
    1  0.001  0.000  0.000  0.000  0.022  0.004  0.030  0.014  0.008  0.079
    2  0.001  0.000  0.000  0.001  0.489  0.000  0.039  0.000  0.157  0.687
    3  0.000  0.000  0.001  0.000  0.025  0.002  0.072  0.013  0.012  0.126
    4  0.001  0.000  0.001  0.000  0.016  0.002  0.022  0.014  0.011  0.066
    5  0.000  0.000  0.000  0.000  0.000  0.000  0.000  0.000  0.000  0.000
tot    0.003  0.000  0.003  0.001  0.552  0.008  0.163  0.041  0.188  0.958
 
band    12 # energy   -5.20159376 # occ.  2.00000000
 
ion      s     py     pz     px    dxy    dyz    dz2    dxz  x2-y2    tot
    1  0.000  0.000  0.000  0.000  0.003  0.004  0.001  0.001  0.009  0.018
    2  0.000  0.000  0.000  0.000  0.002  0.057  0.001  0.019  0.008  0.087
    3  0.000  0.000  0.000  0.000  0.152  0.039  0.000  0.014  0.481  0.686
    4  0.000  0.000  0.000  0.000  0.001  0.132  0.000  0.042  0.002  0.177
    5  0.000  0.000  0.000  0.000  0.000  0.000  0.000  0.000  0.000  0.000
tot    0.000  0.001  0.000  0.000  0.158  0.232  0.002  0.076  0.500  0.969
 
band    13 # energy   -5.12813370 # occ.  2.00000000
 
ion      s     py     pz     px    dxy    dyz    dz2    dxz  x2-y2    tot
    1  0.000  0.000  0.000  0.000  0.003  0.022  0.010  0.007  0.005  0.049
    2  0.000  0.001  0.001  0.000  0.205  0.005  0.002  0.001  0.583  0.797
    3  0.000  0.000  0.000  0.000  0.019  0.035  0.000  0.015  0.026  0.095
    4  0.000  0.000  0.000  0.000  0.007  0.001  0.000  0.001  0.017  0.026
    5  0.000  0.000  0.000  0.000  0.000  0.000  0.000  0.000  0.000  0.000
tot    0.000  0.001  0.001  0.000  0.234  0.062  0.013  0.024  0.631  0.966
 
band    14 # energy   -5.11247990 # occ.  2.00000000
 
ion      s     py     pz     px    dxy    dyz    dz2    dxz  x2-y2    tot
    1  0.003  0.000  0.003  0.000  0.027  0.003  0.355  0.008  0.010  0.408
    2  0.001  0.000  0.019  0.000  0.026  0.013  0.065  0.033  0.036  0.192
    3  0.000  0.000  0.010  0.000  0.175  0.013  0.001  0.037  0.056  0.292
    4  0.002  0.000  0.007  0.000  0.004  0.001  0.001  0.002  0.007  0.024
    5  0.003  0.000  0.000  0.000  0.000  0.000  0.000  0.000  0.000  0.003
tot    0.009  0.000  0.040  0.000  0.231  0.030  0.421  0.079  0.109  0.919
 
band    15 # energy   -4.99443475 # occ.  2.00000000
 
ion      s     py     pz     px    dxy    dyz    dz2    dxz  x2-y2    tot
    1  0.002  0.000  0.000  0.001  0.546  0.001  0.041  0.004  0.183  0.777
    2  0.000  0.000  0.007  0.000  0.005  0.003  0.015  0.010  0.002  0.042
    3  0.001  0.000  0.004  0.000  0.008  0.015  0.028  0.045  0.002  0.103
    4  0.000  0.000  0.001  0.000  0.012  0.003  0.000  0.008  0.004  0.029
    5  0.000  0.000  0.000  0.000  0.000  0.000  0.000  0.000  0.000  0.000
tot    0.003  0.000  0.013  0.001  0.570  0.023  0.084  0.067  0.191  0.952
 
band    16 # energy   -4.88716614 # occ.  2.00000000
 
ion      s     py     pz     px    dxy    dyz    dz2    dxz  x2-y2    tot
    1  0.000  0.001  0.000  0.000  0.180  0.011  0.000  0.004  0.524  0.720
    2  0.000  0.000  0.000  0.000  0.001  0.102  0.000  0.034  0.002  0.139
    3  0.000  0.000  0.000  0.000  0.009  0.011  0.000  0.004  0.022  0.047
    4  0.000  0.000  0.000  0.000  0.001  0.045  0.000  0.016  0.002  0.064
    5  0.000  0.000  0.000  0.000  0.000  0.000  0.000  0.000  0.000  0.000
tot    0.000  0.001  0.000  0.000  0.191  0.170  0.000  0.058  0.551  0.970
 
band    17 # energy   -4.76110656 # occ.  2.00000000
 
ion      s     py     pz     px    dxy    dyz    dz2    dxz  x2-y2    tot
    1  0.000  0.000  0.000  0.000  0.014  0.004  0.000  0.004  0.069  0.091
    2  0.000  0.000  0.000  0.000  0.019  0.009  0.000  0.000  0.019  0.048
    3  0.000  0.000  0.000  0.000  0.065  0.042  0.002  0.061  0.119  0.289
    4  0.000  0.000  0.000  0.000  0.003  0.354  0.000  0.191  0.003  0.552
    5  0.000  0.000  0.000  0.000  0.000  0.000  0.000  0.000  0.000  0.001
tot    0.000  0.000  0.000  0.000  0.101  0.409  0.002  0.257  0.210  0.981
 
band    18 # energy   -4.69695633 # occ.  2.00000000
 
ion      s     py     pz     px    dxy    dyz    dz2    dxz  x2-y2    tot
    1  0.000  0.000  0.000  0.000  0.035  0.008  0.004  0.019  0.007  0.073
    2  0.000  0.000  0.000  0.000  0.027  0.007  0.005  0.041  0.020  0.101
    3  0.002  0.000  0.001  0.000  0.040  0.119  0.021  0.182  0.039  0.404
    4  0.000  0.000  0.006  0.000  0.008  0.147  0.005  0.204  0.009  0.380
    5  0.004  0.000  0.000  0.000  0.000  0.000  0.000  0.000  0.000  0.004
tot    0.007  0.000  0.007  0.001  0.110  0.282  0.035  0.446  0.075  0.962
 
band    19 # energy   -4.48690754 # occ.  2.00000000
 
ion      s     py     pz     px    dxy    dyz    dz2    dxz  x2-y2    tot
    1  0.000  0.000  0.000  0.000  0.036  0.061  0.000  0.009  0.103  0.208
    2  0.000  0.000  0.000  0.000  0.015  0.271  0.000  0.095  0.049  0.429
    3  0.000  0.000  0.000  0.000  0.012  0.134  0.000  0.050  0.041  0.238
    4  0.000  0.000  0.000  0.000  0.003  0.071  0.000  0.028  0.007  0.108
    5  0.000  0.000  0.000  0.000  0.000  0.000  0.000  0.000  0.000  0.000
tot    0.000  0.000  0.000  0.000  0.065  0.536  0.000  0.182  0.200  0.984
 
band    20 # energy   -4.45288334 # occ.  2.00000000
 
ion      s     py     pz     px    dxy    dyz    dz2    dxz  x2-y2    tot
    1  0.000  0.000  0.004  0.000  0.030  0.091  0.002  0.307  0.012  0.446
    2  0.000  0.000  0.004  0.000  0.043  0.060  0.000  0.159  0.011  0.277
    3  0.003  0.000  0.001  0.000  0.010  0.015  0.024  0.055  0.001  0.109
    4  0.000  0.000  0.003  0.000  0.003  0.039  0.000  0.078  0.000  0.124
    5  0.002  0.000  0.000  0.000  0.000  0.000  0.000  0.000  0.000  0.002
tot    0.005  0.000  0.013  0.000  0.085  0.204  0.027  0.600  0.024  0.958
 
band    21 # energy   -4.28877252 # occ.  2.00000000
 
ion      s     py     pz     px    dxy    dyz    dz2    dxz  x2-y2    tot
    1  0.012  0.000  0.014  0.000  0.013  0.077  0.085  0.247  0.005  0.453
    2  0.001  0.000  0.001  0.000  0.009  0.091  0.002  0.243  0.004  0.351
    3  0.001  0.000  0.003  0.000  0.004  0.001  0.009  0.006  0.001  0.027
    4  0.000  0.000  0.005  0.000  0.000  0.015  0.000  0.048  0.000  0.069
    5  0.002  0.000  0.000  0.000  0.000  0.000  0.000  0.000  0.000  0.002
tot    0.017  0.000  0.023  0.001  0.027  0.184  0.097  0.544  0.011  0.902
 
band    22 # energy   -4.25468428 # occ.  2.00000000
 
ion      s     py     pz     px    dxy    dyz    dz2    dxz  x2-y2    tot
    1  0.000  0.000  0.000  0.000  0.004  0.243  0.000  0.076  0.009  0.332
    2  0.000  0.000  0.000  0.000  0.005  0.064  0.000  0.030  0.013  0.111
    3  0.000  0.000  0.000  0.000  0.002  0.330  0.000  0.112  0.005  0.448
    4  0.000  0.000  0.000  0.000  0.003  0.066  0.000  0.018  0.008  0.095
    5  0.000  0.000  0.000  0.000  0.000  0.000  0.000  0.000  0.000  0.000
tot    0.000  0.000  0.000  0.000  0.013  0.702  0.000  0.236  0.035  0.987
 
band    23 # energy   -3.98268729 # occ.  2.00000000
 
ion      s     py     pz     px    dxy    dyz    dz2    dxz  x2-y2    tot
    1  0.000  0.000  0.000  0.000  0.002  0.405  0.000  0.134  0.007  0.549
    2  0.000  0.000  0.000  0.000  0.005  0.221  0.000  0.075  0.016  0.318
    3  0.000  0.000  0.000  0.000  0.002  0.077  0.000  0.026  0.006  0.111