   5   5   0   0
  0.3477306E+02  0.2573869E-09  0.2573869E-09  0.3030467E-08  0.1000000E-15
  1.000000000000000E-004
  CAR 
 unknown system                          
      7.90899633    -13.99127877  301     -2.27125311      1.00000000
    -13.991  0.0000E+00  0.0000E+00
    -13.918  0.0000E+00  0.0000E+00
    -13.845  0.0000E+00  0.0000E+00
    -13.772  0.0000E+00  0.0000E+00
    -13.699  0.0000E+00  0.0000E+00
    -13.626  0.0000E+00  0.0000E+00
    -13.553  0.0000E+00  0.0000E+00
    -13.480  0.0000E+00  0.0000E+00
    -13.407  0.0000E+00  0.0000E+00
    -13.334  0.0000E+00  0.0000E+00
    -13.261  0.0000E+00  0.0000E+00
    -13.188  0.0000E+00  0.0000E+00
    -13.115  0.0000E+00  0.0000E+00
    -13.042  0.0000E+00  0.0000E+00
    -12.969  0.0000E+00  0.0000E+00
    -12.896  0.0000E+00  0.0000E+00
    -12.823  0.0000E+00  0.0000E+00
    -12.750  0.0000E+00  0.0000E+00
    -12.677  0.0000E+00  0.0000E+00
    -12.604  0.0000E+00  0.0000E+00
    -12.531  0.0000E+00  0.0000E+00
    -12.458  0.0000E+00  0.0000E+00
    -12.385  0.0000E+00  0.0000E+00
    -12.312  0.0000E+00  0.0000E+00
    -12.239  0.0000E+00  0.0000E+00
    -12.166  0.0000E+00  0.0000E+00
    -12.093  0.0000E+00  0.0000E+00
    -12.020  0.0000E+00  0.0000E+00
    -11.947  0.6403E-03  0.1409E-04
    -11.874  0.1702E-02  0.9959E-04
    -11.801  0.2764E-02  0.2626E-03
    -11.728  0.3825E-02  0.5031E-03
    -11.655  0.2274E-02  0.7181E-03
    -11.582  0.2377E-02  0.8879E-03
    -11.509  0.2481E-02  0.1065E-02
    -11.436  0.2584E-02  0.1250E-02
    -11.363  0.2687E-02  0.1442E-02
    -11.290  0.2791E-02  0.1642E-02
    -11.217  0.2894E-02  0.1850E-02
    -11.144  0.2998E-02  0.2065E-02
    -11.071  0.2954E-02  0.2283E-02
    -10.998  0.2903E-02  0.2496E-02
    -10.925  0.2851E-02  0.2706E-02
    -10.852  0.2836E-02  0.2913E-02
    -10.779  0.2897E-02  0.3122E-02
    -10.706  0.3295E-02  0.3340E-02
    -10.633  0.4350E-02  0.3619E-02
    -10.560  0.5404E-02  0.3975E-02
    -10.487  0.6459E-02  0.4408E-02
    -10.414  0.5351E-02  0.4887E-02
    -10.341  0.5508E-02  0.5283E-02
    -10.268  0.5664E-02  0.5691E-02
    -10.195  0.5821E-02  0.6110E-02
    -10.122  0.6071E-02  0.6543E-02
    -10.049  0.6291E-02  0.6994E-02
     -9.976  0.6510E-02  0.7461E-02
     -9.903  0.6729E-02  0.7944E-02
     -9.830  0.6911E-02  0.8443E-02
     -9.757  0.6974E-02  0.8950E-02
     -9.684  0.7053E-02  0.9462E-02
     -9.611  0.7134E-02  0.9980E-02
     -9.538  0.7267E-02  0.1050E-01
     -9.465  0.7463E-02  0.1104E-01
     -9.392  0.7658E-02  0.1159E-01
     -9.319  0.7853E-02  0.1216E-01
     -9.246  0.8049E-02  0.1274E-01
     -9.173  0.8855E-02  0.1335E-01
     -9.100  0.1033E-01  0.1405E-01
     -9.027  0.1150E-01  0.1485E-01
     -8.954  0.1380E-01  0.1577E-01
     -8.881  0.1639E-01  0.1686E-01
     -8.808  0.1967E-01  0.1818E-01
     -8.735  0.2060E-01  0.1970E-01
     -8.662  0.2656E-01  0.2129E-01
     -8.589  0.2193E-01  0.2328E-01
     -8.516  0.2330E-01  0.2504E-01
     -8.443  0.1973E-01  0.2662E-01
     -8.370  0.1885E-01  0.2798E-01
     -8.297  0.7095E-02  0.2940E-01
     -8.224  0.7304E-02  0.2993E-01
     -8.151  0.7481E-02  0.3047E-01
     -8.078  0.7657E-02  0.3102E-01
     -8.005  0.7877E-02  0.3158E-01
     -7.932  0.8137E-02  0.3217E-01
     -7.859  0.8397E-02  0.3277E-01
     -7.786  0.8657E-02  0.3339E-01
     -7.713  0.8917E-02  0.3404E-01
     -7.640  0.9631E-02  0.3471E-01
     -7.567  0.1033E-01  0.3544E-01
     -7.494  0.1164E-01  0.3623E-01
     -7.421  0.1468E-01  0.3718E-01
     -7.348  0.1780E-01  0.3837E-01
     -7.275  0.2114E-01  0.3979E-01
     -7.202  0.2097E-01  0.4126E-01
     -7.129  0.2303E-01  0.4286E-01
     -7.056  0.2509E-01  0.4462E-01
     -6.983  0.2715E-01  0.4653E-01
     -6.910  0.4761E-01  0.4988E-01
     -6.837  0.4179E-01  0.5313E-01
     -6.764  0.3277E-01  0.5572E-01
     -6.691  0.3178E-01  0.5807E-01
     -6.618  0.3107E-01  0.6036E-01
     -6.545  0.7269E-01  0.6313E-01
     -6.472  0.8944E-01  0.7019E-01
     -6.399  0.9211E-01  0.7705E-01
     -6.326  0.6179E-01  0.8317E-01
     -6.253  0.1191E+00  0.8964E-01
     -6.180  0.1077E+00  0.9927E-01
     -6.107  0.7688E-01  0.1067E+00
     -6.034  0.8253E-01  0.1121E+00
     -5.961  0.4255E-01  0.1176E+00
     -5.888  0.1345E+00  0.1213E+00
     -5.815  0.5397E-01  0.1362E+00
     -5.742  0.8465E-01  0.1443E+00
     -5.669  0.9481E-01  0.1509E+00
     -5.596  0.8855E-01  0.1580E+00
     -5.523  0.3930E+00  0.1688E+00
     -5.450  0.9678E-01  0.1785E+00
     -5.377  0.1143E+00  0.1857E+00
     -5.304  0.1418E+00  0.1958E+00
     -5.231  0.2942E+00  0.2140E+00
     -5.158  0.1310E+00  0.2255E+00
     -5.085  0.7137E-01  0.2353E+00
     -5.012  0.2711E+00  0.2436E+00
     -4.939  0.2759E+00  0.2579E+00
     -4.866  0.1288E+00  0.2707E+00
     -4.793  0.1907E+00  0.2834E+00
     -4.720  0.1206E+00  0.2930E+00
     -4.647  0.1034E+00  0.3010E+00
     -4.574  0.1560E+00  0.3112E+00
     -4.501  0.1525E+00  0.3210E+00
     -4.428  0.1565E+00  0.3358E+00
     -4.355  0.1908E+00  0.3481E+00
     -4.282  0.1142E+00  0.3588E+00
     -4.209  0.1698E+00  0.3700E+00
     -4.136  0.1350E+00  0.3803E+00
     -4.063  0.1549E+00  0.3917E+00
     -3.990  0.2760E+00  0.4031E+00
     -3.917  0.1550E+00  0.4160E+00
     -3.844  0.1334E+00  0.4268E+00
     -3.771  0.4722E-01  0.4334E+00
     -3.698  0.4323E-01  0.4367E+00
     -3.625  0.3479E-01  0.4395E+00
     -3.552  0.3039E-01  0.4420E+00
     -3.479  0.2378E-01  0.4439E+00
     -3.406  0.2319E-01  0.4456E+00
     -3.333  0.1782E-01  0.4470E+00
     -3.260  0.1735E-01  0.4482E+00
     -3.187  0.1689E-01  0.4495E+00
     -3.114  0.1603E-01  0.4507E+00
     -3.041  0.1607E-01  0.4518E+00
     -2.968  0.1603E-01  0.4530E+00
     -2.895  0.1598E-01  0.4542E+00
     -2.822  0.1600E-01  0.4553E+00
     -2.749  0.1468E-01  0.4565E+00
     -2.676  0.1464E-01  0.4575E+00
     -2.603  0.1460E-01  0.4586E+00
     -2.530  0.1456E-01  0.4597E+00
     -2.457  0.1468E-01  0.4607E+00
     -2.384  0.1486E-01  0.4618E+00
     -2.311  0.1519E-01  0.4629E+00
     -2.238  0.1639E-01  0.4646E+00
     -2.165  0.1374E-01  0.4656E+00
     -2.092  0.1344E-01  0.4666E+00
     -2.019  0.1334E-01  0.4675E+00
     -1.946  0.1343E-01  0.4685E+00
     -1.873  0.1092E-01  0.4697E+00
     -1.800  0.1095E-01  0.4705E+00
     -1.727  0.1098E-01  0.4713E+00
     -1.654  0.1102E-01  0.4721E+00
     -1.581  0.1106E-01  0.4729E+00
     -1.508  0.1115E-01  0.4737E+00
     -1.435  0.1124E-01  0.4745E+00
     -1.362  0.1134E-01  0.4754E+00
     -1.289  0.1034E-01  0.4768E+00
     -1.216  0.1052E-01  0.4775E+00
     -1.143  0.1041E-01  0.4783E+00
     -1.070  0.1027E-01  0.4791E+00
     -0.997  0.1014E-01  0.4798E+00
     -0.924  0.1000E-01  0.4805E+00
     -0.851  0.9869E-02  0.4813E+00
     -0.778  0.9823E-02  0.4820E+00
     -0.705  0.1003E-01  0.4827E+00
     -0.632  0.1029E-01  0.4834E+00
     -0.559  0.1153E-01  0.4842E+00
     -0.486  0.1278E-01  0.4851E+00
     -0.413  0.1403E-01  0.4861E+00
     -0.340  0.1528E-01  0.4872E+00
     -0.267  0.1234E-01  0.4883E+00
     -0.194  0.1201E-01  0.4892E+00
     -0.121  0.1107E-01  0.4901E+00
     -0.048  0.1014E-01  0.4909E+00
      0.025  0.9315E-02  0.4916E+00
      0.098  0.8487E-02  0.4922E+00
      0.171  0.8841E-02  0.4928E+00
      0.244  0.8803E-02  0.4935E+00
      0.317  0.8718E-02  0.4941E+00
      0.390  0.8681E-02  0.4947E+00
      0.463  0.8645E-02  0.4954E+00
      0.536  0.9024E-02  0.4960E+00
      0.609  0.9856E-02  0.4967E+00
      0.682  0.1069E-01  0.4974E+00
      0.755  0.1103E-01  0.4982E+00
      0.828  0.1135E-01  0.4991E+00
      0.901  0.1111E-01  0.5001E+00
      0.974  0.1013E-01  0.5014E+00
      1.047  0.1023E-01  0.5022E+00
      1.120  0.1032E-01  0.5029E+00
      1.193  0.1042E-01  0.5037E+00
      1.266  0.1052E-01  0.5044E+00
      1.339  0.1061E-01  0.5052E+00
      1.412  0.1071E-01  0.5060E+00
      1.485  0.1080E-01  0.5068E+00
      1.558  0.1090E-01  0.5075E+00
      1.631  0.1100E-01  0.5083E+00
      1.704  0.1094E-01  0.5091E+00
      1.777  0.1016E-01  0.5101E+00
      1.850  0.1078E-01  0.5109E+00
      1.923  0.1296E-01  0.5118E+00
      1.996  0.1127E-01  0.5126E+00
      2.069  0.1074E-01  0.5134E+00
      2.142  0.1087E-01  0.5142E+00
      2.215  0.1225E-01  0.5150E+00
      2.288  0.1437E-01  0.5160E+00
      2.361  0.1649E-01  0.5171E+00
      2.434  0.1464E-01  0.5193E+00
      2.507  0.1706E-01  0.5205E+00
      2.580  0.1581E-01  0.5217E+00
      2.653  0.1506E-01  0.5228E+00
      2.726  0.1499E-01  0.5239E+00
      2.799  0.1530E-01  0.5250E+00
      2.872  0.1598E-01  0.5261E+00
      2.945  0.1455E-01  0.5273E+00
      3.018  0.1454E-01  0.5283E+00
      3.091  0.1442E-01  0.5294E+00
      3.164  0.1430E-01  0.5304E+00
      3.237  0.1418E-01  0.5315E+00
      3.310  0.1562E-01  0.5328E+00
      3.383  0.1892E-01  0.5340E+00
      3.456  0.2516E-01  0.5356E+00
      3.529  0.3212E-01  0.5377E+00
      3.602  0.2530E-01  0.5397E+00
      3.675  0.2489E-01  0.5415E+00
      3.748  0.2649E-01  0.5433E+00
      3.821  0.2147E-01  0.5452E+00
      3.894  0.1856E-01  0.5466E+00
      3.967  0.1860E-01  0.5479E+00
      4.040  0.1864E-01  0.5493E+00
      4.113  0.2108E-01  0.5509E+00
      4.186  0.2070E-01  0.5524E+00
      4.259  0.2013E-01  0.5539E+00
      4.332  0.2048E-01  0.5554E+00
      4.405  0.2180E-01  0.5569E+00
      4.478  0.2358E-01  0.5586E+00
      4.551  0.2536E-01  0.5604E+00
      4.624  0.2420E-01  0.5623E+00
      4.697  0.2367E-01  0.5639E+00
      4.770  0.2808E-01  0.5658E+00
      4.843  0.2073E-01  0.5676E+00
      4.916  0.1948E-01  0.5691E+00
      4.989  0.1824E-01  0.5704E+00
      5.062  0.1717E-01  0.5717E+00
      5.135  0.1680E-01  0.5730E+00
      5.208  0.1462E-01  0.5741E+00
      5.281  0.9838E-02  0.5750E+00
      5.354  0.6221E-02  0.5756E+00
      5.427  0.5403E-02  0.5760E+00
      5.500  0.4585E-02  0.5764E+00
      5.573  0.3766E-02  0.5767E+00
      5.646  0.2948E-02  0.5769E+00
      5.719  0.2130E-02  0.5771E+00
      5.792  0.1312E-02  0.5772E+00
      5.865  0.4935E-03  0.5773E+00
      5.938  0.0000E+00  0.5773E+00
      6.011  0.0000E+00  0.5773E+00
      6.084  0.0000E+00  0.5773E+00
      6.157  0.0000E+00  0.5773E+00
      6.230  0.0000E+00  0.5773E+00
      6.303  0.0000E+00  0.5773E+00
      6.376  0.0000E+00  0.5773E+00
      6.449  0.0000E+00  0.5773E+00
      6.522  0.0000E+00  0.5773E+00
      6.595  0.0000E+00  0.5773E+00
      6.668  0.0000E+00  0.5773E+00
      6.741  0.0000E+00  0.5773E+00
      6.814  0.0000E+00  0.5773E+00
      6.887  0.0000E+00  0.5773E+00
      6.960  0.0000E+00  0.5773E+00
      7.033  0.0000E+00  0.5773E+00
      7.106  0.0000E+00  0.5773E+00
      7.179  0.0000E+00  0.5773E+00
      7.252  0.0000E+00  0.5773E+00
      7.325  0.0000E+00  0.5773E+00
      7.398  0.0000E+00  0.5773E+00
      7.471  0.0000E+00  0.5773E+00
      7.544  0.0000E+00  0.5773E+00
      7.617  0.0000E+00  0.5773E+00
      7.690  0.0000E+00  0.5773E+00
      7.763  0.0000E+00  0.5773E+00
      7.836  0.0000E+00  0.5773E+00
      7.909  0.0000E+00  0.5773E+00
