    5    5   97    1
  0.3477306E+02  0.2573869E-09  0.2573869E-09  0.3030466E-08  0.1000000E-15
  1.000000000000000E-004
  CAR 
 unknown system                          
     45     14     28
 
  0.0000000E+00  0.0000000E+00  0.0000000E+00  0.1000000E-01
    1      -11.991279   1.000000
    2      -10.730971   1.000000
    3       -9.020228   1.000000
    4       -7.490858   1.000000
    5       -5.729042   1.000000
    6       -5.635715   1.000000
    7       -5.635714   1.000000
    8       -5.498443   1.000000
    9       -5.231525   1.000000
   10       -5.196496   1.000000
   11       -5.196495   1.000000
   12       -5.165133   1.000000
   13       -5.165133   1.000000
   14       -4.938510   1.000000
   15       -4.938510   1.000000
   16       -4.769083   1.000000
   17       -4.731422   1.000000
   18       -4.731422   1.000000
   19       -4.416681   1.000000
   20       -4.416681   1.000000
   21       -4.192322   1.000000
   22       -4.192322   1.000000
   23       -3.915560   1.000000
   24       -3.915559   1.000000
   25       -2.849245   1.318257
   26        1.681836   0.000000
   27        2.094236   0.000000
   28        2.615885   0.000000
 
  0.1000000E+00  0.6938894E-17  0.0000000E+00  0.6000000E-01
    1      -11.699628   1.000000
    2      -10.429358   1.000000
    3       -8.751186   1.000000
    4       -7.267948   1.000000
    5       -5.881773   1.000000
    6       -5.703067   1.000000
    7       -5.563635   1.000000
    8       -5.528395   1.000000
    9       -5.318691   1.000000
   10       -5.265233   1.000000
   11       -5.241911   1.000000
   12       -5.100159   1.000000
   13       -5.086546   1.000000
   14       -5.025687   1.000000
   15       -4.958253   1.000000
   16       -4.858995   1.000000
   17       -4.739424   1.000000
   18       -4.604262   1.000000
   19       -4.437672   1.000000
   20       -4.395583   1.000000
   21       -4.224506   1.000000
   22       -4.189555   1.000000
   23       -3.912258   1.000000
   24       -3.676127   1.000000
   25       -2.153196   0.125064
   26        1.928701   0.000000
   27        2.392217   0.000000
   28        2.916388   0.000000
 
  0.2000000E+00 -0.1387779E-16  0.0000000E+00  0.6000000E-01
    1      -10.875798   1.000000
    2       -9.571033   1.000000
    3       -8.043620   1.000000
    4       -6.737015   1.000000
    5       -6.202397   1.000000
    6       -5.856393   1.000000
    7       -5.701690   1.000000
    8       -5.613357   1.000000
    9       -5.430508   1.000000
   10       -5.248809   1.000000
   11       -5.209745   1.000000
   12       -5.144449   1.000000
   13       -4.991383   1.000000
   14       -4.941570   1.000000
   15       -4.850548   1.000000
   16       -4.786418   1.000000
   17       -4.717494   1.000000
   18       -4.557434   1.000000
   19       -4.482484   1.000000
   20       -4.395849   1.000000
   21       -4.190494   1.000000
   22       -3.997800   1.000000
   23       -3.904933   1.000000
   24       -2.775301   0.950351
   25       -0.801848   0.000000
   26        2.667062   0.000000
   27        3.283520   0.000000
   28        3.815372   0.000000
 
  0.3000000E+00 -0.2775558E-16  0.0000000E+00  0.6000000E-01
    1       -9.746283   1.000000
    2       -8.358166   1.000000
    3       -7.308239   1.000000
    4       -6.510248   1.000000
    5       -6.297811   1.000000
    6       -6.099186   1.000000
    7       -5.823224   1.000000
    8       -5.606341   1.000000
    9       -5.506751   1.000000
   10       -5.228865   1.000000
   11       -5.110836   1.000000
   12       -4.989155   1.000000
   13       -4.877248   1.000000
   14       -4.788659   1.000000
   15       -4.783183   1.000000
   16       -4.578782   1.000000
   17       -4.477557   1.000000
   18       -4.303626   1.000000
   19       -4.266317   1.000000
   20       -4.191930   1.000000
   21       -4.084183   1.000000
   22       -3.892741   1.000000
   23       -3.534028   1.000000
   24       -1.597194  -0.033394
   25        0.892439   0.000000
   26        3.842751   0.000000
   27        4.619199   0.000000
   28        5.174562   0.000000
 
  0.4000000E+00 -0.2775558E-16  0.0000000E+00  0.6000000E-01
    1       -8.895579   1.000000
    2       -7.308785   1.000000
    3       -6.963583   1.000000
    4       -6.569798   1.000000
    5       -6.411457   1.000000
    6       -6.233420   1.000000
    7       -5.870575   1.000000
    8       -5.436699   1.000000
    9       -5.303297   1.000000
   10       -5.205121   1.000000
   11       -5.180175   1.000000
   12       -4.921538   1.000000
   13       -4.732670   1.000000
   14       -4.474870   1.000000
   15       -4.374300   1.000000
   16       -4.308063   1.000000
   17       -4.036093   1.000000
   18       -4.031791   1.000000
   19       -3.963849   1.000000
   20       -3.890002   1.000000
   21       -3.766706   1.000000
   22       -3.518580   1.083578
   23       -2.509506   0.641499
   24       -0.239813   0.000000
   25        1.669398   0.000000
   26        2.853887   0.000000
   27        3.634326   0.000000
   28        4.744297   0.000000
 
  0.5000000E+00 -0.2775558E-16  0.0000000E+00  0.3000000E-01
    1       -8.667159   1.000000
    2       -6.978357   1.000000
    3       -6.911946   1.000000
    4       -6.542323   1.000000
    5       -6.487576   1.000000
    6       -6.298109   1.000000
    7       -5.850981   1.000000
    8       -5.349950   1.000000
    9       -5.212128   1.000000
   10       -5.205580   1.000000
   11       -5.117499   1.000000
   12       -4.943614   1.000000
   13       -4.427059   1.000000
   14       -4.390154   1.000000
   15       -4.322649   1.000000
   16       -4.206648   1.000000
   17       -3.969763   1.000000
   18       -3.870064   1.000000
   19       -3.806952   1.000000
   20       -3.649583   1.000000
   21       -3.594061   1.000000
   22       -2.223325   0.560850
   23       -1.329538  -0.031899
   24       -0.791902   0.000000
   25        0.500883   0.000000
   26        2.174920   0.000000
   27        3.342957   0.000000
   28        4.264034   0.000000
 
  0.2000000E+00  0.1000000E+00  0.0000000E+00  0.6000000E-01
    1      -11.140133   1.000000
    2       -9.847388   1.000000
    3       -8.257357   1.000000
    4       -6.878373   1.000000
    5       -6.120569   1.000000
    6       -5.778967   1.000000
    7       -5.692578   1.000000
    8       -5.552626   1.000000
    9       -5.393783   1.000000
   10       -5.320979   1.000000
   11       -5.260420   1.000000
   12       -5.098255   1.000000
   13       -5.049514   1.000000
   14       -5.000188   1.000000
   15       -4.887249   1.000000
   16       -4.816115   1.000000
   17       -4.641968   1.000000
   18       -4.556938   1.000000
   19       -4.524450   1.000000
   20       -4.388588   1.000000
   21       -4.278299   1.000000
   22       -4.006639   1.000000
   23       -3.951315   1.000000
   24       -3.033350   1.064517
   25       -1.200051   0.000000
   26        2.422046   0.000000
   27        2.987702   0.000000
   28        3.516348   0.000000
 
  0.3000000E+00  0.1000000E+00  0.0000000E+00  0.1200000E+00
    1      -10.144709   1.000000
    2       -8.791762   1.000000
    3       -7.503900   1.000000
    4       -6.450389   1.000000
    5       -6.246837   1.000000
    6       -5.988031   1.000000
    7       -5.815013   1.000000
    8       -5.717335   1.000000
    9       -5.549353   1.000000
   10       -5.250350   1.000000
   11       -5.216451   1.000000
   12       -5.122539   1.000000
   13       -5.007949   1.000000
   14       -4.879621   1.000000
   15       -4.834971   1.000000
   16       -4.709794   1.000000
   17       -4.556042   1.000000
   18       -4.410221   1.000000
   19       -4.287510   1.000000
   20       -4.229344   1.000000
   21       -4.089726   1.000000
   22       -3.971582   1.000000
   23       -3.642844   1.000000
   24       -2.019752   0.168675
   25        0.278452   0.000000
   26        3.415861   0.000000
   27        4.159067   0.000000
   28        4.706209   0.000000
 
  0.4000000E+00  0.1000000E+00  0.0000000E+00  0.1200000E+00
    1       -9.116475   1.000000
    2       -7.603803   1.000000
    3       -6.974091   1.000000
    4       -6.486567   1.000000
    5       -6.262642   1.000000
    6       -6.123486   1.000000
    7       -5.879470   1.000000
    8       -5.623005   1.000000
    9       -5.515555   1.000000
   10       -5.259452   1.000000
   11       -5.188528   1.000000
   12       -5.042998   1.000000
   13       -4.880143   1.000000
   14       -4.696082   1.000000
   15       -4.573569   1.000000
   16       -4.461978   1.000000
   17       -4.360426   1.000000
   18       -4.215409   1.000000
   19       -4.097971   1.000000
   20       -3.909185   1.000000
   21       -3.871281   1.000000
   22       -3.572049   1.000000
   23       -2.787900   0.864930
   24       -0.630772   0.000000
   25        1.989951   0.000000
   26        3.779245   0.000000
   27        4.630784   0.000000
   28        5.332466   0.000000
 
  0.5000000E+00  0.1000000E+00  0.0000000E+00  0.1200000E+00
    1       -8.633335   1.000000
    2       -6.915967   1.000000
    3       -6.812580   1.000000
    4       -6.473686   1.000000
    5       -6.384137   1.000000
    6       -6.195773   1.000000
    7       -5.860129   1.000000
    8       -5.529525   1.000000
    9       -5.342902   1.000000
   10       -5.273861   1.000000
   11       -5.163745   1.000000
   12       -4.941450   1.000000
   13       -4.789915   1.000000
   14       -4.463985   1.000000
   15       -4.353580   1.000000
   16       -4.191040   1.000000
   17       -4.082475   1.000000
   18       -4.026736   1.000000
   19       -3.952772   1.000000
   20       -3.803282   1.000000
   21       -3.390155   1.000000
   22       -2.307190   0.737497
   23       -1.308658  -0.042739
   24        0.157308   0.000000
   25        0.924626   0.000000
   26        2.504921   0.000000
   27        3.533384   0.000000
   28        4.806854   0.000000
 
  0.4000000E+00  0.2000000E+00  0.0000000E+00  0.6000000E-01
    1       -9.205728   1.000000
    2       -7.710483   1.000000
    3       -6.942200   1.000000
    4       -6.372377   1.000000
    5       -6.158653   1.000000
    6       -5.970616   1.000000
    7       -5.906739   1.000000
    8       -5.801433   1.000000
    9       -5.531957   1.000000
   10       -5.389829   1.000000
   11       -5.285379   1.000000
   12       -5.250692   1.000000
   13       -4.940898   1.000000
   14       -4.874106   1.000000
   15       -4.714930   1.000000
   16       -4.552960   1.000000
   17       -4.392295   1.000000
   18       -4.245352   1.000000
   19       -4.135776   1.000000
   20       -3.907571   1.000000
   21       -3.864269   1.000000
   22       -3.513741   1.000000
   23       -2.780830   0.852078
   24       -0.756117   0.000000
   25        1.846078   0.000000
   26        4.667200   0.000000
   27        5.084738   0.000000
   28        5.908996   0.000000
 
  0.5000000E+00  0.2000000E+00  0.0000000E+00  0.1200000E+00
    1       -8.572855   1.000000
    2       -6.796175   1.000000
    3       -6.589218   1.000000
    4       -6.356432   1.000000
    5       -6.155160   1.000000
    6       -6.055646   1.000000
    7       -5.863253   1.000000
    8       -5.755984   1.000000
    9       -5.520266   1.000000
   10       -5.442151   1.000000
   11       -5.364198   1.000000
   12       -5.010167   1.000000
   13       -4.928094   1.000000
   14       -4.783739   1.000000
   15       -4.588215   1.000000
   16       -4.472991   1.000000
   17       -4.317145   1.000000
   18       -4.136240   1.000000
   19       -3.967200   1.000000
   20       -3.814356   1.000000
   21       -3.181131   1.049848
   22       -2.307317   0.595672
   23       -1.169564  -0.037096
   24        0.873677   0.000000
   25        2.432012   0.000000
   26        3.564897   0.000000
   27        4.396684   0.000000
   28        5.061437   0.000000
 
 -0.4000000E+00  0.2000000E+00  0.0000000E+00  0.6000000E-01
    1       -8.408823   1.000000
    2       -6.551059   1.000000
    3       -6.520522   1.000000
    4       -6.260191   1.000000
    5       -6.208612   1.000000
    6       -6.014799   1.000000
    7       -5.849174   1.000000
    8       -5.794890   1.000000
    9       -5.520223   1.000000
   10       -5.392732   1.000000
   11       -5.311232   1.000000
   12       -5.043360   1.000000
   13       -4.866034   1.000000
   14       -4.652441   1.000000
   15       -4.499440   1.000000
   16       -4.431519   1.000000
   17       -4.207588   1.000000
   18       -4.050484   1.000000
   19       -3.984774   1.000000
   20       -3.882287   1.000000
   21       -2.357058   0.784457
   22       -0.643782  -0.222650
   23       -0.063164   0.000000
   24        0.686126   0.000000
   25        0.961090   0.000000
   26        2.757674   0.000000
   27        4.132684   0.000000
   28        4.619146   0.000000
 
 -0.4000000E+00  0.3000000E+00  0.0000000E+00  0.6000000E-01
    1       -8.313670   1.000000
    2       -6.335923   1.000000
    3       -6.267872   1.000000
    4       -6.197501   1.000000
    5       -6.088961   1.000000
    6       -5.948247   1.000000
    7       -5.915974   1.000000
    8       -5.795426   1.000000
    9       -5.675302   1.000000
   10       -5.572889   1.000000
   11       -5.378469   1.000000
   12       -4.993920   1.000000
   13       -4.944251   1.000000
   14       -4.807782   1.000000
   15       -4.611881   1.000000
   16       -4.455818   1.000000
   17       -4.379855   1.000000
   18       -4.084014   1.000000
   19       -3.996176   1.000000
   20       -3.906591   1.000000
   21       -1.879325   0.172998
   22       -0.318372  -0.076257
   23        0.853588   0.000000
   24        1.752072   0.000000
   25        2.394194   0.000000
   26        2.402319   0.000000
   27        3.237462   0.000000
   28        4.095061   0.000000
