Starting job 28339097 ("jobname") on c16-32 at Fri Oct 11 16:30:56 CEST 2019
 running on    4 total cores
 distrk:  each k-point on    4 cores,    1 groups
 distr:  one band on    1 cores,    4 groups
 using from now: INCAR     
 vasp.5.4.4.18Apr17-6-g9f103f2a35 (build Jun 30 2017 11:15:00) complex          
  
 POSCAR found type information on POSCAR  Cu H 
 POSCAR found :  2 types and       5 ions
 scaLAPACK will be used

 ----------------------------------------------------------------------------- 
|                                                                             |
|  ADVICE TO THIS USER RUNNING 'VASP/VAMP'   (HEAR YOUR MASTER'S VOICE ...):  |
|                                                                             |
|      You have a (more or less) 'small supercell' and for smaller cells      |
|      it is recommended  to use the reciprocal-space projection scheme!      |
|      The real space optimization is not  efficient for small cells and it   |
|      is also less accurate ...                                              |
|      Therefore set LREAL=.FALSE. in the  INCAR file                         |
|                                                                             |
 ----------------------------------------------------------------------------- 

 LDA part: xc-table for Pade appr. of Perdew
 POSCAR, INCAR and KPOINTS ok, starting setup
 FFT: planning ...
 WAVECAR not read
 entering main loop
       N       E                     dE             d eps       ncg     rms          rms(c)
DAV:   1     0.279435498713E+03    0.27944E+03   -0.19395E+04   784   0.157E+03
DAV:   2    -0.373987206550E+01   -0.28318E+03   -0.27467E+03   800   0.345E+02
DAV:   3    -0.209557576972E+02   -0.17216E+02   -0.17037E+02   868   0.116E+02
DAV:   4    -0.212282779983E+02   -0.27252E+00   -0.27235E+00   876   0.153E+01
DAV:   5    -0.212306351348E+02   -0.23571E-02   -0.23611E-02   892   0.100E+00    0.144E+01
RMM:   6    -0.193257084045E+02    0.19049E+01   -0.42627E+01   790   0.742E+01    0.760E+00
RMM:   7    -0.176591238064E+02    0.16666E+01   -0.76986E+00   786   0.335E+01    0.233E+00
RMM:   8    -0.175625514479E+02    0.96572E-01   -0.19813E-01   791   0.417E+00    0.197E+00
RMM:   9    -0.174894693098E+02    0.73082E-01   -0.81305E-02   787   0.301E+00    0.730E-01
RMM:  10    -0.174778951847E+02    0.11574E-01   -0.25591E-02   792   0.153E+00    0.436E-01
RMM:  11    -0.174751332267E+02    0.27620E-02   -0.64491E-03   791   0.770E-01    0.177E-01
RMM:  12    -0.174731350604E+02    0.19982E-02   -0.17626E-03   789   0.328E-01    0.787E-02
RMM:  13    -0.174730225876E+02    0.11247E-03   -0.65629E-04   792   0.252E-01    0.535E-02
RMM:  14    -0.174730533499E+02   -0.30762E-04   -0.29577E-04   785   0.166E-01    0.279E-02
RMM:  15    -0.174730756321E+02   -0.22282E-04   -0.11046E-04   786   0.767E-02    0.148E-02
RMM:  16    -0.174730965676E+02   -0.20935E-04   -0.80492E-05   778   0.473E-02    0.781E-03
RMM:  17    -0.174732416409E+02   -0.14507E-03   -0.80149E-06   630   0.158E-02    0.608E-03
RMM:  18    -0.174733209092E+02   -0.79268E-04   -0.94814E-06   619   0.180E-02    0.475E-03
RMM:  19    -0.174733500304E+02   -0.29121E-04   -0.66967E-06   583   0.183E-02    0.262E-03
RMM:  20    -0.174733964522E+02   -0.46422E-04   -0.31075E-06   489   0.104E-02    0.953E-04
RMM:  21    -0.174734155659E+02   -0.19114E-04   -0.10321E-06   456   0.430E-03    0.725E-04
RMM:  22    -0.174734254768E+02   -0.99109E-05   -0.45719E-07   452   0.278E-03    0.269E-04
RMM:  23    -0.174734328829E+02   -0.74062E-05   -0.23290E-07   374   0.211E-03    0.370E-04
RMM:  24    -0.174734327096E+02    0.17338E-06   -0.41010E-08   269   0.154E-03
   1 F= -.17473433E+02 E0= -.17473433E+02  d E =0.000000E+00
 Finite differences POTIM= 0.10000 DOF=   3
 bond charge predicted
       N       E                     dE             d eps       ncg     rms          rms(c)
DAV:   1    -0.174538423589E+02    0.19591E-01   -0.29907E+00  3036   0.706E+00    0.417E-01
RMM:   2    -0.174562667636E+02   -0.24244E-02   -0.45808E-02  2922   0.145E+00    0.255E-01
RMM:   3    -0.174589175211E+02   -0.26508E-02   -0.49267E-03  2923   0.575E-01    0.323E-01
RMM:   4    -0.174556466479E+02    0.32709E-02   -0.21476E-03  2931   0.448E-01    0.315E-02
RMM:   5    -0.174554235472E+02    0.22310E-03   -0.16772E-04  2918   0.124E-01    0.279E-02
RMM:   6    -0.174555433486E+02   -0.11980E-03   -0.31478E-05  2907   0.611E-02    0.693E-03
RMM:   7    -0.174555184927E+02    0.24856E-04   -0.31610E-06  1911   0.161E-02    0.446E-03
RMM:   8    -0.174555255916E+02   -0.70989E-05   -0.19980E-06  1647   0.160E-02    0.170E-03
RMM:   9    -0.174555304676E+02   -0.48760E-05   -0.26966E-07  1618   0.610E-03    0.436E-04
RMM:  10    -0.174555297713E+02    0.69627E-06   -0.33830E-08  1349   0.190E-03
   2 F= -.17455530E+02 E0= -.17455530E+02  d E =0.000000E+00
 Finite differences progress:
  Degree of freedom:   1/  3
  Displacement:        1/  2
  Total:               1/  6
 bond charge predicted
       N       E                     dE             d eps       ncg     rms          rms(c)
DAV:   1    -0.174573451170E+02   -0.18146E-02   -0.59836E+00  2952   0.923E+00    0.835E-01
RMM:   2    -0.174586755237E+02   -0.13304E-02   -0.97895E-02  2921   0.193E+00    0.495E-01
RMM:   3    -0.174617064118E+02   -0.30309E-02   -0.11859E-02  2923   0.788E-01    0.430E-01
RMM:   4    -0.174556321265E+02    0.60743E-02   -0.38055E-03  2934   0.583E-01    0.381E-02
RMM:   5    -0.174554385843E+02    0.19354E-03   -0.18691E-04  2924   0.129E-01    0.315E-02
RMM:   6    -0.174555820140E+02   -0.14343E-03   -0.48923E-05  2917   0.746E-02    0.146E-02
RMM:   7    -0.174555101233E+02    0.71891E-04   -0.10964E-05  2792   0.277E-02    0.519E-03
RMM:   8    -0.174555274329E+02   -0.17310E-04   -0.19069E-06  1689   0.144E-02    0.157E-03
RMM:   9    -0.174555318030E+02   -0.43701E-05   -0.40537E-07  1621   0.714E-03    0.107E-03
RMM:  10    -0.174555312022E+02    0.60087E-06   -0.10652E-07  1601   0.362E-03
   3 F= -.17455531E+02 E0= -.17455531E+02  d E =0.000000E+00
 Finite differences progress:
  Degree of freedom:   1/  3
  Displacement:        2/  2
  Total:               2/  6
 bond charge predicted
       N       E                     dE             d eps       ncg     rms          rms(c)
DAV:   1    -0.174475784412E+02    0.79534E-02   -0.68261E+00  1760   0.104E+01    0.584E-01
RMM:   2    -0.174539584141E+02   -0.63800E-02   -0.10491E-01  1743   0.209E+00    0.357E-01
RMM:   3    -0.174535284939E+02    0.42992E-03   -0.60513E-03  1743   0.448E-01    0.835E-02
RMM:   4    -0.174535366218E+02   -0.81279E-05   -0.69600E-04  1751   0.224E-01    0.833E-02
RMM:   5    -0.174535268549E+02    0.97669E-05   -0.15840E-04  1744   0.129E-01    0.203E-02
RMM:   6    -0.174534409903E+02    0.85865E-04   -0.31065E-05  1740   0.570E-02    0.144E-02
RMM:   7    -0.174535436541E+02   -0.10266E-03   -0.11607E-05  1695   0.334E-02    0.560E-03
RMM:   8    -0.174535556685E+02   -0.12014E-04   -0.28155E-06  1064   0.162E-02    0.258E-03
RMM:   9    -0.174535655998E+02   -0.99314E-05   -0.65377E-07   964   0.931E-03    0.915E-04
RMM:  10    -0.174535678323E+02   -0.22325E-05   -0.96757E-08   954   0.318E-03    0.446E-04
RMM:  11    -0.174535701292E+02   -0.22969E-05   -0.21844E-08   557   0.152E-03    0.194E-04
RMM:  12    -0.174535715638E+02   -0.14346E-05   -0.66236E-09   321   0.117E-03    0.597E-05
RMM:  13    -0.174535714883E+02    0.75458E-07   -0.20334E-09   213   0.105E-03
   4 F= -.17453571E+02 E0= -.17453571E+02  d E =0.000000E+00
 Finite differences progress:
  Degree of freedom:   2/  3
  Displacement:        1/  2
  Total:               3/  6
 bond charge predicted
       N       E                     dE             d eps       ncg     rms          rms(c)
DAV:   1    -0.174585743147E+02   -0.50028E-02   -0.70178E+00  1756   0.103E+01    0.827E-01
RMM:   2    -0.174606126468E+02   -0.20383E-02   -0.10325E-01  1743   0.210E+00    0.495E-01
RMM:   3    -0.174614633734E+02   -0.85073E-03   -0.10705E-02  1745   0.701E-01    0.336E-01
RMM:   4    -0.174575301197E+02    0.39333E-02   -0.24157E-03  1747   0.459E-01    0.353E-02
RMM:   5    -0.174575070802E+02    0.23039E-04   -0.10084E-04  1744   0.931E-02    0.195E-02
RMM:   6    -0.174575678279E+02   -0.60748E-04   -0.24446E-05  1743   0.491E-02    0.139E-02
RMM:   7    -0.174574786260E+02    0.89202E-04   -0.15797E-05  1738   0.385E-02    0.794E-03
RMM:   8    -0.174575118831E+02   -0.33257E-04   -0.34882E-06  1276   0.202E-02    0.197E-03
RMM:   9    -0.174575105883E+02    0.12948E-05   -0.51596E-07   967   0.757E-03    0.139E-03
RMM:  10    -0.174575148118E+02   -0.42235E-05   -0.25447E-07   955   0.568E-03    0.722E-04
RMM:  11    -0.174575123072E+02    0.25046E-05   -0.36057E-08   861   0.211E-03    0.258E-04
RMM:  12    -0.174575112908E+02    0.10164E-05   -0.43777E-09   250   0.851E-04    0.782E-05
RMM:  13    -0.174575115105E+02   -0.21971E-06   -0.21812E-09   217   0.840E-04
   5 F= -.17457512E+02 E0= -.17457512E+02  d E =0.000000E+00
 Finite differences progress:
  Degree of freedom:   2/  3
  Displacement:        2/  2
  Total:               4/  6
 bond charge predicted
       N       E                     dE             d eps       ncg     rms          rms(c)
DAV:   1    -0.174433333700E+02    0.14178E-01   -0.59205E+00   792   0.101E+01    0.488E-01
RMM:   2    -0.174478977246E+02   -0.45644E-02   -0.80982E-02   788   0.206E+00    0.309E-01
RMM:   3    -0.174557973772E+02   -0.78997E-02   -0.10962E-02   788   0.908E-01    0.567E-01
RMM:   4    -0.174456066453E+02    0.10191E-01   -0.60430E-03   793   0.760E-01    0.772E-02
RMM:   5    -0.174449380871E+02    0.66856E-03   -0.67128E-04   787   0.255E-01    0.361E-02
RMM:   6    -0.174450438506E+02   -0.10576E-03   -0.87123E-05   791   0.987E-02    0.158E-02
RMM:   7    -0.174449199331E+02    0.12392E-03   -0.13849E-05   756   0.331E-02    0.802E-03
RMM:   8    -0.174449242024E+02   -0.42693E-05   -0.56724E-06   663   0.228E-02    0.480E-03
RMM:   9    -0.174449119937E+02    0.12209E-04   -0.21443E-06   469   0.154E-02    0.179E-03
RMM:  10    -0.174449088645E+02    0.31292E-05   -0.29731E-07   441   0.587E-03    0.690E-04
RMM:  11    -0.174449040557E+02    0.48088E-05   -0.75194E-08   393   0.230E-03    0.391E-04
RMM:  12    -0.174449030874E+02    0.96824E-06   -0.45451E-08   361   0.193E-03
   6 F= -.17444903E+02 E0= -.17444903E+02  d E =0.000000E+00
 Finite differences progress:
  Degree of freedom:   3/  3
  Displacement:        1/  2
  Total:               5/  6
 bond charge predicted
       N       E                     dE             d eps       ncg     rms          rms(c)
DAV:   1    -0.174489221776E+02   -0.40181E-02   -0.11830E+01   800   0.149E+01    0.639E-01
RMM:   2    -0.174609068772E+02   -0.11985E-01   -0.15680E-01   789   0.280E+00    0.421E-01
RMM:   3    -0.174718709809E+02   -0.10964E-01   -0.19089E-02   789   0.119E+00    0.690E-01
RMM:   4    -0.174588104785E+02    0.13061E-01   -0.12270E-02   791   0.104E+00    0.122E-01
RMM:   5    -0.174590638733E+02   -0.25339E-03   -0.14699E-03   790   0.395E-01    0.566E-02
RMM:   6    -0.174587114539E+02    0.35242E-03   -0.23776E-04   792   0.166E-01    0.284E-02
RMM:   7    -0.174588554248E+02   -0.14397E-03   -0.52111E-05   785   0.637E-02    0.125E-02
RMM:   8    -0.174588182658E+02    0.37159E-04   -0.89013E-06   707   0.283E-02    0.778E-03
RMM:   9    -0.174588018609E+02    0.16405E-04   -0.34836E-06   539   0.201E-02    0.407E-03
RMM:  10    -0.174587977883E+02    0.40726E-05   -0.10721E-06   442   0.116E-02    0.132E-03
RMM:  11    -0.174588029612E+02   -0.51729E-05   -0.19333E-07   430   0.384E-03    0.690E-04
RMM:  12    -0.174588040203E+02   -0.10590E-05   -0.10637E-07   426   0.319E-03    0.445E-04
RMM:  13    -0.174588018598E+02    0.21605E-05   -0.66413E-08   404   0.241E-03    0.306E-04
RMM:  14    -0.174588036236E+02   -0.17639E-05   -0.38451E-08   253   0.157E-03    0.143E-04
RMM:  15    -0.174588040271E+02   -0.40349E-06   -0.27478E-08   149   0.108E-03
   7 F= -.17458804E+02 E0= -.17458804E+02  d E =0.000000E+00
 Finite differences progress:
  Degree of freedom:   3/  3
  Displacement:        2/  2
  Total:               6/  6
 Finite differences POTIM=  0.100000000000000     

Currently Loaded Modulefiles:
  1) intel/2017.4         2) perf-reports/7.0.6

Job script resource usage:
       JobID  MaxVMSize     MaxRSS 
------------ ---------- ---------- 
28339097.ba+    499232K      5769K 

Job step resource usage:
       JobID    JobName  AllocCPUS  MaxVMSize     MaxRSS    Elapsed ExitCode 
------------ ---------- ---------- ---------- ---------- ---------- -------- 
28339097        jobname          4                         00:05:45      0:0 
28339097.0    pmi_proxy          1   1580292K    391756K   00:05:41      0:0 

Job 28339097 ("jobname") completed on c16-32 at Fri Oct 11 16:36:38 CEST 2019
