<?xml version="1.0" encoding="ISO-8859-1"?>
<modeling>
 <generator>
  <i name="program" type="string">vasp </i>
  <i name="version" type="string">5.4.4.18Apr17-6-g9f103f2a35  </i>
  <i name="subversion" type="string">(build Jun 30 2017 11:15:00) complex            parallel </i>
  <i name="platform" type="string">STALLO_VASP_5.4.4 </i>
  <i name="date" type="string">2019 10 11 </i>
  <i name="time" type="string">16:30:58 </i>
 </generator>
 <incar>
  <i type="string" name="PREC">accurate  ! normal/accurate</i>
  <i type="string" name="ALGO"> Fast      ! Algorithm for electronic re</i>
  <i type="int" name="ISPIN">     1</i>
  <i type="int" name="NELMIN">     4</i>
  <i type="int" name="IBRION">     5</i>
  <i type="int" name="NFREE">     2</i>
  <i name="EDIFF">      0.00000100</i>
  <i type="int" name="ISIF">     2</i>
  <i name="ENCUT">    500.00000000</i>
  <i name="POTIM">      0.10000000</i>
  <i type="string" name="LREAL"> Auto      ! Projection in reciprocal sp</i>
  <i type="int" name="ISMEAR">    -5</i>
  <i name="SIGMA">      0.20000000</i>
  <i type="logical" name="LWAVE"> F  </i>
  <i type="logical" name="LCHARG"> F  </i>
  <v type="int" name="KPOINT_BSE">    -1     0     0     0</v>
 </incar>
 <structure name="primitive_cell" >
  <crystal>
   <varray name="basis" >
    <v>       2.57386868       0.00000000       0.00000000 </v>
    <v>       1.28693434       2.22903567       0.00000000 </v>
    <v>       0.00000000       0.00000000      30.30466494 </v>
   </varray>
   <i name="volume">    173.86529028 </i>
   <varray name="rec_basis" >
    <v>       0.38852021      -0.22431225       0.00000000 </v>
    <v>       0.00000000       0.44862450       0.00000000 </v>
    <v>       0.00000000       0.00000000       0.03299822 </v>
   </varray>
  </crystal>
  <varray name="positions" >
   <v>       0.00000000       0.00000000       0.39644015 </v>
   <v>       0.33333333       0.33333333       0.46515176 </v>
   <v>      -0.33333333      -0.33333333      -0.46608379 </v>
   <v>       0.00000000       0.00000000      -0.39325599 </v>
   <v>       0.33333333       0.33333333      -0.36523255 </v>
  </varray>
 </structure>
 <varray name="primitive_index" >
  <v type="int" >        1 </v>
  <v type="int" >        2 </v>
  <v type="int" >        3 </v>
  <v type="int" >        4 </v>
  <v type="int" >        5 </v>
 </varray>
 <kpoints>
  <generation param="Gamma">
   <v type="int" name="divisions">      10       10        1 </v>
   <v name="usershift">      0.00000000       0.00000000       0.00000000 </v>
   <v name="genvec1">      0.10000000       0.00000000       0.00000000 </v>
   <v name="genvec2">      0.00000000       0.10000000       0.00000000 </v>
   <v name="genvec3">      0.00000000       0.00000000       1.00000000 </v>
   <v name="shift">      0.00000000       0.00000000       0.00000000 </v>
  </generation>
  <varray name="kpointlist" >
   <v>       0.00000000       0.00000000       0.00000000 </v>
   <v>       0.10000000       0.00000000       0.00000000 </v>
   <v>       0.20000000      -0.00000000       0.00000000 </v>
   <v>       0.30000000      -0.00000000       0.00000000 </v>
   <v>       0.40000000      -0.00000000       0.00000000 </v>
   <v>       0.50000000      -0.00000000       0.00000000 </v>
   <v>       0.20000000       0.10000000       0.00000000 </v>
   <v>       0.30000000       0.10000000       0.00000000 </v>
   <v>       0.40000000       0.10000000       0.00000000 </v>
   <v>       0.50000000       0.10000000       0.00000000 </v>
   <v>       0.40000000       0.20000000       0.00000000 </v>
   <v>       0.50000000       0.20000000       0.00000000 </v>
   <v>      -0.40000000       0.20000000       0.00000000 </v>
   <v>      -0.40000000       0.30000000       0.00000000 </v>
  </varray>
  <varray name="weights" >
   <v>       0.01000000 </v>
   <v>       0.06000000 </v>
   <v>       0.06000000 </v>
   <v>       0.06000000 </v>
   <v>       0.06000000 </v>
   <v>       0.03000000 </v>
   <v>       0.06000000 </v>
   <v>       0.12000000 </v>
   <v>       0.12000000 </v>
   <v>       0.12000000 </v>
   <v>       0.06000000 </v>
   <v>       0.12000000 </v>
   <v>       0.06000000 </v>
   <v>       0.06000000 </v>
  </varray>
  <varray name="tetrahedronlist"  type="int" >
   <v type="int" >        6        1        1        2        2 </v>
   <v type="int" >       12        1        2        2        2 </v>
   <v type="int" >       12        2        2        3        7 </v>
   <v type="int" >       12        2        2        2        7 </v>
   <v type="int" >       12        2        3        3        7 </v>
   <v type="int" >       12        2        3        7        7 </v>
   <v type="int" >        6        2        2        7        7 </v>
   <v type="int" >       12        3        3        4        8 </v>
   <v type="int" >       12        3        3        7        8 </v>
   <v type="int" >       12        3        7        7        8 </v>
   <v type="int" >       12        3        4        4        8 </v>
   <v type="int" >       12        3        4        8        8 </v>
   <v type="int" >       12        3        7        8        8 </v>
   <v type="int" >       12        4        4        5        9 </v>
   <v type="int" >       12        4        4        8        9 </v>
   <v type="int" >       12        4        8        8        9 </v>
   <v type="int" >       12        4        5        5        9 </v>
   <v type="int" >       12        4        5        9        9 </v>
   <v type="int" >       12        4        8        9        9 </v>
   <v type="int" >       12        5        5        6       10 </v>
   <v type="int" >       12        5        5        9       10 </v>
   <v type="int" >       12        5        9        9       10 </v>
   <v type="int" >       12        5        6        6       10 </v>
   <v type="int" >       12        5        6       10       10 </v>
   <v type="int" >       12        5        9       10       10 </v>
   <v type="int" >        6        6        6       10       10 </v>
   <v type="int" >       12        6       10       10       10 </v>
   <v type="int" >        6        7        7        8        8 </v>
   <v type="int" >       12        7        8        8        8 </v>
   <v type="int" >       12        8        8        9       11 </v>
   <v type="int" >       12        8        8        8       11 </v>
   <v type="int" >       12        8        9        9       11 </v>
   <v type="int" >       12        8        9       11       11 </v>
   <v type="int" >        6        8        8       11       11 </v>
   <v type="int" >       12        9        9       10       12 </v>
   <v type="int" >       12        9        9       11       12 </v>
   <v type="int" >       12        9       11       11       12 </v>
   <v type="int" >       12        9       10       10       12 </v>
   <v type="int" >       12        9       10       12       12 </v>
   <v type="int" >       12        9       11       12       12 </v>
   <v type="int" >       12       10       10       10       13 </v>
   <v type="int" >       12       10       10       12       13 </v>
   <v type="int" >       12       10       12       12       13 </v>
   <v type="int" >        6       10       10       13       13 </v>
   <v type="int" >       12       10       12       13       13 </v>
   <v type="int" >        6       11       11       12       12 </v>
   <v type="int" >       12       11       12       12       12 </v>
   <v type="int" >       12       12       12       13       14 </v>
   <v type="int" >       12       12       12       12       14 </v>
   <v type="int" >       12       12       13       13       14 </v>
   <v type="int" >       12       12       13       14       14 </v>
   <v type="int" >        6       12       12       14       14 </v>
   <v type="int" >        6       13       13       14       14 </v>
   <v type="int" >       12       13       14       14       14 </v>
   <v type="int" >        6       14       14       14       14 </v>
  </varray>
  <i name="volumeweight">      0.00166667 </i>
 </kpoints>
 <parameters>
  <separator name="general" >
   <i type="string" name="SYSTEM">unknown system</i>
   <i type="logical" name="LCOMPAT"> F  </i>
  </separator>
  <separator name="electronic" >
   <i type="string" name="PREC">accura</i>
   <i name="ENMAX">    500.00000000</i>
   <i name="ENAUG">    516.45600000</i>
   <i name="EDIFF">      0.00000100</i>
   <i type="int" name="IALGO">    68</i>
   <i type="int" name="IWAVPR">    11</i>
   <i type="int" name="NBANDS">    28</i>
   <i name="NELECT">     45.00000000</i>
   <i type="int" name="TURBO">     0</i>
   <i type="int" name="IRESTART">     0</i>
   <i type="int" name="NREBOOT">     0</i>
   <i type="int" name="NMIN">     0</i>
   <i name="EREF">      0.00000000</i>
   <separator name="electronic smearing" >
    <i type="int" name="ISMEAR">    -5</i>
    <i name="SIGMA">      0.20000000</i>
    <i name="KSPACING">      0.50000000</i>
    <i type="logical" name="KGAMMA"> T  </i>
   </separator>
   <separator name="electronic projectors" >
    <i type="logical" name="LREAL"> T  </i>
    <v name="ROPT">     -0.00025000     -0.00025000</v>
    <i type="int" name="LMAXPAW">  -100</i>
    <i type="int" name="LMAXMIX">     2</i>
    <i type="logical" name="NLSPLINE"> F  </i>
   </separator>
   <separator name="electronic startup" >
    <i type="int" name="ISTART">     0</i>
    <i type="int" name="ICHARG">     2</i>
    <i type="int" name="INIWAV">     1</i>
   </separator>
   <separator name="electronic spin" >
    <i type="int" name="ISPIN">     1</i>
    <i type="logical" name="LNONCOLLINEAR"> F  </i>
    <v name="MAGMOM">      1.00000000      1.00000000      1.00000000      1.00000000      1.00000000</v>
    <i name="NUPDOWN">     -1.00000000</i>
    <i type="logical" name="LSORBIT"> F  </i>
    <v name="SAXIS">      0.00000000      0.00000000      1.00000000</v>
    <i type="logical" name="LSPIRAL"> F  </i>
    <v name="QSPIRAL">      0.00000000      0.00000000      0.00000000</v>
    <i type="logical" name="LZEROZ"> F  </i>
   </separator>
   <separator name="electronic exchange-correlation" >
    <i type="logical" name="LASPH"> F  </i>
    <i type="logical" name="LMETAGGA"> F  </i>
   </separator>
   <separator name="electronic convergence" >
    <i type="int" name="NELM">    60</i>
    <i type="int" name="NELMDL">    -5</i>
    <i type="int" name="NELMIN">     4</i>
    <i name="ENINI">    500.00000000</i>
    <separator name="electronic convergence detail" >
     <i type="logical" name="LDIAG"> T  </i>
     <i type="logical" name="LSUBROT"> F  </i>
     <i name="WEIMIN">      0.00100000</i>
     <i name="EBREAK">      0.00000001</i>
     <i name="DEPER">      0.30000000</i>
     <i type="int" name="NRMM">     4</i>
     <i name="TIME">      0.40000000</i>
    </separator>
   </separator>
   <separator name="electronic mixer" >
    <i name="AMIX">      0.40000000</i>
    <i name="BMIX">      1.00000000</i>
    <i name="AMIN">      0.10000000</i>
    <i name="AMIX_MAG">      1.60000000</i>
    <i name="BMIX_MAG">      1.00000000</i>
    <separator name="electronic mixer details" >
     <i type="int" name="IMIX">     4</i>
     <i type="logical" name="MIXFIRST"> F  </i>
     <i type="int" name="MAXMIX">   -45</i>
     <i name="WC">    100.00000000</i>
     <i type="int" name="INIMIX">     1</i>
     <i type="int" name="MIXPRE">     1</i>
     <i type="int" name="MREMOVE">     5</i>
    </separator>
   </separator>
   <separator name="electronic dipolcorrection" >
    <i type="logical" name="LDIPOL"> F  </i>
    <i type="logical" name="LMONO"> F  </i>
    <i type="int" name="IDIPOL">     0</i>
    <i name="EPSILON">      1.00000000</i>
    <v name="DIPOL">   -100.00000000   -100.00000000   -100.00000000</v>
    <i name="EFIELD">      0.00000000</i>
   </separator>
  </separator>
  <separator name="grids" >
   <i type="int" name="NGX">    20</i>
   <i type="int" name="NGY">    20</i>
   <i type="int" name="NGZ">   224</i>
   <i type="int" name="NGXF">    40</i>
   <i type="int" name="NGYF">    40</i>
   <i type="int" name="NGZF">   448</i>
   <i type="logical" name="ADDGRID"> F  </i>
  </separator>
  <separator name="ionic" >
   <i type="int" name="NSW">    97</i>
   <i type="int" name="IBRION">     5</i>
   <i type="int" name="MDALGO">     0</i>
   <i type="int" name="ISIF">     2</i>
   <i name="PSTRESS">      0.00000000</i>
   <i name="EDIFFG">      0.00001000</i>
   <i type="int" name="NFREE">     2</i>
   <i name="POTIM">      0.10000000</i>
   <i name="SMASS">     -3.00000000</i>
   <i name="SCALEE">      1.00000000</i>
  </separator>
  <separator name="ionic md" >
   <i name="TEBEG">      0.00010000</i>
   <i name="TEEND">      0.00010000</i>
   <i type="int" name="NBLOCK">     1</i>
   <i type="int" name="KBLOCK">    97</i>
   <i type="int" name="NPACO">   256</i>
   <i name="APACO">     16.00000000</i>
  </separator>
  <separator name="symmetry" >
   <i type="int" name="ISYM">     2</i>
   <i name="SYMPREC">      0.00001000</i>
  </separator>
  <separator name="dos" >
   <i type="int" name="LORBIT">     0</i>
   <v name="RWIGS">     -1.00000000     -1.00000000</v>
   <i type="int" name="NEDOS">   301</i>
   <i name="EMIN">     10.00000000</i>
   <i name="EMAX">    -10.00000000</i>
   <i name="EFERMI">      0.00000000</i>
  </separator>
  <separator name="writing" >
   <i type="int" name="NWRITE">     2</i>
   <i type="logical" name="LWAVE"> F  </i>
   <i type="logical" name="LDOWNSAMPLE"> F  </i>
   <i type="logical" name="LCHARG"> F  </i>
   <i type="logical" name="LPARD"> F  </i>
   <i type="logical" name="LVTOT"> F  </i>
   <i type="logical" name="LVHAR"> F  </i>
   <i type="logical" name="LELF"> F  </i>
   <i type="logical" name="LOPTICS"> F  </i>
   <v name="STM">      0.00000000      0.00000000      0.00000000      0.00000000      0.00000000      0.00000000      0.00000000</v>
  </separator>
  <separator name="performance" >
   <i type="int" name="NPAR">     4</i>
   <i type="int" name="NSIM">     4</i>
   <i type="int" name="NBLK">    -1</i>
   <i type="logical" name="LPLANE"> T  </i>
   <i type="logical" name="LSCALAPACK"> T  </i>
   <i type="logical" name="LSCAAWARE"> F  </i>
   <i type="logical" name="LSCALU"> F  </i>
   <i type="logical" name="LASYNC"> F  </i>
   <i type="logical" name="LORBITALREAL"> F  </i>
  </separator>
  <separator name="miscellaneous" >
   <i type="int" name="IDIOT">     3</i>
   <i type="int" name="ISPECIAL">     0</i>
   <i type="logical" name="LMUSIC"> F  </i>
   <v name="POMASS">     63.54600000      1.00000000</v>
   <v name="DARWINR">      0.00000000      0.00000000</v>
   <v name="DARWINV">      1.00000000      1.00000000</v>
   <i type="logical" name="LCORR"> T  </i>
  </separator>
  <i type="logical" name="GGA_COMPAT"> T  </i>
  <i type="logical" name="LBERRY"> F  </i>
  <i type="int" name="ICORELEVEL">     0</i>
  <i type="logical" name="LDAU"> F  </i>
  <i type="int" name="I_CONSTRAINED_M">     0</i>
  <separator name="electronic exchange-correlation" >
   <i type="string" name="GGA">--</i>
   <i type="int" name="VOSKOWN">     0</i>
   <i type="logical" name="LHFCALC"> F  </i>
   <i type="string" name="PRECFOCK"></i>
   <i type="logical" name="LSYMGRAD"> F  </i>
   <i type="logical" name="LHFONE"> F  </i>
   <i type="logical" name="LRHFCALC"> F  </i>
   <i type="logical" name="LTHOMAS"> F  </i>
   <i type="logical" name="LMODELHF"> F  </i>
   <i name="ENCUT4O">     -1.00000000</i>
   <i type="int" name="EXXOEP">     0</i>
   <i type="int" name="FOURORBIT">     0</i>
   <i name="AEXX">      0.00000000</i>
   <i name="HFALPHA">      0.00000000</i>
   <i name="MCALPHA">      0.00000000</i>
   <i name="ALDAX">      1.00000000</i>
   <i name="AGGAX">      1.00000000</i>
   <i name="ALDAC">      1.00000000</i>
   <i name="AGGAC">      1.00000000</i>
   <i type="int" name="NKREDX">     1</i>
   <i type="int" name="NKREDY">     1</i>
   <i type="int" name="NKREDZ">     1</i>
   <i type="logical" name="SHIFTRED"> F  </i>
   <i type="logical" name="ODDONLY"> F  </i>
   <i type="logical" name="EVENONLY"> F  </i>
   <i type="int" name="LMAXFOCK">     0</i>
   <i type="int" name="NMAXFOCKAE">     0</i>
   <i type="logical" name="LFOCKAEDFT"> F  </i>
   <i name="HFSCREEN">      0.00000000</i>
   <i name="HFSCREENC">      0.00000000</i>
   <i type="int" name="NBANDSGWLOW">     0</i>
  </separator>
  <separator name="vdW DFT" >
   <i type="logical" name="LUSE_VDW"> F  </i>
   <i name="Zab_VDW">     -0.84910000</i>
   <i name="PARAM1">      0.12340000</i>
   <i name="PARAM2">      1.00000000</i>
   <i name="PARAM3">      0.00000000</i>
  </separator>
  <separator name="model GW" >
   <i type="int" name="MODEL_GW">     0</i>
   <i name="MODEL_EPS0">     20.86383483</i>
   <i name="MODEL_ALPHA">      1.00000000</i>
  </separator>
  <separator name="linear response parameters" >
   <i type="logical" name="LEPSILON"> F  </i>
   <i type="logical" name="LRPA"> F  </i>
   <i type="logical" name="LNABLA"> F  </i>
   <i type="logical" name="LVEL"> F  </i>
   <i type="int" name="KINTER">     0</i>
   <i name="CSHIFT">      0.10000000</i>
   <i name="OMEGAMAX">     -1.00000000</i>
   <i name="DEG_THRESHOLD">      0.00200000</i>
   <i name="RTIME">     -0.10000000</i>
   <i name="WPLASMAI">      0.00000000</i>
   <v name="DFIELD">      0.00000000      0.00000000      0.00000000</v>
   <v name="WPLASMA">      0.00000000      0.00000000      0.00000000      0.00000000      0.00000000      0.00000000      0.00000000      0.00000000      0.00000000</v>
  </separator>
  <separator name="orbital magnetization" >
   <i type="logical" name="NUCIND"> F  </i>
   <v name="MAGPOS">      0.00000000      0.00000000      0.00000000</v>
   <i type="logical" name="LNICSALL"> T  </i>
   <i type="logical" name="ORBITALMAG"> F  </i>
   <i type="logical" name="LMAGBLOCH"> F  </i>
   <i type="logical" name="LCHIMAG"> F  </i>
   <i type="logical" name="LGAUGE"> T  </i>
   <i type="int" name="MAGATOM">     0</i>
   <v name="MAGDIPOL">      0.00000000      0.00000000      0.00000000</v>
   <v name="AVECCONST">      0.00000000      0.00000000      0.00000000</v>
  </separator>
  <separator name="response functions" >
   <i type="logical" name="LADDER"> F  </i>
   <i type="logical" name="LRPAFORCE"> F  </i>
   <i type="logical" name="LFXC"> F  </i>
   <i type="logical" name="LHARTREE"> T  </i>
   <i type="int" name="IBSE">     0</i>
   <v type="int" name="KPOINT">    -1     0     0     0</v>
   <i type="logical" name="LTCTE"> F  </i>
   <i type="logical" name="LTETE"> F  </i>
   <i type="logical" name="LTRIPLET"> F  </i>
   <i type="logical" name="LFXCEPS"> F  </i>
   <i type="logical" name="LFXHEG"> F  </i>
   <i type="int" name="NATURALO">     2</i>
   <i type="logical" name="L2ORDER"> F  </i>
   <i type="logical" name="LMP2LT"> F  </i>
   <i type="logical" name="LUSEW"> F  </i>
   <i name="ENCUTGW">     -2.00000000</i>
   <i name="ENCUTGWSOFT">     -2.00000000</i>
   <i name="ENCUTLF">     -1.00000000</i>
   <i type="int" name="LMAXMP2">    -1</i>
   <i name="SCISSOR">      0.00000000</i>
   <i type="int" name="NOMEGA">     0</i>
   <i type="int" name="NOMEGAR">     0</i>
   <i type="int" name="NBANDSGW">    -1</i>
   <i type="int" name="NBANDSO">    -1</i>
   <i type="int" name="NBANDSV">    -1</i>
   <i type="int" name="NELM">     1</i>
   <i type="int" name="NELMHF">     1</i>
   <i type="int" name="DIM">     3</i>
   <i type="int" name="ANTIRES">     0</i>
   <i name="OMEGAMAX">    -30.00000000</i>
   <i name="OMEGAMIN">    -30.00000000</i>
   <i name="OMEGATL">   -200.00000000</i>
   <i type="int" name="OMEGAGRID">   140</i>
   <i name="CSHIFT">     -0.10000000</i>
   <i type="logical" name="SELFENERGY"> F  </i>
   <i type="logical" name="LSPECTRAL"> F  </i>
   <i type="logical" name="LSPECTRALGW"> F  </i>
   <i type="logical" name="LSINGLES"> F  </i>
   <i type="logical" name="LFERMIGW"> F  </i>
   <i type="logical" name="ODDONLYGW"> F  </i>
   <i type="logical" name="EVENONLYGW"> F  </i>
   <i type="int" name="NKREDLFX">     1</i>
   <i type="int" name="NKREDLFY">     1</i>
   <i type="int" name="NKREDLFZ">     1</i>
   <i type="int" name="MAXMEM">  2800</i>
   <i type="int" name="TELESCOPE">     0</i>
   <i type="int" name="TAUPAR">     1</i>
   <i type="int" name="OMEGAPAR">    -1</i>
   <i name="LAMBDA">      1.00000000</i>
  </separator>
  <separator name="External order field" >
   <i name="OFIELD_KAPPA">      0.00000000</i>
   <v name="OFIELD_K">      0.00000000      0.00000000      0.00000000</v>
   <i name="OFIELD_Q6_NEAR">      0.00000000</i>
   <i name="OFIELD_Q6_FAR">      0.00000000</i>
   <i name="OFIELD_A">      0.00000000</i>
  </separator>
 </parameters>
 <atominfo>
  <atoms>       5 </atoms>
  <types>       2 </types>
  <array name="atoms" >
   <dimension dim="1">ion</dimension>
   <field type="string">element</field>
   <field type="int">atomtype</field>
   <set>
    <rc><c>Cu</c><c>   1</c></rc>
    <rc><c>Cu</c><c>   1</c></rc>
    <rc><c>Cu</c><c>   1</c></rc>
    <rc><c>Cu</c><c>   1</c></rc>
    <rc><c>H </c><c>   2</c></rc>
   </set>
  </array>
  <array name="atomtypes" >
   <dimension dim="1">type</dimension>
   <field type="int">atomspertype</field>
   <field type="string">element</field>
   <field>mass</field>
   <field>valence</field>
   <field type="string">pseudopotential</field>
   <set>
    <rc><c>   4</c><c>Cu</c><c>     63.54600000</c><c>     11.00000000</c><c> PAW_PBE Cu 05Jan2001                   </c></rc>
    <rc><c>   1</c><c>H </c><c>      1.00000000</c><c>      1.00000000</c><c> PAW_PBE H 15Jun2001                    </c></rc>
   </set>
  </array>
 </atominfo>
 <structure name="initialpos" >
  <crystal>
   <varray name="basis" >
    <v>       2.57386868       0.00000000       0.00000000 </v>
    <v>       1.28693434       2.22903567       0.00000000 </v>
    <v>       0.00000000       0.00000000      30.30466494 </v>
   </varray>
   <i name="volume">    173.86529028 </i>
   <varray name="rec_basis" >
    <v>       0.38852021      -0.22431225       0.00000000 </v>
    <v>       0.00000000       0.44862450       0.00000000 </v>
    <v>       0.00000000       0.00000000       0.03299822 </v>
   </varray>
  </crystal>
  <varray name="positions" >
   <v>       0.00000000       0.00000000       0.39644015 </v>
   <v>       0.33333333       0.33333333       0.46515176 </v>
   <v>       0.66666667       0.66666667       0.53391621 </v>
   <v>       0.00000000       0.00000000       0.60674401 </v>
   <v>       0.33333333       0.33333333       0.63476745 </v>
  </varray>
  <varray name="selective"  type="logical" >
   <v type="logical" >  F  F  F </v>
   <v type="logical" >  F  F  F </v>
   <v type="logical" >  F  F  F </v>
   <v type="logical" >  F  F  F </v>
   <v type="logical" >  T  T  T </v>
  </varray>
  <nose>
   <v>      -3.00000000       0.00000000       0.00010000       0.00010000 </v>
  </nose>
 </structure>
 <calculation>
  <scstep>
   <time name="dav">    1.83    1.83</time>
   <time name="total">    1.94    1.97</time>
   <energy>
    <i name="alphaZ">    120.87645803 </i>
    <i name="ewald">  37788.96794314 </i>
    <i name="hartreedc"> -42909.86997926 </i>
    <i name="XCdc">    177.44981105 </i>
    <i name="pawpsdc">   4328.99049516 </i>
    <i name="pawaedc">  -4905.09836044 </i>
    <i name="eentropy">      0.00000000 </i>
    <i name="bandstr">    101.72538054 </i>
    <i name="atom">   5576.39375050 </i>
    <i name="e_fr_energy">    279.43549871 </i>
    <i name="e_wo_entrp">    279.43549871 </i>
    <i name="e_0_energy">    279.43549871 </i>
   </energy>
  </scstep>
  <scstep>
   <time name="dav">    1.86    1.87</time>
   <time name="total">    1.87    1.87</time>
   <energy>
    <i name="e_fr_energy">     -3.73987207 </i>
    <i name="e_wo_entrp">     -3.73987207 </i>
    <i name="e_0_energy">     -3.73987207 </i>
   </energy>
  </scstep>
  <scstep>
   <time name="dav">    1.99    1.99</time>
   <time name="total">    1.99    1.99</time>
   <energy>
    <i name="e_fr_energy">    -20.95575770 </i>
    <i name="e_wo_entrp">    -20.95575770 </i>
    <i name="e_0_energy">    -20.95575770 </i>
   </energy>
  </scstep>
  <scstep>
   <time name="dav">    2.00    2.00</time>
   <time name="total">    2.00    2.00</time>
   <energy>
    <i name="e_fr_energy">    -21.22827800 </i>
    <i name="e_wo_entrp">    -21.22827800 </i>
    <i name="e_0_energy">    -21.22827800 </i>
   </energy>
  </scstep>
  <scstep>
   <time name="dav">    2.03    2.03</time>
   <time name="total">    2.19    2.19</time>
   <energy>
    <i name="e_fr_energy">    -21.23063513 </i>
    <i name="e_wo_entrp">    -21.23063513 </i>
    <i name="e_0_energy">    -21.23063513 </i>
   </energy>
  </scstep>
  <scstep>
   <time name="diag">    0.33    0.33</time>
   <time name="diis">    1.19    1.19</time>
   <time name="orth">    0.02    0.02</time>
   <time name="total">    1.80    1.80</time>
   <energy>
    <i name="e_fr_energy">    -19.32570840 </i>
    <i name="e_wo_entrp">    -19.32570840 </i>
    <i name="e_0_energy">    -19.32570840 </i>
   </energy>
  </scstep>
  <scstep>
   <time name="diag">    0.33    0.33</time>
   <time name="diis">    1.18    1.18</time>
   <time name="orth">    0.02    0.02</time>
   <time name="total">    1.78    1.79</time>
   <energy>
    <i name="e_fr_energy">    -17.65912381 </i>
    <i name="e_wo_entrp">    -17.65912381 </i>
    <i name="e_0_energy">    -17.65912381 </i>
   </energy>
  </scstep>
  <scstep>
   <time name="diag">    0.33    0.33</time>
   <time name="diis">    1.19    1.19</time>
   <time name="orth">    0.02    0.02</time>
   <time name="total">    1.80    1.80</time>
   <energy>
    <i name="e_fr_energy">    -17.56255145 </i>
    <i name="e_wo_entrp">    -17.56255145 </i>
    <i name="e_0_energy">    -17.56255145 </i>
   </energy>
  </scstep>
  <scstep>
   <time name="diag">    0.33    0.33</time>
   <time name="diis">    1.19    1.19</time>
   <time name="orth">    0.02    0.02</time>
   <time name="total">    1.79    1.80</time>
   <energy>
    <i name="e_fr_energy">    -17.48946931 </i>
    <i name="e_wo_entrp">    -17.48946931 </i>
    <i name="e_0_energy">    -17.48946931 </i>
   </energy>
  </scstep>
  <scstep>
   <time name="diag">    0.33    0.33</time>
   <time name="diis">    1.19    1.19</time>
   <time name="orth">    0.02    0.02</time>
   <time name="total">    1.79    1.79</time>
   <energy>
    <i name="e_fr_energy">    -17.47789518 </i>
    <i name="e_wo_entrp">    -17.47789518 </i>
    <i name="e_0_energy">    -17.47789518 </i>
   </energy>
  </scstep>
  <scstep>
   <time name="diag">    0.33    0.33</time>
   <time name="diis">    1.19    1.19</time>
   <time name="orth">    0.02    0.02</time>
   <time name="total">    1.80    1.80</time>
   <energy>
    <i name="e_fr_energy">    -17.47513323 </i>
    <i name="e_wo_entrp">    -17.47513323 </i>
    <i name="e_0_energy">    -17.47513323 </i>
   </energy>
  </scstep>
  <scstep>
   <time name="diag">    0.33    0.33</time>
   <time name="diis">    1.19    1.19</time>
   <time name="orth">    0.02    0.02</time>
   <time name="total">    1.80    1.80</time>
   <energy>
    <i name="e_fr_energy">    -17.47313506 </i>
    <i name="e_wo_entrp">    -17.47313506 </i>
    <i name="e_0_energy">    -17.47313506 </i>
   </energy>
  </scstep>
  <scstep>
   <time name="diag">    0.33    0.33</time>
   <time name="diis">    1.19    1.19</time>
   <time name="orth">    0.02    0.02</time>
   <time name="total">    1.80    1.80</time>
   <energy>
    <i name="e_fr_energy">    -17.47302259 </i>
    <i name="e_wo_entrp">    -17.47302259 </i>
    <i name="e_0_energy">    -17.47302259 </i>
   </energy>
  </scstep>
  <scstep>
   <time name="diag">    0.33    0.33</time>
   <time name="diis">    1.18    1.18</time>
   <time name="orth">    0.02    0.02</time>
   <time name="total">    1.79    1.79</time>
   <energy>
    <i name="e_fr_energy">    -17.47305335 </i>
    <i name="e_wo_entrp">    -17.47305335 </i>
    <i name="e_0_energy">    -17.47305335 </i>
   </energy>
  </scstep>
  <scstep>
   <time name="diag">    0.33    0.33</time>
   <time name="diis">    1.18    1.18</time>
   <time name="orth">    0.02    0.02</time>
   <time name="total">    1.79    1.79</time>
   <energy>
    <i name="e_fr_energy">    -17.47307563 </i>
    <i name="e_wo_entrp">    -17.47307563 </i>
    <i name="e_0_energy">    -17.47307563 </i>
   </energy>
  </scstep>
  <scstep>
   <time name="diag">    0.33    0.33</time>
   <time name="diis">    1.16    1.16</time>
   <time name="orth">    0.02    0.02</time>
   <time name="total">    1.77    1.77</time>
   <energy>
    <i name="e_fr_energy">    -17.47309657 </i>
    <i name="e_wo_entrp">    -17.47309657 </i>
    <i name="e_0_energy">    -17.47309657 </i>
   </energy>
  </scstep>
  <scstep>
   <time name="diag">    0.33    0.33</time>
   <time name="diis">    1.01    1.01</time>
   <time name="orth">    0.02    0.02</time>
   <time name="total">    1.62    1.62</time>
   <energy>
    <i name="e_fr_energy">    -17.47324164 </i>
    <i name="e_wo_entrp">    -17.47324164 </i>
    <i name="e_0_energy">    -17.47324164 </i>
   </energy>
  </scstep>
  <scstep>
   <time name="diag">    0.33    0.33</time>
   <time name="diis">    0.99    0.99</time>
   <time name="orth">    0.02    0.02</time>
   <time name="total">    1.61    1.61</time>
   <energy>
    <i name="e_fr_energy">    -17.47332091 </i>
    <i name="e_wo_entrp">    -17.47332091 </i>
    <i name="e_0_energy">    -17.47332091 </i>
   </energy>
  </scstep>
  <scstep>
   <time name="diag">    0.33    0.33</time>
   <time name="diis">    0.93    0.93</time>
   <time name="orth">    0.02    0.02</time>
   <time name="total">    1.55    1.55</time>
   <energy>
    <i name="e_fr_energy">    -17.47335003 </i>
    <i name="e_wo_entrp">    -17.47335003 </i>
    <i name="e_0_energy">    -17.47335003 </i>
   </energy>
  </scstep>
  <scstep>
   <time name="diag">    0.33    0.33</time>
   <time name="diis">    0.82    0.82</time>
   <time name="orth">    0.02    0.02</time>
   <time name="total">    1.43    1.43</time>
   <energy>
    <i name="e_fr_energy">    -17.47339645 </i>
    <i name="e_wo_entrp">    -17.47339645 </i>
    <i name="e_0_energy">    -17.47339645 </i>
   </energy>
  </scstep>
  <scstep>
   <time name="diag">    0.33    0.33</time>
   <time name="diis">    0.80    0.80</time>
   <time name="orth">    0.02    0.02</time>
   <time name="total">    1.41    1.41</time>
   <energy>
    <i name="e_fr_energy">    -17.47341557 </i>
    <i name="e_wo_entrp">    -17.47341557 </i>
    <i name="e_0_energy">    -17.47341557 </i>
   </energy>
  </scstep>
  <scstep>
   <time name="diag">    0.33    0.33</time>
   <time name="diis">    0.80    0.80</time>
   <time name="orth">    0.02    0.02</time>
   <time name="total">    1.42    1.42</time>
   <energy>
    <i name="e_fr_energy">    -17.47342548 </i>
    <i name="e_wo_entrp">    -17.47342548 </i>
    <i name="e_0_energy">    -17.47342548 </i>
   </energy>
  </scstep>
  <scstep>
   <time name="diag">    0.33    0.33</time>
   <time name="diis">    0.77    0.77</time>
   <time name="orth">    0.02    0.02</time>
   <time name="total">    1.39    1.39</time>
   <energy>
    <i name="e_fr_energy">    -17.47343288 </i>
    <i name="e_wo_entrp">    -17.47343288 </i>
    <i name="e_0_energy">    -17.47343288 </i>
   </energy>
  </scstep>
  <scstep>
   <time name="diag">    0.33    0.33</time>
   <time name="diis">    0.66    0.66</time>
   <time name="orth">    0.02    0.02</time>
   <time name="total">    1.11    1.11</time>
   <energy>
    <i name="alphaZ">    120.87645803 </i>
    <i name="ewald">  37788.96794314 </i>
    <i name="hartreedc"> -42857.67510833 </i>
    <i name="XCdc">    173.47400046 </i>
    <i name="pawpsdc">   4383.26427443 </i>
    <i name="pawaedc">  -4962.06546814 </i>
    <i name="eentropy">      0.00000000 </i>
    <i name="bandstr">   -240.70928279 </i>
    <i name="atom">   5576.39375050 </i>
    <i name="e_fr_energy">    -17.47343271 </i>
    <i name="e_wo_entrp">    -17.47343271 </i>
    <i name="e_0_energy">    -17.47343271 </i>
   </energy>
  </scstep>
  <structure>
   <crystal>
    <varray name="basis" >
     <v>       2.57386868       0.00000000       0.00000000 </v>
     <v>       1.28693434       2.22903567       0.00000000 </v>
     <v>       0.00000000       0.00000000      30.30466494 </v>
    </varray>
    <i name="volume">    173.86529028 </i>
    <varray name="rec_basis" >
     <v>       0.38852021      -0.22431225       0.00000000 </v>
     <v>       0.00000000       0.44862450       0.00000000 </v>
     <v>       0.00000000       0.00000000       0.03299822 </v>
    </varray>
   </crystal>
   <varray name="positions" >
    <v>       0.00000000       0.00000000       0.39644015 </v>
    <v>       0.33333333       0.33333333       0.46515176 </v>
    <v>       0.66666667       0.66666667       0.53391621 </v>
    <v>       0.00000000       0.00000000       0.60674401 </v>
    <v>       0.33333333       0.33333333       0.63476745 </v>
   </varray>
  </structure>
  <varray name="forces" >
   <v>      -0.00000000       0.00000000       0.04402858 </v>
   <v>       0.00000000       0.00000000      -0.01545863 </v>
   <v>       0.00000000      -0.00000000       0.08035191 </v>
   <v>      -0.00000000      -0.00000000      -0.00994159 </v>
   <v>      -0.00000000      -0.00000000      -0.09898028 </v>
  </varray>
  <varray name="stress" >
   <v>      -2.97930213       0.00000000       0.00000000 </v>
   <v>       0.00000000      -2.97930213       0.00000000 </v>
   <v>       0.00000000      -0.00000000      -4.59670638 </v>
  </varray>
  <energy>
   <i name="e_fr_energy">    -17.47343271 </i>
   <i name="e_wo_entrp">    -17.47343271 </i>
   <i name="e_0_energy">      0.00000000 </i>
  </energy>
  <kpoints>
   <generation param="Gamma">
    <v type="int" name="divisions">      10       10        1 </v>
    <v name="usershift">      0.00000000       0.00000000       0.00000000 </v>
    <v name="genvec1">      0.10000000       0.00000000       0.00000000 </v>
    <v name="genvec2">      0.00000000       0.10000000       0.00000000 </v>
    <v name="genvec3">      0.00000000       0.00000000       1.00000000 </v>
    <v name="shift">      0.00000000       0.00000000       0.00000000 </v>
   </generation>
   <varray name="kpointlist" >
    <v>       0.00000000       0.00000000       0.00000000 </v>
    <v>       0.10000000       0.00000000       0.00000000 </v>
    <v>       0.20000000      -0.00000000       0.00000000 </v>
    <v>       0.30000000      -0.00000000       0.00000000 </v>
    <v>       0.40000000      -0.00000000       0.00000000 </v>
    <v>       0.50000000      -0.00000000       0.00000000 </v>
    <v>       0.00000000       0.10000000       0.00000000 </v>
    <v>       0.10000000       0.10000000       0.00000000 </v>
    <v>       0.20000000       0.10000000       0.00000000 </v>
    <v>       0.30000000       0.10000000       0.00000000 </v>
    <v>       0.40000000       0.10000000       0.00000000 </v>
    <v>       0.50000000       0.10000000       0.00000000 </v>
    <v>      -0.40000000       0.10000000       0.00000000 </v>
    <v>      -0.30000000       0.10000000       0.00000000 </v>
    <v>      -0.20000000       0.10000000       0.00000000 </v>
    <v>      -0.10000000       0.10000000       0.00000000 </v>
    <v>       0.00000000       0.20000000       0.00000000 </v>
    <v>       0.10000000       0.20000000       0.00000000 </v>
    <v>       0.20000000       0.20000000       0.00000000 </v>
    <v>       0.30000000       0.20000000       0.00000000 </v>
    <v>       0.40000000       0.20000000       0.00000000 </v>
    <v>       0.50000000       0.20000000       0.00000000 </v>
    <v>      -0.40000000       0.20000000       0.00000000 </v>
    <v>      -0.30000000       0.20000000       0.00000000 </v>
    <v>      -0.20000000       0.20000000       0.00000000 </v>
    <v>      -0.10000000       0.20000000       0.00000000 </v>
    <v>       0.00000000       0.30000000       0.00000000 </v>
    <v>       0.10000000       0.30000000       0.00000000 </v>
    <v>       0.20000000       0.30000000       0.00000000 </v>
    <v>       0.30000000       0.30000000       0.00000000 </v>
    <v>       0.40000000       0.30000000       0.00000000 </v>
    <v>       0.50000000       0.30000000       0.00000000 </v>
    <v>      -0.40000000       0.30000000       0.00000000 </v>
    <v>      -0.30000000       0.30000000       0.00000000 </v>
    <v>      -0.20000000       0.30000000       0.00000000 </v>
    <v>      -0.10000000       0.30000000       0.00000000 </v>
    <v>       0.00000000       0.40000000       0.00000000 </v>
    <v>       0.10000000       0.40000000       0.00000000 </v>
    <v>       0.20000000       0.40000000       0.00000000 </v>
    <v>       0.30000000       0.40000000       0.00000000 </v>
    <v>       0.40000000       0.40000000       0.00000000 </v>
    <v>       0.50000000       0.40000000       0.00000000 </v>
    <v>      -0.40000000       0.40000000       0.00000000 </v>
    <v>      -0.30000000       0.40000000       0.00000000 </v>
    <v>      -0.20000000       0.40000000       0.00000000 </v>
    <v>      -0.10000000       0.40000000       0.00000000 </v>
    <v>       0.00000000       0.50000000       0.00000000 </v>
    <v>       0.10000000       0.50000000       0.00000000 </v>
    <v>       0.20000000       0.50000000       0.00000000 </v>
    <v>       0.30000000       0.50000000       0.00000000 </v>
    <v>       0.40000000       0.50000000       0.00000000 </v>
    <v>       0.50000000       0.50000000       0.00000000 </v>
   </varray>
   <varray name="weights" >
    <v>       0.01000000 </v>
    <v>       0.02000000 </v>
    <v>       0.02000000 </v>
    <v>       0.02000000 </v>
    <v>       0.02000000 </v>
    <v>       0.01000000 </v>
    <v>       0.02000000 </v>
    <v>       0.02000000 </v>
    <v>       0.02000000 </v>
    <v>       0.02000000 </v>
    <v>       0.02000000 </v>
    <v>       0.02000000 </v>
    <v>       0.02000000 </v>
    <v>       0.02000000 </v>
    <v>       0.02000000 </v>
    <v>       0.02000000 </v>
    <v>       0.02000000 </v>
    <v>       0.02000000 </v>
    <v>       0.02000000 </v>
    <v>       0.02000000 </v>
    <v>       0.02000000 </v>
    <v>       0.02000000 </v>
    <v>       0.02000000 </v>
    <v>       0.02000000 </v>
    <v>       0.02000000 </v>
    <v>       0.02000000 </v>
    <v>       0.02000000 </v>
    <v>       0.02000000 </v>
    <v>       0.02000000 </v>
    <v>       0.02000000 </v>
    <v>       0.02000000 </v>
    <v>       0.02000000 </v>
    <v>       0.02000000 </v>
    <v>       0.02000000 </v>
    <v>       0.02000000 </v>
    <v>       0.02000000 </v>
    <v>       0.02000000 </v>
    <v>       0.02000000 </v>
    <v>       0.02000000 </v>
    <v>       0.02000000 </v>
    <v>       0.02000000 </v>
    <v>       0.02000000 </v>
    <v>       0.02000000 </v>
    <v>       0.02000000 </v>
    <v>       0.02000000 </v>
    <v>       0.02000000 </v>
    <v>       0.01000000 </v>
    <v>       0.02000000 </v>
    <v>       0.02000000 </v>
    <v>       0.02000000 </v>
    <v>       0.02000000 </v>
    <v>       0.01000000 </v>
   </varray>
   <varray name="tetrahedronlist"  type="int" >
    <v type="int" >        2        1        1        2        8 </v>
    <v type="int" >        2        1        1        7        8 </v>
    <v type="int" >        2        1        7        7        8 </v>
    <v type="int" >        2        1        2        2        8 </v>
    <v type="int" >        2        1        2        8        8 </v>
    <v type="int" >        2        1        7        8        8 </v>
    <v type="int" >        2        2        2        3        9 </v>
    <v type="int" >        2        2        2        8        9 </v>
    <v type="int" >        2        2        8        8        9 </v>
    <v type="int" >        2        2        3        3        9 </v>
    <v type="int" >        2        2        3        9        9 </v>
    <v type="int" >        2        2        8        9        9 </v>
    <v type="int" >        2        3        3        4       10 </v>
    <v type="int" >        2        3        3        9       10 </v>
    <v type="int" >        2        3        9        9       10 </v>
    <v type="int" >        2        3        4        4       10 </v>
    <v type="int" >        2        3        4       10       10 </v>
    <v type="int" >        2        3        9       10       10 </v>
    <v type="int" >        2        4        4        5       11 </v>
    <v type="int" >        2        4        4       10       11 </v>
    <v type="int" >        2        4       10       10       11 </v>
    <v type="int" >        2        4        5        5       11 </v>
    <v type="int" >        2        4        5       11       11 </v>
    <v type="int" >        2        4       10       11       11 </v>
    <v type="int" >        2        5        5        6       12 </v>
    <v type="int" >        2        5        5       11       12 </v>
    <v type="int" >        2        5       11       11       12 </v>
    <v type="int" >        2        5        6        6       12 </v>
    <v type="int" >        2        5        6       12       12 </v>
    <v type="int" >        2        5       11       12       12 </v>
    <v type="int" >        2        5        6        6       13 </v>
    <v type="int" >        2        6        6       12       13 </v>
    <v type="int" >        2        6       12       12       13 </v>
    <v type="int" >        2        5        5        6       13 </v>
    <v type="int" >        2        5        6       13       13 </v>
    <v type="int" >        2        6       12       13       13 </v>
    <v type="int" >        2        4        5        5       14 </v>
    <v type="int" >        2        5        5       13       14 </v>
    <v type="int" >        2        5       13       13       14 </v>
    <v type="int" >        2        4        4        5       14 </v>
    <v type="int" >        2        4        5       14       14 </v>
    <v type="int" >        2        5       13       14       14 </v>
    <v type="int" >        2        3        4        4       15 </v>
    <v type="int" >        2        4        4       14       15 </v>
    <v type="int" >        2        4       14       14       15 </v>
    <v type="int" >        2        3        3        4       15 </v>
    <v type="int" >        2        3        4       15       15 </v>
    <v type="int" >        2        4       14       15       15 </v>
    <v type="int" >        2        2        3        3       16 </v>
    <v type="int" >        2        3        3       15       16 </v>
    <v type="int" >        2        3       15       15       16 </v>
    <v type="int" >        2        2        2        3       16 </v>
    <v type="int" >        2        2        3       16       16 </v>
    <v type="int" >        2        3       15       16       16 </v>
    <v type="int" >        2        1        2        2        7 </v>
    <v type="int" >        2        2        2        7       16 </v>
    <v type="int" >        2        2        7       16       16 </v>
    <v type="int" >        2        1        1        2        7 </v>
    <v type="int" >        2        1        2        7        7 </v>
    <v type="int" >        2        2        7        7       16 </v>
    <v type="int" >        2        7        7        8       18 </v>
    <v type="int" >        2        7        7       17       18 </v>
    <v type="int" >        2        7       17       17       18 </v>
    <v type="int" >        2        7        8        8       18 </v>
    <v type="int" >        2        7        8       18       18 </v>
    <v type="int" >        2        7       17       18       18 </v>
    <v type="int" >        2        8        8        9       19 </v>
    <v type="int" >        2        8        8       18       19 </v>
    <v type="int" >        2        8       18       18       19 </v>
    <v type="int" >        2        8        9        9       19 </v>
    <v type="int" >        2        8        9       19       19 </v>
    <v type="int" >        2        8       18       19       19 </v>
    <v type="int" >        2        9        9       10       20 </v>
    <v type="int" >        2        9        9       19       20 </v>
    <v type="int" >        2        9       19       19       20 </v>
    <v type="int" >        2        9       10       10       20 </v>
    <v type="int" >        2        9       10       20       20 </v>
    <v type="int" >        2        9       19       20       20 </v>
    <v type="int" >        2       10       10       11       21 </v>
    <v type="int" >        2       10       10       20       21 </v>
    <v type="int" >        2       10       20       20       21 </v>
    <v type="int" >        2       10       11       11       21 </v>
    <v type="int" >        2       10       11       21       21 </v>
    <v type="int" >        2       10       20       21       21 </v>
    <v type="int" >        2       11       11       12       22 </v>
    <v type="int" >        2       11       11       21       22 </v>
    <v type="int" >        2       11       21       21       22 </v>
    <v type="int" >        2       11       12       12       22 </v>
    <v type="int" >        2       11       12       22       22 </v>
    <v type="int" >        2       11       21       22       22 </v>
    <v type="int" >        2       12       12       13       23 </v>
    <v type="int" >        2       12       12       22       23 </v>
    <v type="int" >        2       12       22       22       23 </v>
    <v type="int" >        2       12       13       13       23 </v>
    <v type="int" >        2       12       13       23       23 </v>
    <v type="int" >        2       12       22       23       23 </v>
    <v type="int" >        2       13       13       14       24 </v>
    <v type="int" >        2       13       13       23       24 </v>
    <v type="int" >        2       13       23       23       24 </v>
    <v type="int" >        2       13       14       14       24 </v>
    <v type="int" >        2       13       14       24       24 </v>
    <v type="int" >        2       13       23       24       24 </v>
    <v type="int" >        2       14       14       15       25 </v>
    <v type="int" >        2       14       14       24       25 </v>
    <v type="int" >        2       14       24       24       25 </v>
    <v type="int" >        2       14       15       15       25 </v>
    <v type="int" >        2       14       15       25       25 </v>
    <v type="int" >        2       14       24       25       25 </v>
    <v type="int" >        2       15       15       16       26 </v>
    <v type="int" >        2       15       15       25       26 </v>
    <v type="int" >        2       15       25       25       26 </v>
    <v type="int" >        2       15       16       16       26 </v>
    <v type="int" >        2       15       16       26       26 </v>
    <v type="int" >        2       15       25       26       26 </v>
    <v type="int" >        2        7       16       16       17 </v>
    <v type="int" >        2       16       16       17       26 </v>
    <v type="int" >        2       16       17       26       26 </v>
    <v type="int" >        2        7        7       16       17 </v>
    <v type="int" >        2        7       16       17       17 </v>
    <v type="int" >        2       16       17       17       26 </v>
    <v type="int" >        2       17       17       18       28 </v>
    <v type="int" >        2       17       17       27       28 </v>
    <v type="int" >        2       17       27       27       28 </v>
    <v type="int" >        2       17       18       18       28 </v>
    <v type="int" >        2       17       18       28       28 </v>
    <v type="int" >        2       17       27       28       28 </v>
    <v type="int" >        2       18       18       19       29 </v>
    <v type="int" >        2       18       18       28       29 </v>
    <v type="int" >        2       18       28       28       29 </v>
    <v type="int" >        2       18       19       19       29 </v>
    <v type="int" >        2       18       19       29       29 </v>
    <v type="int" >        2       18       28       29       29 </v>
    <v type="int" >        2       19       19       20       30 </v>
    <v type="int" >        2       19       19       29       30 </v>
    <v type="int" >        2       19       29       29       30 </v>
    <v type="int" >        2       19       20       20       30 </v>
    <v type="int" >        2       19       20       30       30 </v>
    <v type="int" >        2       19       29       30       30 </v>
    <v type="int" >        2       20       20       21       31 </v>
    <v type="int" >        2       20       20       30       31 </v>
    <v type="int" >        2       20       30       30       31 </v>
    <v type="int" >        2       20       21       21       31 </v>
    <v type="int" >        2       20       21       31       31 </v>
    <v type="int" >        2       20       30       31       31 </v>
    <v type="int" >        2       21       21       22       32 </v>
    <v type="int" >        2       21       21       31       32 </v>
    <v type="int" >        2       21       31       31       32 </v>
    <v type="int" >        2       21       22       22       32 </v>
    <v type="int" >        2       21       22       32       32 </v>
    <v type="int" >        2       21       31       32       32 </v>
    <v type="int" >        2       22       22       23       33 </v>
    <v type="int" >        2       22       22       32       33 </v>
    <v type="int" >        2       22       32       32       33 </v>
    <v type="int" >        2       22       23       23       33 </v>
    <v type="int" >        2       22       23       33       33 </v>
    <v type="int" >        2       22       32       33       33 </v>
    <v type="int" >        2       23       23       24       34 </v>
    <v type="int" >        2       23       23       33       34 </v>
    <v type="int" >        2       23       33       33       34 </v>
    <v type="int" >        2       23       24       24       34 </v>
    <v type="int" >        2       23       24       34       34 </v>
    <v type="int" >        2       23       33       34       34 </v>
    <v type="int" >        2       24       24       25       35 </v>
    <v type="int" >        2       24       24       34       35 </v>
    <v type="int" >        2       24       34       34       35 </v>
    <v type="int" >        2       24       25       25       35 </v>
    <v type="int" >        2       24       25       35       35 </v>
    <v type="int" >        2       24       34       35       35 </v>
    <v type="int" >        2       25       25       26       36 </v>
    <v type="int" >        2       25       25       35       36 </v>
    <v type="int" >        2       25       35       35       36 </v>
    <v type="int" >        2       25       26       26       36 </v>
    <v type="int" >        2       25       26       36       36 </v>
    <v type="int" >        2       25       35       36       36 </v>
    <v type="int" >        2       17       26       26       27 </v>
    <v type="int" >        2       26       26       27       36 </v>
    <v type="int" >        2       26       27       36       36 </v>
    <v type="int" >        2       17       17       26       27 </v>
    <v type="int" >        2       17       26       27       27 </v>
    <v type="int" >        2       26       27       27       36 </v>
    <v type="int" >        2       27       27       28       38 </v>
    <v type="int" >        2       27       27       37       38 </v>
    <v type="int" >        2       27       37       37       38 </v>
    <v type="int" >        2       27       28       28       38 </v>
    <v type="int" >        2       27       28       38       38 </v>
    <v type="int" >        2       27       37       38       38 </v>
    <v type="int" >        2       28       28       29       39 </v>
    <v type="int" >        2       28       28       38       39 </v>
    <v type="int" >        2       28       38       38       39 </v>
    <v type="int" >        2       28       29       29       39 </v>
    <v type="int" >        2       28       29       39       39 </v>
    <v type="int" >        2       28       38       39       39 </v>
    <v type="int" >        2       29       29       30       40 </v>
    <v type="int" >        2       29       29       39       40 </v>
    <v type="int" >        2       29       39       39       40 </v>
    <v type="int" >        2       29       30       30       40 </v>
    <v type="int" >        2       29       30       40       40 </v>
    <v type="int" >        2       29       39       40       40 </v>
    <v type="int" >        2       30       30       31       41 </v>
    <v type="int" >        2       30       30       40       41 </v>
    <v type="int" >        2       30       40       40       41 </v>
    <v type="int" >        2       30       31       31       41 </v>
    <v type="int" >        2       30       31       41       41 </v>
    <v type="int" >        2       30       40       41       41 </v>
    <v type="int" >        2       31       31       32       42 </v>
    <v type="int" >        2       31       31       41       42 </v>
    <v type="int" >        2       31       41       41       42 </v>
    <v type="int" >        2       31       32       32       42 </v>
    <v type="int" >        2       31       32       42       42 </v>
    <v type="int" >        2       31       41       42       42 </v>
    <v type="int" >        2       32       32       33       43 </v>
    <v type="int" >        2       32       32       42       43 </v>
    <v type="int" >        2       32       42       42       43 </v>
    <v type="int" >        2       32       33       33       43 </v>
    <v type="int" >        2       32       33       43       43 </v>
    <v type="int" >        2       32       42       43       43 </v>
    <v type="int" >        2       33       33       34       44 </v>
    <v type="int" >        2       33       33       43       44 </v>
    <v type="int" >        2       33       43       43       44 </v>
    <v type="int" >        2       33       34       34       44 </v>
    <v type="int" >        2       33       34       44       44 </v>
    <v type="int" >        2       33       43       44       44 </v>
    <v type="int" >        2       34       34       35       45 </v>
    <v type="int" >        2       34       34       44       45 </v>
    <v type="int" >        2       34       44       44       45 </v>
    <v type="int" >        2       34       35       35       45 </v>
    <v type="int" >        2       34       35       45       45 </v>
    <v type="int" >        2       34       44       45       45 </v>
    <v type="int" >        2       35       35       36       46 </v>
    <v type="int" >        2       35       35       45       46 </v>
    <v type="int" >        2       35       45       45       46 </v>
    <v type="int" >        2       35       36       36       46 </v>
    <v type="int" >        2       35       36       46       46 </v>
    <v type="int" >        2       35       45       46       46 </v>
    <v type="int" >        2       27       36       36       37 </v>
    <v type="int" >        2       36       36       37       46 </v>
    <v type="int" >        2       36       37       46       46 </v>
    <v type="int" >        2       27       27       36       37 </v>
    <v type="int" >        2       27       36       37       37 </v>
    <v type="int" >        2       36       37       37       46 </v>
    <v type="int" >        2       37       37       38       48 </v>
    <v type="int" >        2       37       37       47       48 </v>
    <v type="int" >        2       37       47       47       48 </v>
    <v type="int" >        2       37       38       38       48 </v>
    <v type="int" >        2       37       38       48       48 </v>
    <v type="int" >        2       37       47       48       48 </v>
    <v type="int" >        2       38       38       39       49 </v>
    <v type="int" >        2       38       38       48       49 </v>
    <v type="int" >        2       38       48       48       49 </v>
    <v type="int" >        2       38       39       39       49 </v>
    <v type="int" >        2       38       39       49       49 </v>
    <v type="int" >        2       38       48       49       49 </v>
    <v type="int" >        2       39       39       40       50 </v>
    <v type="int" >        2       39       39       49       50 </v>
    <v type="int" >        2       39       49       49       50 </v>
    <v type="int" >        2       39       40       40       50 </v>
    <v type="int" >        2       39       40       50       50 </v>
    <v type="int" >        2       39       49       50       50 </v>
    <v type="int" >        2       40       40       41       51 </v>
    <v type="int" >        2       40       40       50       51 </v>
    <v type="int" >        2       40       50       50       51 </v>
    <v type="int" >        2       40       41       41       51 </v>
    <v type="int" >        2       40       41       51       51 </v>
    <v type="int" >        2       40       50       51       51 </v>
    <v type="int" >        2       41       41       42       52 </v>
    <v type="int" >        2       41       41       51       52 </v>
    <v type="int" >        2       41       51       51       52 </v>
    <v type="int" >        2       41       42       42       52 </v>
    <v type="int" >        2       41       42       52       52 </v>
    <v type="int" >        2       41       51       52       52 </v>
    <v type="int" >        2       42       42       43       51 </v>
    <v type="int" >        2       42       42       51       52 </v>
    <v type="int" >        2       42       51       52       52 </v>
    <v type="int" >        2       42       43       43       51 </v>
    <v type="int" >        2       42       43       51       51 </v>
    <v type="int" >        2       42       51       51       52 </v>
    <v type="int" >        2       43       43       44       50 </v>
    <v type="int" >        2       43       43       50       51 </v>
    <v type="int" >        2       43       50       51       51 </v>
    <v type="int" >        2       43       44       44       50 </v>
    <v type="int" >        2       43       44       50       50 </v>
    <v type="int" >        2       43       50       50       51 </v>
    <v type="int" >        2       44       44       45       49 </v>
    <v type="int" >        2       44       44       49       50 </v>
    <v type="int" >        2       44       49       50       50 </v>
    <v type="int" >        2       44       45       45       49 </v>
    <v type="int" >        2       44       45       49       49 </v>
    <v type="int" >        2       44       49       49       50 </v>
    <v type="int" >        2       45       45       46       48 </v>
    <v type="int" >        2       45       45       48       49 </v>
    <v type="int" >        2       45       48       49       49 </v>
    <v type="int" >        2       45       46       46       48 </v>
    <v type="int" >        2       45       46       48       48 </v>
    <v type="int" >        2       45       48       48       49 </v>
    <v type="int" >        2       37       46       46       47 </v>
    <v type="int" >        2       46       46       47       48 </v>
    <v type="int" >        2       46       47       48       48 </v>
    <v type="int" >        2       37       37       46       47 </v>
    <v type="int" >        2       37       46       47       47 </v>
    <v type="int" >        2       46       47       47       48 </v>
   </varray>
   <i name="volumeweight">      0.00166667 </i>
  </kpoints>
  <time name="totalsc">   45.44   45.54</time>
 </calculation>
 <calculation>
  <scstep>
   <time name="dav">    7.10    7.10</time>
   <time name="total">    7.74    7.75</time>
   <energy>
    <i name="alphaZ">    120.87645803 </i>
    <i name="ewald">  37789.18012206 </i>
    <i name="hartreedc"> -42857.76563443 </i>
    <i name="XCdc">    173.47486505 </i>
    <i name="pawpsdc">   4383.26643094 </i>
    <i name="pawaedc">  -4962.06785915 </i>
    <i name="eentropy">      0.00000000 </i>
    <i name="bandstr">   -240.81197537 </i>
    <i name="atom">   5576.39375050 </i>
    <i name="e_fr_energy">    -17.45384236 </i>
    <i name="e_wo_entrp">    -17.45384236 </i>
    <i name="e_0_energy">    -17.45384236 </i>
   </energy>
  </scstep>
  <scstep>
   <time name="diag">    1.23    1.23</time>
   <time name="diis">    4.35    4.35</time>
   <time name="orth">    0.06    0.06</time>
   <time name="total">    6.28    6.28</time>
   <energy>
    <i name="e_fr_energy">    -17.45626676 </i>
    <i name="e_wo_entrp">    -17.45626676 </i>
    <i name="e_0_energy">    -17.45626676 </i>
   </energy>
  </scstep>
  <scstep>
   <time name="diag">    1.23    1.23</time>
   <time name="diis">    4.34    4.34</time>
   <time name="orth">    0.06    0.06</time>
   <time name="total">    6.27    6.27</time>
   <energy>
    <i name="e_fr_energy">    -17.45891752 </i>
    <i name="e_wo_entrp">    -17.45891752 </i>
    <i name="e_0_energy">    -17.45891752 </i>
   </energy>
  </scstep>
  <scstep>
   <time name="diag">    1.22    1.22</time>
   <time name="diis">    4.37    4.37</time>
   <time name="orth">    0.06    0.06</time>
   <time name="total">    6.30    6.30</time>
   <energy>
    <i name="e_fr_energy">    -17.45564665 </i>
    <i name="e_wo_entrp">    -17.45564665 </i>
    <i name="e_0_energy">    -17.45564665 </i>
   </energy>
  </scstep>
  <scstep>
   <time name="diag">    1.22    1.22</time>
   <time name="diis">    4.35    4.35</time>
   <time name="orth">    0.06    0.06</time>
   <time name="total">    6.28    6.28</time>
   <energy>
    <i name="e_fr_energy">    -17.45542355 </i>
    <i name="e_wo_entrp">    -17.45542355 </i>
    <i name="e_0_energy">    -17.45542355 </i>
   </energy>
  </scstep>
  <scstep>
   <time name="diag">    1.22    1.22</time>
   <time name="diis">    4.36    4.36</time>
   <time name="orth">    0.06    0.06</time>
   <time name="total">    6.29    6.29</time>
   <energy>
    <i name="e_fr_energy">    -17.45554335 </i>
    <i name="e_wo_entrp">    -17.45554335 </i>
    <i name="e_0_energy">    -17.45554335 </i>
   </energy>
  </scstep>
  <scstep>
   <time name="diag">    1.23    1.23</time>
   <time name="diis">    3.22    3.22</time>
   <time name="orth">    0.06    0.06</time>
   <time name="total">    5.15    5.15</time>
   <energy>
    <i name="e_fr_energy">    -17.45551849 </i>
    <i name="e_wo_entrp">    -17.45551849 </i>
    <i name="e_0_energy">    -17.45551849 </i>
   </energy>
  </scstep>
  <scstep>
   <time name="diag">    1.22    1.22</time>
   <time name="diis">    2.84    2.84</time>
   <time name="orth">    0.06    0.06</time>
   <time name="total">    4.76    4.76</time>
   <energy>
    <i name="e_fr_energy">    -17.45552559 </i>
    <i name="e_wo_entrp">    -17.45552559 </i>
    <i name="e_0_energy">    -17.45552559 </i>
   </energy>
  </scstep>
  <scstep>
   <time name="diag">    1.22    1.22</time>
   <time name="diis">    2.80    2.80</time>
   <time name="orth">    0.06    0.06</time>
   <time name="total">    4.73    4.73</time>
   <energy>
    <i name="e_fr_energy">    -17.45553047 </i>
    <i name="e_wo_entrp">    -17.45553047 </i>
    <i name="e_0_energy">    -17.45553047 </i>
   </energy>
  </scstep>
  <scstep>
   <time name="diag">    1.22    1.22</time>
   <time name="diis">    2.64    2.64</time>
   <time name="orth">    0.06    0.06</time>
   <time name="total">    4.04    4.04</time>
   <energy>
    <i name="alphaZ">    120.87645803 </i>
    <i name="ewald">  37789.18012206 </i>
    <i name="hartreedc"> -42857.70907642 </i>
    <i name="XCdc">    173.47787678 </i>
    <i name="pawpsdc">   4383.82062211 </i>
    <i name="pawaedc">  -4962.63685753 </i>
    <i name="eentropy">      0.00000000 </i>
    <i name="bandstr">   -240.85842531 </i>
    <i name="atom">   5576.39375050 </i>
    <i name="e_fr_energy">    -17.45552977 </i>
    <i name="e_wo_entrp">    -17.45552977 </i>
    <i name="e_0_energy">    -17.45552977 </i>
   </energy>
  </scstep>
  <structure>
   <crystal>
    <varray name="basis" >
     <v>       2.57386868       0.00000000       0.00000000 </v>
     <v>       1.28693434       2.22903567       0.00000000 </v>
     <v>       0.00000000       0.00000000      30.30466494 </v>
    </varray>
    <i name="volume">    173.86529028 </i>
    <varray name="rec_basis" >
     <v>       0.38852021      -0.22431225       0.00000000 </v>
     <v>       0.00000000       0.44862450       0.00000000 </v>
     <v>       0.00000000       0.00000000       0.03299822 </v>
    </varray>
   </crystal>
   <varray name="positions" >
    <v>       0.00000000       0.00000000       0.39644015 </v>
    <v>       0.33333333       0.33333333       0.46515176 </v>
    <v>       0.66666667       0.66666667       0.53391621 </v>
    <v>       0.00000000       0.00000000       0.60674401 </v>
    <v>       0.37218535       0.33333333       0.63476745 </v>
   </varray>
  </structure>
  <varray name="forces" >
   <v>      -0.00004437      -0.00009194       0.04411138 </v>
   <v>       0.00002837      -0.00010360      -0.01554179 </v>
   <v>      -0.00177659      -0.00033489       0.08016580 </v>
   <v>       0.36278560      -0.05998056      -0.07187774 </v>
   <v>      -0.36099302       0.06051098      -0.03685765 </v>
  </varray>
  <varray name="stress" >
   <v>      -2.36661304      -1.48849722      -2.78145366 </v>
   <v>      -1.48849725      -2.70428274       0.48720130 </v>
   <v>      -2.78145348       0.48720093      -4.08045125 </v>
  </varray>
  <energy>
   <i name="e_fr_energy">    -17.45552977 </i>
   <i name="e_wo_entrp">    -17.45552977 </i>
   <i name="e_0_energy">      0.00000000 </i>
  </energy>
  <kpoints>
   <generation param="Gamma">
    <v type="int" name="divisions">      10       10        1 </v>
    <v name="usershift">      0.00000000       0.00000000       0.00000000 </v>
    <v name="genvec1">      0.10000000       0.00000000       0.00000000 </v>
    <v name="genvec2">      0.00000000       0.10000000       0.00000000 </v>
    <v name="genvec3">      0.00000000       0.00000000       1.00000000 </v>
    <v name="shift">      0.00000000       0.00000000       0.00000000 </v>
   </generation>
   <varray name="kpointlist" >
    <v>       0.00000000       0.00000000       0.00000000 </v>
    <v>       0.10000000       0.00000000       0.00000000 </v>
    <v>       0.20000000      -0.00000000       0.00000000 </v>
    <v>       0.30000000      -0.00000000       0.00000000 </v>
    <v>       0.40000000      -0.00000000       0.00000000 </v>
    <v>       0.50000000      -0.00000000       0.00000000 </v>
    <v>       0.00000000       0.10000000       0.00000000 </v>
    <v>       0.10000000       0.10000000       0.00000000 </v>
    <v>       0.20000000       0.10000000       0.00000000 </v>
    <v>       0.30000000       0.10000000       0.00000000 </v>
    <v>       0.40000000       0.10000000       0.00000000 </v>
    <v>       0.50000000       0.10000000       0.00000000 </v>
    <v>      -0.40000000       0.10000000       0.00000000 </v>
    <v>      -0.30000000       0.10000000       0.00000000 </v>
    <v>      -0.20000000       0.10000000       0.00000000 </v>
    <v>      -0.10000000       0.10000000       0.00000000 </v>
    <v>       0.00000000       0.20000000       0.00000000 </v>
    <v>       0.10000000       0.20000000       0.00000000 </v>
    <v>       0.20000000       0.20000000       0.00000000 </v>
    <v>       0.30000000       0.20000000       0.00000000 </v>
    <v>       0.40000000       0.20000000       0.00000000 </v>
    <v>       0.50000000       0.20000000       0.00000000 </v>
    <v>      -0.40000000       0.20000000       0.00000000 </v>
    <v>      -0.30000000       0.20000000       0.00000000 </v>
    <v>      -0.20000000       0.20000000       0.00000000 </v>
    <v>      -0.10000000       0.20000000       0.00000000 </v>
    <v>       0.00000000       0.30000000       0.00000000 </v>
    <v>       0.10000000       0.30000000       0.00000000 </v>
    <v>       0.20000000       0.30000000       0.00000000 </v>
    <v>       0.30000000       0.30000000       0.00000000 </v>
    <v>       0.40000000       0.30000000       0.00000000 </v>
    <v>       0.50000000       0.30000000       0.00000000 </v>
    <v>      -0.40000000       0.30000000       0.00000000 </v>
    <v>      -0.30000000       0.30000000       0.00000000 </v>
    <v>      -0.20000000       0.30000000       0.00000000 </v>
    <v>      -0.10000000       0.30000000       0.00000000 </v>
    <v>       0.00000000       0.40000000       0.00000000 </v>
    <v>       0.10000000       0.40000000       0.00000000 </v>
    <v>       0.20000000       0.40000000       0.00000000 </v>
    <v>       0.30000000       0.40000000       0.00000000 </v>
    <v>       0.40000000       0.40000000       0.00000000 </v>
    <v>       0.50000000       0.40000000       0.00000000 </v>
    <v>      -0.40000000       0.40000000       0.00000000 </v>
    <v>      -0.30000000       0.40000000       0.00000000 </v>
    <v>      -0.20000000       0.40000000       0.00000000 </v>
    <v>      -0.10000000       0.40000000       0.00000000 </v>
    <v>       0.00000000       0.50000000       0.00000000 </v>
    <v>       0.10000000       0.50000000       0.00000000 </v>
    <v>       0.20000000       0.50000000       0.00000000 </v>
    <v>       0.30000000       0.50000000       0.00000000 </v>
    <v>       0.40000000       0.50000000       0.00000000 </v>
    <v>       0.50000000       0.50000000       0.00000000 </v>
   </varray>
   <varray name="weights" >
    <v>       0.01000000 </v>
    <v>       0.02000000 </v>
    <v>       0.02000000 </v>
    <v>       0.02000000 </v>
    <v>       0.02000000 </v>
    <v>       0.01000000 </v>
    <v>       0.02000000 </v>
    <v>       0.02000000 </v>
    <v>       0.02000000 </v>
    <v>       0.02000000 </v>
    <v>       0.02000000 </v>
    <v>       0.02000000 </v>
    <v>       0.02000000 </v>
    <v>       0.02000000 </v>
    <v>       0.02000000 </v>
    <v>       0.02000000 </v>
    <v>       0.02000000 </v>
    <v>       0.02000000 </v>
    <v>       0.02000000 </v>
    <v>       0.02000000 </v>
    <v>       0.02000000 </v>
    <v>       0.02000000 </v>
    <v>       0.02000000 </v>
    <v>       0.02000000 </v>
    <v>       0.02000000 </v>
    <v>       0.02000000 </v>
    <v>       0.02000000 </v>
    <v>       0.02000000 </v>
    <v>       0.02000000 </v>
    <v>       0.02000000 </v>
    <v>       0.02000000 </v>
    <v>       0.02000000 </v>
    <v>       0.02000000 </v>
    <v>       0.02000000 </v>
    <v>       0.02000000 </v>
    <v>       0.02000000 </v>
    <v>       0.02000000 </v>
    <v>       0.02000000 </v>
    <v>       0.02000000 </v>
    <v>       0.02000000 </v>
    <v>       0.02000000 </v>
    <v>       0.02000000 </v>
    <v>       0.02000000 </v>
    <v>       0.02000000 </v>
    <v>       0.02000000 </v>
    <v>       0.02000000 </v>
    <v>       0.01000000 </v>
    <v>       0.02000000 </v>
    <v>       0.02000000 </v>
    <v>       0.02000000 </v>
    <v>       0.02000000 </v>
    <v>       0.01000000 </v>
   </varray>
   <varray name="tetrahedronlist"  type="int" >
    <v type="int" >        2        1        1        2        8 </v>
    <v type="int" >        2        1        1        7        8 </v>
    <v type="int" >        2        1        7        7        8 </v>
    <v type="int" >        2        1        2        2        8 </v>
    <v type="int" >        2        1        2        8        8 </v>
    <v type="int" >        2        1        7        8        8 </v>
    <v type="int" >        2        2        2        3        9 </v>
    <v type="int" >        2        2        2        8        9 </v>
    <v type="int" >        2        2        8        8        9 </v>
    <v type="int" >        2        2        3        3        9 </v>
    <v type="int" >        2        2        3        9        9 </v>
    <v type="int" >        2        2        8        9        9 </v>
    <v type="int" >        2        3        3        4       10 </v>
    <v type="int" >        2        3        3        9       10 </v>
    <v type="int" >        2        3        9        9       10 </v>
    <v type="int" >        2        3        4        4       10 </v>
    <v type="int" >        2        3        4       10       10 </v>
    <v type="int" >        2        3        9       10       10 </v>
    <v type="int" >        2        4        4        5       11 </v>
    <v type="int" >        2        4        4       10       11 </v>
    <v type="int" >        2        4       10       10       11 </v>
    <v type="int" >        2        4        5        5       11 </v>
    <v type="int" >        2        4        5       11       11 </v>
    <v type="int" >        2        4       10       11       11 </v>
    <v type="int" >        2        5        5        6       12 </v>
    <v type="int" >        2        5        5       11       12 </v>
    <v type="int" >        2        5       11       11       12 </v>
    <v type="int" >        2        5        6        6       12 </v>
    <v type="int" >        2        5        6       12       12 </v>
    <v type="int" >        2        5       11       12       12 </v>
    <v type="int" >        2        5        6        6       13 </v>
    <v type="int" >        2        6        6       12       13 </v>
    <v type="int" >        2        6       12       12       13 </v>
    <v type="int" >        2        5        5        6       13 </v>
    <v type="int" >        2        5        6       13       13 </v>
    <v type="int" >        2        6       12       13       13 </v>
    <v type="int" >        2        4        5        5       14 </v>
    <v type="int" >        2        5        5       13       14 </v>
    <v type="int" >        2        5       13       13       14 </v>
    <v type="int" >        2        4        4        5       14 </v>
    <v type="int" >        2        4        5       14       14 </v>
    <v type="int" >        2        5       13       14       14 </v>
    <v type="int" >        2        3        4        4       15 </v>
    <v type="int" >        2        4        4       14       15 </v>
    <v type="int" >        2        4       14       14       15 </v>
    <v type="int" >        2        3        3        4       15 </v>
    <v type="int" >        2        3        4       15       15 </v>
    <v type="int" >        2        4       14       15       15 </v>
    <v type="int" >        2        2        3        3       16 </v>
    <v type="int" >        2        3        3       15       16 </v>
    <v type="int" >        2        3       15       15       16 </v>
    <v type="int" >        2        2        2        3       16 </v>
    <v type="int" >        2        2        3       16       16 </v>
    <v type="int" >        2        3       15       16       16 </v>
    <v type="int" >        2        1        2        2        7 </v>
    <v type="int" >        2        2        2        7       16 </v>
    <v type="int" >        2        2        7       16       16 </v>
    <v type="int" >        2        1        1        2        7 </v>
    <v type="int" >        2        1        2        7        7 </v>
    <v type="int" >        2        2        7        7       16 </v>
    <v type="int" >        2        7        7        8       18 </v>
    <v type="int" >        2        7        7       17       18 </v>
    <v type="int" >        2        7       17       17       18 </v>
    <v type="int" >        2        7        8        8       18 </v>
    <v type="int" >        2        7        8       18       18 </v>
    <v type="int" >        2        7       17       18       18 </v>
    <v type="int" >        2        8        8        9       19 </v>
    <v type="int" >        2        8        8       18       19 </v>
    <v type="int" >        2        8       18       18       19 </v>
    <v type="int" >        2        8        9        9       19 </v>
    <v type="int" >        2        8        9       19       19 </v>
    <v type="int" >        2        8       18       19       19 </v>
    <v type="int" >        2        9        9       10       20 </v>
    <v type="int" >        2        9        9       19       20 </v>
    <v type="int" >        2        9       19       19       20 </v>
    <v type="int" >        2        9       10       10       20 </v>
    <v type="int" >        2        9       10       20       20 </v>
    <v type="int" >        2        9       19       20       20 </v>
    <v type="int" >        2       10       10       11       21 </v>
    <v type="int" >        2       10       10       20       21 </v>
    <v type="int" >        2       10       20       20       21 </v>
    <v type="int" >        2       10       11       11       21 </v>
    <v type="int" >        2       10       11       21       21 </v>
    <v type="int" >        2       10       20       21       21 </v>
    <v type="int" >        2       11       11       12       22 </v>
    <v type="int" >        2       11       11       21       22 </v>
    <v type="int" >        2       11       21       21       22 </v>
    <v type="int" >        2       11       12       12       22 </v>
    <v type="int" >        2       11       12       22       22 </v>
    <v type="int" >        2       11       21       22       22 </v>
    <v type="int" >        2       12       12       13       23 </v>
    <v type="int" >        2       12       12       22       23 </v>
    <v type="int" >        2       12       22       22       23 </v>
    <v type="int" >        2       12       13       13       23 </v>
    <v type="int" >        2       12       13       23       23 </v>
    <v type="int" >        2       12       22       23       23 </v>
    <v type="int" >        2       13       13       14       24 </v>
    <v type="int" >        2       13       13       23       24 </v>
    <v type="int" >        2       13       23       23       24 </v>
    <v type="int" >        2       13       14       14       24 </v>
    <v type="int" >        2       13       14       24       24 </v>
    <v type="int" >        2       13       23       24       24 </v>
    <v type="int" >        2       14       14       15       25 </v>
    <v type="int" >        2       14       14       24       25 </v>
    <v type="int" >        2       14       24       24       25 </v>
    <v type="int" >        2       14       15       15       25 </v>
    <v type="int" >        2       14       15       25       25 </v>
    <v type="int" >        2       14       24       25       25 </v>
    <v type="int" >        2       15       15       16       26 </v>
    <v type="int" >        2       15       15       25       26 </v>
[...]
       <r>   -2.7808    0.8521 </r>
       <r>   -0.7561    0.0000 </r>
       <r>    1.8461    0.0000 </r>
       <r>    4.6672    0.0000 </r>
       <r>    5.0847    0.0000 </r>
       <r>    5.9090    0.0000 </r>
      </set>
      <set comment="kpoint 12">
       <r>   -8.5729    1.0000 </r>
       <r>   -6.7962    1.0000 </r>
       <r>   -6.5892    1.0000 </r>
       <r>   -6.3564    1.0000 </r>
       <r>   -6.1552    1.0000 </r>
       <r>   -6.0556    1.0000 </r>
       <r>   -5.8633    1.0000 </r>
       <r>   -5.7560    1.0000 </r>
       <r>   -5.5203    1.0000 </r>
       <r>   -5.4422    1.0000 </r>
       <r>   -5.3642    1.0000 </r>
       <r>   -5.0102    1.0000 </r>
       <r>   -4.9281    1.0000 </r>
       <r>   -4.7837    1.0000 </r>
       <r>   -4.5882    1.0000 </r>
       <r>   -4.4730    1.0000 </r>
       <r>   -4.3171    1.0000 </r>
       <r>   -4.1362    1.0000 </r>
       <r>   -3.9672    1.0000 </r>
       <r>   -3.8144    1.0000 </r>
       <r>   -3.1811    1.0498 </r>
       <r>   -2.3073    0.5957 </r>
       <r>   -1.1696   -0.0371 </r>
       <r>    0.8737    0.0000 </r>
       <r>    2.4320    0.0000 </r>
       <r>    3.5649    0.0000 </r>
       <r>    4.3967    0.0000 </r>
       <r>    5.0614    0.0000 </r>
      </set>
      <set comment="kpoint 13">
       <r>   -8.4088    1.0000 </r>
       <r>   -6.5511    1.0000 </r>
       <r>   -6.5205    1.0000 </r>
       <r>   -6.2602    1.0000 </r>
       <r>   -6.2086    1.0000 </r>
       <r>   -6.0148    1.0000 </r>
       <r>   -5.8492    1.0000 </r>
       <r>   -5.7949    1.0000 </r>
       <r>   -5.5202    1.0000 </r>
       <r>   -5.3927    1.0000 </r>
       <r>   -5.3112    1.0000 </r>
       <r>   -5.0434    1.0000 </r>
       <r>   -4.8660    1.0000 </r>
       <r>   -4.6524    1.0000 </r>
       <r>   -4.4994    1.0000 </r>
       <r>   -4.4315    1.0000 </r>
       <r>   -4.2076    1.0000 </r>
       <r>   -4.0505    1.0000 </r>
       <r>   -3.9848    1.0000 </r>
       <r>   -3.8823    1.0000 </r>
       <r>   -2.3571    0.7845 </r>
       <r>   -0.6438   -0.2227 </r>
       <r>   -0.0632    0.0000 </r>
       <r>    0.6861    0.0000 </r>
       <r>    0.9611    0.0000 </r>
       <r>    2.7577    0.0000 </r>
       <r>    4.1327    0.0000 </r>
       <r>    4.6191    0.0000 </r>
      </set>
      <set comment="kpoint 14">
       <r>   -8.3137    1.0000 </r>
       <r>   -6.3359    1.0000 </r>
       <r>   -6.2679    1.0000 </r>
       <r>   -6.1975    1.0000 </r>
       <r>   -6.0890    1.0000 </r>
       <r>   -5.9482    1.0000 </r>
       <r>   -5.9160    1.0000 </r>
       <r>   -5.7954    1.0000 </r>
       <r>   -5.6753    1.0000 </r>
       <r>   -5.5729    1.0000 </r>
       <r>   -5.3785    1.0000 </r>
       <r>   -4.9939    1.0000 </r>
       <r>   -4.9443    1.0000 </r>
       <r>   -4.8078    1.0000 </r>
       <r>   -4.6119    1.0000 </r>
       <r>   -4.4558    1.0000 </r>
       <r>   -4.3799    1.0000 </r>
       <r>   -4.0840    1.0000 </r>
       <r>   -3.9962    1.0000 </r>
       <r>   -3.9066    1.0000 </r>
       <r>   -1.8793    0.1730 </r>
       <r>   -0.3184   -0.0763 </r>
       <r>    0.8536    0.0000 </r>
       <r>    1.7521    0.0000 </r>
       <r>    2.3942    0.0000 </r>
       <r>    2.4023    0.0000 </r>
       <r>    3.2375    0.0000 </r>
       <r>    4.0951    0.0000 </r>
      </set>
     </set>
    </set>
   </array>
  </eigenvalues>
  <separator name="orbital magnetization" >
   <v name="MAGDIPOLOUT">      0.00000000      0.00000000      0.00000000</v>
  </separator>
  <dos>
   <i name="efermi">     -2.27125311 </i>
   <total>
    <array>
     <dimension dim="1">gridpoints</dimension>
     <dimension dim="2">spin</dimension>
     <field>energy</field>
     <field>total</field>
     <field>integrated</field>
     <set>
      <set comment="spin 1">
       <r>   -13.9913     0.0000     0.0000 </r>
       <r>   -13.9183     0.0000     0.0000 </r>
       <r>   -13.8453     0.0000     0.0000 </r>
       <r>   -13.7723     0.0000     0.0000 </r>
       <r>   -13.6993     0.0000     0.0000 </r>
       <r>   -13.6263     0.0000     0.0000 </r>
       <r>   -13.5533     0.0000     0.0000 </r>
       <r>   -13.4803     0.0000     0.0000 </r>
       <r>   -13.4073     0.0000     0.0000 </r>
       <r>   -13.3343     0.0000     0.0000 </r>
       <r>   -13.2613     0.0000     0.0000 </r>
       <r>   -13.1883     0.0000     0.0000 </r>
       <r>   -13.1153     0.0000     0.0000 </r>
       <r>   -13.0423     0.0000     0.0000 </r>
       <r>   -12.9693     0.0000     0.0000 </r>
       <r>   -12.8963     0.0000     0.0000 </r>
       <r>   -12.8233     0.0000     0.0000 </r>
       <r>   -12.7503     0.0000     0.0000 </r>
       <r>   -12.6773     0.0000     0.0000 </r>
       <r>   -12.6043     0.0000     0.0000 </r>
       <r>   -12.5313     0.0000     0.0000 </r>
       <r>   -12.4583     0.0000     0.0000 </r>
       <r>   -12.3853     0.0000     0.0000 </r>
       <r>   -12.3123     0.0000     0.0000 </r>
       <r>   -12.2393     0.0000     0.0000 </r>
       <r>   -12.1663     0.0000     0.0000 </r>
       <r>   -12.0933     0.0000     0.0000 </r>
       <r>   -12.0203     0.0000     0.0000 </r>
       <r>   -11.9473     0.0621     0.0014 </r>
       <r>   -11.8743     0.1651     0.0097 </r>
       <r>   -11.8013     0.2681     0.0255 </r>
       <r>   -11.7283     0.3711     0.0488 </r>
       <r>   -11.6552     0.2206     0.0697 </r>
       <r>   -11.5822     0.2306     0.0861 </r>
       <r>   -11.5092     0.2406     0.1033 </r>
       <r>   -11.4362     0.2507     0.1213 </r>
       <r>   -11.3632     0.2607     0.1399 </r>
       <r>   -11.2902     0.2707     0.1593 </r>
       <r>   -11.2172     0.2807     0.1794 </r>
       <r>   -11.1442     0.2908     0.2003 </r>
       <r>   -11.0712     0.2866     0.2214 </r>
       <r>   -10.9982     0.2815     0.2421 </r>
       <r>   -10.9252     0.2765     0.2625 </r>
       <r>   -10.8522     0.2750     0.2826 </r>
       <r>   -10.7792     0.2810     0.3029 </r>
       <r>   -10.7062     0.3196     0.3240 </r>
       <r>   -10.6332     0.4219     0.3511 </r>
       <r>   -10.5602     0.5242     0.3856 </r>
       <r>   -10.4872     0.6265     0.4276 </r>
       <r>   -10.4142     0.5190     0.4740 </r>
       <r>   -10.3412     0.5342     0.5125 </r>
       <r>   -10.2682     0.5494     0.5520 </r>
       <r>   -10.1952     0.5646     0.5927 </r>
       <r>   -10.1222     0.5889     0.6346 </r>
       <r>   -10.0492     0.6102     0.6784 </r>
       <r>    -9.9762     0.6314     0.7237 </r>
       <r>    -9.9032     0.6527     0.7706 </r>
       <r>    -9.8302     0.6704     0.8190 </r>
       <r>    -9.7572     0.6765     0.8682 </r>
       <r>    -9.6842     0.6841     0.9178 </r>
       <r>    -9.6112     0.6920     0.9680 </r>
       <r>    -9.5382     0.7049     1.0189 </r>
       <r>    -9.4652     0.7239     1.0711 </r>
       <r>    -9.3922     0.7428     1.1246 </r>
       <r>    -9.3192     0.7618     1.1795 </r>
       <r>    -9.2462     0.7807     1.2358 </r>
       <r>    -9.1732     0.8589     1.2945 </r>
       <r>    -9.1002     1.0023     1.3627 </r>
       <r>    -9.0272     1.1160     1.4400 </r>
       <r>    -8.9542     1.3391     1.5292 </r>
       <r>    -8.8812     1.5902     1.6356 </r>
       <r>    -8.8082     1.9082     1.7633 </r>
       <r>    -8.7352     1.9984     1.9107 </r>
       <r>    -8.6622     2.5766     2.0653 </r>
       <r>    -8.5892     2.1273     2.2578 </r>
       <r>    -8.5162     2.2605     2.4294 </r>
       <r>    -8.4432     1.9138     2.5817 </r>
       <r>    -8.3702     1.8286     2.7138 </r>
       <r>    -8.2972     0.6882     2.8518 </r>
       <r>    -8.2242     0.7085     2.9028 </r>
       <r>    -8.1512     0.7256     2.9551 </r>
       <r>    -8.0782     0.7427     3.0087 </r>
       <r>    -8.0052     0.7641     3.0637 </r>
       <r>    -7.9322     0.7893     3.1204 </r>
       <r>    -7.8592     0.8145     3.1789 </r>
       <r>    -7.7862     0.8398     3.2393 </r>
       <r>    -7.7132     0.8650     3.3015 </r>
       <r>    -7.6402     0.9342     3.3671 </r>
       <r>    -7.5672     1.0019     3.4378 </r>
       <r>    -7.4942     1.1291     3.5139 </r>
       <r>    -7.4212     1.4237     3.6068 </r>
       <r>    -7.3482     1.7264     3.7218 </r>
       <r>    -7.2752     2.0503     3.8592 </r>
       <r>    -7.2022     2.0345     4.0021 </r>
       <r>    -7.1292     2.2342     4.1579 </r>
       <r>    -7.0562     2.4339     4.3283 </r>
       <r>    -6.9832     2.6336     4.5132 </r>
       <r>    -6.9102     4.6182     4.8379 </r>
       <r>    -6.8372     4.0536     5.1537 </r>
       <r>    -6.7642     3.1791     5.4047 </r>
       <r>    -6.6912     3.0831     5.6327 </r>
       <r>    -6.6182     3.0134     5.8552 </r>
       <r>    -6.5452     7.0510     6.1232 </r>
       <r>    -6.4722     8.6761     6.8086 </r>
       <r>    -6.3992     8.9344     7.4737 </r>
       <r>    -6.3262     5.9936     8.0676 </r>
       <r>    -6.2532    11.5518     8.6953 </r>
       <r>    -6.1802    10.4437     9.6288 </r>
       <r>    -6.1072     7.4573    10.3540 </r>
       <r>    -6.0342     8.0055    10.8761 </r>
       <r>    -5.9612     4.1271    11.4085 </r>
       <r>    -5.8882    13.0423    11.7674 </r>
       <r>    -5.8152     5.2348    13.2141 </r>
       <r>    -5.7422     8.2107    13.9985 </r>
       <r>    -5.6692     9.1970    14.6325 </r>
       <r>    -5.5962     8.5895    15.3249 </r>
       <r>    -5.5232    38.1221    16.3723 </r>
       <r>    -5.4502     9.3881    17.3134 </r>
       <r>    -5.3772    11.0886    18.0127 </r>
       <r>    -5.3042    13.7591    18.9906 </r>
       <r>    -5.2312    28.5358    20.7564 </r>
       <r>    -5.1582    12.7099    21.8772 </r>
       <r>    -5.0852     6.9227    22.8282 </r>
       <r>    -5.0122    26.3011    23.6256 </r>
       <r>    -4.9392    26.7631    25.0141 </r>
       <r>    -4.8662    12.4914    26.2535 </r>
       <r>    -4.7932    18.4960    27.4874 </r>
       <r>    -4.7202    11.6945    28.4189 </r>
       <r>    -4.6472    10.0297    29.1972 </r>
       <r>    -4.5742    15.1273    30.1894 </r>
       <r>    -4.5012    14.7962    31.1412 </r>
       <r>    -4.4282    15.1793    32.5730 </r>
       <r>    -4.3552    18.5088    33.7628 </r>
       <r>    -4.2822    11.0733    34.8019 </r>
       <r>    -4.2092    16.4708    35.8880 </r>
       <r>    -4.1362    13.0910    36.8864 </r>
       <r>    -4.0632    15.0298    37.9909 </r>
       <r>    -3.9902    26.7745    39.1019 </r>
       <r>    -3.9172    15.0358    40.3508 </r>
       <r>    -3.8442    12.9426    41.4003 </r>
       <r>    -3.7712     4.5807    42.0394 </r>
       <r>    -3.6981     4.1931    42.3590 </r>
       <r>    -3.6251     3.3749    42.6315 </r>
       <r>    -3.5521     2.9479    42.8730 </r>
       <r>    -3.4791     2.3071    43.0535 </r>
       <r>    -3.4061     2.2490    43.2198 </r>
       <r>    -3.3331     1.7286    43.3552 </r>
       <r>    -3.2601     1.6834    43.4797 </r>
       <r>    -3.1871     1.6382    43.6010 </r>
       <r>    -3.1141     1.5548    43.7148 </r>
       <r>    -3.0411     1.5588    43.8285 </r>
       <r>    -2.9681     1.5550    43.9422 </r>
       <r>    -2.8951     1.5501    44.0555 </r>
       <r>    -2.8221     1.5520    44.1686 </r>
       <r>    -2.7491     1.4243    44.2776 </r>
       <r>    -2.6761     1.4204    44.3814 </r>
       <r>    -2.6031     1.4165    44.4849 </r>
       <r>    -2.5301     1.4126    44.5882 </r>
       <r>    -2.4571     1.4241    44.6916 </r>
       <r>    -2.3841     1.4416    44.7962 </r>
       <r>    -2.3111     1.4733    44.9024 </r>
       <r>    -2.2381     1.5900    45.0630 </r>
       <r>    -2.1651     1.3332    45.1614 </r>
       <r>    -2.0921     1.3034    45.2566 </r>
       <r>    -2.0191     1.2943    45.3522 </r>
       <r>    -1.9461     1.3025    45.4470 </r>
       <r>    -1.8731     1.0591    45.5609 </r>
       <r>    -1.8001     1.0623    45.6383 </r>
       <r>    -1.7271     1.0655    45.7160 </r>
       <r>    -1.6541     1.0687    45.7939 </r>
       <r>    -1.5811     1.0731    45.8720 </r>
       <r>    -1.5081     1.0819    45.9507 </r>
       <r>    -1.4351     1.0907    46.0300 </r>
       <r>    -1.3621     1.0995    46.1099 </r>
       <r>    -1.2891     1.0034    46.2463 </r>
       <r>    -1.2161     1.0200    46.3201 </r>
       <r>    -1.1431     1.0096    46.3946 </r>
       <r>    -1.0701     0.9965    46.4679 </r>
       <r>    -0.9971     0.9834    46.5401 </r>
       <r>    -0.9241     0.9704    46.6114 </r>
       <r>    -0.8511     0.9573    46.6818 </r>
       <r>    -0.7781     0.9528    46.7513 </r>
       <r>    -0.7051     0.9730    46.8217 </r>
       <r>    -0.6321     0.9980    46.8933 </r>
       <r>    -0.5591     1.1185    46.9706 </r>
       <r>    -0.4861     1.2398    47.0566 </r>
       <r>    -0.4131     1.3611    47.1516 </r>
       <r>    -0.3401     1.4824    47.2554 </r>
       <r>    -0.2671     1.1974    47.3681 </r>
       <r>    -0.1941     1.1653    47.4557 </r>
       <r>    -0.1211     1.0734    47.5375 </r>
       <r>    -0.0481     0.9839    47.6125 </r>
       <r>     0.0249     0.9036    47.6814 </r>
       <r>     0.0979     0.8232    47.7444 </r>
       <r>     0.1709     0.8576    47.8030 </r>
       <r>     0.2439     0.8539    47.8655 </r>
       <r>     0.3169     0.8456    47.9275 </r>
       <r>     0.3899     0.8421    47.9891 </r>
       <r>     0.4629     0.8385    48.0505 </r>
       <r>     0.5359     0.8754    48.1123 </r>
       <r>     0.6089     0.9560    48.1791 </r>
       <r>     0.6819     1.0366    48.2518 </r>
       <r>     0.7549     1.0701    48.3288 </r>
       <r>     0.8279     1.1008    48.4081 </r>
       <r>     0.9009     1.0778    48.5053 </r>
       <r>     0.9739     0.9825    48.6365 </r>
       <r>     1.0469     0.9919    48.7086 </r>
       <r>     1.1199     1.0013    48.7813 </r>
       <r>     1.1929     1.0106    48.8548 </r>
       <r>     1.2659     1.0200    48.9289 </r>
       <r>     1.3389     1.0294    49.0037 </r>
       <r>     1.4119     1.0387    49.0792 </r>
       <r>     1.4849     1.0481    49.1554 </r>
       <r>     1.5579     1.0574    49.2322 </r>
       <r>     1.6309     1.0668    49.3097 </r>
       <r>     1.7039     1.0612    49.3874 </r>
       <r>     1.7769     0.9857    49.4833 </r>
       <r>     1.8499     1.0460    49.5571 </r>
       <r>     1.9229     1.2571    49.6412 </r>
       <r>     1.9959     1.0934    49.7203 </r>
       <r>     2.0689     1.0417    49.7982 </r>
       <r>     2.1419     1.0546    49.8739 </r>
       <r>     2.2149     1.1885    49.9543 </r>
       <r>     2.2879     1.3942    50.0486 </r>
       <r>     2.3609     1.5998    50.1579 </r>
       <r>     2.4339     1.4204    50.3760 </r>
       <r>     2.5069     1.6550    50.4846 </r>
       <r>     2.5799     1.5335    50.6010 </r>
       <r>     2.6529     1.4612    50.7094 </r>
       <r>     2.7259     1.4539    50.8157 </r>
       <r>     2.7989     1.4843    50.9224 </r>
       <r>     2.8719     1.5502    51.0329 </r>
       <r>     2.9449     1.4112    51.1434 </r>
       <r>     3.0179     1.4101    51.2465 </r>
       <r>     3.0909     1.3986    51.3490 </r>
       <r>     3.1639     1.3871    51.4507 </r>
       <r>     3.2369     1.3755    51.5515 </r>
       <r>     3.3099     1.5154    51.6818 </r>
       <r>     3.3829     1.8354    51.7990 </r>
       <r>     3.4559     2.4407    51.9541 </r>
       <r>     3.5289     3.1154    52.1570 </r>
       <r>     3.6019     2.4544    52.3483 </r>
       <r>     3.6749     2.4143    52.5220 </r>
       <r>     3.7479     2.5692    52.7039 </r>
       <r>     3.8209     2.0827    52.8838 </r>
       <r>     3.8939     1.8001    53.0181 </r>
       <r>     3.9669     1.8043    53.1497 </r>
       <r>     4.0399     1.8085    53.2816 </r>
       <r>     4.1129     2.0446    53.4379 </r>
       <r>     4.1859     2.0077    53.5859 </r>
       <r>     4.2590     1.9522    53.7305 </r>
       <r>     4.3320     1.9870    53.8740 </r>
       <r>     4.4050     2.1142    54.0212 </r>
       <r>     4.4780     2.2869    54.1819 </r>
       <r>     4.5510     2.4596    54.3551 </r>
       <r>     4.6240     2.3473    54.5403 </r>
       <r>     4.6970     2.2957    54.6953 </r>
       <r>     4.7700     2.7235    54.8786 </r>
       <r>     4.8430     2.0107    55.0566 </r>
       <r>     4.9160     1.8899    55.1989 </r>
       <r>     4.9890     1.7691    55.3325 </r>
       <r>     5.0620     1.6657    55.4572 </r>
       <r>     5.1350     1.6292    55.5765 </r>
       <r>     5.2080     1.4185    55.6920 </r>
       <r>     5.2810     0.9543    55.7786 </r>
       <r>     5.3540     0.6035    55.8325 </r>
       <r>     5.4270     0.5241    55.8737 </r>
       <r>     5.5000     0.4447    55.9090 </r>
       <r>     5.5730     0.3653    55.9386 </r>
       <r>     5.6460     0.2860    55.9624 </r>
       <r>     5.7190     0.2066    55.9804 </r>
       <r>     5.7920     0.1272    55.9926 </r>
       <r>     5.8650     0.0479    55.9989 </r>
       <r>     5.9380     0.0000    56.0000 </r>
       <r>     6.0110     0.0000    56.0000 </r>
       <r>     6.0840     0.0000    56.0000 </r>
       <r>     6.1570     0.0000    56.0000 </r>
       <r>     6.2300     0.0000    56.0000 </r>
       <r>     6.3030     0.0000    56.0000 </r>
       <r>     6.3760     0.0000    56.0000 </r>
       <r>     6.4490     0.0000    56.0000 </r>
       <r>     6.5220     0.0000    56.0000 </r>
       <r>     6.5950     0.0000    56.0000 </r>
       <r>     6.6680     0.0000    56.0000 </r>
       <r>     6.7410     0.0000    56.0000 </r>
       <r>     6.8140     0.0000    56.0000 </r>
       <r>     6.8870     0.0000    56.0000 </r>
       <r>     6.9600     0.0000    56.0000 </r>
       <r>     7.0330     0.0000    56.0000 </r>
       <r>     7.1060     0.0000    56.0000 </r>
       <r>     7.1790     0.0000    56.0000 </r>
       <r>     7.2520     0.0000    56.0000 </r>
       <r>     7.3250     0.0000    56.0000 </r>
       <r>     7.3980     0.0000    56.0000 </r>
       <r>     7.4710     0.0000    56.0000 </r>
       <r>     7.5440     0.0000    56.0000 </r>
       <r>     7.6170     0.0000    56.0000 </r>
       <r>     7.6900     0.0000    56.0000 </r>
       <r>     7.7630     0.0000    56.0000 </r>
       <r>     7.8360     0.0000    56.0000 </r>
       <r>     7.9090     0.0000    56.0000 </r>
      </set>
     </set>
    </array>
   </total>
  </dos>
 </calculation>
 <structure name="finalpos" >
  <crystal>
   <varray name="basis" >
    <v>       2.57386868       0.00000000       0.00000000 </v>
    <v>       1.28693434       2.22903567       0.00000000 </v>
    <v>       0.00000000       0.00000000      30.30466494 </v>
   </varray>
   <i name="volume">    173.86529028 </i>
   <varray name="rec_basis" >
    <v>       0.38852021      -0.22431225       0.00000000 </v>
    <v>       0.00000000       0.44862450       0.00000000 </v>
    <v>       0.00000000       0.00000000       0.03299822 </v>
   </varray>
  </crystal>
  <varray name="positions" >
   <v>       0.00000000       0.00000000       0.39644015 </v>
   <v>       0.33333333       0.33333333       0.46515176 </v>
   <v>       0.66666667       0.66666667       0.53391621 </v>
   <v>       0.00000000       0.00000000       0.60674401 </v>
   <v>       0.33333333       0.33333333       0.63146763 </v>
  </varray>
  <varray name="selective"  type="logical" >
   <v type="logical" >  F  F  F </v>
   <v type="logical" >  F  F  F </v>
   <v type="logical" >  F  F  F </v>
   <v type="logical" >  F  F  F </v>
   <v type="logical" >  T  T  T </v>
  </varray>
  <nose>
   <v>      -3.00000000       0.00000000       0.00010000       0.00010000 </v>
  </nose>
 </structure>
</modeling>
