  20  20   0   0
  0.2336395E+02  0.5522883E-09  0.3905268E-09  0.2166505E-08  0.5000000E-15
  1.000000000000000E-004
  CAR 
 unknown system                          
      6.63632561    -38.67568049  301     -0.77695458      1.00000000
    -38.676  0.0000E+00  0.0000E+00
    -38.525  0.0000E+00  0.0000E+00
    -38.374  0.0000E+00  0.0000E+00
    -38.223  0.0000E+00  0.0000E+00
    -38.072  0.0000E+00  0.0000E+00
    -37.920  0.0000E+00  0.0000E+00
    -37.769  0.0000E+00  0.0000E+00
    -37.618  0.0000E+00  0.0000E+00
    -37.467  0.0000E+00  0.0000E+00
    -37.316  0.0000E+00  0.0000E+00
    -37.165  0.0000E+00  0.0000E+00
    -37.014  0.0000E+00  0.0000E+00
    -36.863  0.0000E+00  0.0000E+00
    -36.712  0.0000E+00  0.0000E+00
    -36.561  0.0000E+00  0.2000E+01
    -36.410  0.0000E+00  0.2000E+01
    -36.259  0.0000E+00  0.2000E+01
    -36.108  0.0000E+00  0.2000E+01
    -35.957  0.0000E+00  0.2000E+01
    -35.806  0.0000E+00  0.2000E+01
    -35.655  0.0000E+00  0.2000E+01
    -35.504  0.0000E+00  0.2000E+01
    -35.353  0.0000E+00  0.2000E+01
    -35.202  0.0000E+00  0.4000E+01
    -35.051  0.0000E+00  0.4000E+01
    -34.900  0.0000E+00  0.4000E+01
    -34.749  0.0000E+00  0.4000E+01
    -34.598  0.0000E+00  0.4000E+01
    -34.447  0.0000E+00  0.4000E+01
    -34.296  0.0000E+00  0.6000E+01
    -34.144  0.0000E+00  0.6000E+01
    -33.993  0.0000E+00  0.6000E+01
    -33.842  0.0000E+00  0.6000E+01
    -33.691  0.0000E+00  0.6000E+01
    -33.540  0.0000E+00  0.6000E+01
    -33.389  0.0000E+00  0.8000E+01
    -33.238  0.0000E+00  0.8000E+01
    -33.087  0.0000E+00  0.8000E+01
    -32.936  0.0000E+00  0.8000E+01
    -32.785  0.0000E+00  0.8000E+01
    -32.634  0.0000E+00  0.8000E+01
    -32.483  0.0000E+00  0.8000E+01
    -32.332  0.0000E+00  0.8000E+01
    -32.181  0.0000E+00  0.8000E+01
    -32.030  0.0000E+00  0.8000E+01
    -31.879  0.0000E+00  0.8000E+01
    -31.728  0.0000E+00  0.8000E+01
    -31.577  0.0000E+00  0.8000E+01
    -31.426  0.0000E+00  0.8000E+01
    -31.275  0.0000E+00  0.8000E+01
    -31.124  0.0000E+00  0.8000E+01
    -30.973  0.0000E+00  0.8000E+01
    -30.822  0.0000E+00  0.8000E+01
    -30.671  0.0000E+00  0.8000E+01
    -30.520  0.0000E+00  0.8000E+01
    -30.368  0.0000E+00  0.8000E+01
    -30.217  0.0000E+00  0.8000E+01
    -30.066  0.0000E+00  0.8000E+01
    -29.915  0.0000E+00  0.8000E+01
    -29.764  0.0000E+00  0.8000E+01
    -29.613  0.0000E+00  0.8000E+01
    -29.462  0.0000E+00  0.8000E+01
    -29.311  0.0000E+00  0.8000E+01
    -29.160  0.0000E+00  0.8000E+01
    -29.009  0.0000E+00  0.8000E+01
    -28.858  0.0000E+00  0.8000E+01
    -28.707  0.0000E+00  0.8000E+01
    -28.556  0.0000E+00  0.8000E+01
    -28.405  0.0000E+00  0.8000E+01
    -28.254  0.0000E+00  0.8000E+01
    -28.103  0.0000E+00  0.8000E+01
    -27.952  0.0000E+00  0.8000E+01
    -27.801  0.0000E+00  0.8000E+01
    -27.650  0.0000E+00  0.8000E+01
    -27.499  0.0000E+00  0.8000E+01
    -27.348  0.0000E+00  0.8000E+01
    -27.197  0.0000E+00  0.8000E+01
    -27.046  0.0000E+00  0.8000E+01
    -26.895  0.0000E+00  0.8000E+01
    -26.744  0.0000E+00  0.8000E+01
    -26.592  0.0000E+00  0.8000E+01
    -26.441  0.0000E+00  0.8000E+01
    -26.290  0.0000E+00  0.8000E+01
    -26.139  0.0000E+00  0.8000E+01
    -25.988  0.0000E+00  0.8000E+01
    -25.837  0.0000E+00  0.8000E+01
    -25.686  0.0000E+00  0.8000E+01
    -25.535  0.0000E+00  0.8000E+01
    -25.384  0.0000E+00  0.8000E+01
    -25.233  0.0000E+00  0.8000E+01
    -25.082  0.0000E+00  0.8000E+01
    -24.931  0.0000E+00  0.8000E+01
    -24.780  0.0000E+00  0.8000E+01
    -24.629  0.0000E+00  0.8000E+01
    -24.478  0.0000E+00  0.8000E+01
    -24.327  0.0000E+00  0.8000E+01
    -24.176  0.0000E+00  0.8000E+01
    -24.025  0.0000E+00  0.8000E+01
    -23.874  0.0000E+00  0.8000E+01
    -23.723  0.0000E+00  0.8000E+01
    -23.572  0.0000E+00  0.8000E+01
    -23.421  0.0000E+00  0.8000E+01
    -23.270  0.0000E+00  0.8000E+01
    -23.119  0.0000E+00  0.8000E+01
    -22.968  0.0000E+00  0.8000E+01
    -22.816  0.0000E+00  0.8000E+01
    -22.665  0.0000E+00  0.8000E+01
    -22.514  0.0000E+00  0.8000E+01
    -22.363  0.0000E+00  0.8000E+01
    -22.212  0.0000E+00  0.8000E+01
    -22.061  0.0000E+00  0.8000E+01
    -21.910  0.0000E+00  0.8000E+01
    -21.759  0.0000E+00  0.8000E+01
    -21.608  0.0000E+00  0.8000E+01
    -21.457  0.0000E+00  0.8000E+01
    -21.306  0.0000E+00  0.8000E+01
    -21.155  0.0000E+00  0.8000E+01
    -21.004  0.0000E+00  0.8000E+01
    -20.853  0.0000E+00  0.8000E+01
    -20.702  0.0000E+00  0.8000E+01
    -20.551  0.3666E+01  0.8365E+01
    -20.400  0.1281E+02  0.9196E+01
    -20.249  0.5551E+01  0.1012E+02
    -20.098  0.4704E+01  0.1096E+02
    -19.947  0.2715E+01  0.1158E+02
    -19.796  0.5957E+01  0.1213E+02
    -19.645  0.3982E+01  0.1379E+02
    -19.494  0.0000E+00  0.1400E+02
    -19.343  0.8934E+01  0.1423E+02
    -19.192  0.1400E+02  0.1609E+02
    -19.040  0.2975E+01  0.1777E+02
    -18.889  0.0000E+00  0.1800E+02
    -18.738  0.1491E+02  0.1863E+02
    -18.587  0.1507E+02  0.2114E+02
    -18.436  0.2461E+02  0.2385E+02
    -18.285  0.8386E+01  0.2699E+02
    -18.134  0.2218E+02  0.2904E+02
    -17.983  0.0000E+00  0.3000E+02
    -17.832  0.3168E+01  0.3012E+02
    -17.681  0.3775E+01  0.3167E+02
    -17.530  0.0000E+00  0.3200E+02
    -17.379  0.2424E+01  0.3214E+02
    -17.228  0.3349E+02  0.3523E+02
    -17.077  0.4690E+02  0.3896E+02
    -16.926  0.0000E+00  0.4000E+02
    -16.775  0.0000E+00  0.4000E+02
    -16.624  0.0000E+00  0.4000E+02
    -16.473  0.1052E+02  0.4157E+02
    -16.322  0.1687E+02  0.4307E+02
    -16.171  0.2700E+02  0.4630E+02
    -16.020  0.8467E+01  0.4862E+02
    -15.869  0.0000E+00  0.5000E+02
    -15.718  0.0000E+00  0.5000E+02
    -15.567  0.0000E+00  0.5000E+02
    -15.416  0.1979E+02  0.5085E+02
    -15.264  0.4402E+01  0.5263E+02
    -15.113  0.1955E+02  0.5467E+02
    -14.962  0.0000E+00  0.5600E+02
    -14.811  0.0000E+00  0.5600E+02
    -14.660  0.0000E+00  0.5600E+02
    -14.509  0.0000E+00  0.5600E+02
    -14.358  0.0000E+00  0.5600E+02
    -14.207  0.0000E+00  0.5600E+02
    -14.056  0.0000E+00  0.5600E+02
    -13.905  0.0000E+00  0.5600E+02
    -13.754  0.0000E+00  0.5600E+02
    -13.603  0.0000E+00  0.5600E+02
    -13.452  0.0000E+00  0.5600E+02
    -13.301  0.0000E+00  0.5600E+02
    -13.150  0.0000E+00  0.5600E+02
    -12.999  0.0000E+00  0.5600E+02
    -12.848  0.0000E+00  0.5600E+02
    -12.697  0.0000E+00  0.5600E+02
    -12.546  0.0000E+00  0.5600E+02
    -12.395  0.0000E+00  0.5600E+02
    -12.244  0.0000E+00  0.5600E+02
    -12.093  0.0000E+00  0.5600E+02
    -11.942  0.0000E+00  0.5600E+02
    -11.791  0.0000E+00  0.5600E+02
    -11.640  0.0000E+00  0.5600E+02
    -11.488  0.0000E+00  0.5600E+02
    -11.337  0.0000E+00  0.5600E+02
    -11.186  0.0000E+00  0.5600E+02
    -11.035  0.0000E+00  0.5600E+02
    -10.884  0.0000E+00  0.5600E+02
    -10.733  0.0000E+00  0.5600E+02
    -10.582  0.0000E+00  0.5600E+02
    -10.431  0.0000E+00  0.5600E+02
    -10.280  0.0000E+00  0.5600E+02
    -10.129  0.0000E+00  0.5600E+02
     -9.978  0.0000E+00  0.5600E+02
     -9.827  0.0000E+00  0.5600E+02
     -9.676  0.0000E+00  0.5600E+02
     -9.525  0.0000E+00  0.5600E+02
     -9.374  0.0000E+00  0.5600E+02
     -9.223  0.0000E+00  0.5600E+02
     -9.072  0.0000E+00  0.5600E+02
     -8.921  0.0000E+00  0.5600E+02
     -8.770  0.0000E+00  0.5600E+02
     -8.619  0.0000E+00  0.5600E+02
     -8.468  0.0000E+00  0.5600E+02
     -8.317  0.0000E+00  0.5600E+02
     -8.166  0.0000E+00  0.5600E+02
     -8.015  0.0000E+00  0.5600E+02
     -7.864  0.0000E+00  0.5600E+02
     -7.712  0.0000E+00  0.5600E+02
     -7.561  0.2211E+01  0.5628E+02
     -7.410  0.9177E+00  0.5649E+02
     -7.259  0.9172E+00  0.5663E+02
     -7.108  0.3181E+01  0.5686E+02
     -6.957  0.1080E+02  0.5825E+02
     -6.806  0.8338E+01  0.5965E+02
     -6.655  0.3245E+02  0.6221E+02
     -6.504  0.6487E+01  0.6418E+02
     -6.353  0.7176E+01  0.6500E+02
     -6.202  0.5943E+01  0.6590E+02
     -6.051  0.7733E+01  0.6699E+02
     -5.900  0.1453E+02  0.6878E+02
     -5.749  0.1202E+02  0.7082E+02
     -5.598  0.2141E+02  0.7275E+02
     -5.447  0.1069E+02  0.7471E+02
     -5.296  0.1403E+02  0.7682E+02
     -5.145  0.1726E+02  0.7903E+02
     -4.994  0.1812E+02  0.8122E+02
     -4.843  0.1685E+02  0.8338E+02
     -4.692  0.1755E+02  0.8563E+02
     -4.541  0.7428E+01  0.8768E+02
     -4.390  0.7910E+01  0.8884E+02
     -4.239  0.1649E+02  0.9106E+02
     -4.088  0.1513E+02  0.9383E+02
     -3.936  0.8255E+01  0.9563E+02
     -3.785  0.1672E+02  0.9750E+02
     -3.634  0.8656E+01  0.9964E+02
     -3.483  0.1754E+02  0.1013E+03
     -3.332  0.6344E+01  0.1032E+03
     -3.181  0.4356E+01  0.1040E+03
     -3.030  0.1510E+02  0.1051E+03
     -2.879  0.4444E+02  0.1078E+03
     -2.728  0.6146E+01  0.1102E+03
     -2.577  0.6587E+01  0.1114E+03
     -2.426  0.2969E+01  0.1121E+03
     -2.275  0.1115E+02  0.1133E+03
     -2.124  0.1429E+02  0.1145E+03
     -1.973  0.8094E+01  0.1166E+03
     -1.822  0.2024E+01  0.1178E+03
     -1.671  0.7989E+01  0.1181E+03
     -1.520  0.6113E+01  0.1194E+03
     -1.369  0.3365E+01  0.1201E+03
     -1.218  0.1790E+02  0.1214E+03
     -1.067  0.1105E+02  0.1233E+03
     -0.916  0.1670E+02  0.1254E+03
     -0.765  0.2708E+02  0.1283E+03
     -0.614  0.7196E+01  0.1307E+03
     -0.463  0.9429E+01  0.1321E+03
     -0.312  0.7086E+01  0.1334E+03
     -0.160  0.4671E+01  0.1342E+03
     -0.009  0.2746E+01  0.1347E+03
      0.142  0.3956E+01  0.1356E+03
      0.293  0.3781E+01  0.1361E+03
      0.444  0.8602E+01  0.1374E+03
      0.595  0.5727E+01  0.1383E+03
      0.746  0.1029E+02  0.1397E+03
      0.897  0.6893E+01  0.1407E+03
      1.048  0.6688E+01  0.1418E+03
      1.199  0.3836E+01  0.1425E+03
      1.350  0.1019E+02  0.1434E+03
      1.501  0.4792E+01  0.1443E+03
      1.652  0.3907E+01  0.1450E+03
      1.803  0.4698E+01  0.1456E+03
      1.954  0.3550E+01  0.1465E+03
      2.105  0.2895E+01  0.1470E+03
      2.256  0.4039E+01  0.1475E+03
      2.407  0.1302E+01  0.1478E+03
      2.558  0.1262E+01  0.1480E+03
      2.709  0.5260E+01  0.1485E+03
      2.860  0.4198E+01  0.1492E+03
      3.011  0.3079E+01  0.1497E+03
      3.162  0.4354E+01  0.1502E+03
      3.313  0.3078E+01  0.1509E+03
      3.464  0.4480E+01  0.1514E+03
      3.616  0.2751E+00  0.1517E+03
      3.767  0.2623E+00  0.1517E+03
      3.918  0.2495E+00  0.1518E+03
      4.069  0.2366E+00  0.1518E+03
      4.220  0.1541E+01  0.1519E+03
      4.371  0.1552E+00  0.1520E+03
      4.522  0.4138E-01  0.1520E+03
      4.673  0.0000E+00  0.1520E+03
      4.824  0.0000E+00  0.1520E+03
      4.975  0.0000E+00  0.1520E+03
      5.126  0.0000E+00  0.1520E+03
      5.277  0.0000E+00  0.1520E+03
      5.428  0.0000E+00  0.1520E+03
      5.579  0.0000E+00  0.1520E+03
      5.730  0.0000E+00  0.1520E+03
      5.881  0.0000E+00  0.1520E+03
      6.032  0.0000E+00  0.1520E+03
      6.183  0.0000E+00  0.1520E+03
      6.334  0.0000E+00  0.1520E+03
      6.485  0.0000E+00  0.1520E+03
      6.636  0.0000E+00  0.1520E+03
