   20   20    1    1
  0.2336395E+02  0.5522883E-09  0.3905268E-09  0.2166505E-08  0.5000000E-15
  1.000000000000000E-004
  CAR 
 unknown system                          
    128     24     76
 
  0.0000000E+00  0.0000000E+00  0.0000000E+00  0.1428571E-01
    1      -36.616044   1.000000
    2      -35.283676   1.000000
    3      -34.320560   1.000000
    4      -33.410947   1.000000
    5      -20.519735   1.000000
    6      -20.047176   1.000000
    7      -19.870897   1.000000
    8      -19.373241   1.000000
    9      -19.060038   1.000000
   10      -18.695507   1.000000
   11      -18.616526   1.000000
   12      -18.552418   1.000000
   13      -18.540034   1.000000
   14      -18.361064   1.000000
   15      -18.103330   1.000000
   16      -17.825345   1.000000
   17      -17.339068   1.000000
   18      -17.327204   1.000000
   19      -17.149314   1.000000
   20      -17.070419   1.000000
   21      -16.478092   1.000000
   22      -16.357473   1.000000
   23      -16.264563   1.000000
   24      -16.157988   1.000000
   25      -16.107829   1.000000
   26      -15.422656   1.000000
   27      -15.155885   1.000000
   28      -15.103279   1.000000
   29       -7.129238   1.000000
   30       -6.816525   1.000000
   31       -6.654107   1.000000
   32       -6.022285   1.000000
   33       -5.901735   1.000000
   34       -5.550057   1.000000
   35       -5.462452   1.000000
   36       -5.303007   1.000000
   37       -5.147713   1.000000
   38       -5.068030   1.000000
   39       -5.012056   1.000000
   40       -4.856986   1.000000
   41       -4.771563   1.000000
   42       -4.581775   1.000000
   43       -4.259527   1.000000
   44       -4.129703   1.000000
   45       -4.091124   1.000000
   46       -4.015002   1.000000
   47       -3.804587   1.000000
   48       -3.783484   1.000000
   49       -3.557516   1.000000
   50       -3.254175   1.000000
   51       -3.022605   1.000000
   52       -2.935767   1.000000
   53       -2.869185   1.000000
   54       -2.724867   1.000000
   55       -2.673248   1.000000
   56       -2.412019   1.000000
   57       -2.308920   1.000000
   58       -1.962355   1.000000
   59       -1.930907   1.000000
   60       -1.358450   1.000000
   61       -1.332138   1.000000
   62       -1.089974   1.000000
   63       -1.071463   1.000000
   64       -1.048500   1.000000
   65       -0.878812   1.030741
   66       -0.785658   0.323715
   67       -0.767861   0.000000
   68       -0.418915   0.000000
   69        0.051830   0.000000
   70        0.275916   0.000000
   71        0.372623   0.000000
   72        0.635286   0.000000
   73        1.303830   0.000000
   74        1.612388   0.000000
   75        2.658815   0.000000
   76        4.133230   0.000000
 
  0.1428571E+00  0.0000000E+00  0.0000000E+00  0.2857143E-01
    1      -36.615880   1.000000
    2      -35.283495   1.000000
    3      -34.320382   1.000000
    4      -33.410801   1.000000
    5      -20.550889   1.000000
    6      -20.156793   1.000000
    7      -19.775938   1.000000
    8      -19.369989   1.000000
    9      -19.104635   1.000000
   10      -18.722794   1.000000
   11      -18.616705   1.000000
   12      -18.520997   1.000000
   13      -18.459623   1.000000
   14      -18.366824   1.000000
   15      -18.146096   1.000000
   16      -17.804444   1.000000
   17      -17.329297   1.000000
   18      -17.327546   1.000000
   19      -17.126736   1.000000
   20      -17.074603   1.000000
   21      -16.464313   1.000000
   22      -16.357840   1.000000
   23      -16.262432   1.000000
   24      -16.162750   1.000000
   25      -16.056446   1.000000
   26      -15.423148   1.000000
   27      -15.159970   1.000000
   28      -15.095257   1.000000
   29       -7.034886   1.000000
   30       -6.799629   1.000000
   31       -6.671338   1.000000
   32       -6.007632   1.000000
   33       -5.818533   1.000000
   34       -5.596362   1.000000
   35       -5.515945   1.000000
   36       -5.308144   1.000000
   37       -5.162385   1.000000
   38       -5.134779   1.000000
   39       -4.970813   1.000000
   40       -4.794266   1.000000
   41       -4.731872   1.000000
   42       -4.625930   1.000000
   43       -4.333506   1.000000
   44       -4.208826   1.000000
   45       -4.087775   1.000000
   46       -4.077176   1.000000
   47       -3.901939   1.000000
   48       -3.760676   1.000000
   49       -3.528840   1.000000
   50       -3.326669   1.000000
   51       -3.065359   1.000000
   52       -3.024647   1.000000
   53       -2.864597   1.000000
   54       -2.781153   1.000000
   55       -2.670627   1.000000
   56       -2.488872   1.000000
   57       -2.313360   1.000000
   58       -2.096114   1.000000
   59       -1.913527   1.000000
   60       -1.368725   1.000000
   61       -1.356552   1.000000
   62       -1.104341   1.000000
   63       -1.088294   1.000000
   64       -0.985240   1.000000
   65       -0.883535   1.015782
   66       -0.761131   0.041708
   67       -0.703578   0.000000
   68       -0.529281   0.000000
   69        0.066154   0.000000
   70        0.299587   0.000000
   71        0.356934   0.000000
   72        0.731392   0.000000
   73        1.288975   0.000000
   74        2.642227   0.000000
   75        2.674659   0.000000
   76        4.192963   0.000000
 
  0.2857143E+00  0.0000000E+00  0.0000000E+00  0.2857143E-01
    1      -36.615513   1.000000
    2      -35.283089   1.000000
    3      -34.319983   1.000000
    4      -33.410473   1.000000
    5      -20.625393   1.000000
    6      -20.273174   1.000000
    7      -19.704030   1.000000
    8      -19.344538   1.000000
    9      -19.190826   1.000000
   10      -18.742133   1.000000
   11      -18.617119   1.000000
   12      -18.444156   1.000000
   13      -18.376214   1.000000
   14      -18.352083   1.000000
   15      -18.214388   1.000000
   16      -17.779725   1.000000
   17      -17.328328   1.000000
   18      -17.312043   1.000000
   19      -17.087428   1.000000
   20      -17.067804   1.000000
   21      -16.422059   1.000000
   22      -16.358678   1.000000
   23      -16.279791   1.000000
   24      -16.111707   1.000000
   25      -15.997976   1.000000
   26      -15.424266   1.000000
   27      -15.163706   1.000000
   28      -15.075510   1.000000
   29       -6.873701   1.000000
   30       -6.714654   1.000000
   31       -6.638865   1.000000
   32       -5.968866   1.000000
   33       -5.746805   1.000000
   34       -5.618576   1.000000
   35       -5.603610   1.000000
   36       -5.445571   1.000000
   37       -5.212970   1.000000
   38       -5.062852   1.000000
   39       -4.883248   1.000000
   40       -4.864054   1.000000
   41       -4.654234   1.000000
   42       -4.622745   1.000000
   43       -4.570176   1.000000
   44       -4.452449   1.000000
   45       -4.104427   1.000000
   46       -4.057554   1.000000
   47       -3.988459   1.000000
   48       -3.679559   1.000000
   49       -3.555427   1.000000
   50       -3.482008   1.000000
   51       -3.395486   1.000000
   52       -3.062310   1.000000
   53       -3.026442   1.000000
   54       -2.843475   1.000000
   55       -2.574983   1.000000
   56       -2.565689   1.000000
   57       -2.386748   1.000000
   58       -2.325382   1.000000
   59       -1.834401   1.000000
   60       -1.457863   1.000000
   61       -1.411235   1.000000
   62       -1.075908   1.000000
   63       -1.063824   1.000000
   64       -0.930422   1.000000
   65       -0.864691   1.000000
   66       -0.811507   0.777818
   67       -0.739972   0.000000
   68       -0.530090   0.000000
   69        0.066028   0.000000
   70        0.313695   0.000000
   71        0.361609   0.000000
   72        0.885943   0.000000
   73        1.287381   0.000000
   74        1.313770   0.000000
   75        2.619163   0.000000
   76        2.681496   0.000000
 
  0.4285714E+00  0.0000000E+00  0.0000000E+00  0.2857143E-01
    1      -36.615217   1.000000
    2      -35.282762   1.000000
    3      -34.319662   1.000000
    4      -33.410209   1.000000
    5      -20.685948   1.000000
    6      -20.331145   1.000000
    7      -19.686251   1.000000
    8      -19.316864   1.000000
    9      -19.252386   1.000000
   10      -18.745601   1.000000
   11      -18.617449   1.000000
   12      -18.396408   1.000000
   13      -18.367347   1.000000
   14      -18.301603   1.000000
   15      -18.247491   1.000000
   16      -17.768340   1.000000
   17      -17.328952   1.000000
   18      -17.302927   1.000000
   19      -17.078011   1.000000
   20      -17.037528   1.000000
   21      -16.371175   1.000000
   22      -16.359347   1.000000
   23      -16.299261   1.000000
   24      -16.064373   1.000000
   25      -15.974183   1.000000
   26      -15.425159   1.000000
   27      -15.162918   1.000000
   28      -15.055746   1.000000
   29       -6.843972   1.000000
   30       -6.731031   1.000000
   31       -6.233113   1.000000
   32       -5.925672   1.000000
   33       -5.871619   1.000000
   34       -5.700126   1.000000
   35       -5.636657   1.000000
   36       -5.518345   1.000000
   37       -5.355421   1.000000
   38       -5.144015   1.000000
   39       -4.773438   1.000000
   40       -4.761598   1.000000
   41       -4.683434   1.000000
   42       -4.662970   1.000000
   43       -4.553772   1.000000
   44       -4.512072   1.000000
   45       -4.186076   1.000000
   46       -4.126863   1.000000
   47       -3.985601   1.000000
   48       -3.872343   1.000000
   49       -3.715814   1.000000
   50       -3.450487   1.000000
   51       -3.359043   1.000000
   52       -3.144390   1.000000
   53       -3.091836   1.000000
   54       -3.040670   1.000000
   55       -2.815792   1.000000
   56       -2.507361   1.000000
   57       -2.370899   1.000000
   58       -2.341147   1.000000
   59       -1.683909   1.000000
   60       -1.527354   1.000000
   61       -1.451717   1.000000
   62       -1.172067   1.000000
   63       -1.071487   1.000000
   64       -1.005758   1.000000
   65       -0.852016   1.000000
   66       -0.811021   0.746495
   67       -0.752660   0.000000
   68       -0.395845   0.000000
   69        0.030185   0.000000
   70        0.299707   0.000000
   71        0.384658   0.000000
   72        0.956537   0.000000
   73        1.289134   0.000000
   74        1.322688   0.000000
   75        1.824069   0.000000
   76        2.617410   0.000000
 
  0.0000000E+00  0.1000000E+00  0.0000000E+00  0.2857143E-01
    1      -36.614304   1.000000
    2      -35.281692   1.000000
    3      -34.318583   1.000000
    4      -33.409006   1.000000
    5      -20.491752   1.000000
    6      -20.026298   1.000000
    7      -19.847430   1.000000
    8      -19.350986   1.000000
    9      -19.069926   1.000000
   10      -18.673046   1.000000
   11      -18.628025   1.000000
   12      -18.555072   1.000000
   13      -18.529500   1.000000
   14      -18.340903   1.000000
   15      -18.110328   1.000000
   16      -17.804762   1.000000
   17      -17.325632   1.000000
   18      -17.300160   1.000000
   19      -17.173853   1.000000
   20      -17.080060   1.000000
   21      -16.504512   1.000000
   22      -16.335496   1.000000
   23      -16.255875   1.000000
   24      -16.174812   1.000000
   25      -16.117168   1.000000
   26      -15.395223   1.000000
   27      -15.171853   1.000000
   28      -15.135916   1.000000
   29       -7.096819   1.000000
   30       -6.783430   1.000000
   31       -6.651246   1.000000
   32       -6.208903   1.000000
   33       -5.869051   1.000000
   34       -5.697788   1.000000
   35       -5.551750   1.000000
   36       -5.295653   1.000000
   37       -5.254477   1.000000
   38       -5.169415   1.000000
   39       -4.973242   1.000000
   40       -4.962737   1.000000
   41       -4.852220   1.000000
   42       -4.598972   1.000000
   43       -4.400392   1.000000
   44       -4.288558   1.000000
   45       -4.049052   1.000000
   46       -4.048083   1.000000
   47       -3.865218   1.000000
   48       -3.726724   1.000000
   49       -3.724069   1.000000
   50       -3.356820   1.000000
   51       -3.011489   1.000000
   52       -2.978261   1.000000
   53       -2.908753   1.000000
   54       -2.850623   1.000000
   55       -2.689094   1.000000
   56       -2.455807   1.000000
   57       -2.390039   1.000000
   58       -1.986141   1.000000
   59       -1.964414   1.000000
   60       -1.427786   1.000000
   61       -1.303356   1.000000
   62       -1.114311   1.000000
   63       -1.014311   1.000000
   64       -1.013352   1.000000
   65       -0.768753   0.545194
   66       -0.766361   0.010140
   67       -0.622234   0.000000
   68       -0.422298   0.000000
   69        0.079180   0.000000
   70        0.371828   0.000000
   71        0.462393   0.000000
   72        0.651550   0.000000
   73        1.388015   0.000000
   74        1.530533   0.000000
   75        2.755809   0.000000
   76        4.207102   0.000000
 
  0.1428571E+00  0.1000000E+00  0.0000000E+00  0.5714286E-01
    1      -36.614149   1.000000
    2      -35.281521   1.000000
    3      -34.318415   1.000000
    4      -33.408869   1.000000
    5      -20.517488   1.000000
    6      -20.134680   1.000000
    7      -19.759549   1.000000
    8      -19.349946   1.000000
    9      -19.104726   1.000000
   10      -18.716439   1.000000
   11      -18.615726   1.000000
   12      -18.530467   1.000000
   13      -18.447431   1.000000
   14      -18.348311   1.000000
   15      -18.147515   1.000000
   16      -17.791008   1.000000
   17      -17.319517   1.000000
   18      -17.299706   1.000000
   19      -17.146860   1.000000
   20      -17.086131   1.000000
   21      -16.490049   1.000000
   22      -16.337582   1.000000
   23      -16.248943   1.000000
   24      -16.185440   1.000000
   25      -16.062239   1.000000
   26      -15.394023   1.000000
   27      -15.178693   1.000000
   28      -15.120967   1.000000
   29       -7.011260   1.000000
   30       -6.769476   1.000000
   31       -6.669103   1.000000
   32       -6.193169   1.000000
   33       -5.805339   1.000000
   34       -5.762833   1.000000
   35       -5.591773   1.000000
   36       -5.307027   1.000000
   37       -5.256102   1.000000
   38       -5.162267   1.000000
   39       -5.015406   1.000000
   40       -4.915635   1.000000
   41       -4.801650   1.000000
   42       -4.635219   1.000000
   43       -4.479933   1.000000
   44       -4.265348   1.000000
   45       -4.235136   1.000000
   46       -4.020721   1.000000
   47       -3.850968   1.000000
   48       -3.796754   1.000000
   49       -3.693162   1.000000
   50       -3.424029   1.000000
   51       -3.049758   1.000000
   52       -2.968972   1.000000
   53       -2.920550   1.000000
   54       -2.896300   1.000000
   55       -2.810435   1.000000
   56       -2.494866   1.000000
   57       -2.374014   1.000000
   58       -2.114817   1.000000
   59       -1.932382   1.000000
   60       -1.493288   1.000000
   61       -1.292984   1.000000
   62       -1.116114   1.000000
   63       -1.035389   1.000000
   64       -0.960347   1.000000
   65       -0.812329   0.966393
   66       -0.662936  -0.065117
   67       -0.591688   0.000000
   68       -0.529999   0.000000
   69        0.100676   0.000000
   70        0.392859   0.000000
   71        0.450157   0.000000
   72        0.744221   0.000000
   73        1.345968   0.000000
   74        1.384831   0.000000
   75        2.699355   0.000000
   76        4.246395   0.000000
 
  0.2857143E+00  0.1000000E+00  0.0000000E+00  0.5714286E-01
    1      -36.613802   1.000000
    2      -35.281140   1.000000
    3      -34.318040   1.000000
    4      -33.408564   1.000000
    5      -20.583152   1.000000
    6      -20.249528   1.000000
    7      -19.697082   1.000000
    8      -19.332193   1.000000
    9      -19.175930   1.000000
   10      -18.746350   1.000000
   11      -18.611734   1.000000
   12      -18.447989   1.000000
   13      -18.367894   1.000000
   14      -18.343699   1.000000
   15      -18.209602   1.000000
   16      -17.776604   1.000000
   17      -17.306708   1.000000
   18      -17.297898   1.000000
   19      -17.104614   1.000000
   20      -17.080129   1.000000
   21      -16.447253   1.000000
   22      -16.339262   1.000000
   23      -16.266478   1.000000
   24      -16.134066   1.000000
   25      -16.002224   1.000000
   26      -15.387736   1.000000
   27      -15.181637   1.000000
   28      -15.093900   1.000000
   29       -6.872525   1.000000
   30       -6.716556   1.000000
   31       -6.619010   1.000000
   32       -6.171206   1.000000
   33       -5.891111   1.000000
   34       -5.747153   1.000000
   35       -5.594288   1.000000
   36       -5.363051   1.000000
   37       -5.325574   1.000000
   38       -5.064637   1.000000
   39       -5.022774   1.000000
   40       -4.901544   1.000000
   41       -4.845659   1.000000
   42       -4.626232   1.000000
   43       -4.572978   1.000000
   44       -4.549042   1.000000
   45       -4.272686   1.000000
   46       -4.042086   1.000000
   47       -3.857779   1.000000
   48       -3.802750   1.000000
   49       -3.642741   1.000000
   50       -3.525457   1.000000
   51       -3.424585   1.000000
   52       -3.038335   1.000000
   53       -3.006610   1.000000
   54       -2.968042   1.000000
   55       -2.727993   1.000000
   56       -2.644894   1.000000
   57       -2.419295   1.000000
   58       -2.254931   1.000000
   59       -1.856374   1.000000
   60       -1.612742   1.000000
   61       -1.277947   1.000000
   62       -1.168714   1.000000
   63       -0.972307   1.000000
   64       -0.969317   1.000000
   65       -0.801567   0.969647
   66       -0.757044   0.076877
   67       -0.559753   0.000000
   68       -0.490598   0.000000
   69        0.115265   0.000000
   70        0.415871   0.000000
   71        0.452580   0.000000
   72        0.896938   0.000000
   73        1.352860   0.000000
   74        1.381129   0.000000
   75        2.681616   0.000000
   76        2.761847   0.000000
 
  0.4285714E+00  0.1000000E+00  0.0000000E+00  0.5714286E-01
    1      -36.613523   1.000000
    2      -35.280834   1.000000
    3      -34.317740   1.000000
    4      -33.408319   1.000000
    5      -20.639777   1.000000
    6      -20.304248   1.000000
    7      -19.683828   1.000000
    8      -19.316421   1.000000
    9      -19.226220   1.000000
   10      -18.752634   1.000000
   11      -18.608828   1.000000
   12      -18.385531   1.000000
   13      -18.360526   1.000000
   14      -18.314322   1.000000
   15      -18.240263   1.000000
   16      -17.771278   1.000000
   17      -17.302683   1.000000
   18      -17.292811   1.000000
   19      -17.095110   1.000000
   20      -17.049538   1.000000
   21      -16.397784   1.000000
   22      -16.341807   1.000000
   23      -16.281049   1.000000
   24      -16.088269   1.000000
   25      -15.979177   1.000000
   26      -15.380073   1.000000
   27      -15.177954   1.000000
   28      -15.071375   1.000000
   29       -6.852773   1.000000
   30       -6.733544   1.000000
   31       -6.300937   1.000000
   32       -6.168885   1.000000
   33       -5.947726   1.000000
   34       -5.786467   1.000000
   35       -5.593660   1.000000
   36       -5.454651   1.000000
   37       -5.390552   1.000000
   38       -5.282964   1.000000
   39       -4.962106   1.000000
   40       -4.863031   1.000000
   41       -4.774977   1.000000
   42       -4.690649   1.000000
   43       -4.622801   1.000000
   44       -4.469742   1.000000
   45       -4.298219   1.000000
   46       -4.143415   1.000000
   47       -3.997859   1.000000
   48       -3.813227   1.000000
   49       -3.771376   1.000000
   50       -3.477502   1.000000
   51       -3.466719   1.000000
   52       -3.173615   1.000000
   53       -3.094337   1.000000
   54       -3.002574   1.000000
   55       -2.897027   1.000000
   56       -2.699054   1.000000
   57       -2.508760   1.000000
   58       -2.167519   1.000000
   59       -1.780861   1.000000
   60       -1.599419   1.000000
   61       -1.302724   1.000000
   62       -1.226465   1.000000
   63       -1.136022   1.000000
   64       -0.945471   1.000000
   65       -0.896345   1.000000
   66       -0.693103  -0.064213
   67       -0.538954   0.000000
   68       -0.361724   0.000000
   69        0.086393   0.000000
   70        0.408871   0.000000
   71        0.480118   0.000000
   72        0.982638   0.000000
   73        1.351871   0.000000
   74        1.811279   0.000000
   75        2.674085   0.000000
   76        2.792860   0.000000
 
  0.0000000E+00  0.2000000E+00  0.0000000E+00  0.2857143E-01
    1      -36.609744   1.000000
    2      -35.276490   1.000000
    3      -34.313398   1.000000
    4      -33.403915   1.000000
    5      -20.434764   1.000000
    6      -19.964040   1.000000
    7      -19.782159   1.000000
    8      -19.293232   1.000000
    9      -19.091591   1.000000
   10      -18.624922   1.000000
   11      -18.615924   1.000000
   12      -18.593374   1.000000
   13      -18.495502   1.000000
   14      -18.286599   1.000000
   15      -18.123329   1.000000
   16      -17.747382   1.000000
   17      -17.291151   1.000000
   18      -17.242517   1.000000
   19      -17.229965   1.000000
   20      -17.100408   1.000000
   21      -16.559217   1.000000
   22      -16.290429   1.000000
   23      -16.283595   1.000000
   24      -16.159158   1.000000
   25      -16.136836   1.000000
   26      -15.350215   1.000000
   27      -15.226860   1.000000
   28      -15.197858   1.000000
   29       -7.037497   1.000000
   30       -6.680106   1.000000
   31       -6.643100   1.000000
   32       -6.555474   1.000000
   33       -6.042049   1.000000
   34       -5.938729   1.000000
   35       -5.814573   1.000000
   36       -5.559804   1.000000
   37       -5.507996   1.000000
   38       -5.227809   1.000000
   39       -5.157016   1.000000
   40       -5.105351   1.000000
   41       -4.908515   1.000000
   42       -4.686466   1.000000
   43       -4.665844   1.000000
   44       -4.455189   1.000000
   45       -4.312634   1.000000
   46       -4.167754   1.000000
   47       -4.064263   1.000000
   48       -3.803873   1.000000
   49       -3.756535   1.000000
   50       -3.448573   1.000000
   51       -3.373916   1.000000
   52       -3.258873   1.000000
   53       -2.953507   1.000000
   54       -2.833875   1.000000
   55       -2.742789   1.000000
   56       -2.573390   1.000000
   57       -2.289287   1.000000
   58       -2.079409   1.000000
   59       -2.034084   1.000000
   60       -1.500860   1.000000
   61       -1.281461   1.000000
   62       -1.065978   1.000000
   63       -0.904365   1.000000
   64       -0.890950   1.074752
   65       -0.757488   0.035951
   66       -0.512703   0.000000
   67       -0.430761   0.000000
   68       -0.232545   0.000000
   69        0.181470   0.000000
   70        0.649584   0.000000
   71        0.689261   0.000000
   72        0.712502   0.000000
   73        1.619229   0.000000
   74        2.913456   0.000000
   75        2.947129   0.000000
   76        4.576689   0.000000
 
  0.1428571E+00  0.2000000E+00  0.0000000E+00  0.5714286E-01
    1      -36.609613   1.000000
    2      -35.276349   1.000000
    3      -34.313260   1.000000
    4      -33.403806   1.000000
    5      -20.442573   1.000000
    6      -20.071447   1.000000
    7      -19.716053   1.000000
    8      -19.298542   1.000000
    9      -19.105753   1.000000
   10      -18.677789   1.000000
   11      -18.615899   1.000000
   12      -18.553087   1.000000
   13      -18.425648   1.000000
   14      -18.296679   1.000000
   15      -18.147582   1.000000
   16      -17.750405   1.000000
   17      -17.297755   1.000000
   18      -17.232828   1.000000
   19      -17.192098   1.000000
   20      -17.112921   1.000000
   21      -16.544729   1.000000
   22      -16.302991   1.000000
   23      -16.237322   1.000000
   24      -16.211651   1.000000
   25      -16.063650   1.000000
   26      -15.349740   1.000000
   27      -15.232909   1.000000
   28      -15.168259   1.000000
   29       -6.971246   1.000000
   30       -6.697334   1.000000
   31       -6.665074   1.000000
   32       -6.533553   1.000000
   33       -6.117302   1.000000
   34       -5.900948   1.000000
   35       -5.803793   1.000000
   36       -5.599028   1.000000
   37       -5.514368   1.000000
   38       -5.233430   1.000000
   39       -5.170429   1.000000
   40       -5.085028   1.000000
   41       -4.878514   1.000000
   42       -4.716445   1.000000
   43       -4.690843   1.000000
   44       -4.519957   1.000000
   45       -4.317433   1.000000
   46       -4.245247   1.000000
   47       -4.005506   1.000000
   48       -3.888372   1.000000
   49       -3.738533   1.000000
   50       -3.500999   1.000000
   51       -3.388584   1.000000
   52       -3.231517   1.000000
   53       -2.977163   1.000000
   54       -2.935835   1.000000
   55       -2.878826   1.000000
   56       -2.491504   1.000000
   57       -2.325525   1.000000
   58       -2.102017   1.000000
   59       -2.057772   1.000000
   60       -1.574679   1.000000
   61       -1.275677   1.000000
   62       -1.050750   1.000000
   63       -0.919768   1.000000
   64       -0.877606   1.035939
   65       -0.717586  -0.081732
   66       -0.536034   0.000000
   67       -0.462448   0.000000
   68       -0.208659   0.000000
   69        0.211296   0.000000
   70        0.664024   0.000000
   71        0.702429   0.000000
   72        0.776418   0.000000
   73        1.577898   0.000000
   74        1.598765   0.000000
   75        2.884143   0.000000
   76        2.967529   0.000000
 
  0.2857143E+00  0.2000000E+00  0.0000000E+00  0.5714286E-01
    1      -36.609319   1.000000
    2      -35.276031   1.000000
    3      -34.312949   1.000000
    4      -33.403559   1.000000
    5      -20.473825   1.000000
    6      -20.189974   1.000000
    7      -19.685504   1.000000
    8      -19.305306   1.000000
    9      -19.132943   1.000000
   10      -18.733720   1.000000
   11      -18.603028   1.000000
   12      -18.460873   1.000000
   13      -18.363297   1.000000
   14      -18.310482   1.000000
   15      -18.185047   1.000000
   16      -17.767141   1.000000
   17      -17.287873   1.000000
   18      -17.230825   1.000000
   19      -17.142507   1.000000
   20      -17.107057   1.000000
   21      -16.504785   1.000000
   22      -16.296967   1.000000
   23      -16.244013   1.000000
   24      -16.168546   1.000000
   25      -16.004358   1.000000
   26      -15.341073   1.000000
   27      -15.213351   1.000000
   28      -15.129508   1.000000
   29       -6.874597   1.000000
   30       -6.737567   1.000000
   31       -6.648113   1.000000
   32       -6.493951   1.000000
   33       -6.201948   1.000000
   34       -5.898329   1.000000
   35       -5.794880   1.000000
   36       -5.631604   1.000000
   37       -5.568886   1.000000
   38       -5.237177   1.000000
   39       -5.179978   1.000000
   40       -5.012290   1.000000
   41       -4.899467   1.000000
   42       -4.813070   1.000000
   43       -4.741799   1.000000
   44       -4.690360   1.000000
   45       -4.381881   1.000000
   46       -4.221652   1.000000
   47       -3.954018   1.000000
   48       -3.919274   1.000000
   49       -3.725789   1.000000
   50       -3.657929   1.000000
   51       -3.399800   1.000000
   52       -3.350055   1.000000
   53       -3.232203   1.000000
   54       -2.985260   1.000000
   55       -2.881833   1.000000
   56       -2.646851   1.000000
   57       -2.287647   1.000000
   58       -2.171002   1.000000
   59       -1.994588   1.000000
   60       -1.688955   1.000000
   61       -1.259774   1.000000
   62       -1.059759   1.000000
   63       -0.917256   1.000000
   64       -0.904540   1.000276
   65       -0.781772   0.630516
   66       -0.576586   0.000000
   67       -0.376627   0.000000
   68       -0.162433   0.000000
   69        0.255911   0.000000
   70        0.683265   0.000000
   71        0.707552   0.000000
   72        1.496317   0.000000
   73        1.570140   0.000000
   74        1.768520   0.000000
   75        2.870614   0.000000
   76        2.976104   0.000000
 
  0.4285714E+00  0.2000000E+00  0.0000000E+00  0.5714286E-01
    1      -36.609082   1.000000
    2      -35.275775   1.000000
    3      -34.312699   1.000000
    4      -33.403360   1.000000
    5      -20.513075   1.000000
    6      -20.238774   1.000000
    7      -19.691539   1.000000
    8      -19.317019   1.000000
    9      -19.149768   1.000000
   10      -18.756537   1.000000
   11      -18.590731   1.000000
   12      -18.387054   1.000000
   13      -18.353517   1.000000
   14      -18.315122   1.000000
   15      -18.199970   1.000000
   16      -17.784702   1.000000
   17      -17.294409   1.000000
   18      -17.213609   1.000000
   19      -17.135642   1.000000
   20      -17.069549   1.000000
   21      -16.459037   1.000000
   22      -16.320628   1.000000
   23      -16.227791   1.000000
   24      -16.123107   1.000000
   25      -15.984720   1.000000
   26      -15.333688   1.000000
   27      -15.176943   1.000000
   28      -15.108792   1.000000
   29       -6.888981   1.000000
   30       -6.768832   1.000000
   31       -6.601454   1.000000
   32       -6.469674   1.000000
   33       -6.087507   1.000000
   34       -5.907139   1.000000
   35       -5.787925   1.000000
   36       -5.658191   1.000000
   37       -5.622604   1.000000
   38       -5.410496   1.000000
   39       -5.198927   1.000000
   40       -5.113228   1.000000
   41       -4.906085   1.000000
   42       -4.827897   1.000000
   43       -4.719410   1.000000
   44       -4.678327   1.000000