Automatically generated mesh
      24
Reciprocal lattice
    0.00000000000000    0.00000000000000    0.00000000000000             1
    0.14285714285714    0.00000000000000    0.00000000000000             2
    0.28571428571429    0.00000000000000    0.00000000000000             2
    0.42857142857143    0.00000000000000    0.00000000000000             2
    0.00000000000000    0.10000000000000    0.00000000000000             2
    0.14285714285714    0.10000000000000    0.00000000000000             4
    0.28571428571429    0.10000000000000    0.00000000000000             4
    0.42857142857143    0.10000000000000    0.00000000000000             4
    0.00000000000000    0.20000000000000    0.00000000000000             2
    0.14285714285714    0.20000000000000    0.00000000000000             4
    0.28571428571429    0.20000000000000    0.00000000000000             4
    0.42857142857143    0.20000000000000    0.00000000000000             4
    0.00000000000000    0.30000000000000    0.00000000000000             2
    0.14285714285714    0.30000000000000    0.00000000000000             4
    0.28571428571429    0.30000000000000    0.00000000000000             4
    0.42857142857143    0.30000000000000    0.00000000000000             4
    0.00000000000000    0.40000000000000    0.00000000000000             2
    0.14285714285714    0.40000000000000    0.00000000000000             4
    0.28571428571429    0.40000000000000    0.00000000000000             4
    0.42857142857143    0.40000000000000    0.00000000000000             4
    0.00000000000000    0.50000000000000    0.00000000000000             1
    0.14285714285714    0.50000000000000    0.00000000000000             2
    0.28571428571429    0.50000000000000    0.00000000000000             2
    0.42857142857143    0.50000000000000    0.00000000000000             2
Tetrahedra
       195    0.00238095238095
         2         1         1         2         6
         2         1         1         5         6
         2         1         5         5         6
         2         1         2         2         6
         2         1         2         6         6
         2         1         5         6         6
         2         2         2         3         7
         2         2         2         6         7
         2         2         6         6         7
         2         2         3         3         7
         2         2         3         7         7
         2         2         6         7         7
         2         3         3         4         8
         2         3         3         7         8
         2         3         7         7         8
         2         3         4         4         8
         2         3         4         8         8
         2         3         7         8         8
         4         4         4         4         8
         4         4         4         8         8
         4         4         8         8         8
         2         3         4         4         7
         2         4         4         7         8
         2         4         7         8         8
         2         3         3         4         7
         2         3         4         7         7
         2         4         7         7         8
         2         2         3         3         6
         2         3         3         6         7
         2         3         6         7         7
         2         2         2         3         6
         2         2         3         6         6
         2         3         6         6         7
         2         1         2         2         5
         2         2         2         5         6
         2         2         5         6         6
         2         1         1         2         5
         2         1         2         5         5
         2         2         5         5         6
         2         5         5         6        10
         2         5         5         9        10
         2         5         9         9        10
         2         5         6         6        10
         2         5         6        10        10
         2         5         9        10        10
         2         6         6         7        11
         2         6         6        10        11
         2         6        10        10        11
         2         6         7         7        11
         2         6         7        11        11
         2         6        10        11        11
         2         7         7         8        12
         2         7         7        11        12
         2         7        11        11        12
         2         7         8         8        12
         2         7         8        12        12
         2         7        11        12        12
         4         8         8         8        12
         4         8         8        12        12
         4         8        12        12        12
         2         7         8         8        11
         2         8         8        11        12
         2         8        11        12        12
         2         7         7         8        11
         2         7         8        11        11
         2         8        11        11        12
         2         6         7         7        10
         2         7         7        10        11
         2         7        10        11        11
         2         6         6         7        10
         2         6         7        10        10
         2         7        10        10        11
         2         5         6         6         9
         2         6         6         9        10
         2         6         9        10        10
         2         5         5         6         9
         2         5         6         9         9
         2         6         9         9        10
         2         9         9        10        14
         2         9         9        13        14
         2         9        13        13        14
         2         9        10        10        14
         2         9        10        14        14
         2         9        13        14        14
         2        10        10        11        15
         2        10        10        14        15
         2        10        14        14        15
         2        10        11        11        15
         2        10        11        15        15
         2        10        14        15        15
         2        11        11        12        16
         2        11        11        15        16
         2        11        15        15        16
         2        11        12        12        16
         2        11        12        16        16
         2        11        15        16        16
         4        12        12        12        16
         4        12        12        16        16
         4        12        16        16        16
         2        11        12        12        15
         2        12        12        15        16
         2        12        15        16        16
         2        11        11        12        15
         2        11        12        15        15
         2        12        15        15        16
         2        10        11        11        14
         2        11        11        14        15
         2        11        14        15        15
         2        10        10        11        14
         2        10        11        14        14
         2        11        14        14        15
         2         9        10        10        13
         2        10        10        13        14
         2        10        13        14        14
         2         9         9        10        13
         2         9        10        13        13
         2        10        13        13        14
         2        13        13        14        18
         2        13        13        17        18
         2        13        17        17        18
         2        13        14        14        18
         2        13        14        18        18
         2        13        17        18        18
         2        14        14        15        19
         2        14        14        18        19
         2        14        18        18        19
         2        14        15        15        19
         2        14        15        19        19
         2        14        18        19        19
         2        15        15        16        20
         2        15        15        19        20
         2        15        19        19        20
         2        15        16        16        20
         2        15        16        20        20
         2        15        19        20        20
         4        16        16        16        20
         4        16        16        20        20
         4        16        20        20        20
         2        15        16        16        19
         2        16        16        19        20
         2        16        19        20        20
         2        15        15        16        19
         2        15        16        19        19
         2        16        19        19        20
         2        14        15        15        18
         2        15        15        18        19
         2        15        18        19        19
         2        14        14        15        18
         2        14        15        18        18
         2        15        18        18        19
         2        13        14        14        17
         2        14        14        17        18
         2        14        17        18        18
         2        13        13        14        17
         2        13        14        17        17
         2        14        17        17        18
         2        17        17        18        22
         2        17        17        21        22
         2        17        21        21        22
         2        17        18        18        22
         2        17        18        22        22
         2        17        21        22        22
         2        18        18        19        23
         2        18        18        22        23
         2        18        22        22        23
         2        18        19        19        23
         2        18        19        23        23
         2        18        22        23        23
         2        19        19        20        24
         2        19        19        23        24
         2        19        23        23        24
         2        19        20        20        24
         2        19        20        24        24
         2        19        23        24        24
         4        20        20        20        24
         4        20        20        24        24
         4        20        24        24        24
         2        19        20        20        23
         2        20        20        23        24
         2        20        23        24        24
         2        19        19        20        23
         2        19        20        23        23
         2        20        23        23        24
         2        18        19        19        22
         2        19        19        22        23
         2        19        22        23        23
         2        18        18        19        22
         2        18        19        22        22
         2        19        22        22        23
         2        17        18        18        21
         2        18        18        21        22
         2        18        21        22        22
         2        17        17        18        21
         2        17        18        21        21
         2        18        21        21        22
