 vasp.5.4.4.18Apr17-6-g9f103f2a35 (build Jun 30 2017 11:15:00) complex          
  
 executed on    STALLO_VASP_5.4.4 date 2019.11.06  18:34:35
 running on    4 total cores
 distrk:  each k-point on    4 cores,    1 groups
 distr:  one band on NCORES_PER_BAND=   2 cores,    2 groups


--------------------------------------------------------------------------------------------------------


 INCAR:
 POTCAR:   PAW_PBE O 08Apr2002                    
 POTCAR:   PAW_PBE Sr_sv 07Sep2000                
 POTCAR:   PAW_PBE Ti 08Apr2002                   
 POTCAR:   PAW_PBE O 08Apr2002                    
   VRHFIN =O: s2p4                                                              
   LEXCH  = PE                                                                  
   EATOM  =   432.3788 eV,   31.7789 Ry                                         
                                                                                
   TITEL  = PAW_PBE O 08Apr2002                                                 
   LULTRA =        F    use ultrasoft PP ?                                      
   IUNSCR =        0    unscreen: 0-lin 1-nonlin 2-no                           
   RPACOR =     .000    partial core radius                                     
   POMASS =   16.000; ZVAL   =    6.000    mass and valenz                      
   RCORE  =    1.520    outmost cutoff radius                                   
   RWIGS  =    1.550; RWIGS  =     .820    wigner-seitz radius (au A)           
   ENMAX  =  400.000; ENMIN  =  300.000 eV                                      
   ICORE  =        2    local potential                                         
   LCOR   =        T    correct aug charges                                     
   LPAW   =        T    paw PP                                                  
   EAUG   =  605.392                                                            
   DEXC   =     .000                                                            
   RMAX   =    2.264    core radius for proj-oper                               
   RAUG   =    1.300    factor for augmentation sphere                          
   RDEP   =    1.550    radius for radial grids                                 
   QCUT   =   -5.520; QGAM   =   11.041    optimization parameters              
                                                                                
   Description                                                                  
     l     E      TYP  RCUT    TYP  RCUT                                        
     0   .000     23  1.200                                                     
     0  -.700     23  1.200                                                     
     1   .000     23  1.520                                                     
     1   .600     23  1.520                                                     
     2   .000      7  1.500                                                     
  local pseudopotential read in
  atomic valenz-charges read in
  non local Contribution for L=           0  read in
    real space projection operators read in
  non local Contribution for L=           0  read in
    real space projection operators read in
  non local Contribution for L=           1  read in
    real space projection operators read in
  non local Contribution for L=           1  read in
    real space projection operators read in
    PAW grid and wavefunctions read in
 
   number of l-projection  operators is LMAX  =           4
   number of lm-projection operators is LMMAX =           8
 
 POTCAR:   PAW_PBE Sr_sv 07Sep2000                
   VRHFIN =Sr: 4s4p5s                                                           
   LEXCH  = PE                                                                  
   EATOM  =   842.4562 eV,   61.9188 Ry                                         
                                                                                
   TITEL  = PAW_PBE Sr_sv 07Sep2000                                             
   LULTRA =        F    use ultrasoft PP ?                                      
   IUNSCR =        1    unscreen: 0-lin 1-nonlin 2-no                           
   RPACOR =    2.200    partial core radius                                     
   POMASS =   87.620; ZVAL   =   10.000    mass and valenz                      
   RCORE  =    2.500    outmost cutoff radius                                   
   RWIGS  =    4.040; RWIGS  =    2.138    wigner-seitz radius (au A)           
   ENMAX  =  229.282; ENMIN  =  171.961 eV                                      
   RCLOC  =    2.201    cutoff for local pot                                    
   LCOR   =        T    correct aug charges                                     
   LPAW   =        T    paw PP                                                  
   EAUG   =  366.804                                                            
   DEXC   =     .000                                                            
   RMAX   =    3.045    core radius for proj-oper                               
   RAUG   =    1.300    factor for augmentation sphere                          
   RDEP   =    2.562    radius for radial grids                                 
   QCUT   =   -4.105; QGAM   =    8.210    optimization parameters              
                                                                                
   Description                                                                  
     l     E      TYP  RCUT    TYP  RCUT                                        
     0   .000     23  2.480                                                     
     0   .000     23  2.480                                                     
     1   .000     23  2.500                                                     
     1   .000     23  2.500                                                     
     2   .000     23  2.500                                                     
     2   .000     23  2.500                                                     
  local pseudopotential read in
  partial core-charges read in
  atomic valenz-charges read in
  non local Contribution for L=           0  read in
    real space projection operators read in
  non local Contribution for L=           0  read in
    real space projection operators read in
  non local Contribution for L=           1  read in
    real space projection operators read in
  non local Contribution for L=           1  read in
    real space projection operators read in
  non local Contribution for L=           2  read in
    real space projection operators read in
  non local Contribution for L=           2  read in
    real space projection operators read in
    PAW grid and wavefunctions read in
 
   number of l-projection  operators is LMAX  =           6
   number of lm-projection operators is LMMAX =          18
 
 POTCAR:   PAW_PBE Ti 08Apr2002                   
   VRHFIN =Ti: d3 s1                                                            
   LEXCH  = PE                                                                  
   EATOM  =    94.7929 eV,    6.9671 Ry                                         
                                                                                
   TITEL  = PAW_PBE Ti 08Apr2002                                                
   LULTRA =        F    use ultrasoft PP ?                                      
   IUNSCR =        1    unscreen: 0-lin 1-nonlin 2-no                           
   RPACOR =    2.200    partial core radius                                     
   POMASS =   47.880; ZVAL   =    4.000    mass and valenz                      
   RCORE  =    2.800    outmost cutoff radius                                   
   RWIGS  =    2.500; RWIGS  =    1.323    wigner-seitz radius (au A)           
   ENMAX  =  178.330; ENMIN  =  133.747 eV                                      
   RCLOC  =    2.215    cutoff for local pot                                    
   LCOR   =        T    correct aug charges                                     
   LPAW   =        T    paw PP                                                  
   EAUG   =  328.883                                                            
   DEXC   =    -.043                                                            
   RMAX   =    3.453    core radius for proj-oper                               
   RAUG   =    1.300    factor for augmentation sphere                          
   RDEP   =    2.885    radius for radial grids                                 
   QCUT   =   -3.620; QGAM   =    7.241    optimization parameters              
                                                                                
   Description                                                                  
     l     E      TYP  RCUT    TYP  RCUT                                        
     2   .000     23  2.800                                                     
     2   .000     23  2.800                                                     
     0   .000     23  2.800                                                     
     0  1.500     23  2.800                                                     
     1  -.400     23  2.800                                                     
     3   .000      7   .000                                                     
  local pseudopotential read in
  partial core-charges read in
  atomic valenz-charges read in
  non local Contribution for L=           2  read in
    real space projection operators read in
  non local Contribution for L=           2  read in
    real space projection operators read in
  non local Contribution for L=           0  read in
    real space projection operators read in
  non local Contribution for L=           0  read in
    real space projection operators read in
  non local Contribution for L=           1  read in
    real space projection operators read in
    PAW grid and wavefunctions read in
 
   number of l-projection  operators is LMAX  =           5
   number of lm-projection operators is LMMAX =          15
 

 ----------------------------------------------------------------------------- 
|                                                                             |
|  ADVICE TO THIS USER RUNNING 'VASP/VAMP'   (HEAR YOUR MASTER'S VOICE ...):  |
|                                                                             |
|      You have a (more or less) 'large supercell' and for larger cells       |
|      it might be more efficient to use real space projection operators      |
|      So try LREAL= Auto  in the INCAR   file.                               |
|      Mind: If you want to do a very accurate calculations keep the          |
|      reciprocal projection scheme          (i.e. LREAL=.FALSE.)             |
|                                                                             |
 ----------------------------------------------------------------------------- 

 PAW_PBE O 08Apr2002                    :
 energy of atom  1       EATOM= -432.3788
 kinetic energy error for atom=    0.0224 (will be added to EATOM!!)
 PAW_PBE Sr_sv 07Sep2000                :
 energy of atom  2       EATOM= -842.4562
 kinetic energy error for atom=    0.0012 (will be added to EATOM!!)
 PAW_PBE Ti 08Apr2002                   :
 energy of atom  3       EATOM=  -94.7929
 kinetic energy error for atom=    0.0002 (will be added to EATOM!!)
 
 
 POSCAR:  O Sr Ti                                
  positions in direct lattice
  No initial velocities read in
 exchange correlation table for  LEXCH =        8
   RHO(1)=    0.500       N(1)  =     2000
   RHO(2)=  100.500       N(2)  =     4000
 


--------------------------------------------------------------------------------------------------------


 ion  position               nearest neighbor table
   1  0.500  0.000  0.277-  17 1.95  17 1.95  14 2.76  13 2.76  13 2.76
   2  0.250  0.500  0.341-  17 1.95  18 1.95  13 2.76  14 2.76  13 2.76  14 2.76
   3  0.750  0.500  0.341-  17 1.95  18 1.95  13 2.76  14 2.76  13 2.76  14 2.76
   4  0.000  0.000  0.404-  18 1.95  18 1.95  13 2.76  14 2.76  14 2.76  15 2.76
   5  0.750  0.500  0.468-  18 1.95  19 1.95  14 2.76  14 2.76  15 2.76  15 2.76
   6  0.250  0.500  0.468-  18 1.95  19 1.95  14 2.76  14 2.76  15 2.76  15 2.76
   7  0.500  0.000  0.532-  19 1.95  19 1.95  16 2.76  15 2.76  15 2.76  14 2.76
   8  0.250  0.500  0.596-  19 1.95  20 1.95  15 2.76  16 2.76  15 2.76  16 2.76
   9  0.750  0.500  0.596-  19 1.95  20 1.95  15 2.76  16 2.76  15 2.76  16 2.76
  10  0.000  0.000  0.659-  20 1.95  20 1.95  15 2.76  16 2.76  16 2.76
  11  0.750  0.500  0.723-  20 1.95  16 2.76  16 2.76
  12  0.250  0.500  0.723-  20 1.95  16 2.76  16 2.76
  13  0.000  0.000  0.277-   4 2.76   3 2.76   2 2.76   2 2.76   3 2.76   1 2.76   1 2.76  18 3.38
                            18 3.38  17 3.38  17 3.38  17 3.38  17 3.38  14 3.91  14 3.91
  14  0.500  0.000  0.404-   1 2.76   2 2.76   3 2.76   5 2.76   6 2.76   2 2.76   3 2.76   5 2.76
                             6 2.76   4 2.76   4 2.76   7 2.76  17 3.38  17 3.38  18 3.38  18 3.38
  15  0.000  0.000  0.532-  10 2.76   9 2.76   8 2.76   8 2.76   9 2.76   7 2.76   7 2.76   6 2.76
                             5 2.76   6 2.76   5 2.76   4 2.76  20 3.38  20 3.38  19 3.38  19 3.38
  16  0.500  0.000  0.659-   7 2.76   8 2.76   9 2.76  11 2.76  12 2.76   8 2.76   9 2.76  11 2.76
                            12 2.76  10 2.76  10 2.76  19 3.38  19 3.38  20 3.38  20 3.38  20 3.38
  17  0.500  0.500  0.277-   2 1.95   3 1.95   1 1.95   1 1.95  14 3.38  14 3.38  13 3.38  13 3.38
                            13 3.38  13 3.38
  18  0.000  0.500  0.404-   2 1.95   3 1.95   5 1.95   6 1.95   4 1.95   4 1.95  13 3.38  13 3.38
                            14 3.38  14 3.38  14 3.38  14 3.38  15 3.38  15 3.38
  19  0.500  0.500  0.532-   8 1.95   9 1.95   7 1.95   7 1.95   5 1.95   6 1.95  16 3.38  16 3.38
                            15 3.38  15 3.38  15 3.38  15 3.38  14 3.38  14 3.38
  20  0.000  0.500  0.659-   8 1.95   9 1.95  11 1.95  12 1.95  10 1.95  10 1.95  15 3.38  15 3.38
                            16 3.38  16 3.38  16 3.38  16 3.38
 
  LATTYP: Found a simple orthorhombic cell.
 ALAT       =     3.9052680000
 B/A-ratio  =     1.4142135624
 C/A-ratio  =     5.5476462046
  
  Lattice vectors:
  
 A1 = (   0.0000000000,  -3.9052680000,   0.0000000000)
 A2 = (  -5.5228829703,   0.0000000000,   0.0000000000)
 A3 = (   0.0000000000,   0.0000000000, -21.6650451980)


Analysis of symmetry for initial positions (statically):
=====================================================================
 Subroutine PRICEL returns:
 Original cell was already a primitive cell.
 

 Routine SETGRP: Setting up the symmetry group for a 
 simple orthorhombic supercell.


 Subroutine GETGRP returns: Found  4 space group operations
 (whereof  4 operations were pure point group operations)
 out of a pool of  8 trial point group operations.


The static configuration has the point symmetry C_2v.


Analysis of symmetry for dynamics (positions and initial velocities):
=====================================================================
 Subroutine PRICEL returns:
 Original cell was already a primitive cell.
 

 Routine SETGRP: Setting up the symmetry group for a 
 simple orthorhombic supercell.


 Subroutine GETGRP returns: Found  4 space group operations
 (whereof  4 operations were pure point group operations)
 out of a pool of  8 trial point group operations.


The dynamic configuration has the point symmetry C_2v.


 Subroutine INISYM returns: Found  4 space group operations
 (whereof  4 operations are pure point group operations),
 and found     1 'primitive' translations

 
 
 KPOINTS: k-density: 6.0                          

Automatic generation of k-mesh.
Space group operators:
 irot       det(A)        alpha          n_x          n_y          n_z        tau_x        tau_y        tau_z
    1     1.000000     0.000000     1.000000     0.000000     0.000000     0.000000     0.000000     0.000000
    2     1.000000   179.999999     0.000000     0.000000     1.000000     0.000000     0.000000     0.000000
    3    -1.000000   180.000000     1.000000     0.000000     0.000000     0.000000     0.000000     0.000000
    4    -1.000000   180.000000     0.000000     1.000000     0.000000     0.000000     0.000000     0.000000
 
 Subroutine IBZKPT returns following result:
 ===========================================
 
 Found     24 irreducible k-points:
 
 Following reciprocal coordinates:
            Coordinates               Weight
  0.000000  0.000000  0.000000      1.000000
  0.142857  0.000000  0.000000      2.000000
  0.285714  0.000000  0.000000      2.000000
  0.428571  0.000000  0.000000      2.000000
  0.000000  0.100000  0.000000      2.000000
  0.142857  0.100000  0.000000      4.000000
  0.285714  0.100000  0.000000      4.000000
  0.428571  0.100000  0.000000      4.000000
  0.000000  0.200000  0.000000      2.000000
  0.142857  0.200000  0.000000      4.000000
  0.285714  0.200000  0.000000      4.000000
  0.428571  0.200000  0.000000      4.000000
  0.000000  0.300000  0.000000      2.000000
  0.142857  0.300000  0.000000      4.000000
  0.285714  0.300000  0.000000      4.000000
  0.428571  0.300000  0.000000      4.000000
  0.000000  0.400000  0.000000      2.000000
  0.142857  0.400000  0.000000      4.000000
  0.285714  0.400000  0.000000      4.000000
  0.428571  0.400000  0.000000      4.000000
  0.000000  0.500000  0.000000      1.000000
  0.142857  0.500000  0.000000      2.000000
  0.285714  0.500000  0.000000      2.000000
  0.428571  0.500000  0.000000      2.000000
 
 Following cartesian coordinates:
            Coordinates               Weight
  0.000000  0.000000  0.000000      1.000000
  0.025866  0.000000  0.000000      2.000000
  0.051733  0.000000  0.000000      2.000000
  0.077599  0.000000  0.000000      2.000000
  0.000000  0.025606  0.000000      2.000000
  0.025866  0.025606  0.000000      4.000000
  0.051733  0.025606  0.000000      4.000000
  0.077599  0.025606  0.000000      4.000000
  0.000000  0.051213  0.000000      2.000000
  0.025866  0.051213  0.000000      4.000000
  0.051733  0.051213  0.000000      4.000000
  0.077599  0.051213  0.000000      4.000000
  0.000000  0.076819  0.000000      2.000000
  0.025866  0.076819  0.000000      4.000000
  0.051733  0.076819  0.000000      4.000000
  0.077599  0.076819  0.000000      4.000000
  0.000000  0.102426  0.000000      2.000000
  0.025866  0.102426  0.000000      4.000000
  0.051733  0.102426  0.000000      4.000000
  0.077599  0.102426  0.000000      4.000000
  0.000000  0.128032  0.000000      1.000000
  0.025866  0.128032  0.000000      2.000000
  0.051733  0.128032  0.000000      2.000000
  0.077599  0.128032  0.000000      2.000000
 
 TETIRR: Found    195 inequivalent tetrahedra from      420


--------------------------------------------------------------------------------------------------------




 Dimension of arrays:
   k-points           NKPTS =     24   k-points in BZ     NKDIM =     24   number of bands    NBANDS=     76
   number of dos      NEDOS =    301   number of ions     NIONS =     20
   non local maximal  LDIM  =      6   non local SUM 2l+1 LMDIM =     18
   total plane-waves  NPLWV =  86400
   max r-space proj   IRMAX =      1   max aug-charges    IRDMAX=  12968
   dimension x,y,z NGX =    30 NGY =   24 NGZ =  120
   dimension x,y,z NGXF=    60 NGYF=   48 NGZF=  240
   support grid    NGXF=    60 NGYF=   48 NGZF=  240
   ions per type =              12   4   4
   NGX,Y,Z   is equivalent  to a cutoff of   9.03, 10.22,  9.21 a.u.
   NGXF,Y,Z  is equivalent  to a cutoff of  18.06, 20.43, 18.42 a.u.

 SYSTEM =  unknown system                          
 POSCAR =   O Sr Ti                                

 Startparameter for this run:
   NWRITE =      2    write-flag & timer
   PREC   = normal    normal or accurate (medium, high low for compatibility)
   ISTART =      0    job   : 0-new  1-cont  2-samecut
   ICHARG =      2    charge: 1-file 2-atom 10-const
   ISPIN  =      1    spin polarized calculation?
   LNONCOLLINEAR =      F non collinear calculations
   LSORBIT =      F    spin-orbit coupling
   INIWAV =      1    electr: 0-lowe 1-rand  2-diag
   LASPH  =      F    aspherical Exc in radial PAW
   METAGGA=      F    non-selfconsistent MetaGGA calc.

 Electronic Relaxation 1
   ENCUT  =  500.0 eV  36.75 Ry    6.06 a.u.  10.07  7.12 39.50*2*pi/ulx,y,z
   ENINI  =  500.0     initial cutoff
   ENAUG  =  605.4 eV  augmentation charge cutoff
   NELM   =     60;   NELMIN=  4; NELMDL= -5     # of ELM steps 
   EDIFF  = 0.1E-04   stopping-criterion for ELM
   LREAL  =      F    real-space projection
   NLSPLINE    = F    spline interpolate recip. space projectors
   LCOMPAT=      F    compatible to vasp.4.4
   GGA_COMPAT  = T    GGA compatible to vasp.4.4-vasp.4.6
   LMAXPAW     = -100 max onsite density
   LMAXMIX     =    2 max onsite mixed and CHGCAR
   VOSKOWN=      0    Vosko Wilk Nusair interpolation
   ROPT   =    0.00000   0.00000   0.00000
 Ionic relaxation
   EDIFFG = 0.1E-03   stopping-criterion for IOM
   NSW    =      0    number of steps for IOM
   NBLOCK =      1;   KBLOCK =      1    inner block; outer block 
   IBRION =     -1    ionic relax: 0-MD 1-quasi-New 2-CG
   NFREE  =      0    steps in history (QN), initial steepest desc. (CG)
   ISIF   =      2    stress and relaxation
   IWAVPR =     10    prediction:  0-non 1-charg 2-wave 3-comb
   ISYM   =      2    0-nonsym 1-usesym 2-fastsym
   LCORR  =      T    Harris-Foulkes like correction to forces

   POTIM  = 0.5000    time-step for ionic-motion
   TEIN   =    0.0    initial temperature
   TEBEG  =    0.0;   TEEND  =   0.0 temperature during run
   SMASS  =  -3.00    Nose mass-parameter (am)
   estimated Nose-frequenzy (Omega)   =  0.10E-29 period in steps =****** mass=  -0.697E-27a.u.
   SCALEE = 1.0000    scale energy and forces
   NPACO  =    256;   APACO  = 16.0  distance and # of slots for P.C.
   PSTRESS=    0.0 pullay stress

  Mass of Ions in am
   POMASS =  16.00 87.62 47.88
  Ionic Valenz
   ZVAL   =   6.00 10.00  4.00
  Atomic Wigner-Seitz radii
   RWIGS  =  -1.00 -1.00 -1.00
  virtual crystal weights 
   VCA    =   1.00  1.00  1.00
   NELECT =     128.0000    total number of electrons
   NUPDOWN=      -1.0000    fix difference up-down

 DOS related values:
   EMIN   =  10.00;   EMAX   =-10.00  energy-range for DOS
   EFERMI =   0.00
   ISMEAR =    -5;   SIGMA  =   0.20  broadening in eV -4-tet -1-fermi 0-gaus

 Electronic relaxation 2 (details)
   IALGO  =     68    algorithm
   LDIAG  =      T    sub-space diagonalisation (order eigenvalues)
   LSUBROT=      F    optimize rotation matrix (better conditioning)
   TURBO    =      0    0=normal 1=particle mesh
   IRESTART =      0    0=no restart 2=restart with 2 vectors
   NREBOOT  =      0    no. of reboots
   NMIN     =      0    reboot dimension
   EREF     =   0.00    reference energy to select bands
   IMIX   =      4    mixing-type and parameters
     AMIX     =   0.40;   BMIX     =  1.00
     AMIX_MAG =   1.60;   BMIX_MAG =  1.00
     AMIN     =   0.10
     WC   =   100.;   INIMIX=   1;  MIXPRE=   1;  MAXMIX= -45

 Intra band minimization:
   WEIMIN = 0.0000     energy-eigenvalue tresh-hold
   EBREAK =  0.33E-07  absolut break condition
   DEPER  =   0.30     relativ break condition  

   TIME   =   0.40     timestep for ELM

  volume/ion in A,a.u.               =      23.36       157.67
  Fermi-wavevector in a.u.,A,eV,Ry     =   1.063211  2.009177 15.380261  1.130417
  Thomas-Fermi vector in A             =   2.198688
 
 Write flags
   LWAVE        =      F    write WAVECAR
   LDOWNSAMPLE  =      F    k-point downsampling of WAVECAR
   LCHARG       =      T    write CHGCAR
   LVTOT        =      F    write LOCPOT, total local potential
   LVHAR        =      F    write LOCPOT, Hartree potential only
   LELF         =      F    write electronic localiz. function (ELF)
   LORBIT       =      0    0 simple, 1 ext, 2 COOP (PROOUT), +10 PAW based schemes


 Dipole corrections
   LMONO  =      F    monopole corrections only (constant potential shift)
   LDIPOL =      F    correct potential (dipole corrections)
   IDIPOL =      0    1-x, 2-y, 3-z, 4-all directions 
   EPSILON=  1.0000000 bulk dielectric constant

 Exchange correlation treatment:
   GGA     =    --    GGA type
   LEXCH   =     8    internal setting for exchange type
   VOSKOWN=      0    Vosko Wilk Nusair interpolation
   LHFCALC =     F    Hartree Fock is set to
   LHFONE  =     F    Hartree Fock one center treatment
   AEXX    =    0.0000 exact exchange contribution

 Linear response parameters
   LEPSILON=     F    determine dielectric tensor
   LRPA    =     F    only Hartree local field effects (RPA)
   LNABLA  =     F    use nabla operator in PAW spheres
   LVEL    =     F    velocity operator in full k-point grid
   LINTERFAST=   F  fast interpolation
   KINTER  =     0    interpolate to denser k-point grid
   CSHIFT  =0.1000    complex shift for real part using Kramers Kronig
   OMEGAMAX=  -1.0    maximum frequency
   DEG_THRESHOLD= 0.2000000E-02 threshold for treating states as degnerate
   RTIME   =   -0.100 relaxation time in fs
  (WPLASMAI=    0.000 imaginary part of plasma frequency in eV, 0.658/RTIME)
   DFIELD  = 0.0000000 0.0000000 0.0000000 field for delta impulse in time
 
 Orbital magnetization related:
   ORBITALMAG=     F  switch on orbital magnetization
   LCHIMAG   =     F  perturbation theory with respect to B field
   DQ        =  0.001000  dq finite difference perturbation B field
   LLRAUG    =     F  two centre corrections for induced B field



--------------------------------------------------------------------------------------------------------


 Static calculation
 charge density and potential will be updated during run
 non-spin polarized calculation
 RMM-DIIS sequential band-by-band and
  variant of blocked Davidson during initial phase
 perform sub-space diagonalisation
    before iterative eigenvector-optimisation
 modified Broyden-mixing scheme, WC =      100.0
 initial mixing is a Kerker type mixing with AMIX =  0.4000 and BMIX =      1.0000
 Hartree-type preconditioning will be used
 using additional bands           12
 reciprocal scheme for non local part
 use partial core corrections
 calculate Harris-corrections to forces 
   (improved forces if not selfconsistent)
 use gradient corrections 
 use of overlap-Matrix (Vanderbilt PP)
 Fermi weights with tetrahedron method with Bloechl corrections


--------------------------------------------------------------------------------------------------------


  energy-cutoff  :      500.00
  volume of cell :      467.28
      direct lattice vectors                 reciprocal lattice vectors
     5.522882970  0.000000000  0.000000000     0.181064854  0.000000000  0.000000000
     0.000000000  3.905268000  0.000000000     0.000000000  0.256064373  0.000000000
     0.000000000  0.000000000 21.665045198     0.000000000  0.000000000  0.046157300

  length of vectors
     5.522882970  3.905268000 21.665045198     0.181064854  0.256064373  0.046157300


 
 k-points in units of 2pi/SCALE and weight: k-density: 6.0                          
   0.00000000  0.00000000  0.00000000       0.014
   0.02586641  0.00000000  0.00000000       0.029
   0.05173282  0.00000000  0.00000000       0.029
   0.07759922  0.00000000  0.00000000       0.029
   0.00000000  0.02560644  0.00000000       0.029
   0.02586641  0.02560644  0.00000000       0.057
   0.05173282  0.02560644  0.00000000       0.057
   0.07759922  0.02560644  0.00000000       0.057
   0.00000000  0.05121287  0.00000000       0.029
   0.02586641  0.05121287  0.00000000       0.057
   0.05173282  0.05121287  0.00000000       0.057
   0.07759922  0.05121287  0.00000000       0.057
   0.00000000  0.07681931  0.00000000       0.029
   0.02586641  0.07681931  0.00000000       0.057
   0.05173282  0.07681931  0.00000000       0.057
   0.07759922  0.07681931  0.00000000       0.057
   0.00000000  0.10242575  0.00000000       0.029
   0.02586641  0.10242575  0.00000000       0.057
   0.05173282  0.10242575  0.00000000       0.057
   0.07759922  0.10242575  0.00000000       0.057
   0.00000000  0.12803219  0.00000000       0.014
   0.02586641  0.12803219  0.00000000       0.029
   0.05173282  0.12803219  0.00000000       0.029
   0.07759922  0.12803219  0.00000000       0.029
 
 k-points in reciprocal lattice and weights: k-density: 6.0                          
   0.00000000  0.00000000  0.00000000       0.014
   0.14285714  0.00000000  0.00000000       0.029
   0.28571429  0.00000000  0.00000000       0.029
   0.42857143  0.00000000  0.00000000       0.029
   0.00000000  0.10000000  0.00000000       0.029
   0.14285714  0.10000000  0.00000000       0.057
   0.28571429  0.10000000  0.00000000       0.057
   0.42857143  0.10000000  0.00000000       0.057
   0.00000000  0.20000000  0.00000000       0.029
   0.14285714  0.20000000  0.00000000       0.057
   0.28571429  0.20000000  0.00000000       0.057
   0.42857143  0.20000000  0.00000000       0.057
   0.00000000  0.30000000  0.00000000       0.029
   0.14285714  0.30000000  0.00000000       0.057
   0.28571429  0.30000000  0.00000000       0.057
   0.42857143  0.30000000  0.00000000       0.057
   0.00000000  0.40000000  0.00000000       0.029
   0.14285714  0.40000000  0.00000000       0.057
   0.28571429  0.40000000  0.00000000       0.057
   0.42857143  0.40000000  0.00000000       0.057
   0.00000000  0.50000000  0.00000000       0.014
   0.14285714  0.50000000  0.00000000       0.029
   0.28571429  0.50000000  0.00000000       0.029
   0.42857143  0.50000000  0.00000000       0.029
 
 position of ions in fractional coordinates (direct lattice) 
   0.50000000  0.00000000  0.27694380
   0.25000000  0.50000000  0.34067414
   0.75000000  0.50000000  0.34067414
   0.00000000  0.00000000  0.40440449
   0.75000000  0.50000000  0.46813483
   0.25000000  0.50000000  0.46813483
   0.50000000  0.00000000  0.53186517
   0.25000000  0.50000000  0.59559551
   0.75000000  0.50000000  0.59559551
   0.00000000  0.00000000  0.65932586
   0.75000000  0.50000000  0.72305620
   0.25000000  0.50000000  0.72305620
   0.00000000  0.00000000  0.27694380
   0.50000000  0.00000000  0.40440449
   0.00000000  0.00000000  0.53186517
   0.50000000  0.00000000  0.65932586
   0.50000000  0.50000000  0.27694380
   0.00000000  0.50000000  0.40440449
   0.50000000  0.50000000  0.53186517
   0.00000000  0.50000000  0.65932586
 
 position of ions in cartesian coordinates  (Angst):
   2.76144149  0.00000000  6.00000000
   1.38072074  1.95263400  7.38072074
   4.14216223  1.95263400  7.38072074
   0.00000000  0.00000000  8.76144149
   4.14216223  1.95263400 10.14216223
   1.38072074  1.95263400 10.14216223
   2.76144149  0.00000000 11.52288297
   1.38072074  1.95263400 12.90360371
   4.14216223  1.95263400 12.90360371
   0.00000000  0.00000000 14.28432446
   4.14216223  1.95263400 15.66504520
   1.38072074  1.95263400 15.66504520
   0.00000000  0.00000000  6.00000000
   2.76144149  0.00000000  8.76144149
   0.00000000  0.00000000 11.52288297
   2.76144149  0.00000000 14.28432446
   2.76144149  1.95263400  6.00000000
   0.00000000  1.95263400  8.76144149
   2.76144149  1.95263400 11.52288297
   0.00000000  1.95263400 14.28432446
 


--------------------------------------------------------------------------------------------------------


 k-point  1 :   0.0000 0.0000 0.0000  plane waves:   11857
 k-point  2 :   0.1429 0.0000 0.0000  plane waves:   11832
 k-point  3 :   0.2857 0.0000 0.0000  plane waves:   11832
 k-point  4 :   0.4286 0.0000 0.0000  plane waves:   11846
 k-point  5 :   0.0000 0.1000 0.0000  plane waves:   11819
 k-point  6 :   0.1429 0.1000 0.0000  plane waves:   11848
 k-point  7 :   0.2857 0.1000 0.0000  plane waves:   11834
 k-point  8 :   0.4286 0.1000 0.0000  plane waves:   11845
 k-point  9 :   0.0000 0.2000 0.0000  plane waves:   11820
 k-point 10 :   0.1429 0.2000 0.0000  plane waves:   11846
 k-point 11 :   0.2857 0.2000 0.0000  plane waves:   11873
 k-point 12 :   0.4286 0.2000 0.0000  plane waves:   11874
 k-point 13 :   0.0000 0.3000 0.0000  plane waves:   11860
 k-point 14 :   0.1429 0.3000 0.0000  plane waves:   11860
 k-point 15 :   0.2857 0.3000 0.0000  plane waves:   11892
 k-point 16 :   0.4286 0.3000 0.0000  plane waves:   11888
 k-point 17 :   0.0000 0.4000 0.0000  plane waves:   11864
 k-point 18 :   0.1429 0.4000 0.0000  plane waves:   11866
 k-point 19 :   0.2857 0.4000 0.0000  plane waves:   11894
 k-point 20 :   0.4286 0.4000 0.0000  plane waves:   11900
 k-point 21 :   0.0000 0.5000 0.0000  plane waves:   11898
 k-point 22 :   0.1429 0.5000 0.0000  plane waves:   11858
 k-point 23 :   0.2857 0.5000 0.0000  plane waves:   11904
 k-point 24 :   0.4286 0.5000 0.0000  plane waves:   11900

 maximum and minimum number of plane-waves per node :      5962     5872

 maximum number of plane-waves:     11904
 maximum index in each direction: 
   IXMAX=   10   IYMAX=    7   IZMAX=   39
   IXMIN=  -10   IYMIN=   -7   IZMIN=  -39


 parallel 3D FFT for wavefunctions:
    minimum data exchange during FFTs selected (reduces bandwidth)
 parallel 3D FFT for charge:
    minimum data exchange during FFTs selected (reduces bandwidth)


 total amount of memory used by VASP MPI-rank0   202568. kBytes
=======================================================================

   base      :      30000. kBytes
   nonl-proj :      63721. kBytes
   fftplans  :       7170. kBytes
   grid      :      12862. kBytes
   one-center:        155. kBytes
   wavefun   :      88660. kBytes
 
     INWAV:  cpu time    0.0000: real time    0.0000
 Broyden mixing: mesh for mixing (old mesh)
   NGX = 21   NGY = 15   NGZ = 79
  (NGX  = 60   NGY  = 48   NGZ  =240)
  gives a total of  24885 points

 initial charge density was supplied:
 charge density of overlapping atoms calculated
 number of electron     128.0000000 magnetization 
 keeping initial charge density in first step


--------------------------------------------------------------------------------------------------------


 Maximum index for augmentation-charges         3132 (set IRDMAX)


--------------------------------------------------------------------------------------------------------


 First call to EWALD:  gamma=   0.228
 Maximum number of real-space cells 4x 5x 1
 Maximum number of reciprocal cells 2x 2x 7

    FEWALD:  cpu time    0.0020: real time    0.0018


--------------------------------------- Iteration      1(   1)  ---------------------------------------


    POTLOK:  cpu time    0.1130: real time    0.1279
    SETDIJ:  cpu time    0.0120: real time    0.0122
     EDDAV:  cpu time   14.2598: real time   14.2669
 BZINTS: Fermi energy: 13.527087;128.000000 electrons
         Band energy: -19.055578;  BLOECHL correction: -0.046998
       DOS:  cpu time    0.0220: real time    0.0223
    --------------------------------------------
      LOOP:  cpu time   14.4068: real time   14.4292

 eigenvalue-minimisations  :  3696
 total energy-change (2. order) : 0.1581376E+04  (-0.5528942E+04)
 number of electron     128.0000000 magnetization 
 augmentation part      128.0000000 magnetization 

 Free energy of the ion-electron system (eV)
  ---------------------------------------------------
  alpha Z        PSCENC =       378.09908315
  Ewald energy   TEWEN  =     22731.27163923
  -Hartree energ DENC   =    -30966.93774878
  -exchange      EXHF   =         0.00000000
  -V(xc)+E(xc)   XCENC  =       325.41603597
  PAW double counting   =      5334.45189010    -5139.13784255
  entropy T*S    EENTRO =         0.00000000
  eigenvalues    EBANDS =       -19.05557771
  atomic energy  EATOM  =      8937.26825017
  Solvation  Ediel_sol  =         0.00000000
  ---------------------------------------------------
  free energy    TOTEN  =      1581.37572959 eV

  energy without entropy =     1581.37572959  energy(sigma->0) =     1581.37572959


--------------------------------------------------------------------------------------------------------




--------------------------------------- Iteration      1(   2)  ---------------------------------------


     EDDAV:  cpu time   16.1205: real time   16.1229
 BZINTS: Fermi energy:  3.521861;128.000000 electrons
         Band energy:***********;  BLOECHL correction: -0.063376
       DOS:  cpu time    0.0200: real time    0.0205
    --------------------------------------------
      LOOP:  cpu time   16.1405: real time   16.1434

 eigenvalue-minimisations  :  4472
 total energy-change (2. order) :-0.1398608E+04  (-0.1346496E+04)
 number of electron     128.0000000 magnetization 
 augmentation part      128.0000000 magnetization 

 Free energy of the ion-electron system (eV)
  ---------------------------------------------------
  alpha Z        PSCENC =       378.09908315
  Ewald energy   TEWEN  =     22731.27163923
  -Hartree energ DENC   =    -30966.93774878
  -exchange      EXHF   =         0.00000000
  -V(xc)+E(xc)   XCENC  =       325.41603597
  PAW double counting   =      5334.45189010    -5139.13784255
  entropy T*S    EENTRO =         0.00000000
  eigenvalues    EBANDS =     -1417.66358936
  atomic energy  EATOM  =      8937.26825017
  Solvation  Ediel_sol  =         0.00000000
  ---------------------------------------------------
  free energy    TOTEN  =       182.76771793 eV

  energy without entropy =      182.76771793  energy(sigma->0) =      182.76771793


--------------------------------------------------------------------------------------------------------




--------------------------------------- Iteration      1(   3)  ---------------------------------------


     EDDAV:  cpu time   17.7873: real time   17.7859
 BZINTS: Fermi energy: -2.747526;128.000000 electrons
         Band energy:***********;  BLOECHL correction:  0.000000
       DOS:  cpu time    0.0040: real time    0.0039
    --------------------------------------------
      LOOP:  cpu time   17.7913: real time   17.7898

 eigenvalue-minimisations  :  5036
 total energy-change (2. order) :-0.3555422E+03  (-0.3467247E+03)
 number of electron     128.0000000 magnetization 
 augmentation part      128.0000000 magnetization 

 Free energy of the ion-electron system (eV)
  ---------------------------------------------------
  alpha Z        PSCENC =       378.09908315
  Ewald energy   TEWEN  =     22731.27163923
  -Hartree energ DENC   =    -30966.93774878
  -exchange      EXHF   =         0.00000000
  -V(xc)+E(xc)   XCENC  =       325.41603597
  PAW double counting   =      5334.45189010    -5139.13784255
  entropy T*S    EENTRO =         0.00000000
  eigenvalues    EBANDS =     -1773.20573964
  atomic energy  EATOM  =      8937.26825017
  Solvation  Ediel_sol  =         0.00000000
  ---------------------------------------------------
  free energy    TOTEN  =      -172.77443235 eV

  energy without entropy =     -172.77443235  energy(sigma->0) =     -172.77443235


--------------------------------------------------------------------------------------------------------




--------------------------------------- Iteration      1(   4)  ---------------------------------------


     EDDAV:  cpu time   17.4693: real time   17.4702
 BZINTS: Fermi energy: -4.386421;128.000000 electrons
         Band energy:***********;  BLOECHL correction:  0.000000
       DOS:  cpu time    0.0040: real time    0.0038
    --------------------------------------------
      LOOP:  cpu time   17.4733: real time   17.4740

 eigenvalue-minimisations  :  4768
 total energy-change (2. order) :-0.2470316E+02  (-0.2461458E+02)
 number of electron     128.0000000 magnetization 
 augmentation part      128.0000000 magnetization 

 Free energy of the ion-electron system (eV)
  ---------------------------------------------------
  alpha Z        PSCENC =       378.09908315
  Ewald energy   TEWEN  =     22731.27163923
  -Hartree energ DENC   =    -30966.93774878
  -exchange      EXHF   =         0.00000000
  -V(xc)+E(xc)   XCENC  =       325.41603597
  PAW double counting   =      5334.45189010    -5139.13784255
  entropy T*S    EENTRO =         0.00000000
  eigenvalues    EBANDS =     -1797.90889757
  atomic energy  EATOM  =      8937.26825017
  Solvation  Ediel_sol  =         0.00000000
  ---------------------------------------------------
  free energy    TOTEN  =      -197.47759027 eV

  energy without entropy =     -197.47759027  energy(sigma->0) =     -197.47759027


--------------------------------------------------------------------------------------------------------




--------------------------------------- Iteration      1(   5)  ---------------------------------------


     EDDAV:  cpu time   22.0706: real time   22.0712
 BZINTS: Fermi energy: -4.478327;128.000000 electrons
         Band energy:***********;  BLOECHL correction:  0.000000
       DOS:  cpu time    0.0030: real time    0.0033
    CHARGE:  cpu time    0.5079: real time    0.5071
    MIXING:  cpu time    0.0030: real time    0.0033
    --------------------------------------------
      LOOP:  cpu time   22.5846: real time   22.5848

 eigenvalue-minimisations  :  6344
 total energy-change (2. order) :-0.1257606E+01  (-0.1257038E+01)
 number of electron     127.9999567 magnetization 
 augmentation part       13.6731782 magnetization 

 Broyden mixing:
  rms(total) = 0.37516E+01    rms(broyden)= 0.37511E+01
  rms(prec ) = 0.42603E+01
  weight for this iteration     100.00

 Free energy of the ion-electron system (eV)
  ---------------------------------------------------
  alpha Z        PSCENC =       378.09908315
  Ewald energy   TEWEN  =     22731.27163923
  -Hartree energ DENC   =    -30966.93774878
  -exchange      EXHF   =         0.00000000
  -V(xc)+E(xc)   XCENC  =       325.41603597
  PAW double counting   =      5334.45189010    -5139.13784255
  entropy T*S    EENTRO =         0.00000000
  eigenvalues    EBANDS =     -1799.16650361
  atomic energy  EATOM  =      8937.26825017
  Solvation  Ediel_sol  =         0.00000000
  ---------------------------------------------------
  free energy    TOTEN  =      -198.73519632 eV

  energy without entropy =     -198.73519632  energy(sigma->0) =     -198.73519632


--------------------------------------------------------------------------------------------------------




--------------------------------------- Iteration      1(   6)  ---------------------------------------


    POTLOK:  cpu time    0.1110: real time    0.1130
    SETDIJ:  cpu time    0.0110: real time    0.0113
    EDDIAG:  cpu time    1.5888: real time    1.5886
  RMM-DIIS:  cpu time   13.1550: real time   13.1523
    ORTHCH:  cpu time    0.3210: real time    0.3203
 BZINTS: Fermi energy: -1.000632;128.000000 electrons
         Band energy:***********;  BLOECHL correction: -0.090678
       DOS:  cpu time    0.0220: real time    0.0221
    CHARGE:  cpu time    0.5129: real time    0.5134
    MIXING:  cpu time    0.0030: real time    0.0033
    --------------------------------------------
      LOOP:  cpu time   15.7246: real time   15.7243

 eigenvalue-minimisations  :  4810
 total energy-change (2. order) :-0.6969648E+01  (-0.3939106E+02)
 number of electron     127.9999754 magnetization 
 augmentation part       17.3715523 magnetization 

 Broyden mixing:
  rms(total) = 0.52424E+01    rms(broyden)= 0.52415E+01
  rms(prec ) = 0.81604E+01
  weight for this iteration     100.00

 eigenvalues of (default mixing * dielectric matrix)
  average eigenvalue GAMMA=   0.4082
  0.4082

 Free energy of the ion-electron system (eV)
  ---------------------------------------------------
  alpha Z        PSCENC =       378.09908315
  Ewald energy   TEWEN  =     22731.27163923
  -Hartree energ DENC   =    -31255.57162476
  -exchange      EXHF   =         0.00000000
  -V(xc)+E(xc)   XCENC  =       345.65032708
  PAW double counting   =      5951.81450032    -5769.50929205
  entropy T*S    EENTRO =         0.00000000
  eigenvalues    EBANDS =     -1524.72772771
  atomic energy  EATOM  =      8937.26825017
  Solvation  Ediel_sol  =         0.00000000
  ---------------------------------------------------
  free energy    TOTEN  =      -205.70484457 eV

  energy without entropy =     -205.70484457  energy(sigma->0) =     -205.70484457


--------------------------------------------------------------------------------------------------------




--------------------------------------- Iteration      1(   7)  ---------------------------------------


    POTLOK:  cpu time    0.1060: real time    0.1105
    SETDIJ:  cpu time    0.0120: real time    0.0111
    EDDIAG:  cpu time    1.5818: real time    1.5816
  RMM-DIIS:  cpu time   11.7652: real time   11.7664
    ORTHCH:  cpu time    0.3220: real time    0.3218
 BZINTS: Fermi energy: -1.025477;128.000000 electrons
         Band energy:***********;  BLOECHL correction: -0.159169
       DOS:  cpu time    0.0220: real time    0.0220
    CHARGE:  cpu time    0.5199: real time    0.5199
    MIXING:  cpu time    0.0030: real time    0.0033
    --------------------------------------------
      LOOP:  cpu time   14.3318: real time   14.3367

 eigenvalue-minimisations  :  4259
 total energy-change (2. order) : 0.3340978E+02  (-0.9701115E+01)
 number of electron     127.9999680 magnetization 
 augmentation part       14.3582473 magnetization 

 Broyden mixing:
  rms(total) = 0.21334E+01    rms(broyden)= 0.21321E+01
  rms(prec ) = 0.33190E+01
  weight for this iteration     100.00

 eigenvalues of (default mixing * dielectric matrix)
  average eigenvalue GAMMA=   0.4353
  0.6379  0.2327

 Free energy of the ion-electron system (eV)
  ---------------------------------------------------
  alpha Z        PSCENC =       378.09908315
  Ewald energy   TEWEN  =     22731.27163923
  -Hartree energ DENC   =    -31268.94338875
  -exchange      EXHF   =         0.00000000
  -V(xc)+E(xc)   XCENC  =       340.67193463
  PAW double counting   =      5911.38329573    -5732.04750490
  entropy T*S    EENTRO =         0.00000000
  eigenvalues    EBANDS =     -1469.99837364
  atomic energy  EATOM  =      8937.26825017
  Solvation  Ediel_sol  =         0.00000000
  ---------------------------------------------------
  free energy    TOTEN  =      -172.29506439 eV

  energy without entropy =     -172.29506439  energy(sigma->0) =     -172.29506439


--------------------------------------------------------------------------------------------------------




--------------------------------------- Iteration      1(   8)  ---------------------------------------


    POTLOK:  cpu time    0.1070: real time    0.1106
    SETDIJ:  cpu time    0.0120: real time    0.0112
    EDDIAG:  cpu time    1.5878: real time    1.5885
  RMM-DIIS:  cpu time   11.5242: real time   11.5208
    ORTHCH:  cpu time    0.3200: real time    0.3204
 BZINTS: Fermi energy: -1.820993;128.000000 electrons
         Band energy:***********;  BLOECHL correction:  0.000000
       DOS:  cpu time    0.0040: real time    0.0038
    CHARGE:  cpu time    0.5059: real time    0.5055
    MIXING:  cpu time    0.0040: real time    0.0042
    --------------------------------------------
      LOOP:  cpu time   14.0649: real time   14.0650

 eigenvalue-minimisations  :  4196
 total energy-change (2. order) : 0.1173663E+02  (-0.2253458E+01)
 number of electron     127.9999650 magnetization 
 augmentation part       12.9773390 magnetization 

 Broyden mixing:
  rms(total) = 0.15243E+01    rms(broyden)= 0.15241E+01
  rms(prec ) = 0.20155E+01
  weight for this iteration     100.00

 eigenvalues of (default mixing * dielectric matrix)
  average eigenvalue GAMMA=   0.4444
  0.7496  0.2919  0.2919

 Free energy of the ion-electron system (eV)
  ---------------------------------------------------
  alpha Z        PSCENC =       378.09908315
  Ewald energy   TEWEN  =     22731.27163923
  -Hartree energ DENC   =    -31261.28766379
  -exchange      EXHF   =         0.00000000
  -V(xc)+E(xc)   XCENC  =       338.34117765
  PAW double counting   =      5936.10801038    -5760.04011340
  entropy T*S    EENTRO =         0.00000000
  eigenvalues    EBANDS =     -1460.31881745
  atomic energy  EATOM  =      8937.26825017
  Solvation  Ediel_sol  =         0.00000000
  ---------------------------------------------------
  free energy    TOTEN  =      -160.55843406 eV

  energy without entropy =     -160.55843406  energy(sigma->0) =     -160.55843406


--------------------------------------------------------------------------------------------------------




--------------------------------------- Iteration      1(   9)  ---------------------------------------


    POTLOK:  cpu time    0.1070: real time    0.1108
    SETDIJ:  cpu time    0.0110: real time    0.0113
    EDDIAG:  cpu time    1.5858: real time    1.5858
  RMM-DIIS:  cpu time   13.0710: real time   13.0675
    ORTHCH:  cpu time    0.3210: real time    0.3213
 BZINTS: Fermi energy: -1.608164;128.000000 electrons
         Band energy:***********;  BLOECHL correction:  0.000000
       DOS:  cpu time    0.0040: real time    0.0038
    CHARGE:  cpu time    0.5059: real time    0.5059
    MIXING:  cpu time    0.0040: real time    0.0036
    --------------------------------------------
      LOOP:  cpu time   15.6096: real time   15.6099

 eigenvalue-minimisations  :  4743
 total energy-change (2. order) : 0.4333005E+01  (-0.2014043E+00)
 number of electron     127.9999652 magnetization 
 augmentation part       13.0909053 magnetization 

 Broyden mixing:
  rms(total) = 0.12594E+01    rms(broyden)= 0.12594E+01
  rms(prec ) = 0.17678E+01
  weight for this iteration     100.00

 eigenvalues of (default mixing * dielectric matrix)
  average eigenvalue GAMMA=   0.9198
  1.9098  1.0100  0.2580  0.5013

 Free energy of the ion-electron system (eV)
  ---------------------------------------------------
  alpha Z        PSCENC =       378.09908315
  Ewald energy   TEWEN  =     22731.27163923
  -Hartree energ DENC   =    -31285.82607589
  -exchange      EXHF   =         0.00000000
  -V(xc)+E(xc)   XCENC  =       339.34264194
  PAW double counting   =      5993.56448004    -5818.94850816
  entropy T*S    EENTRO =         0.00000000
  eigenvalues    EBANDS =     -1430.99693942
  atomic energy  EATOM  =      8937.26825017
  Solvation  Ediel_sol  =         0.00000000
  ---------------------------------------------------
  free energy    TOTEN  =      -156.22542894 eV

  energy without entropy =     -156.22542894  energy(sigma->0) =     -156.22542894


--------------------------------------------------------------------------------------------------------




--------------------------------------- Iteration      1(  10)  ---------------------------------------


    POTLOK:  cpu time    0.1050: real time    0.1093
    SETDIJ:  cpu time    0.0110: real time    0.0111
    EDDIAG:  cpu time    1.5898: real time    1.5896
  RMM-DIIS:  cpu time   11.8982: real time   11.8952
    ORTHCH:  cpu time    0.3200: real time    0.3204
 BZINTS: Fermi energy: -0.666422;128.000000 electrons
         Band energy:***********;  BLOECHL correction: -0.030561
       DOS:  cpu time    0.0220: real time    0.0220
    CHARGE:  cpu time    0.5139: real time    0.5138
    MIXING:  cpu time    0.0040: real time    0.0038
    --------------------------------------------
      LOOP:  cpu time   14.4638: real time   14.4652

 eigenvalue-minimisations  :  4333
 total energy-change (2. order) :-0.1412329E+01  (-0.3911480E+01)
 number of electron     127.9999722 magnetization 
 augmentation part       15.3005460 magnetization 

 Broyden mixing:
  rms(total) = 0.30824E+01    rms(broyden)= 0.30817E+01
  rms(prec ) = 0.43266E+01
  weight for this iteration     100.00

 eigenvalues of (default mixing * dielectric matrix)
  average eigenvalue GAMMA=   0.7370
  1.8983  1.0143  0.5038  0.2578  0.0111

 Free energy of the ion-electron system (eV)
  ---------------------------------------------------
  alpha Z        PSCENC =       378.09908315
  Ewald energy   TEWEN  =     22731.27163923
  -Hartree energ DENC   =    -31352.38052144
  -exchange      EXHF   =         0.00000000
  -V(xc)+E(xc)   XCENC  =       342.55848051
  PAW double counting   =      6165.20539707    -5994.45917216
  entropy T*S    EENTRO =         0.00000000
  eigenvalues    EBANDS =     -1365.20091433
  atomic energy  EATOM  =      8937.26825017
  Solvation  Ediel_sol  =         0.00000000
  ---------------------------------------------------
  free energy    TOTEN  =      -157.63775779 eV

  energy without entropy =     -157.63775779  energy(sigma->0) =     -157.63775779


--------------------------------------------------------------------------------------------------------




--------------------------------------- Iteration      1(  11)  ---------------------------------------


    POTLOK:  cpu time    0.1070: real time    0.1113
    SETDIJ:  cpu time    0.0120: real time    0.0111
    EDDIAG:  cpu time    1.5908: real time    1.5914
  RMM-DIIS:  cpu time   15.4137: real time   15.4097
    ORTHCH:  cpu time    0.3250: real time    0.3246
 BZINTS: Fermi energy: -0.601999;128.000000 electrons
         Band energy:***********;  BLOECHL correction: -0.023776
       DOS:  cpu time    0.0200: real time    0.0207
    CHARGE:  cpu time    0.5229: real time    0.5222
    MIXING:  cpu time    0.0040: real time    0.0040
    --------------------------------------------
      LOOP:  cpu time   17.9953: real time   17.9951

 eigenvalue-minimisations  :  5589
 total energy-change (2. order) : 0.1318182E+01  (-0.3431659E+00)
 number of electron     127.9999723 magnetization 
 augmentation part       15.3027730 magnetization 

 Broyden mixing:
  rms(total) = 0.30019E+01    rms(broyden)= 0.30019E+01
  rms(prec ) = 0.41558E+01
  weight for this iteration     100.00

 eigenvalues of (default mixing * dielectric matrix)
  average eigenvalue GAMMA=   0.6646
  2.0240  0.9712  0.5080  0.2586  0.1341  0.0915

 Free energy of the ion-electron system (eV)
  ---------------------------------------------------
  alpha Z        PSCENC =       378.09908315
  Ewald energy   TEWEN  =     22731.27163923
  -Hartree energ DENC   =    -31350.24838855
  -exchange      EXHF   =         0.00000000
  -V(xc)+E(xc)   XCENC  =       342.49697051
  PAW double counting   =      6164.28764486    -5993.58393458
  entropy T*S    EENTRO =         0.00000000
  eigenvalues    EBANDS =     -1365.91084024
  atomic energy  EATOM  =      8937.26825017
  Solvation  Ediel_sol  =         0.00000000
  ---------------------------------------------------
  free energy    TOTEN  =      -156.31957544 eV

  energy without entropy =     -156.31957544  energy(sigma->0) =     -156.31957544


--------------------------------------------------------------------------------------------------------




--------------------------------------- Iteration      1(  12)  ---------------------------------------


    POTLOK:  cpu time    0.1070: real time    0.1088
    SETDIJ:  cpu time    0.0120: real time    0.0113
    EDDIAG:  cpu time    1.5818: real time    1.5820
  RMM-DIIS:  cpu time   14.8837: real time   14.8796
    ORTHCH:  cpu time    0.3229: real time    0.3228
 BZINTS: Fermi energy: -0.654502;128.000000 electrons
         Band energy:***********;  BLOECHL correction: -0.026356
       DOS:  cpu time    0.0210: real time    0.0217
    CHARGE:  cpu time    0.5239: real time    0.5238
    MIXING:  cpu time    0.0050: real time    0.0042
    --------------------------------------------
      LOOP:  cpu time   17.4573: real time   17.4543

 eigenvalue-minimisations  :  5446
 total energy-change (2. order) :-0.2496839E+01  (-0.1449347E+00)
 number of electron     127.9999728 magnetization 
 augmentation part       15.7025869 magnetization 

 Broyden mixing:
  rms(total) = 0.33854E+01    rms(broyden)= 0.33854E+01
  rms(prec ) = 0.46827E+01
  weight for this iteration     100.00

 eigenvalues of (default mixing * dielectric matrix)
  average eigenvalue GAMMA=   0.5776
  2.0311  0.9687  0.5086  0.2587  0.1089  0.0836  0.0836

 Free energy of the ion-electron system (eV)
  ---------------------------------------------------
  alpha Z        PSCENC =       378.09908315
  Ewald energy   TEWEN  =     22731.27163923
  -Hartree energ DENC   =    -31362.58150005
  -exchange      EXHF   =         0.00000000
  -V(xc)+E(xc)   XCENC  =       342.92674973
  PAW double counting   =      6177.98422349    -6007.52922977
  entropy T*S    EENTRO =         0.00000000
  eigenvalues    EBANDS =     -1356.25562999
  atomic energy  EATOM  =      8937.26825017
  Solvation  Ediel_sol  =         0.00000000
  ---------------------------------------------------
  free energy    TOTEN  =      -158.81641404 eV

  energy without entropy =     -158.81641404  energy(sigma->0) =     -158.81641404


--------------------------------------------------------------------------------------------------------




--------------------------------------- Iteration      1(  13)  ---------------------------------------


    POTLOK:  cpu time    0.1080: real time    0.1132
    SETDIJ:  cpu time    0.0110: real time    0.0116
    EDDIAG:  cpu time    1.5818: real time    1.5810
  RMM-DIIS:  cpu time   16.4875: real time   16.4830
    ORTHCH:  cpu time    0.3210: real time    0.3210
 BZINTS: Fermi energy: -0.666015;128.000000 electrons
         Band energy:***********;  BLOECHL correction: -0.023044
       DOS:  cpu time    0.0220: real time    0.0217
    CHARGE:  cpu time    0.5149: real time    0.5155
    MIXING:  cpu time    0.0050: real time    0.0044
    --------------------------------------------
      LOOP:  cpu time   19.0511: real time   19.0513

 eigenvalue-minimisations  :  6101
 total energy-change (2. order) :-0.3059537E+00  (-0.2879167E-01)
 number of electron     127.9999729 magnetization 
 augmentation part       15.7770161 magnetization 

 Broyden mixing:
  rms(total) = 0.34548E+01    rms(broyden)= 0.34548E+01
  rms(prec ) = 0.48109E+01
  weight for this iteration     100.00

 eigenvalues of (default mixing * dielectric matrix)
  average eigenvalue GAMMA=   0.5939
  2.0006  0.9880  0.5145  0.3300  0.3300  0.2586  0.1648  0.1648

 Free energy of the ion-electron system (eV)
  ---------------------------------------------------
  alpha Z        PSCENC =       378.09908315
  Ewald energy   TEWEN  =     22731.27163923
  -Hartree energ DENC   =    -31360.72448336
  -exchange      EXHF   =         0.00000000
  -V(xc)+E(xc)   XCENC  =       342.88361899
  PAW double counting   =      6178.11485919    -6007.65128238
  entropy T*S    EENTRO =         0.00000000
  eigenvalues    EBANDS =     -1358.38405272
  atomic energy  EATOM  =      8937.26825017
  Solvation  Ediel_sol  =         0.00000000
  ---------------------------------------------------
  free energy    TOTEN  =      -159.12236773 eV

  energy without entropy =     -159.12236773  energy(sigma->0) =     -159.12236773


--------------------------------------------------------------------------------------------------------




--------------------------------------- Iteration      1(  14)  ---------------------------------------


    POTLOK:  cpu time    0.1070: real time    0.1105
    SETDIJ:  cpu time    0.0110: real time    0.0111
    EDDIAG:  cpu time    1.5798: real time    1.5800
  RMM-DIIS:  cpu time   13.7809: real time   13.7769
    ORTHCH:  cpu time    0.3190: real time    0.3191
 BZINTS: Fermi energy: -0.675765;128.000000 electrons
         Band energy:***********;  BLOECHL correction: -0.028799
       DOS:  cpu time    0.0220: real time    0.0218
    CHARGE:  cpu time    0.5179: real time    0.5182
    MIXING:  cpu time    0.0050: real time    0.0046
    --------------------------------------------
      LOOP:  cpu time   16.3425: real time   16.3423

 eigenvalue-minimisations  :  5006
 total energy-change (2. order) : 0.1224903E+01  (-0.1385667E-01)
 number of electron     127.9999727 magnetization 
 augmentation part       15.6995816 magnetization 

 Broyden mixing:
  rms(total) = 0.33468E+01    rms(broyden)= 0.33468E+01
  rms(prec ) = 0.46351E+01
  weight for this iteration     100.00

 eigenvalues of (default mixing * dielectric matrix)
  average eigenvalue GAMMA=   0.6480
  2.0058  0.9546  0.7075  0.7075  0.5155  0.2340  0.2340  0.2572  0.2158

 Free energy of the ion-electron system (eV)
  ---------------------------------------------------
  alpha Z        PSCENC =       378.09908315
  Ewald energy   TEWEN  =     22731.27163923
  -Hartree energ DENC   =    -31349.43977907
  -exchange      EXHF   =         0.00000000
  -V(xc)+E(xc)   XCENC  =       342.64111480
  PAW double counting   =      6170.98383507    -6000.34275218
  entropy T*S    EENTRO =         0.00000000
  eigenvalues    EBANDS =     -1368.37885639
  atomic energy  EATOM  =      8937.26825017
  Solvation  Ediel_sol  =         0.00000000
  ---------------------------------------------------
  free energy    TOTEN  =      -157.89746522 eV

  energy without entropy =     -157.89746522  energy(sigma->0) =     -157.89746522


--------------------------------------------------------------------------------------------------------




--------------------------------------- Iteration      1(  15)  ---------------------------------------


    POTLOK:  cpu time    0.1100: real time    0.1134
    SETDIJ:  cpu time    0.0110: real time    0.0111
    EDDIAG:  cpu time    1.5788: real time    1.5784
  RMM-DIIS:  cpu time   11.6182: real time   11.6147
    ORTHCH:  cpu time    0.3200: real time    0.3207
 BZINTS: Fermi energy: -0.640533;128.000000 electrons
         Band energy:***********;  BLOECHL correction: -0.025624
       DOS:  cpu time    0.0210: real time    0.0213
    CHARGE:  cpu time    0.5169: real time    0.5163
    MIXING:  cpu time    0.0050: real time    0.0048
    --------------------------------------------
      LOOP:  cpu time   14.1808: real time   14.1806

 eigenvalue-minimisations  :  4272
 total energy-change (2. order) : 0.3346384E+01  (-0.2093182E+00)
 number of electron     127.9999719 magnetization 
 augmentation part       15.3468972 magnetization 

 Broyden mixing:
  rms(total) = 0.29503E+01    rms(broyden)= 0.29503E+01
  rms(prec ) = 0.42079E+01
  weight for this iteration     100.00

 eigenvalues of (default mixing * dielectric matrix)
  average eigenvalue GAMMA=   0.6939
  1.9339  1.0404  1.0404  0.9796  0.5132  0.3530  0.3530  0.2586  0.2333  0.2333

 Free energy of the ion-electron system (eV)
  ---------------------------------------------------
  alpha Z        PSCENC =       378.09908315
  Ewald energy   TEWEN  =     22731.27163923
  -Hartree energ DENC   =    -31314.46463940
  -exchange      EXHF   =         0.00000000
  -V(xc)+E(xc)   XCENC  =       341.76753253
  PAW double counting   =      6157.97109514    -5986.95978188
  entropy T*S    EENTRO =         0.00000000
  eigenvalues    EBANDS =     -1399.50425970
  atomic energy  EATOM  =      8937.26825017
  Solvation  Ediel_sol  =         0.00000000
  ---------------------------------------------------
  free energy    TOTEN  =      -154.55108076 eV

  energy without entropy =     -154.55108076  energy(sigma->0) =     -154.55108076


--------------------------------------------------------------------------------------------------------




--------------------------------------- Iteration      1(  16)  ---------------------------------------


    POTLOK:  cpu time    0.1110: real time    0.1158
    SETDIJ:  cpu time    0.0120: real time    0.0112
    EDDIAG:  cpu time    1.5728: real time    1.5732
  RMM-DIIS:  cpu time   11.7722: real time   11.7689
    ORTHCH:  cpu time    0.3200: real time    0.3203
 BZINTS: Fermi energy: -0.727332;128.000000 electrons
         Band energy:***********;  BLOECHL correction: -0.010727
       DOS:  cpu time    0.0210: real time    0.0212
    CHARGE:  cpu time    0.5129: real time    0.5129
    MIXING:  cpu time    0.0050: real time    0.0051
    --------------------------------------------
      LOOP:  cpu time   14.3268: real time   14.3286

 eigenvalue-minimisations  :  4292
 total energy-change (2. order) : 0.4276567E+01  (-0.1630041E+01)
 number of electron     127.9999682 magnetization 
 augmentation part       13.3571121 magnetization 

 Broyden mixing:
  rms(total) = 0.83576E+00    rms(broyden)= 0.83347E+00
  rms(prec ) = 0.93264E+00
  weight for this iteration     100.00

 eigenvalues of (default mixing * dielectric matrix)
  average eigenvalue GAMMA=   0.6486
  1.9158  1.0350  1.0350  1.0089  0.5115  0.3691  0.3691  0.2578  0.2290  0.2290
  0.1741

 Free energy of the ion-electron system (eV)
  ---------------------------------------------------
  alpha Z        PSCENC =       378.09908315
  Ewald energy   TEWEN  =     22731.27163923
  -Hartree energ DENC   =    -31226.34661358
  -exchange      EXHF   =         0.00000000
  -V(xc)+E(xc)   XCENC  =       339.40370433
  PAW double counting   =      6120.23147759    -5948.20571496
  entropy T*S    EENTRO =         0.00000000
  eigenvalues    EBANDS =     -1481.99634017
  atomic energy  EATOM  =      8937.26825017
  Solvation  Ediel_sol  =         0.00000000
  ---------------------------------------------------
  free energy    TOTEN  =      -150.27451423 eV

  energy without entropy =     -150.27451423  energy(sigma->0) =     -150.27451423


--------------------------------------------------------------------------------------------------------




--------------------------------------- Iteration      1(  17)  ---------------------------------------


    POTLOK:  cpu time    0.1110: real time    0.1139
    SETDIJ:  cpu time    0.0110: real time    0.0112
    EDDIAG:  cpu time    1.5818: real time    1.5811
  RMM-DIIS:  cpu time   13.6189: real time   13.6151
    ORTHCH:  cpu time    0.3190: real time    0.3198
 BZINTS: Fermi energy: -0.744885;128.000000 electrons
         Band energy:***********;  BLOECHL correction: -0.011579
       DOS:  cpu time    0.0210: real time    0.0211
    CHARGE:  cpu time    0.5129: real time    0.5129
    MIXING:  cpu time    0.0060: real time    0.0053
    --------------------------------------------
      LOOP:  cpu time   16.1815: real time   16.1804

 eigenvalue-minimisations  :  5019
 total energy-change (2. order) : 0.1467702E+00  (-0.2174208E+00)
 number of electron     127.9999679 magnetization 
 augmentation part       13.3700230 magnetization 

 Broyden mixing:
  rms(total) = 0.78591E+00    rms(broyden)= 0.78580E+00
  rms(prec ) = 0.87170E+00
  weight for this iteration     100.00

 eigenvalues of (default mixing * dielectric matrix)
  average eigenvalue GAMMA=   0.6306
  1.9509  0.9876  0.9876  0.9700  0.5175  0.3961  0.3961  0.3105  0.3105  0.2589
  0.2406  0.2406

 Free energy of the ion-electron system (eV)
  ---------------------------------------------------
  alpha Z        PSCENC =       378.09908315
  Ewald energy   TEWEN  =     22731.27163923
  -Hartree energ DENC   =    -31229.56573167
  -exchange      EXHF   =         0.00000000
  -V(xc)+E(xc)   XCENC  =       339.41027002
  PAW double counting   =      6120.35819095    -5948.37645421
  entropy T*S    EENTRO =         0.00000000
  eigenvalues    EBANDS =     -1478.59299165
  atomic energy  EATOM  =      8937.26825017
  Solvation  Ediel_sol  =         0.00000000
  ---------------------------------------------------
  free energy    TOTEN  =      -150.12774401 eV

  energy without entropy =     -150.12774401  energy(sigma->0) =     -150.12774401


--------------------------------------------------------------------------------------------------------




--------------------------------------- Iteration      1(  18)  ---------------------------------------


    POTLOK:  cpu time    0.1090: real time    0.1130
    SETDIJ:  cpu time    0.0110: real time    0.0111
    EDDIAG:  cpu time    1.5718: real time    1.5714
  RMM-DIIS:  cpu time   12.9390: real time   12.9350
    ORTHCH:  cpu time    0.3200: real time    0.3201
 BZINTS: Fermi energy: -0.733655;128.000000 electrons
         Band energy:***********;  BLOECHL correction: -0.008738
       DOS:  cpu time    0.0210: real time    0.0217
    CHARGE:  cpu time    0.5159: real time    0.5158
    MIXING:  cpu time    0.0060: real time    0.0055
    --------------------------------------------
      LOOP:  cpu time   15.4936: real time   15.4937

 eigenvalue-minimisations  :  4730
 total energy-change (2. order) : 0.3211519E+00  (-0.1522981E-01)
 number of electron     127.9999682 magnetization 
 augmentation part       13.3941807 magnetization 

 Broyden mixing:
  rms(total) = 0.74496E+00    rms(broyden)= 0.74495E+00
  rms(prec ) = 0.82102E+00
  weight for this iteration     100.00

 eigenvalues of (default mixing * dielectric matrix)
  average eigenvalue GAMMA=   0.6033
  1.9450  1.0068  1.0068  0.9691  0.5204  0.4105  0.4105  0.3055  0.3055  0.2592
  0.2458  0.2458  0.2117

 Free energy of the ion-electron system (eV)
  ---------------------------------------------------
  alpha Z        PSCENC =       378.09908315
  Ewald energy   TEWEN  =     22731.27163923
  -Hartree energ DENC   =    -31240.66326515
  -exchange      EXHF   =         0.00000000
  -V(xc)+E(xc)   XCENC  =       339.70410133
  PAW double counting   =      6128.31292676    -5956.53222335
  entropy T*S    EENTRO =         0.00000000
  eigenvalues    EBANDS =     -1467.26710423
  atomic energy  EATOM  =      8937.26825017
  Solvation  Ediel_sol  =         0.00000000
  ---------------------------------------------------
  free energy    TOTEN  =      -149.80659208 eV

  energy without entropy =     -149.80659208  energy(sigma->0) =     -149.80659208


--------------------------------------------------------------------------------------------------------




--------------------------------------- Iteration      1(  19)  ---------------------------------------


    POTLOK:  cpu time    0.1100: real time    0.1125
    SETDIJ:  cpu time    0.0110: real time    0.0112
    EDDIAG:  cpu time    1.5718: real time    1.5715
  RMM-DIIS:  cpu time   14.2698: real time   14.2661
    ORTHCH:  cpu time    0.3190: real time    0.3194
 BZINTS: Fermi energy: -0.742010;128.000000 electrons
         Band energy:***********;  BLOECHL correction: -0.011212
       DOS:  cpu time    0.0190: real time    0.0195
    CHARGE:  cpu time    0.5129: real time    0.5125
    MIXING:  cpu time    0.0060: real time    0.0058
    --------------------------------------------
      LOOP:  cpu time   16.8194: real time   16.8184

 eigenvalue-minimisations  :  5163
 total energy-change (2. order) : 0.1007600E+00  (-0.3353812E-02)
 number of electron     127.9999682 magnetization 
 augmentation part       13.4171680 magnetization 

 Broyden mixing:
  rms(total) = 0.70564E+00    rms(broyden)= 0.70564E+00
  rms(prec ) = 0.77915E+00
  weight for this iteration     100.00

 eigenvalues of (default mixing * dielectric matrix)
  average eigenvalue GAMMA=   0.6957
  1.9805  1.0755  1.0755  0.9399  0.9399  0.9615  0.5200  0.4144  0.4144  0.3320
  0.3320  0.2475  0.2475  0.2598

 Free energy of the ion-electron system (eV)
  ---------------------------------------------------
  alpha Z        PSCENC =       378.09908315
  Ewald energy   TEWEN  =     22731.27163923
  -Hartree energ DENC   =    -31242.05765948
  -exchange      EXHF   =         0.00000000
  -V(xc)+E(xc)   XCENC  =       339.75275163
  PAW double counting   =      6129.32181122    -5957.54198391
  entropy T*S    EENTRO =         0.00000000
  eigenvalues    EBANDS =     -1465.81972405
  atomic energy  EATOM  =      8937.26825017
  Solvation  Ediel_sol  =         0.00000000
  ---------------------------------------------------
  free energy    TOTEN  =      -149.70583204 eV

  energy without entropy =     -149.70583204  energy(sigma->0) =     -149.70583204


--------------------------------------------------------------------------------------------------------




--------------------------------------- Iteration      1(  20)  ---------------------------------------


    POTLOK:  cpu time    0.1100: real time    0.1139
    SETDIJ:  cpu time    0.0110: real time    0.0112
    EDDIAG:  cpu time    1.5728: real time    1.5719
  RMM-DIIS:  cpu time   11.5512: real time   11.5488
    ORTHCH:  cpu time    0.3200: real time    0.3205
 BZINTS: Fermi energy: -0.754777;128.000000 electrons
         Band energy:***********;  BLOECHL correction: -0.009969
       DOS:  cpu time    0.0210: real time    0.0206
    CHARGE:  cpu time    0.5079: real time    0.5078
    MIXING:  cpu time    0.0070: real time    0.0061
    --------------------------------------------
      LOOP:  cpu time   14.1009: real time   14.1008

 eigenvalue-minimisations  :  4232
 total energy-change (2. order) : 0.4479962E+00  (-0.2317177E-01)
 number of electron     127.9999686 magnetization 
 augmentation part       13.5274445 magnetization 

 Broyden mixing:
  rms(total) = 0.58992E+00    rms(broyden)= 0.58987E+00
  rms(prec ) = 0.68593E+00
  weight for this iteration     100.00

 eigenvalues of (default mixing * dielectric matrix)
  average eigenvalue GAMMA=   0.7130
  1.9699  1.1258  1.1258  1.0992  1.0992  0.9462  0.5002  0.5002  0.5238  0.3829
  0.3829  0.2456  0.2456  0.2604  0.2874

 Free energy of the ion-electron system (eV)
  ---------------------------------------------------
  alpha Z        PSCENC =       378.09908315
  Ewald energy   TEWEN  =     22731.27163923
  -Hartree energ DENC   =    -31253.18779886
  -exchange      EXHF   =         0.00000000
  -V(xc)+E(xc)   XCENC  =       339.94174615
  PAW double counting   =      6137.00991338    -5965.36198723
  entropy T*S    EENTRO =         0.00000000
  eigenvalues    EBANDS =     -1454.29868185
  atomic energy  EATOM  =      8937.26825017
  Solvation  Ediel_sol  =         0.00000000
  ---------------------------------------------------
  free energy    TOTEN  =      -149.25783586 eV

  energy without entropy =     -149.25783586  energy(sigma->0) =     -149.25783586


--------------------------------------------------------------------------------------------------------




--------------------------------------- Iteration      1(  21)  ---------------------------------------


    POTLOK:  cpu time    0.1080: real time    0.1133
    SETDIJ:  cpu time    0.0110: real time    0.0112
    EDDIAG:  cpu time    1.5728: real time    1.5721
  RMM-DIIS:  cpu time   11.8362: real time   11.8331
    ORTHCH:  cpu time    0.3429: real time    0.3426
 BZINTS: Fermi energy: -0.812733;128.000000 electrons
         Band energy:***********;  BLOECHL correction: -0.012810
       DOS:  cpu time    0.0200: real time    0.0200
    CHARGE:  cpu time    0.5079: real time    0.5078
    MIXING:  cpu time    0.0060: real time    0.0064
    --------------------------------------------
      LOOP:  cpu time   14.4048: real time   14.4065

 eigenvalue-minimisations  :  4314
 total energy-change (2. order) :-0.4236876E-01  (-0.5665491E-01)
 number of electron     127.9999671 magnetization 
 augmentation part       13.4068537 magnetization 

 Broyden mixing:
  rms(total) = 0.59201E+00    rms(broyden)= 0.59193E+00
  rms(prec ) = 0.78726E+00
  weight for this iteration     100.00

 eigenvalues of (default mixing * dielectric matrix)
  average eigenvalue GAMMA=   0.7305
  2.2506  1.1936  1.1936  0.9700  0.9700  0.8171  0.8171  0.5685  0.5044  0.5044
  0.4214  0.4214  0.2459  0.2459  0.2601  0.3044

 Free energy of the ion-electron system (eV)
  ---------------------------------------------------
  alpha Z        PSCENC =       378.09908315
  Ewald energy   TEWEN  =     22731.27163923
  -Hartree energ DENC   =    -31243.46220146
  -exchange      EXHF   =         0.00000000
  -V(xc)+E(xc)   XCENC  =       339.57414966
  PAW double counting   =      6138.03197247    -5966.39104413
  entropy T*S    EENTRO =         0.00000000
  eigenvalues    EBANDS =     -1463.69205372
  atomic energy  EATOM  =      8937.26825017
  Solvation  Ediel_sol  =         0.00000000
  ---------------------------------------------------
  free energy    TOTEN  =      -149.30020462 eV

  energy without entropy =     -149.30020462  energy(sigma->0) =     -149.30020462


--------------------------------------------------------------------------------------------------------




--------------------------------------- Iteration      1(  22)  ---------------------------------------


    POTLOK:  cpu time    0.1090: real time    0.1134
    SETDIJ:  cpu time    0.0120: real time    0.0111
    EDDIAG:  cpu time    1.5748: real time    1.5748
  RMM-DIIS:  cpu time   11.4063: real time   11.4028
    ORTHCH:  cpu time    0.3399: real time    0.3404
 BZINTS: Fermi energy: -0.749745;128.000000 electrons
         Band energy:***********;  BLOECHL correction: -0.019718
       DOS:  cpu time    0.0200: real time    0.0203
    CHARGE:  cpu time    0.5159: real time    0.5148
    MIXING:  cpu time    0.0060: real time    0.0066
    --------------------------------------------
      LOOP:  cpu time   13.9839: real time   13.9841

 eigenvalue-minimisations  :  4200
 total energy-change (2. order) : 0.3457533E+00  (-0.1451754E+00)
 number of electron     127.9999692 magnetization 
 augmentation part       13.9262138 magnetization 

 Broyden mixing:
  rms(total) = 0.73843E+00    rms(broyden)= 0.73776E+00
  rms(prec ) = 0.11290E+01
  weight for this iteration     100.00

 eigenvalues of (default mixing * dielectric matrix)
  average eigenvalue GAMMA=   0.6925
  2.2633  1.1869  1.1869  1.0006  1.0006  0.7867  0.7867  0.5896  0.5017  0.5017
  0.4207  0.4207  0.2459  0.2459  0.2601  0.3093  0.0648

 Free energy of the ion-electron system (eV)
  ---------------------------------------------------
  alpha Z        PSCENC =       378.09908315
  Ewald energy   TEWEN  =     22731.27163923
  -Hartree energ DENC   =    -31279.83566086
  -exchange      EXHF   =         0.00000000
  -V(xc)+E(xc)   XCENC  =       340.31267900
  PAW double counting   =      6164.12143233    -5993.35160408
  entropy T*S    EENTRO =         0.00000000
  eigenvalues    EBANDS =     -1426.84027029
  atomic energy  EATOM  =      8937.26825017
  Solvation  Ediel_sol  =         0.00000000
  ---------------------------------------------------
  free energy    TOTEN  =      -148.95445136 eV

  energy without entropy =     -148.95445136  energy(sigma->0) =     -148.95445136


--------------------------------------------------------------------------------------------------------




--------------------------------------- Iteration      1(  23)  ---------------------------------------


    POTLOK:  cpu time    0.1100: real time    0.1130
    SETDIJ:  cpu time    0.0110: real time    0.0111
    EDDIAG:  cpu time    1.5768: real time    1.5765
  RMM-DIIS:  cpu time   13.0600: real time   13.0560
    ORTHCH:  cpu time    0.3409: real time    0.3409
 BZINTS: Fermi energy: -0.760090;128.000000 electrons
         Band energy:***********;  BLOECHL correction: -0.012177
       DOS:  cpu time    0.0200: real time    0.0207
    CHARGE:  cpu time    0.5159: real time    0.5158
    MIXING:  cpu time    0.0070: real time    0.0069
    --------------------------------------------
      LOOP:  cpu time   15.6416: real time   15.6409

 eigenvalue-minimisations  :  4805
 total energy-change (2. order) : 0.1102283E+00  (-0.1392127E-01)
 number of electron     127.9999688 magnetization 
 augmentation part       13.7531540 magnetization 

 Broyden mixing:
  rms(total) = 0.47793E+00    rms(broyden)= 0.47792E+00
  rms(prec ) = 0.72066E+00
  weight for this iteration     100.00

 eigenvalues of (default mixing * dielectric matrix)
  average eigenvalue GAMMA=   0.6738
  2.2911  1.1772  1.1772  0.9835  0.9835  0.8379  0.8379  0.5977  0.4777  0.4777
  0.4248  0.4248  0.2458  0.2458  0.3075  0.2601  0.1894  0.1894

 Free energy of the ion-electron system (eV)
[...]
     43      -4.9517      2.00000
     44      -4.8197      2.00000
     45      -4.6228      2.00000
     46      -4.5818      2.00000
     47      -4.5081      2.00000
     48      -4.1800      2.00000
     49      -4.1074      2.00000
     50      -3.7313      2.00000
     51      -3.6000      2.00000
     52      -3.5099      2.00000
     53      -3.0292      2.00000
     54      -2.8752      2.00000
     55      -2.7480      2.00000
     56      -2.6859      2.00000
     57      -2.2999      2.00000
     58      -2.1424      2.00000
     59      -1.8793      2.00000
     60      -1.3874      2.00000
     61      -1.2514      2.00000
     62      -0.8693      2.00000
     63      -0.7570      0.00000
     64      -0.7071      0.00000
     65      -0.4632      0.00000
     66      -0.3796      0.00000
     67      -0.1967      0.00000
     68       0.7155      0.00000
     69       0.7591      0.00000
     70       0.7688      0.00000
     71       1.4436      0.00000
     72       1.8603      0.00000
     73       2.3341      0.00000
     74       3.1665      0.00000
     75       3.5683      0.00000
     76       3.5860      0.00000

 k-point    22 :       0.1429    0.5000    0.0000
  band No.  band energies     occupation 
      1     -36.5977      2.00000
      2     -35.2628      2.00000
      3     -34.2997      2.00000
      4     -33.3905      2.00000
      5     -20.3869      2.00000
      6     -19.7754      2.00000
      7     -19.6186      2.00000
      8     -19.1781      2.00000
      9     -19.1139      2.00000
     10     -18.6623      2.00000
     11     -18.5395      2.00000
     12     -18.4532      2.00000
     13     -18.4314      2.00000
     14     -18.1731      2.00000
     15     -18.1051      2.00000
     16     -17.6060      2.00000
     17     -17.3901      2.00000
     18     -17.2333      2.00000
     19     -17.1308      2.00000
     20     -17.0701      2.00000
     21     -16.5894      2.00000
     22     -16.4355      2.00000
     23     -16.2302      2.00000
     24     -16.0861      2.00000
     25     -15.9477      2.00000
     26     -15.4786      2.00000
     27     -15.4673      2.00000
     28     -15.0767      2.00000
     29      -7.6788      2.00000
     30      -6.9796      2.00000
     31      -6.8230      2.00000
     32      -6.7160      2.00000
     33      -6.6847      2.00000
     34      -6.6170      2.00000
     35      -6.3176      2.00000
     36      -5.9871      2.00000
     37      -5.9640      2.00000
     38      -5.7671      2.00000
     39      -5.5609      2.00000
     40      -5.4824      2.00000
     41      -5.1695      2.00000
     42      -5.0840      2.00000
     43      -4.9939      2.00000
     44      -4.8654      2.00000
     45      -4.6892      2.00000
     46      -4.4727      2.00000
     47      -4.3960      2.00000
     48      -4.2005      2.00000
     49      -4.1504      2.00000
     50      -3.7338      2.00000
     51      -3.6940      2.00000
     52      -3.5118      2.00000
     53      -3.0737      2.00000
     54      -2.9378      2.00000
     55      -2.7956      2.00000
     56      -2.6140      2.00000
     57      -2.2897      2.00000
     58      -2.0799      2.00000
     59      -1.9054      2.00000
     60      -1.5125      2.00000
     61      -1.1955      2.00000
     62      -0.8517      2.00000
     63      -0.7374      0.08901
     64      -0.7361      0.00000
     65      -0.5598      0.00000
     66      -0.3904      0.00000
     67      -0.0889      0.00000
     68       0.7254      0.00000
     69       0.7693      0.00000
     70       0.8347      0.00000
     71       1.4504      0.00000
     72       1.4795      0.00000
     73       1.8322      0.00000
     74       2.3179      0.00000
     75       3.1762      0.00000
     76       3.5824      0.00000

 k-point    23 :       0.2857    0.5000    0.0000
  band No.  band energies     occupation 
      1     -36.5975      2.00000
      2     -35.2626      2.00000
      3     -34.2996      2.00000
      4     -33.3904      2.00000
      5     -20.2909      2.00000
      6     -19.9119      2.00000
      7     -19.7479      2.00000
      8     -19.1812      2.00000
      9     -19.0853      2.00000
     10     -18.5870      2.00000
     11     -18.4890      2.00000
     12     -18.4794      2.00000
     13     -18.4717      2.00000
     14     -18.1920      2.00000
     15     -18.1208      2.00000
     16     -17.7279      2.00000
     17     -17.2502      2.00000
     18     -17.2342      2.00000
     19     -17.1470      2.00000
     20     -17.0688      2.00000
     21     -16.5619      2.00000
     22     -16.2758      2.00000
     23     -16.2549      2.00000
     24     -16.1028      2.00000
     25     -15.9737      2.00000
     26     -15.4685      2.00000
     27     -15.3153      2.00000
     28     -15.0311      2.00000
     29      -7.6905      2.00000
     30      -6.9990      2.00000
     31      -6.9473      2.00000
     32      -6.9217      2.00000
     33      -6.6788      2.00000
     34      -6.6200      2.00000
     35      -6.1938      2.00000
     36      -6.0539      2.00000
     37      -5.9958      2.00000
     38      -5.8801      2.00000
     39      -5.5719      2.00000
     40      -5.4022      2.00000
     41      -5.2633      2.00000
     42      -5.2301      2.00000
     43      -5.0489      2.00000
     44      -4.8964      2.00000
     45      -4.7602      2.00000
     46      -4.3275      2.00000
     47      -4.3048      2.00000
     48      -4.1671      2.00000
     49      -4.1490      2.00000
     50      -3.8454      2.00000
     51      -3.7419      2.00000
     52      -3.5526      2.00000
     53      -3.4227      2.00000
     54      -2.8480      2.00000
     55      -2.7989      2.00000
     56      -2.6811      2.00000
     57      -2.1590      2.00000
     58      -2.0136      2.00000
     59      -1.9074      2.00000
     60      -1.6594      2.00000
     61      -1.1639      2.00000
     62      -0.8572      2.00000
     63      -0.8229      2.02761
     64      -0.7649      0.00000
     65      -0.6816      0.00000
     66      -0.3271      0.00000
     67       0.0492      0.00000
     68       0.7741      0.00000
     69       0.9800      0.00000
     70       1.4608      0.00000
     71       1.4699      0.00000
     72       1.8845      0.00000
     73       2.2946      0.00000
     74       2.3027      0.00000
     75       3.1840      0.00000
     76       3.5349      0.00000

 k-point    24 :       0.4286    0.5000    0.0000
  band No.  band energies     occupation 
      1     -36.5974      2.00000
      2     -35.2625      2.00000
      3     -34.2995      2.00000
      4     -33.3903      2.00000
      5     -20.1625      2.00000
      6     -20.0003      2.00000
      7     -19.9000      2.00000
      8     -19.2329      2.00000
      9     -18.9506      2.00000
     10     -18.7524      2.00000
     11     -18.4975      2.00000
     12     -18.4511      2.00000
     13     -18.3552      2.00000
     14     -18.2472      2.00000
     15     -18.0340      2.00000
     16     -17.8643      2.00000
     17     -17.2569      2.00000
     18     -17.2343      2.00000
     19     -17.0910      2.00000
     20     -17.0258      2.00000
     21     -16.5305      2.00000
     22     -16.2699      2.00000
     23     -16.1605      2.00000
     24     -16.1566      2.00000
     25     -15.9577      2.00000
     26     -15.4691      2.00000
     27     -15.1979      2.00000
     28     -14.9982      2.00000
     29      -7.7012      2.00000
     30      -7.1638      2.00000
     31      -7.0503      2.00000
     32      -6.9408      2.00000
     33      -6.6862      2.00000
     34      -6.6034      2.00000
     35      -6.1591      2.00000
     36      -6.0297      2.00000
     37      -5.9344      2.00000
     38      -5.9296      2.00000
     39      -5.6623      2.00000
     40      -5.3661      2.00000
     41      -5.3608      2.00000
     42      -5.3171      2.00000
     43      -5.2305      2.00000
     44      -4.8728      2.00000
     45      -4.6861      2.00000
     46      -4.3425      2.00000
     47      -4.1752      2.00000
     48      -4.1229      2.00000
     49      -4.0910      2.00000
     50      -3.8643      2.00000
     51      -3.7964      2.00000
     52      -3.7618      2.00000
     53      -3.5652      2.00000
     54      -2.8499      2.00000
     55      -2.8304      2.00000
     56      -2.7526      2.00000
     57      -2.0020      2.00000
     58      -1.9835      2.00000
     59      -1.8814      2.00000
     60      -1.6405      2.00000
     61      -1.1762      2.00000
     62      -1.1188      2.00000
     63      -0.9032      2.00000
     64      -0.7481      0.00000
     65      -0.6297      0.00000
     66      -0.2623      0.00000
     67       0.1197      0.00000
     68       0.7594      0.00000
     69       0.7807      0.00000
     70       1.0822      0.00000
     71       1.4610      0.00000
     72       1.9221      0.00000
     73       2.2657      0.00000
     74       2.2767      0.00000
     75       3.1914      0.00000
     76       3.4856      0.00000


--------------------------------------------------------------------------------------------------------


 soft charge-density along one line, spin component           1
         0         1         2         3         4         5         6         7         8         9
 total charge-density along one line
 
 pseudopotential strength for first ion, spin component:           1
 13.307  -0.447  -0.000   0.001   0.000   0.000   0.000  -0.000
 -0.447   0.104   0.000  -0.000  -0.000  -0.000   0.000   0.000
 -0.000   0.000  -9.834   0.000   0.000   0.121  -0.000  -0.000
  0.001  -0.000   0.000  -9.790  -0.000  -0.000   0.115   0.000
  0.000  -0.000   0.000  -0.000  -9.798  -0.000   0.000   0.116
  0.000  -0.000   0.121  -0.000  -0.000   0.180   0.000   0.000
  0.000   0.000  -0.000   0.115   0.000   0.000   0.182  -0.000
 -0.000   0.000  -0.000   0.000   0.116   0.000  -0.000   0.181
 total augmentation occupancy for first ion, spin component:           1
  1.869   0.136   0.000   0.017   0.000   0.000   0.002   0.000
  0.136   0.015   0.000  -0.005   0.000   0.000   0.001   0.000
  0.000   0.000   1.580   0.000   0.000   0.155   0.000   0.000
  0.017  -0.005   0.000   1.526   0.000   0.000   0.119   0.000
  0.000   0.000   0.000   0.000   1.512   0.000   0.000   0.127
  0.000   0.000   0.155   0.000   0.000   0.017   0.000   0.000
  0.002   0.001   0.000   0.119   0.000   0.000   0.011   0.000
  0.000   0.000   0.000   0.000   0.127   0.000   0.000   0.012


------------------------ aborting loop because EDIFF is reached ----------------------------------------


    CHARGE:  cpu time    0.5059: real time    0.5063
    FORLOC:  cpu time    0.0240: real time    0.0233
    FORNL :  cpu time    5.7321: real time    5.7335
    STRESS:  cpu time   12.5191: real time   12.5160
    FORCOR:  cpu time    0.1220: real time    0.1216
    FORHAR:  cpu time    0.0420: real time    0.0422
    MIXING:  cpu time    0.0180: real time    0.0181
    OFIELD:  cpu time    0.0000: real time    0.0000

  FORCE on cell =-STRESS in cart. coord.  units (eV):
  Direction    XX          YY          ZZ          XY          YZ          ZX
  --------------------------------------------------------------------------------------
  Alpha Z   378.09908   378.09908   378.09908
  Ewald   27809.53423 27749.52952-32827.80614    -0.00000    -0.00000    -0.00000
  Hartree 30092.79770 30019.15573-28824.23144    -0.00000    -0.00000    -0.00000
  E(xc)    -577.29562  -577.48156  -577.11235     0.00000    -0.00000    -0.00000
  Local  -59558.18908-59433.07358 59985.90209     0.00000    -0.00000    -0.00000
  n-local  -476.64353  -477.71269  -478.94206     0.45174    -0.00000     0.00000
  augment   114.23154   115.34945   114.52219     0.00000     0.00000    -0.00000
  Kinetic  2221.75530  2235.06571  2231.97102    -0.61181    -0.00000    -0.00000
  Fock        0.00000     0.00000     0.00000     0.00000     0.00000     0.00000
  -------------------------------------------------------------------------------------
  Total       4.28961     8.93165     2.40239     0.00000     0.00000     0.00000
  in kB      14.70796    30.62429     8.23715     0.00000     0.00000     0.00000
  external pressure =       17.86 kB  Pullay stress =        0.00 kB


 VOLUME and BASIS-vectors are now :
 -----------------------------------------------------------------------------
  energy-cutoff  :      500.00
  volume of cell :      467.28
      direct lattice vectors                 reciprocal lattice vectors
     5.522882970  0.000000000  0.000000000     0.181064854  0.000000000  0.000000000
     0.000000000  3.905268000  0.000000000     0.000000000  0.256064373  0.000000000
     0.000000000  0.000000000 21.665045198     0.000000000  0.000000000  0.046157300

  length of vectors
     5.522882970  3.905268000 21.665045198     0.181064854  0.256064373  0.046157300


 FORCES acting on ions
    electron-ion (+dipol)            ewald-force                    non-local-force                 convergence-correction
 -----------------------------------------------------------------------------------------------
   0.153E-12 0.819E-13 0.128E+04   -.677E-14 0.936E-15 -.128E+04   0.000E+00 0.000E+00 -.175E+01   -.299E-13 -.415E-13 0.176E-01
   0.244E+00 0.313E-12 0.948E+03   -.132E+00 -.110E-13 -.946E+03   0.621E+00 0.000E+00 -.445E+01   -.294E-01 -.568E-13 0.755E-01
   -.244E+00 0.393E-12 0.948E+03   0.132E+00 -.115E-13 -.946E+03   -.621E+00 0.000E+00 -.445E+01   0.294E-01 -.362E-13 0.755E-01
   -.365E-14 0.273E-14 0.544E+03   -.628E-14 -.372E-14 -.542E+03   0.000E+00 0.000E+00 -.263E+01   -.515E-14 -.477E-13 0.529E-01
   0.180E+00 0.143E-11 0.150E+03   0.246E-13 -.106E-13 -.148E+03   0.382E+00 -.867E-18 -.274E+01   0.520E-02 -.754E-14 0.393E-01
   -.180E+00 0.400E-13 0.150E+03   -.125E-12 -.112E-13 -.148E+03   -.382E+00 0.867E-18 -.274E+01   -.520E-02 -.773E-14 0.393E-01
   0.158E-12 -.728E-13 -.245E+03   -.187E-14 -.940E-15 0.247E+03   0.000E+00 0.000E+00 -.200E+01   -.161E-13 0.141E-13 0.275E-01
   -.325E+00 0.791E-13 -.640E+03   0.132E+00 -.870E-15 0.641E+03   0.995E+00 0.000E+00 -.276E+01   0.819E-03 0.655E-13 0.152E-01
   0.325E+00 0.217E-12 -.640E+03   -.132E+00 0.195E-17 0.641E+03   -.995E+00 0.000E+00 -.276E+01   -.819E-03 0.600E-13 0.152E-01
   0.396E-14 -.291E-13 -.104E+04   -.158E-13 -.726E-14 0.105E+04   0.000E+00 0.000E+00 -.565E+01   0.695E-14 0.701E-13 0.294E-02
   0.205E+02 -.120E-12 -.134E+04   -.268E+02 0.747E-16 0.136E+04   0.649E+01 0.694E-17 -.168E+02   -.369E-03 0.506E-13 -.990E-02
   -.205E+02 0.237E-12 -.134E+04   0.268E+02 -.841E-15 0.136E+04   -.649E+01 -.694E-17 -.168E+02   0.369E-03 0.612E-13 -.990E-02
   0.271E-14 0.401E-13 0.213E+04   0.588E-13 0.130E-13 -.212E+04   0.000E+00 0.000E+00 -.232E+01   0.440E-13 -.299E-13 0.235E-01
   0.647E-13 -.603E-13 0.906E+03   0.105E-12 0.220E-13 -.904E+03   0.000E+00 0.000E+00 -.159E+01   0.187E-13 -.363E-13 0.103E+00
   0.969E-14 -.185E-12 -.409E+03   0.102E-12 0.196E-13 0.411E+03   0.000E+00 0.000E+00 -.135E+01   0.138E-13 0.163E-13 0.444E-01
   0.653E-13 0.871E-14 -.173E+04   -.674E-14 -.509E-14 0.174E+04   0.000E+00 0.000E+00 -.120E+01   -.269E-13 0.350E-13 0.588E-02
   -.203E-14 0.705E-13 0.900E+03   -.162E-13 0.219E-14 -.895E+03   0.000E+00 0.000E+00 -.249E+01   -.125E-13 0.460E-14 0.121E-01
   0.556E-14 0.443E-14 0.364E+03   -.108E-13 0.545E-15 -.362E+03   0.000E+00 0.000E+00 0.552E+00   -.104E-14 0.310E-14 0.338E-01
   -.687E-14 0.138E-12 -.163E+03   -.935E-14 0.336E-14 0.164E+03   0.000E+00 0.000E+00 0.761E+00   -.240E-14 0.233E-14 0.176E-01
   0.228E-14 -.519E-13 -.682E+03   -.243E-13 0.323E-14 0.685E+03   0.000E+00 0.000E+00 0.115E+01   0.345E-14 -.643E-14 0.239E-02
 -----------------------------------------------------------------------------------------------
   0.197E-11 0.254E-11 0.715E+02   -.390E-13 0.210E-14 -.182E-11   0.000E+00 0.000E+00 -.721E+02   -.102E-12 0.113E-12 0.584E+00
 
 
 POSITION                                       TOTAL-FORCE (eV/Angst)
 -----------------------------------------------------------------------------------
      2.76144      0.00000      6.00000         0.000000     -0.000000     -1.522031
      1.38072      1.95263      7.38072         0.703484     -0.000000     -2.120168
      4.14216      1.95263      7.38072        -0.703484     -0.000000     -2.120168
      0.00000      0.00000      8.76144         0.000000     -0.000000     -0.761253
      4.14216      1.95263     10.14216         0.567274     -0.000000     -1.306355
      1.38072      1.95263     10.14216        -0.567274      0.000000     -1.306355
      2.76144      0.00000     11.52288         0.000000     -0.000000     -0.595264
      1.38072      1.95263     12.90360         0.803063     -0.000000     -1.503518
      4.14216      1.95263     12.90360        -0.803063     -0.000000     -1.503518
      0.00000      0.00000     14.28432         0.000000     -0.000000     -1.053850
      4.14216      1.95263     15.66505         0.234571     -0.000000     -1.075695
      1.38072      1.95263     15.66505        -0.234571     -0.000000     -1.075695
      0.00000      0.00000      6.00000         0.000000     -0.000000      0.982457
      2.76144      0.00000      8.76144         0.000000     -0.000000      0.962843
      0.00000      0.00000     11.52288         0.000000     -0.000000      0.739367
      2.76144      0.00000     14.28432         0.000000     -0.000000      1.607467
      2.76144      1.95263      6.00000         0.000000     -0.000000      2.368106
      0.00000      1.95263      8.76144         0.000000     -0.000000      2.669455
      2.76144      1.95263     11.52288         0.000000     -0.000000      2.413607
      0.00000      1.95263     14.28432         0.000000     -0.000000      4.200567
 -----------------------------------------------------------------------------------
    total drift:                                0.000000      0.000000     -0.002233


--------------------------------------------------------------------------------------------------------



  FREE ENERGIE OF THE ION-ELECTRON SYSTEM (eV)
  ---------------------------------------------------
  free  energy   TOTEN  =      -148.70629095 eV

  energy  without entropy=     -148.70629095  energy(sigma->0) =     -148.70629095
 


--------------------------------------------------------------------------------------------------------


    POTLOK:  cpu time    0.1240: real time    0.1238


--------------------------------------------------------------------------------------------------------


     LOOP+:  cpu time  816.1069: real time  816.2633
    4ORBIT:  cpu time    0.0000: real time    0.0000
 BZINTS: Fermi energy: -0.776955;128.000000 electrons
         Band energy:***********;  BLOECHL correction: -0.009658

 total amount of memory used by VASP MPI-rank0   202568. kBytes
=======================================================================

   base      :      30000. kBytes
   nonl-proj :      63721. kBytes
   fftplans  :       7170. kBytes
   grid      :      12862. kBytes
   one-center:        155. kBytes
   wavefun   :      88660. kBytes
 
  
  
 General timing and accounting informations for this job:
 ========================================================
  
                  Total CPU time used (sec):      820.297
                            User time (sec):      806.626
                          System time (sec):       13.671
                         Elapsed time (sec):      821.546
  
                   Maximum memory used (kb):      209720.
                   Average memory used (kb):           0.
  
                          Minor page faults:        68299
                          Major page faults:          137
                 Voluntary context switches:         4823
