Starting job 28515913 ("jobname") on c15-21 at Wed Nov 6 18:34:33 CET 2019
 running on    4 total cores
 distrk:  each k-point on    4 cores,    1 groups
 distr:  one band on    2 cores,    2 groups
 using from now: INCAR     
 vasp.5.4.4.18Apr17-6-g9f103f2a35 (build Jun 30 2017 11:15:00) complex          
  
 POSCAR found type information on POSCAR  O  Sr Ti
 POSCAR found :  3 types and      20 ions
 scaLAPACK will be used

 ----------------------------------------------------------------------------- 
|                                                                             |
|  ADVICE TO THIS USER RUNNING 'VASP/VAMP'   (HEAR YOUR MASTER'S VOICE ...):  |
|                                                                             |
|      You have a (more or less) 'large supercell' and for larger cells       |
|      it might be more efficient to use real space projection operators      |
|      So try LREAL= Auto  in the INCAR   file.                               |
|      Mind: If you want to do a very accurate calculations keep the          |
|      reciprocal projection scheme          (i.e. LREAL=.FALSE.)             |
|                                                                             |
 ----------------------------------------------------------------------------- 

 LDA part: xc-table for Pade appr. of Perdew
 POSCAR, INCAR and KPOINTS ok, starting setup
 FFT: planning ...
 WAVECAR not read
 entering main loop
       N       E                     dE             d eps       ncg     rms          rms(c)
DAV:   1     0.158137572959E+04    0.15814E+04   -0.55289E+04  3696   0.147E+03
DAV:   2     0.182767717934E+03   -0.13986E+04   -0.13465E+04  4472   0.380E+02
DAV:   3    -0.172774432347E+03   -0.35554E+03   -0.34672E+03  5036   0.188E+02
DAV:   4    -0.197477590274E+03   -0.24703E+02   -0.24615E+02  4768   0.576E+01
DAV:   5    -0.198735196317E+03   -0.12576E+01   -0.12570E+01  6344   0.117E+01    0.375E+01
RMM:   6    -0.205704844565E+03   -0.69696E+01   -0.39391E+02  4810   0.582E+01    0.524E+01
RMM:   7    -0.172295064388E+03    0.33410E+02   -0.97011E+01  4259   0.315E+01    0.213E+01
RMM:   8    -0.160558434059E+03    0.11737E+02   -0.22535E+01  4196   0.164E+01    0.152E+01
RMM:   9    -0.156225428939E+03    0.43330E+01   -0.20140E+00  4743   0.546E+00    0.126E+01
RMM:  10    -0.157637757794E+03   -0.14123E+01   -0.39115E+01  4333   0.165E+01    0.308E+01
RMM:  11    -0.156319575444E+03    0.13182E+01   -0.34317E+00  5589   0.374E+00    0.300E+01
RMM:  12    -0.158816414040E+03   -0.24968E+01   -0.14493E+00  5446   0.269E+00    0.339E+01
RMM:  13    -0.159122367726E+03   -0.30595E+00   -0.28792E-01  6101   0.894E-01    0.345E+01
RMM:  14    -0.157897465223E+03    0.12249E+01   -0.13857E-01  5006   0.955E-01    0.335E+01
RMM:  15    -0.154551080756E+03    0.33464E+01   -0.20932E+00  4272   0.379E+00    0.295E+01
RMM:  16    -0.150274514235E+03    0.42766E+01   -0.16300E+01  4292   0.114E+01    0.836E+00
RMM:  17    -0.150127744006E+03    0.14677E+00   -0.21742E+00  5019   0.371E+00    0.786E+00
RMM:  18    -0.149806592084E+03    0.32115E+00   -0.15230E-01  4730   0.108E+00    0.745E+00
RMM:  19    -0.149705832037E+03    0.10076E+00   -0.33538E-02  5163   0.489E-01    0.706E+00
RMM:  20    -0.149257835858E+03    0.44800E+00   -0.23172E-01  4232   0.128E+00    0.590E+00
RMM:  21    -0.149300204615E+03   -0.42369E-01   -0.56655E-01  4314   0.209E+00    0.592E+00
RMM:  22    -0.148954451357E+03    0.34575E+00   -0.14518E+00  4200   0.315E+00    0.738E+00
RMM:  23    -0.148844223103E+03    0.11023E+00   -0.13921E-01  4805   0.102E+00    0.478E+00
RMM:  24    -0.148824625585E+03    0.19598E-01   -0.53406E-02  4351   0.657E-01    0.351E+00
RMM:  25    -0.148793630304E+03    0.30995E-01   -0.29087E-02  4694   0.459E-01    0.217E+00
RMM:  26    -0.148772014237E+03    0.21616E-01   -0.37859E-02  4387   0.492E-01    0.150E+00
RMM:  27    -0.148742108780E+03    0.29905E-01   -0.24276E-02  4291   0.470E-01    0.127E+00
RMM:  28    -0.148715398493E+03    0.26710E-01   -0.55004E-02  4273   0.690E-01    0.669E-01
RMM:  29    -0.148710857111E+03    0.45414E-02   -0.15929E-02  4788   0.299E-01    0.482E-01
RMM:  30    -0.148705360934E+03    0.54962E-02   -0.21821E-02  4294   0.446E-01    0.248E-01
RMM:  31    -0.148712305790E+03   -0.69449E-02   -0.51274E-03  4432   0.194E-01    0.123E+00
RMM:  32    -0.148709296097E+03    0.30097E-02   -0.66539E-04  4420   0.927E-02    0.919E-01
RMM:  33    -0.148705044207E+03    0.42519E-02   -0.58172E-03  4271   0.212E-01    0.151E-01
RMM:  34    -0.148705344974E+03   -0.30077E-03   -0.78417E-04  4187   0.855E-02    0.130E-01
RMM:  35    -0.148705565266E+03   -0.22029E-03   -0.65579E-04  4029   0.733E-02    0.224E-01
RMM:  36    -0.148706083913E+03   -0.51865E-03   -0.82953E-04  4021   0.734E-02    0.203E-01
RMM:  37    -0.148706368475E+03   -0.28456E-03   -0.29743E-04  4027   0.442E-02    0.220E-01
RMM:  38    -0.148706361411E+03    0.70641E-05   -0.13915E-04  3561   0.384E-02    0.195E-01
RMM:  39    -0.148706171226E+03    0.19019E-03   -0.29589E-04  3879   0.478E-02    0.115E-01
RMM:  40    -0.148706283604E+03   -0.11238E-03   -0.61531E-05  3170   0.294E-02    0.749E-02
RMM:  41    -0.148706127239E+03    0.15637E-03   -0.10383E-04  3417   0.314E-02    0.918E-02
RMM:  42    -0.148706189611E+03   -0.62373E-04   -0.54863E-05  3155   0.214E-02    0.782E-02
RMM:  43    -0.148706209221E+03   -0.19610E-04   -0.33801E-05  2879   0.208E-02    0.131E-01
RMM:  44    -0.148706279641E+03   -0.70420E-04   -0.13312E-05  2467   0.146E-02    0.507E-02
RMM:  45    -0.148706263619E+03    0.16021E-04   -0.87428E-06  2329   0.108E-02    0.563E-02
RMM:  46    -0.148706303808E+03   -0.40189E-04   -0.62410E-06  2272   0.100E-02    0.427E-02
RMM:  47    -0.148706271003E+03    0.32805E-04   -0.47251E-06  2184   0.944E-03    0.518E-02
RMM:  48    -0.148706300163E+03   -0.29161E-04   -0.37590E-06  2044   0.803E-03    0.425E-02
RMM:  49    -0.148706274820E+03    0.25343E-04   -0.30263E-06  1921   0.683E-03    0.505E-02
RMM:  50    -0.148706301169E+03   -0.26349E-04   -0.28772E-06  1933   0.720E-03    0.435E-02
RMM:  51    -0.148706275312E+03    0.25857E-04   -0.25623E-06  1749   0.631E-03    0.499E-02
RMM:  52    -0.148706295050E+03   -0.19739E-04   -0.23052E-06  1716   0.644E-03    0.424E-02
RMM:  53    -0.148706272776E+03    0.22275E-04   -0.21576E-06  1679   0.605E-03    0.494E-02
RMM:  54    -0.148706293376E+03   -0.20601E-04   -0.18519E-06  1570   0.569E-03    0.424E-02
RMM:  55    -0.148706271662E+03    0.21714E-04   -0.19285E-06  1568   0.568E-03    0.490E-02
RMM:  56    -0.148706290849E+03   -0.19187E-04   -0.17500E-06  1499   0.551E-03    0.419E-02
RMM:  57    -0.148706269094E+03    0.21754E-04   -0.18614E-06  1542   0.554E-03    0.493E-02
RMM:  58    -0.148706291180E+03   -0.22086E-04   -0.17077E-06  1482   0.542E-03    0.420E-02
RMM:  59    -0.148706269003E+03    0.22177E-04   -0.18054E-06  1497   0.541E-03    0.491E-02
RMM:  60    -0.148706290949E+03   -0.21946E-04   -0.17189E-06  1487   0.542E-03
   1 F= -.14870629E+03 E0= -.14870629E+03  d E =0.000000E+00

Currently Loaded Modulefiles:
  1) intel/2017.4         2) perf-reports/7.0.6

Job script resource usage:
       JobID  MaxVMSize     MaxRSS 
------------ ---------- ---------- 
28515913.ba+    499232K      5967K 

Job step resource usage:
       JobID    JobName  AllocCPUS  MaxVMSize     MaxRSS    Elapsed ExitCode 
------------ ---------- ---------- ---------- ---------- ---------- -------- 
28515913        jobname          4                         00:13:45      0:0 
28515913.0    pmi_proxy          1   2026296K    788630K   00:13:43      0:0 

Job 28515913 ("jobname") completed on c15-21 at Wed Nov 6 18:48:16 CET 2019
