<?xml version="1.0" encoding="ISO-8859-1"?>
<modeling>
 <generator>
  <i name="program" type="string">vasp </i>
  <i name="version" type="string">5.4.4.18Apr17-6-g9f103f2a35  </i>
  <i name="subversion" type="string">(build Jun 30 2017 11:15:00) complex            parallel </i>
  <i name="platform" type="string">STALLO_VASP_5.4.4 </i>
  <i name="date" type="string">2019 11 06 </i>
  <i name="time" type="string">18:34:35 </i>
 </generator>
 <incar>
  <i type="string" name="PREC">normal    ! low/normal/accurate</i>
  <i type="string" name="ALGO"> Fast      ! Algorithm for electronic re</i>
  <i type="int" name="ISPIN">     1</i>
  <i type="int" name="NELMIN">     4</i>
  <i name="EDIFF">      0.00001000</i>
  <i type="int" name="NSW">     0</i>
  <i name="ENCUT">    500.00000000</i>
  <i type="logical" name="LREAL"> F  </i>
  <i type="int" name="ISMEAR">    -5</i>
  <i name="SIGMA">      0.20000000</i>
  <i type="logical" name="LWAVE"> F  </i>
  <v type="int" name="KPOINT_BSE">    -1     0     0     0</v>
 </incar>
 <structure name="primitive_cell" >
  <crystal>
   <varray name="basis" >
    <v>       5.52288297       0.00000000       0.00000000 </v>
    <v>       0.00000000       3.90526800       0.00000000 </v>
    <v>       0.00000000       0.00000000      21.66504520 </v>
   </varray>
   <i name="volume">    467.27902047 </i>
   <varray name="rec_basis" >
    <v>       0.18106485       0.00000000       0.00000000 </v>
    <v>       0.00000000       0.25606437       0.00000000 </v>
    <v>       0.00000000       0.00000000       0.04615730 </v>
   </varray>
  </crystal>
  <varray name="positions" >
   <v>      -0.50000000       0.00000000       0.27694380 </v>
   <v>      -0.50000000      -0.50000000       0.27694380 </v>
   <v>      -0.50000000       0.00000000       0.40440449 </v>
   <v>       0.25000000      -0.50000000       0.34067414 </v>
   <v>      -0.25000000      -0.50000000       0.34067414 </v>
   <v>       0.00000000       0.00000000       0.27694380 </v>
   <v>       0.00000000       0.00000000       0.40440449 </v>
   <v>       0.00000000      -0.50000000       0.40440449 </v>
   <v>      -0.25000000      -0.50000000       0.46813483 </v>
   <v>       0.25000000      -0.50000000       0.46813483 </v>
   <v>      -0.50000000       0.00000000      -0.46813483 </v>
   <v>      -0.50000000      -0.50000000      -0.46813483 </v>
   <v>       0.00000000       0.00000000      -0.46813483 </v>
   <v>       0.25000000      -0.50000000      -0.40440449 </v>
   <v>      -0.25000000      -0.50000000      -0.40440449 </v>
   <v>      -0.50000000       0.00000000      -0.34067414 </v>
   <v>       0.00000000       0.00000000      -0.34067414 </v>
   <v>       0.00000000      -0.50000000      -0.34067414 </v>
   <v>      -0.25000000      -0.50000000      -0.27694380 </v>
   <v>       0.25000000      -0.50000000      -0.27694380 </v>
  </varray>
 </structure>
 <varray name="primitive_index" >
  <v type="int" >        1 </v>
  <v type="int" >       17 </v>
  <v type="int" >       14 </v>
  <v type="int" >        2 </v>
  <v type="int" >        3 </v>
  <v type="int" >       13 </v>
  <v type="int" >        4 </v>
  <v type="int" >       18 </v>
  <v type="int" >        5 </v>
  <v type="int" >        6 </v>
  <v type="int" >        7 </v>
  <v type="int" >       19 </v>
  <v type="int" >       15 </v>
  <v type="int" >        8 </v>
  <v type="int" >        9 </v>
  <v type="int" >       16 </v>
  <v type="int" >       10 </v>
  <v type="int" >       20 </v>
  <v type="int" >       11 </v>
  <v type="int" >       12 </v>
 </varray>
 <kpoints>
  <generation param="Gamma">
   <v type="int" name="divisions">       7       10        1 </v>
   <v name="usershift">      0.00000000       0.00000000       0.00000000 </v>
   <v name="genvec1">      0.14285714       0.00000000       0.00000000 </v>
   <v name="genvec2">      0.00000000       0.10000000       0.00000000 </v>
   <v name="genvec3">      0.00000000       0.00000000       1.00000000 </v>
   <v name="shift">      0.00000000       0.00000000       0.00000000 </v>
  </generation>
  <varray name="kpointlist" >
   <v>       0.00000000       0.00000000       0.00000000 </v>
   <v>       0.14285714       0.00000000       0.00000000 </v>
   <v>       0.28571429       0.00000000       0.00000000 </v>
   <v>       0.42857143       0.00000000       0.00000000 </v>
   <v>       0.00000000       0.10000000       0.00000000 </v>
   <v>       0.14285714       0.10000000       0.00000000 </v>
   <v>       0.28571429       0.10000000       0.00000000 </v>
   <v>       0.42857143       0.10000000       0.00000000 </v>
   <v>       0.00000000       0.20000000       0.00000000 </v>
   <v>       0.14285714       0.20000000       0.00000000 </v>
   <v>       0.28571429       0.20000000       0.00000000 </v>
   <v>       0.42857143       0.20000000       0.00000000 </v>
   <v>       0.00000000       0.30000000       0.00000000 </v>
   <v>       0.14285714       0.30000000       0.00000000 </v>
   <v>       0.28571429       0.30000000       0.00000000 </v>
   <v>       0.42857143       0.30000000       0.00000000 </v>
   <v>       0.00000000       0.40000000       0.00000000 </v>
   <v>       0.14285714       0.40000000       0.00000000 </v>
   <v>       0.28571429       0.40000000       0.00000000 </v>
   <v>       0.42857143       0.40000000       0.00000000 </v>
   <v>       0.00000000       0.50000000       0.00000000 </v>
   <v>       0.14285714       0.50000000       0.00000000 </v>
   <v>       0.28571429       0.50000000       0.00000000 </v>
   <v>       0.42857143       0.50000000       0.00000000 </v>
  </varray>
  <varray name="weights" >
   <v>       0.01428571 </v>
   <v>       0.02857143 </v>
   <v>       0.02857143 </v>
   <v>       0.02857143 </v>
   <v>       0.02857143 </v>
   <v>       0.05714286 </v>
   <v>       0.05714286 </v>
   <v>       0.05714286 </v>
   <v>       0.02857143 </v>
   <v>       0.05714286 </v>
   <v>       0.05714286 </v>
   <v>       0.05714286 </v>
   <v>       0.02857143 </v>
   <v>       0.05714286 </v>
   <v>       0.05714286 </v>
   <v>       0.05714286 </v>
   <v>       0.02857143 </v>
   <v>       0.05714286 </v>
   <v>       0.05714286 </v>
   <v>       0.05714286 </v>
   <v>       0.01428571 </v>
   <v>       0.02857143 </v>
   <v>       0.02857143 </v>
   <v>       0.02857143 </v>
  </varray>
  <varray name="tetrahedronlist"  type="int" >
   <v type="int" >        2        1        1        2        6 </v>
   <v type="int" >        2        1        1        5        6 </v>
   <v type="int" >        2        1        5        5        6 </v>
   <v type="int" >        2        1        2        2        6 </v>
   <v type="int" >        2        1        2        6        6 </v>
   <v type="int" >        2        1        5        6        6 </v>
   <v type="int" >        2        2        2        3        7 </v>
   <v type="int" >        2        2        2        6        7 </v>
   <v type="int" >        2        2        6        6        7 </v>
   <v type="int" >        2        2        3        3        7 </v>
   <v type="int" >        2        2        3        7        7 </v>
   <v type="int" >        2        2        6        7        7 </v>
   <v type="int" >        2        3        3        4        8 </v>
   <v type="int" >        2        3        3        7        8 </v>
   <v type="int" >        2        3        7        7        8 </v>
   <v type="int" >        2        3        4        4        8 </v>
   <v type="int" >        2        3        4        8        8 </v>
   <v type="int" >        2        3        7        8        8 </v>
   <v type="int" >        4        4        4        4        8 </v>
   <v type="int" >        4        4        4        8        8 </v>
   <v type="int" >        4        4        8        8        8 </v>
   <v type="int" >        2        3        4        4        7 </v>
   <v type="int" >        2        4        4        7        8 </v>
   <v type="int" >        2        4        7        8        8 </v>
   <v type="int" >        2        3        3        4        7 </v>
   <v type="int" >        2        3        4        7        7 </v>
   <v type="int" >        2        4        7        7        8 </v>
   <v type="int" >        2        2        3        3        6 </v>
   <v type="int" >        2        3        3        6        7 </v>
   <v type="int" >        2        3        6        7        7 </v>
   <v type="int" >        2        2        2        3        6 </v>
   <v type="int" >        2        2        3        6        6 </v>
   <v type="int" >        2        3        6        6        7 </v>
   <v type="int" >        2        1        2        2        5 </v>
   <v type="int" >        2        2        2        5        6 </v>
   <v type="int" >        2        2        5        6        6 </v>
   <v type="int" >        2        1        1        2        5 </v>
   <v type="int" >        2        1        2        5        5 </v>
   <v type="int" >        2        2        5        5        6 </v>
   <v type="int" >        2        5        5        6       10 </v>
   <v type="int" >        2        5        5        9       10 </v>
   <v type="int" >        2        5        9        9       10 </v>
   <v type="int" >        2        5        6        6       10 </v>
   <v type="int" >        2        5        6       10       10 </v>
   <v type="int" >        2        5        9       10       10 </v>
   <v type="int" >        2        6        6        7       11 </v>
   <v type="int" >        2        6        6       10       11 </v>
   <v type="int" >        2        6       10       10       11 </v>
   <v type="int" >        2        6        7        7       11 </v>
   <v type="int" >        2        6        7       11       11 </v>
   <v type="int" >        2        6       10       11       11 </v>
   <v type="int" >        2        7        7        8       12 </v>
   <v type="int" >        2        7        7       11       12 </v>
   <v type="int" >        2        7       11       11       12 </v>
   <v type="int" >        2        7        8        8       12 </v>
   <v type="int" >        2        7        8       12       12 </v>
   <v type="int" >        2        7       11       12       12 </v>
   <v type="int" >        4        8        8        8       12 </v>
   <v type="int" >        4        8        8       12       12 </v>
   <v type="int" >        4        8       12       12       12 </v>
   <v type="int" >        2        7        8        8       11 </v>
   <v type="int" >        2        8        8       11       12 </v>
   <v type="int" >        2        8       11       12       12 </v>
   <v type="int" >        2        7        7        8       11 </v>
   <v type="int" >        2        7        8       11       11 </v>
   <v type="int" >        2        8       11       11       12 </v>
   <v type="int" >        2        6        7        7       10 </v>
   <v type="int" >        2        7        7       10       11 </v>
   <v type="int" >        2        7       10       11       11 </v>
   <v type="int" >        2        6        6        7       10 </v>
   <v type="int" >        2        6        7       10       10 </v>
   <v type="int" >        2        7       10       10       11 </v>
   <v type="int" >        2        5        6        6        9 </v>
   <v type="int" >        2        6        6        9       10 </v>
   <v type="int" >        2        6        9       10       10 </v>
   <v type="int" >        2        5        5        6        9 </v>
   <v type="int" >        2        5        6        9        9 </v>
   <v type="int" >        2        6        9        9       10 </v>
   <v type="int" >        2        9        9       10       14 </v>
   <v type="int" >        2        9        9       13       14 </v>
   <v type="int" >        2        9       13       13       14 </v>
   <v type="int" >        2        9       10       10       14 </v>
   <v type="int" >        2        9       10       14       14 </v>
   <v type="int" >        2        9       13       14       14 </v>
   <v type="int" >        2       10       10       11       15 </v>
   <v type="int" >        2       10       10       14       15 </v>
   <v type="int" >        2       10       14       14       15 </v>
   <v type="int" >        2       10       11       11       15 </v>
   <v type="int" >        2       10       11       15       15 </v>
   <v type="int" >        2       10       14       15       15 </v>
   <v type="int" >        2       11       11       12       16 </v>
   <v type="int" >        2       11       11       15       16 </v>
   <v type="int" >        2       11       15       15       16 </v>
   <v type="int" >        2       11       12       12       16 </v>
   <v type="int" >        2       11       12       16       16 </v>
   <v type="int" >        2       11       15       16       16 </v>
   <v type="int" >        4       12       12       12       16 </v>
   <v type="int" >        4       12       12       16       16 </v>
   <v type="int" >        4       12       16       16       16 </v>
   <v type="int" >        2       11       12       12       15 </v>
   <v type="int" >        2       12       12       15       16 </v>
   <v type="int" >        2       12       15       16       16 </v>
   <v type="int" >        2       11       11       12       15 </v>
   <v type="int" >        2       11       12       15       15 </v>
   <v type="int" >        2       12       15       15       16 </v>
   <v type="int" >        2       10       11       11       14 </v>
   <v type="int" >        2       11       11       14       15 </v>
   <v type="int" >        2       11       14       15       15 </v>
   <v type="int" >        2       10       10       11       14 </v>
   <v type="int" >        2       10       11       14       14 </v>
   <v type="int" >        2       11       14       14       15 </v>
   <v type="int" >        2        9       10       10       13 </v>
   <v type="int" >        2       10       10       13       14 </v>
   <v type="int" >        2       10       13       14       14 </v>
   <v type="int" >        2        9        9       10       13 </v>
   <v type="int" >        2        9       10       13       13 </v>
   <v type="int" >        2       10       13       13       14 </v>
   <v type="int" >        2       13       13       14       18 </v>
   <v type="int" >        2       13       13       17       18 </v>
   <v type="int" >        2       13       17       17       18 </v>
   <v type="int" >        2       13       14       14       18 </v>
   <v type="int" >        2       13       14       18       18 </v>
   <v type="int" >        2       13       17       18       18 </v>
   <v type="int" >        2       14       14       15       19 </v>
   <v type="int" >        2       14       14       18       19 </v>
   <v type="int" >        2       14       18       18       19 </v>
   <v type="int" >        2       14       15       15       19 </v>
   <v type="int" >        2       14       15       19       19 </v>
   <v type="int" >        2       14       18       19       19 </v>
   <v type="int" >        2       15       15       16       20 </v>
   <v type="int" >        2       15       15       19       20 </v>
   <v type="int" >        2       15       19       19       20 </v>
   <v type="int" >        2       15       16       16       20 </v>
   <v type="int" >        2       15       16       20       20 </v>
   <v type="int" >        2       15       19       20       20 </v>
   <v type="int" >        4       16       16       16       20 </v>
   <v type="int" >        4       16       16       20       20 </v>
   <v type="int" >        4       16       20       20       20 </v>
   <v type="int" >        2       15       16       16       19 </v>
   <v type="int" >        2       16       16       19       20 </v>
   <v type="int" >        2       16       19       20       20 </v>
   <v type="int" >        2       15       15       16       19 </v>
   <v type="int" >        2       15       16       19       19 </v>
   <v type="int" >        2       16       19       19       20 </v>
   <v type="int" >        2       14       15       15       18 </v>
   <v type="int" >        2       15       15       18       19 </v>
   <v type="int" >        2       15       18       19       19 </v>
   <v type="int" >        2       14       14       15       18 </v>
   <v type="int" >        2       14       15       18       18 </v>
   <v type="int" >        2       15       18       18       19 </v>
   <v type="int" >        2       13       14       14       17 </v>
   <v type="int" >        2       14       14       17       18 </v>
   <v type="int" >        2       14       17       18       18 </v>
   <v type="int" >        2       13       13       14       17 </v>
   <v type="int" >        2       13       14       17       17 </v>
   <v type="int" >        2       14       17       17       18 </v>
   <v type="int" >        2       17       17       18       22 </v>
   <v type="int" >        2       17       17       21       22 </v>
   <v type="int" >        2       17       21       21       22 </v>
   <v type="int" >        2       17       18       18       22 </v>
   <v type="int" >        2       17       18       22       22 </v>
   <v type="int" >        2       17       21       22       22 </v>
   <v type="int" >        2       18       18       19       23 </v>
   <v type="int" >        2       18       18       22       23 </v>
   <v type="int" >        2       18       22       22       23 </v>
   <v type="int" >        2       18       19       19       23 </v>
   <v type="int" >        2       18       19       23       23 </v>
   <v type="int" >        2       18       22       23       23 </v>
   <v type="int" >        2       19       19       20       24 </v>
   <v type="int" >        2       19       19       23       24 </v>
   <v type="int" >        2       19       23       23       24 </v>
   <v type="int" >        2       19       20       20       24 </v>
   <v type="int" >        2       19       20       24       24 </v>
   <v type="int" >        2       19       23       24       24 </v>
   <v type="int" >        4       20       20       20       24 </v>
   <v type="int" >        4       20       20       24       24 </v>
   <v type="int" >        4       20       24       24       24 </v>
   <v type="int" >        2       19       20       20       23 </v>
   <v type="int" >        2       20       20       23       24 </v>
   <v type="int" >        2       20       23       24       24 </v>
   <v type="int" >        2       19       19       20       23 </v>
   <v type="int" >        2       19       20       23       23 </v>
   <v type="int" >        2       20       23       23       24 </v>
   <v type="int" >        2       18       19       19       22 </v>
   <v type="int" >        2       19       19       22       23 </v>
   <v type="int" >        2       19       22       23       23 </v>
   <v type="int" >        2       18       18       19       22 </v>
   <v type="int" >        2       18       19       22       22 </v>
   <v type="int" >        2       19       22       22       23 </v>
   <v type="int" >        2       17       18       18       21 </v>
   <v type="int" >        2       18       18       21       22 </v>
   <v type="int" >        2       18       21       22       22 </v>
   <v type="int" >        2       17       17       18       21 </v>
   <v type="int" >        2       17       18       21       21 </v>
   <v type="int" >        2       18       21       21       22 </v>
  </varray>
  <i name="volumeweight">      0.00238095 </i>
 </kpoints>
 <parameters>
  <separator name="general" >
   <i type="string" name="SYSTEM">unknown system</i>
   <i type="logical" name="LCOMPAT"> F  </i>
  </separator>
  <separator name="electronic" >
   <i type="string" name="PREC">normal</i>
   <i name="ENMAX">    500.00000000</i>
   <i name="ENAUG">    605.39200000</i>
   <i name="EDIFF">      0.00001000</i>
   <i type="int" name="IALGO">    68</i>
   <i type="int" name="IWAVPR">    10</i>
   <i type="int" name="NBANDS">    76</i>
   <i name="NELECT">    128.00000000</i>
   <i type="int" name="TURBO">     0</i>
   <i type="int" name="IRESTART">     0</i>
   <i type="int" name="NREBOOT">     0</i>
   <i type="int" name="NMIN">     0</i>
   <i name="EREF">      0.00000000</i>
   <separator name="electronic smearing" >
    <i type="int" name="ISMEAR">    -5</i>
    <i name="SIGMA">      0.20000000</i>
    <i name="KSPACING">      0.50000000</i>
    <i type="logical" name="KGAMMA"> T  </i>
   </separator>
   <separator name="electronic projectors" >
    <i type="logical" name="LREAL"> F  </i>
    <v name="ROPT">      0.00000000      0.00000000      0.00000000</v>
    <i type="int" name="LMAXPAW">  -100</i>
    <i type="int" name="LMAXMIX">     2</i>
    <i type="logical" name="NLSPLINE"> F  </i>
   </separator>
   <separator name="electronic startup" >
    <i type="int" name="ISTART">     0</i>
    <i type="int" name="ICHARG">     2</i>
    <i type="int" name="INIWAV">     1</i>
   </separator>
   <separator name="electronic spin" >
    <i type="int" name="ISPIN">     1</i>
    <i type="logical" name="LNONCOLLINEAR"> F  </i>
    <v name="MAGMOM">      1.00000000      1.00000000      1.00000000      1.00000000      1.00000000      1.00000000      1.00000000      1.00000000      1.00000000      1.00000000      1.00000000      1.00000000      1.00000000      1.00000000      1.00000000      1.00000000      1.00000000      1.00000000      1.00000000      1.00000000
</v>
    <i name="NUPDOWN">     -1.00000000</i>
    <i type="logical" name="LSORBIT"> F  </i>
    <v name="SAXIS">      0.00000000      0.00000000      1.00000000</v>
    <i type="logical" name="LSPIRAL"> F  </i>
    <v name="QSPIRAL">      0.00000000      0.00000000      0.00000000</v>
    <i type="logical" name="LZEROZ"> F  </i>
   </separator>
   <separator name="electronic exchange-correlation" >
    <i type="logical" name="LASPH"> F  </i>
    <i type="logical" name="LMETAGGA"> F  </i>
   </separator>
   <separator name="electronic convergence" >
    <i type="int" name="NELM">    60</i>
    <i type="int" name="NELMDL">    -5</i>
    <i type="int" name="NELMIN">     4</i>
    <i name="ENINI">    500.00000000</i>
    <separator name="electronic convergence detail" >
     <i type="logical" name="LDIAG"> T  </i>
     <i type="logical" name="LSUBROT"> F  </i>
     <i name="WEIMIN">      0.00000000</i>
     <i name="EBREAK">      0.00000003</i>
     <i name="DEPER">      0.30000000</i>
     <i type="int" name="NRMM">     4</i>
     <i name="TIME">      0.40000000</i>
    </separator>
   </separator>
   <separator name="electronic mixer" >
    <i name="AMIX">      0.40000000</i>
    <i name="BMIX">      1.00000000</i>
    <i name="AMIN">      0.10000000</i>
    <i name="AMIX_MAG">      1.60000000</i>
    <i name="BMIX_MAG">      1.00000000</i>
    <separator name="electronic mixer details" >
     <i type="int" name="IMIX">     4</i>
     <i type="logical" name="MIXFIRST"> F  </i>
     <i type="int" name="MAXMIX">   -45</i>
     <i name="WC">    100.00000000</i>
     <i type="int" name="INIMIX">     1</i>
     <i type="int" name="MIXPRE">     1</i>
     <i type="int" name="MREMOVE">     5</i>
    </separator>
   </separator>
   <separator name="electronic dipolcorrection" >
    <i type="logical" name="LDIPOL"> F  </i>
    <i type="logical" name="LMONO"> F  </i>
    <i type="int" name="IDIPOL">     0</i>
    <i name="EPSILON">      1.00000000</i>
    <v name="DIPOL">   -100.00000000   -100.00000000   -100.00000000</v>
    <i name="EFIELD">      0.00000000</i>
   </separator>
  </separator>
  <separator name="grids" >
   <i type="int" name="NGX">    30</i>
   <i type="int" name="NGY">    24</i>
   <i type="int" name="NGZ">   120</i>
   <i type="int" name="NGXF">    60</i>
   <i type="int" name="NGYF">    48</i>
   <i type="int" name="NGZF">   240</i>
   <i type="logical" name="ADDGRID"> F  </i>
  </separator>
  <separator name="ionic" >
   <i type="int" name="NSW">     0</i>
   <i type="int" name="IBRION">    -1</i>
   <i type="int" name="MDALGO">     0</i>
   <i type="int" name="ISIF">     2</i>
   <i name="PSTRESS">      0.00000000</i>
   <i name="EDIFFG">      0.00010000</i>
   <i type="int" name="NFREE">     0</i>
   <i name="POTIM">      0.50000000</i>
   <i name="SMASS">     -3.00000000</i>
   <i name="SCALEE">      1.00000000</i>
  </separator>
  <separator name="ionic md" >
   <i name="TEBEG">      0.00010000</i>
   <i name="TEEND">      0.00010000</i>
   <i type="int" name="NBLOCK">     1</i>
   <i type="int" name="KBLOCK">     1</i>
   <i type="int" name="NPACO">   256</i>
   <i name="APACO">     16.00000000</i>
  </separator>
  <separator name="symmetry" >
   <i type="int" name="ISYM">     2</i>
   <i name="SYMPREC">      0.00001000</i>
  </separator>
  <separator name="dos" >
   <i type="int" name="LORBIT">     0</i>
   <v name="RWIGS">     -1.00000000     -1.00000000     -1.00000000</v>
   <i type="int" name="NEDOS">   301</i>
   <i name="EMIN">     10.00000000</i>
   <i name="EMAX">    -10.00000000</i>
   <i name="EFERMI">      0.00000000</i>
  </separator>
  <separator name="writing" >
   <i type="int" name="NWRITE">     2</i>
   <i type="logical" name="LWAVE"> F  </i>
   <i type="logical" name="LDOWNSAMPLE"> F  </i>
   <i type="logical" name="LCHARG"> T  </i>
   <i type="logical" name="LPARD"> F  </i>
   <i type="logical" name="LVTOT"> F  </i>
   <i type="logical" name="LVHAR"> F  </i>
   <i type="logical" name="LELF"> F  </i>
   <i type="logical" name="LOPTICS"> F  </i>
   <v name="STM">      0.00000000      0.00000000      0.00000000      0.00000000      0.00000000      0.00000000      0.00000000</v>
  </separator>
  <separator name="performance" >
   <i type="int" name="NPAR">     2</i>
   <i type="int" name="NSIM">     4</i>
   <i type="int" name="NBLK">    -1</i>
   <i type="logical" name="LPLANE"> T  </i>
   <i type="logical" name="LSCALAPACK"> T  </i>
   <i type="logical" name="LSCAAWARE"> F  </i>
   <i type="logical" name="LSCALU"> F  </i>
   <i type="logical" name="LASYNC"> F  </i>
   <i type="logical" name="LORBITALREAL"> F  </i>
  </separator>
  <separator name="miscellaneous" >
   <i type="int" name="IDIOT">     3</i>
   <i type="int" name="ISPECIAL">     0</i>
   <i type="logical" name="LMUSIC"> F  </i>
   <v name="POMASS">     16.00000000     87.62000000     47.88000000</v>
   <v name="DARWINR">      0.00000000      0.00000000      0.00000000</v>
   <v name="DARWINV">      1.00000000      1.00000000      1.00000000</v>
   <i type="logical" name="LCORR"> T  </i>
  </separator>
  <i type="logical" name="GGA_COMPAT"> T  </i>
  <i type="logical" name="LBERRY"> F  </i>
  <i type="int" name="ICORELEVEL">     0</i>
  <i type="logical" name="LDAU"> F  </i>
  <i type="int" name="I_CONSTRAINED_M">     0</i>
  <separator name="electronic exchange-correlation" >
   <i type="string" name="GGA">--</i>
   <i type="int" name="VOSKOWN">     0</i>
   <i type="logical" name="LHFCALC"> F  </i>
   <i type="string" name="PRECFOCK"></i>
   <i type="logical" name="LSYMGRAD"> F  </i>
   <i type="logical" name="LHFONE"> F  </i>
   <i type="logical" name="LRHFCALC"> F  </i>
   <i type="logical" name="LTHOMAS"> F  </i>
   <i type="logical" name="LMODELHF"> F  </i>
   <i name="ENCUT4O">     -1.00000000</i>
   <i type="int" name="EXXOEP">     0</i>
   <i type="int" name="FOURORBIT">     0</i>
   <i name="AEXX">      0.00000000</i>
   <i name="HFALPHA">      0.00000000</i>
   <i name="MCALPHA">      0.00000000</i>
   <i name="ALDAX">      1.00000000</i>
   <i name="AGGAX">      1.00000000</i>
   <i name="ALDAC">      1.00000000</i>
   <i name="AGGAC">      1.00000000</i>
   <i type="int" name="NKREDX">     1</i>
   <i type="int" name="NKREDY">     1</i>
   <i type="int" name="NKREDZ">     1</i>
   <i type="logical" name="SHIFTRED"> F  </i>
   <i type="logical" name="ODDONLY"> F  </i>
   <i type="logical" name="EVENONLY"> F  </i>
   <i type="int" name="LMAXFOCK">     0</i>
   <i type="int" name="NMAXFOCKAE">     0</i>
   <i type="logical" name="LFOCKAEDFT"> F  </i>
   <i name="HFSCREEN">      0.00000000</i>
   <i name="HFSCREENC">      0.00000000</i>
   <i type="int" name="NBANDSGWLOW">     0</i>
  </separator>
  <separator name="vdW DFT" >
   <i type="logical" name="LUSE_VDW"> F  </i>
   <i name="Zab_VDW">     -0.84910000</i>
   <i name="PARAM1">      0.12340000</i>
   <i name="PARAM2">      1.00000000</i>
   <i name="PARAM3">      0.00000000</i>
  </separator>
  <separator name="model GW" >
   <i type="int" name="MODEL_GW">     0</i>
   <i name="MODEL_EPS0">     14.01837061</i>
   <i name="MODEL_ALPHA">      1.00000000</i>
  </separator>
  <separator name="linear response parameters" >
   <i type="logical" name="LEPSILON"> F  </i>
   <i type="logical" name="LRPA"> F  </i>
   <i type="logical" name="LNABLA"> F  </i>
   <i type="logical" name="LVEL"> F  </i>
   <i type="int" name="KINTER">     0</i>
   <i name="CSHIFT">      0.10000000</i>
   <i name="OMEGAMAX">     -1.00000000</i>
   <i name="DEG_THRESHOLD">      0.00200000</i>
   <i name="RTIME">     -0.10000000</i>
   <i name="WPLASMAI">      0.00000000</i>
   <v name="DFIELD">      0.00000000      0.00000000      0.00000000</v>
   <v name="WPLASMA">      0.00000000      0.00000000      0.00000000      0.00000000      0.00000000      0.00000000      0.00000000      0.00000000      0.00000000</v>
  </separator>
  <separator name="orbital magnetization" >
   <i type="logical" name="NUCIND"> F  </i>
   <v name="MAGPOS">      0.00000000      0.00000000      0.00000000</v>
   <i type="logical" name="LNICSALL"> T  </i>
   <i type="logical" name="ORBITALMAG"> F  </i>
   <i type="logical" name="LMAGBLOCH"> F  </i>
   <i type="logical" name="LCHIMAG"> F  </i>
   <i type="logical" name="LGAUGE"> T  </i>
   <i type="int" name="MAGATOM">     0</i>
   <v name="MAGDIPOL">      0.00000000      0.00000000      0.00000000</v>
   <v name="AVECCONST">      0.00000000      0.00000000      0.00000000</v>
  </separator>
  <separator name="response functions" >
   <i type="logical" name="LADDER"> F  </i>
   <i type="logical" name="LRPAFORCE"> F  </i>
   <i type="logical" name="LFXC"> F  </i>
   <i type="logical" name="LHARTREE"> T  </i>
   <i type="int" name="IBSE">     0</i>
   <v type="int" name="KPOINT">    -1     0     0     0</v>
   <i type="logical" name="LTCTE"> F  </i>
   <i type="logical" name="LTETE"> F  </i>
   <i type="logical" name="LTRIPLET"> F  </i>
   <i type="logical" name="LFXCEPS"> F  </i>
   <i type="logical" name="LFXHEG"> F  </i>
   <i type="int" name="NATURALO">     2</i>
   <i type="logical" name="L2ORDER"> F  </i>
   <i type="logical" name="LMP2LT"> F  </i>
   <i type="logical" name="LUSEW"> F  </i>
   <i name="ENCUTGW">     -2.00000000</i>
   <i name="ENCUTGWSOFT">     -2.00000000</i>
   <i name="ENCUTLF">     -1.00000000</i>
   <i type="int" name="LMAXMP2">    -1</i>
   <i name="SCISSOR">      0.00000000</i>
   <i type="int" name="NOMEGA">     0</i>
   <i type="int" name="NOMEGAR">     0</i>
   <i type="int" name="NBANDSGW">    -1</i>
   <i type="int" name="NBANDSO">    -1</i>
   <i type="int" name="NBANDSV">    -1</i>
   <i type="int" name="NELM">     1</i>
   <i type="int" name="NELMHF">     1</i>
   <i type="int" name="DIM">     3</i>
   <i type="int" name="ANTIRES">     0</i>
   <i name="OMEGAMAX">    -30.00000000</i>
   <i name="OMEGAMIN">    -30.00000000</i>
   <i name="OMEGATL">   -200.00000000</i>
   <i type="int" name="OMEGAGRID">   140</i>
   <i name="CSHIFT">     -0.10000000</i>
   <i type="logical" name="SELFENERGY"> F  </i>
   <i type="logical" name="LSPECTRAL"> F  </i>
   <i type="logical" name="LSPECTRALGW"> F  </i>
   <i type="logical" name="LSINGLES"> F  </i>
   <i type="logical" name="LFERMIGW"> F  </i>
   <i type="logical" name="ODDONLYGW"> F  </i>
   <i type="logical" name="EVENONLYGW"> F  </i>
   <i type="int" name="NKREDLFX">     1</i>
   <i type="int" name="NKREDLFY">     1</i>
   <i type="int" name="NKREDLFZ">     1</i>
   <i type="int" name="MAXMEM">  2800</i>
   <i type="int" name="TELESCOPE">     0</i>
   <i type="int" name="TAUPAR">     1</i>
   <i type="int" name="OMEGAPAR">    -1</i>
   <i name="LAMBDA">      1.00000000</i>
  </separator>
  <separator name="External order field" >
   <i name="OFIELD_KAPPA">      0.00000000</i>
   <v name="OFIELD_K">      0.00000000      0.00000000      0.00000000</v>
   <i name="OFIELD_Q6_NEAR">      0.00000000</i>
   <i name="OFIELD_Q6_FAR">      0.00000000</i>
   <i name="OFIELD_A">      0.00000000</i>
  </separator>
 </parameters>
 <atominfo>
  <atoms>      20 </atoms>
  <types>       3 </types>
  <array name="atoms" >
   <dimension dim="1">ion</dimension>
   <field type="string">element</field>
   <field type="int">atomtype</field>
   <set>
    <rc><c>O </c><c>   1</c></rc>
    <rc><c>O </c><c>   1</c></rc>
    <rc><c>O </c><c>   1</c></rc>
    <rc><c>O </c><c>   1</c></rc>
    <rc><c>O </c><c>   1</c></rc>
    <rc><c>O </c><c>   1</c></rc>
    <rc><c>O </c><c>   1</c></rc>
    <rc><c>O </c><c>   1</c></rc>
    <rc><c>O </c><c>   1</c></rc>
    <rc><c>O </c><c>   1</c></rc>
    <rc><c>O </c><c>   1</c></rc>
    <rc><c>O </c><c>   1</c></rc>
    <rc><c>Sr</c><c>   2</c></rc>
    <rc><c>Sr</c><c>   2</c></rc>
    <rc><c>Sr</c><c>   2</c></rc>
    <rc><c>Sr</c><c>   2</c></rc>
    <rc><c>Ti</c><c>   3</c></rc>
    <rc><c>Ti</c><c>   3</c></rc>
    <rc><c>Ti</c><c>   3</c></rc>
    <rc><c>Ti</c><c>   3</c></rc>
   </set>
  </array>
  <array name="atomtypes" >
   <dimension dim="1">type</dimension>
   <field type="int">atomspertype</field>
   <field type="string">element</field>
   <field>mass</field>
   <field>valence</field>
   <field type="string">pseudopotential</field>
   <set>
    <rc><c>  12</c><c>O </c><c>     16.00000000</c><c>      6.00000000</c><c> PAW_PBE O 08Apr2002                    </c></rc>
    <rc><c>   4</c><c>Sr</c><c>     87.62000000</c><c>     10.00000000</c><c> PAW_PBE Sr_sv 07Sep2000                </c></rc>
    <rc><c>   4</c><c>Ti</c><c>     47.88000000</c><c>      4.00000000</c><c> PAW_PBE Ti 08Apr2002                   </c></rc>
   </set>
  </array>
 </atominfo>
 <structure name="initialpos" >
  <crystal>
   <varray name="basis" >
    <v>       5.52288297       0.00000000       0.00000000 </v>
    <v>       0.00000000       3.90526800       0.00000000 </v>
    <v>       0.00000000       0.00000000      21.66504520 </v>
   </varray>
   <i name="volume">    467.27902047 </i>
   <varray name="rec_basis" >
    <v>       0.18106485       0.00000000       0.00000000 </v>
    <v>       0.00000000       0.25606437       0.00000000 </v>
    <v>       0.00000000       0.00000000       0.04615730 </v>
   </varray>
  </crystal>
  <varray name="positions" >
   <v>       0.50000000       0.00000000       0.27694380 </v>
   <v>       0.25000000       0.50000000       0.34067414 </v>
   <v>       0.75000000       0.50000000       0.34067414 </v>
   <v>       0.00000000       0.00000000       0.40440449 </v>
   <v>       0.75000000       0.50000000       0.46813483 </v>
   <v>       0.25000000       0.50000000       0.46813483 </v>
   <v>       0.50000000       0.00000000       0.53186517 </v>
   <v>       0.25000000       0.50000000       0.59559551 </v>
   <v>       0.75000000       0.50000000       0.59559551 </v>
   <v>       0.00000000       0.00000000       0.65932586 </v>
   <v>       0.75000000       0.50000000       0.72305620 </v>
   <v>       0.25000000       0.50000000       0.72305620 </v>
   <v>       0.00000000       0.00000000       0.27694380 </v>
   <v>       0.50000000       0.00000000       0.40440449 </v>
   <v>       0.00000000       0.00000000       0.53186517 </v>
   <v>       0.50000000       0.00000000       0.65932586 </v>
   <v>       0.50000000       0.50000000       0.27694380 </v>
   <v>       0.00000000       0.50000000       0.40440449 </v>
   <v>       0.50000000       0.50000000       0.53186517 </v>
   <v>       0.00000000       0.50000000       0.65932586 </v>
  </varray>
 </structure>
 <calculation>
  <scstep>
   <time name="dav">   14.26   14.27</time>
   <time name="total">   14.41   14.43</time>
   <energy>
    <i name="alphaZ">    378.09908315 </i>
    <i name="ewald">  22731.27163923 </i>
    <i name="hartreedc"> -30966.93774878 </i>
    <i name="XCdc">    325.41603597 </i>
    <i name="pawpsdc">   5334.45189010 </i>
    <i name="pawaedc">  -5139.13784255 </i>
    <i name="eentropy">      0.00000000 </i>
    <i name="bandstr">    -19.05557771 </i>
    <i name="atom">   8937.26825017 </i>
    <i name="e_fr_energy">   1581.37572959 </i>
    <i name="e_wo_entrp">   1581.37572959 </i>
    <i name="e_0_energy">   1581.37572959 </i>
   </energy>
  </scstep>
  <scstep>
   <time name="dav">   16.12   16.12</time>
   <time name="total">   16.14   16.14</time>
   <energy>
    <i name="e_fr_energy">    182.76771793 </i>
    <i name="e_wo_entrp">    182.76771793 </i>
    <i name="e_0_energy">    182.76771793 </i>
   </energy>
  </scstep>
  <scstep>
   <time name="dav">   17.79   17.79</time>
   <time name="total">   17.79   17.79</time>
   <energy>
    <i name="e_fr_energy">   -172.77443235 </i>
    <i name="e_wo_entrp">   -172.77443235 </i>
    <i name="e_0_energy">   -172.77443235 </i>
   </energy>
  </scstep>
  <scstep>
   <time name="dav">   17.47   17.47</time>
   <time name="total">   17.47   17.47</time>
   <energy>
    <i name="e_fr_energy">   -197.47759027 </i>
    <i name="e_wo_entrp">   -197.47759027 </i>
    <i name="e_0_energy">   -197.47759027 </i>
   </energy>
  </scstep>
  <scstep>
   <time name="dav">   22.07   22.07</time>
   <time name="total">   22.58   22.58</time>
   <energy>
    <i name="e_fr_energy">   -198.73519632 </i>
    <i name="e_wo_entrp">   -198.73519632 </i>
    <i name="e_0_energy">   -198.73519632 </i>
   </energy>
  </scstep>
  <scstep>
   <time name="diag">    1.59    1.59</time>
   <time name="diis">   13.15   13.15</time>
   <time name="orth">    0.32    0.32</time>
   <time name="total">   15.72   15.72</time>
   <energy>
    <i name="e_fr_energy">   -205.70484457 </i>
    <i name="e_wo_entrp">   -205.70484457 </i>
    <i name="e_0_energy">   -205.70484457 </i>
   </energy>
  </scstep>
  <scstep>
   <time name="diag">    1.58    1.58</time>
   <time name="diis">   11.77   11.77</time>
   <time name="orth">    0.32    0.32</time>
   <time name="total">   14.33   14.34</time>
   <energy>
    <i name="e_fr_energy">   -172.29506439 </i>
    <i name="e_wo_entrp">   -172.29506439 </i>
    <i name="e_0_energy">   -172.29506439 </i>
   </energy>
  </scstep>
  <scstep>
   <time name="diag">    1.59    1.59</time>
   <time name="diis">   11.52   11.52</time>
   <time name="orth">    0.32    0.32</time>
   <time name="total">   14.06   14.06</time>
   <energy>
    <i name="e_fr_energy">   -160.55843406 </i>
    <i name="e_wo_entrp">   -160.55843406 </i>
    <i name="e_0_energy">   -160.55843406 </i>
   </energy>
  </scstep>
  <scstep>
   <time name="diag">    1.59    1.59</time>
   <time name="diis">   13.07   13.07</time>
   <time name="orth">    0.32    0.32</time>
   <time name="total">   15.61   15.61</time>
   <energy>
    <i name="e_fr_energy">   -156.22542894 </i>
    <i name="e_wo_entrp">   -156.22542894 </i>
    <i name="e_0_energy">   -156.22542894 </i>
   </energy>
  </scstep>
  <scstep>
   <time name="diag">    1.59    1.59</time>
   <time name="diis">   11.90   11.90</time>
   <time name="orth">    0.32    0.32</time>
   <time name="total">   14.46   14.47</time>
   <energy>
    <i name="e_fr_energy">   -157.63775779 </i>
    <i name="e_wo_entrp">   -157.63775779 </i>
    <i name="e_0_energy">   -157.63775779 </i>
   </energy>
  </scstep>
  <scstep>
   <time name="diag">    1.59    1.59</time>
   <time name="diis">   15.41   15.41</time>
   <time name="orth">    0.32    0.32</time>
   <time name="total">   18.00   18.00</time>
   <energy>
    <i name="e_fr_energy">   -156.31957544 </i>
    <i name="e_wo_entrp">   -156.31957544 </i>
    <i name="e_0_energy">   -156.31957544 </i>
   </energy>
  </scstep>
  <scstep>
   <time name="diag">    1.58    1.58</time>
   <time name="diis">   14.88   14.88</time>
   <time name="orth">    0.32    0.32</time>
   <time name="total">   17.46   17.45</time>
   <energy>
    <i name="e_fr_energy">   -158.81641404 </i>
    <i name="e_wo_entrp">   -158.81641404 </i>
    <i name="e_0_energy">   -158.81641404 </i>
   </energy>
  </scstep>
  <scstep>
   <time name="diag">    1.58    1.58</time>
   <time name="diis">   16.49   16.48</time>
   <time name="orth">    0.32    0.32</time>
   <time name="total">   19.05   19.05</time>
   <energy>
    <i name="e_fr_energy">   -159.12236773 </i>
    <i name="e_wo_entrp">   -159.12236773 </i>
    <i name="e_0_energy">   -159.12236773 </i>
   </energy>
  </scstep>
  <scstep>
   <time name="diag">    1.58    1.58</time>
   <time name="diis">   13.78   13.78</time>
   <time name="orth">    0.32    0.32</time>
   <time name="total">   16.34   16.34</time>
   <energy>
    <i name="e_fr_energy">   -157.89746522 </i>
    <i name="e_wo_entrp">   -157.89746522 </i>
    <i name="e_0_energy">   -157.89746522 </i>
   </energy>
  </scstep>
  <scstep>
   <time name="diag">    1.58    1.58</time>
   <time name="diis">   11.62   11.61</time>
   <time name="orth">    0.32    0.32</time>
   <time name="total">   14.18   14.18</time>
   <energy>
    <i name="e_fr_energy">   -154.55108076 </i>
    <i name="e_wo_entrp">   -154.55108076 </i>
    <i name="e_0_energy">   -154.55108076 </i>
   </energy>
  </scstep>
  <scstep>
   <time name="diag">    1.57    1.57</time>
   <time name="diis">   11.77   11.77</time>
   <time name="orth">    0.32    0.32</time>
   <time name="total">   14.33   14.33</time>
   <energy>
    <i name="e_fr_energy">   -150.27451423 </i>
    <i name="e_wo_entrp">   -150.27451423 </i>
    <i name="e_0_energy">   -150.27451423 </i>
   </energy>
  </scstep>
  <scstep>
   <time name="diag">    1.58    1.58</time>
   <time name="diis">   13.62   13.62</time>
   <time name="orth">    0.32    0.32</time>
   <time name="total">   16.18   16.18</time>
   <energy>
    <i name="e_fr_energy">   -150.12774401 </i>
    <i name="e_wo_entrp">   -150.12774401 </i>
    <i name="e_0_energy">   -150.12774401 </i>
   </energy>
  </scstep>
  <scstep>
   <time name="diag">    1.57    1.57</time>
   <time name="diis">   12.94   12.94</time>
   <time name="orth">    0.32    0.32</time>
   <time name="total">   15.49   15.49</time>
   <energy>
    <i name="e_fr_energy">   -149.80659208 </i>
    <i name="e_wo_entrp">   -149.80659208 </i>
    <i name="e_0_energy">   -149.80659208 </i>
   </energy>
  </scstep>
  <scstep>
   <time name="diag">    1.57    1.57</time>
   <time name="diis">   14.27   14.27</time>
   <time name="orth">    0.32    0.32</time>
   <time name="total">   16.82   16.82</time>
   <energy>
    <i name="e_fr_energy">   -149.70583204 </i>
    <i name="e_wo_entrp">   -149.70583204 </i>
    <i name="e_0_energy">   -149.70583204 </i>
   </energy>
  </scstep>
  <scstep>
   <time name="diag">    1.57    1.57</time>
   <time name="diis">   11.55   11.55</time>
   <time name="orth">    0.32    0.32</time>
   <time name="total">   14.10   14.10</time>
   <energy>
    <i name="e_fr_energy">   -149.25783586 </i>
    <i name="e_wo_entrp">   -149.25783586 </i>
    <i name="e_0_energy">   -149.25783586 </i>
   </energy>
  </scstep>
  <scstep>
   <time name="diag">    1.57    1.57</time>
   <time name="diis">   11.84   11.83</time>
   <time name="orth">    0.34    0.34</time>
   <time name="total">   14.40   14.41</time>
   <energy>
    <i name="e_fr_energy">   -149.30020462 </i>
    <i name="e_wo_entrp">   -149.30020462 </i>
    <i name="e_0_energy">   -149.30020462 </i>
   </energy>
  </scstep>
  <scstep>
   <time name="diag">    1.57    1.57</time>
   <time name="diis">   11.41   11.40</time>
   <time name="orth">    0.34    0.34</time>
   <time name="total">   13.98   13.98</time>
   <energy>
    <i name="e_fr_energy">   -148.95445136 </i>
    <i name="e_wo_entrp">   -148.95445136 </i>
    <i name="e_0_energy">   -148.95445136 </i>
   </energy>
  </scstep>
  <scstep>
   <time name="diag">    1.58    1.58</time>
   <time name="diis">   13.06   13.06</time>
   <time name="orth">    0.34    0.34</time>
   <time name="total">   15.64   15.64</time>
   <energy>
    <i name="e_fr_energy">   -148.84422310 </i>
    <i name="e_wo_entrp">   -148.84422310 </i>
    <i name="e_0_energy">   -148.84422310 </i>
   </energy>
  </scstep>
  <scstep>
   <time name="diag">    1.57    1.57</time>
   <time name="diis">   11.78   11.78</time>
   <time name="orth">    0.34    0.34</time>
   <time name="total">   14.36   14.36</time>
   <energy>
    <i name="e_fr_energy">   -148.82462558 </i>
    <i name="e_wo_entrp">   -148.82462558 </i>
    <i name="e_0_energy">   -148.82462558 </i>
   </energy>
  </scstep>
  <scstep>
   <time name="diag">    1.58    1.58</time>
   <time name="diis">   12.86   12.86</time>
   <time name="orth">    0.34    0.34</time>
   <time name="total">   15.45   15.45</time>
   <energy>
    <i name="e_fr_energy">   -148.79363030 </i>
    <i name="e_wo_entrp">   -148.79363030 </i>
    <i name="e_0_energy">   -148.79363030 </i>
   </energy>
  </scstep>
  <scstep>
   <time name="diag">    1.58    1.58</time>
   <time name="diis">   12.06   12.06</time>
   <time name="orth">    0.32    0.32</time>
   <time name="total">   14.63   14.63</time>
   <energy>
    <i name="e_fr_energy">   -148.77201424 </i>
    <i name="e_wo_entrp">   -148.77201424 </i>
    <i name="e_0_energy">   -148.77201424 </i>
   </energy>
  </scstep>
  <scstep>
   <time name="diag">    1.59    1.59</time>
   <time name="diis">   11.81   11.81</time>
   <time name="orth">    0.32    0.32</time>
   <time name="total">   14.38   14.39</time>
   <energy>
    <i name="e_fr_energy">   -148.74210878 </i>
    <i name="e_wo_entrp">   -148.74210878 </i>
    <i name="e_0_energy">   -148.74210878 </i>
   </energy>
  </scstep>
  <scstep>
   <time name="diag">    1.59    1.59</time>
   <time name="diis">   11.78   11.78</time>
   <time name="orth">    0.32    0.32</time>
   <time name="total">   14.37   14.37</time>
   <energy>
    <i name="e_fr_energy">   -148.71539849 </i>
    <i name="e_wo_entrp">   -148.71539849 </i>
    <i name="e_0_energy">   -148.71539849 </i>
   </energy>
  </scstep>
  <scstep>
   <time name="diag">    1.59    1.59</time>
   <time name="diis">   13.14   13.13</time>
   <time name="orth">    0.32    0.32</time>
   <time name="total">   15.72   15.72</time>
   <energy>
    <i name="e_fr_energy">   -148.71085711 </i>
    <i name="e_wo_entrp">   -148.71085711 </i>
    <i name="e_0_energy">   -148.71085711 </i>
   </energy>
  </scstep>
  <scstep>
   <time name="diag">    1.58    1.58</time>
   <time name="diis">   11.82   11.81</time>
   <time name="orth">    0.32    0.32</time>
   <time name="total">   14.40   14.40</time>
   <energy>
    <i name="e_fr_energy">   -148.70536093 </i>
    <i name="e_wo_entrp">   -148.70536093 </i>
    <i name="e_0_energy">   -148.70536093 </i>
   </energy>
  </scstep>
  <scstep>
   <time name="diag">    1.59    1.59</time>
   <time name="diis">   12.29   12.29</time>
   <time name="orth">    0.32    0.32</time>
   <time name="total">   14.88   14.88</time>
   <energy>
    <i name="e_fr_energy">   -148.71230579 </i>
    <i name="e_wo_entrp">   -148.71230579 </i>
    <i name="e_0_energy">   -148.71230579 </i>
   </energy>
  </scstep>
  <scstep>
   <time name="diag">    1.58    1.58</time>
   <time name="diis">   12.14   12.13</time>
   <time name="orth">    0.32    0.32</time>
   <time name="total">   14.72   14.72</time>
   <energy>
    <i name="e_fr_energy">   -148.70929610 </i>
    <i name="e_wo_entrp">   -148.70929610 </i>
    <i name="e_0_energy">   -148.70929610 </i>
   </energy>
  </scstep>
  <scstep>
   <time name="diag">    1.59    1.59</time>
   <time name="diis">   11.72   11.72</time>
   <time name="orth">    0.32    0.32</time>
   <time name="total">   14.31   14.31</time>
   <energy>
    <i name="e_fr_energy">   -148.70504421 </i>
    <i name="e_wo_entrp">   -148.70504421 </i>
    <i name="e_0_energy">   -148.70504421 </i>
   </energy>
  </scstep>
  <scstep>
   <time name="diag">    1.59    1.59</time>
   <time name="diis">   11.49   11.49</time>
   <time name="orth">    0.32    0.32</time>
   <time name="total">   14.08   14.08</time>
   <energy>
    <i name="e_fr_energy">   -148.70534497 </i>
    <i name="e_wo_entrp">   -148.70534497 </i>
    <i name="e_0_energy">   -148.70534497 </i>
   </energy>
  </scstep>
  <scstep>
   <time name="diag">    1.59    1.59</time>
   <time name="diis">   11.14   11.13</time>
   <time name="orth">    0.32    0.32</time>
   <time name="total">   13.73   13.73</time>
   <energy>
    <i name="e_fr_energy">   -148.70556527 </i>
    <i name="e_wo_entrp">   -148.70556527 </i>
    <i name="e_0_energy">   -148.70556527 </i>
   </energy>
  </scstep>
  <scstep>
   <time name="diag">    1.59    1.59</time>
   <time name="diis">   11.18   11.17</time>
   <time name="orth">    0.32    0.32</time>
   <time name="total">   13.76   13.77</time>
   <energy>
    <i name="e_fr_energy">   -148.70608391 </i>
    <i name="e_wo_entrp">   -148.70608391 </i>
    <i name="e_0_energy">   -148.70608391 </i>
   </energy>
  </scstep>
  <scstep>
   <time name="diag">    1.59    1.59</time>
   <time name="diis">   11.16   11.16</time>
   <time name="orth">    0.32    0.32</time>
   <time name="total">   13.75   13.75</time>
   <energy>
    <i name="e_fr_energy">   -148.70636848 </i>
    <i name="e_wo_entrp">   -148.70636848 </i>
    <i name="e_0_energy">   -148.70636848 </i>
   </energy>
  </scstep>
  <scstep>
   <time name="diag">    1.59    1.59</time>
   <time name="diis">    9.91    9.90</time>
   <time name="orth">    0.32    0.32</time>
   <time name="total">   12.50   12.50</time>
   <energy>
    <i name="e_fr_energy">   -148.70636141 </i>
    <i name="e_wo_entrp">   -148.70636141 </i>
    <i name="e_0_energy">   -148.70636141 </i>
   </energy>
  </scstep>
  <scstep>
   <time name="diag">    1.59    1.59</time>
   <time name="diis">   10.71   10.71</time>
   <time name="orth">    0.32    0.32</time>
   <time name="total">   13.30   13.30</time>
   <energy>
    <i name="e_fr_energy">   -148.70617123 </i>
    <i name="e_wo_entrp">   -148.70617123 </i>
    <i name="e_0_energy">   -148.70617123 </i>
   </energy>
  </scstep>
  <scstep>
   <time name="diag">    1.59    1.59</time>
   <time name="diis">    8.99    8.99</time>
   <time name="orth">    0.32    0.32</time>
   <time name="total">   11.58   11.59</time>
   <energy>
    <i name="e_fr_energy">   -148.70628360 </i>
    <i name="e_wo_entrp">   -148.70628360 </i>
    <i name="e_0_energy">   -148.70628360 </i>
   </energy>
  </scstep>
  <scstep>
   <time name="diag">    1.59    1.59</time>
   <time name="diis">    9.56    9.55</time>
   <time name="orth">    0.32    0.32</time>
   <time name="total">   12.15   12.15</time>
   <energy>
    <i name="e_fr_energy">   -148.70612724 </i>
    <i name="e_wo_entrp">   -148.70612724 </i>
    <i name="e_0_energy">   -148.70612724 </i>
   </energy>
  </scstep>
  <scstep>
   <time name="diag">    1.59    1.59</time>
   <time name="diis">    8.81    8.81</time>
   <time name="orth">    0.32    0.32</time>
   <time name="total">   11.40   11.40</time>
   <energy>
    <i name="e_fr_energy">   -148.70618961 </i>
    <i name="e_wo_entrp">   -148.70618961 </i>
    <i name="e_0_energy">   -148.70618961 </i>
   </energy>
  </scstep>
  <scstep>
   <time name="diag">    1.59    1.59</time>
   <time name="diis">    8.18    8.18</time>
   <time name="orth">    0.32    0.32</time>
   <time name="total">   10.77   10.77</time>
   <energy>
    <i name="e_fr_energy">   -148.70620922 </i>
    <i name="e_wo_entrp">   -148.70620922 </i>
    <i name="e_0_energy">   -148.70620922 </i>
   </energy>
  </scstep>
  <scstep>
   <time name="diag">    1.59    1.59</time>
   <time name="diis">    7.17    7.17</time>
   <time name="orth">    0.32    0.32</time>
   <time name="total">    9.77    9.77</time>
   <energy>
    <i name="e_fr_energy">   -148.70627964 </i>
    <i name="e_wo_entrp">   -148.70627964 </i>
    <i name="e_0_energy">   -148.70627964 </i>
   </energy>
  </scstep>
  <scstep>
   <time name="diag">    1.60    1.60</time>
   <time name="diis">    6.92    6.92</time>
   <time name="orth">    0.32    0.32</time>
   <time name="total">    9.53    9.53</time>
   <energy>
    <i name="e_fr_energy">   -148.70626362 </i>
    <i name="e_wo_entrp">   -148.70626362 </i>
    <i name="e_0_energy">   -148.70626362 </i>
   </energy>
  </scstep>
  <scstep>
   <time name="diag">    1.59    1.59</time>
   <time name="diis">    6.90    6.90</time>
   <time name="orth">    0.32    0.32</time>
   <time name="total">    9.49    9.49</time>
   <energy>
    <i name="e_fr_energy">   -148.70630381 </i>
    <i name="e_wo_entrp">   -148.70630381 </i>
    <i name="e_0_energy">   -148.70630381 </i>
   </energy>
  </scstep>
  <scstep>
   <time name="diag">    1.59    1.59</time>
   <time name="diis">    6.73    6.73</time>
   <time name="orth">    0.32    0.32</time>
   <time name="total">    9.33    9.33</time>
   <energy>
    <i name="e_fr_energy">   -148.70627100 </i>
    <i name="e_wo_entrp">   -148.70627100 </i>
    <i name="e_0_energy">   -148.70627100 </i>
   </energy>
  </scstep>
  <scstep>
   <time name="diag">    1.59    1.59</time>
   <time name="diis">    6.58    6.58</time>
   <time name="orth">    0.33    0.33</time>
   <time name="total">    9.18    9.19</time>
   <energy>
    <i name="e_fr_energy">   -148.70630016 </i>
    <i name="e_wo_entrp">   -148.70630016 </i>
    <i name="e_0_energy">   -148.70630016 </i>
   </energy>
  </scstep>
  <scstep>
   <time name="diag">    1.59    1.59</time>
   <time name="diis">    6.52    6.52</time>
   <time name="orth">    0.32    0.32</time>
   <time name="total">    9.11    9.11</time>
   <energy>
    <i name="e_fr_energy">   -148.70627482 </i>
    <i name="e_wo_entrp">   -148.70627482 </i>
    <i name="e_0_energy">   -148.70627482 </i>
   </energy>
  </scstep>
  <scstep>
   <time name="diag">    1.58    1.58</time>
   <time name="diis">    6.49    6.49</time>
   <time name="orth">    0.32    0.32</time>
   <time name="total">    9.08    9.08</time>
   <energy>
    <i name="e_fr_energy">   -148.70630117 </i>
    <i name="e_wo_entrp">   -148.70630117 </i>
    <i name="e_0_energy">   -148.70630117 </i>
   </energy>
  </scstep>
  <scstep>
   <time name="diag">    1.59    1.59</time>
   <time name="diis">    6.43    6.43</time>
   <time name="orth">    0.32    0.32</time>
   <time name="total">    9.02    9.03</time>
   <energy>
    <i name="e_fr_energy">   -148.70627531 </i>
    <i name="e_wo_entrp">   -148.70627531 </i>
    <i name="e_0_energy">   -148.70627531 </i>
   </energy>
  </scstep>
  <scstep>
   <time name="diag">    1.59    1.59</time>
   <time name="diis">    6.34    6.33</time>
   <time name="orth">    0.32    0.32</time>
   <time name="total">    8.93    8.93</time>
   <energy>
    <i name="e_fr_energy">   -148.70629505 </i>
    <i name="e_wo_entrp">   -148.70629505 </i>
    <i name="e_0_energy">   -148.70629505 </i>
   </energy>
  </scstep>
  <scstep>
   <time name="diag">    1.58    1.58</time>
   <time name="diis">    6.36    6.36</time>
   <time name="orth">    0.32    0.32</time>
   <time name="total">    8.95    8.95</time>
   <energy>
    <i name="e_fr_energy">   -148.70627278 </i>
    <i name="e_wo_entrp">   -148.70627278 </i>
    <i name="e_0_energy">   -148.70627278 </i>
   </energy>
  </scstep>
  <scstep>
   <time name="diag">    1.58    1.58</time>
   <time name="diis">    6.25    6.25</time>
   <time name="orth">    0.32    0.32</time>
   <time name="total">    8.85    8.85</time>
   <energy>
    <i name="e_fr_energy">   -148.70629338 </i>
    <i name="e_wo_entrp">   -148.70629338 </i>
    <i name="e_0_energy">   -148.70629338 </i>
   </energy>
  </scstep>
  <scstep>
   <time name="diag">    1.59    1.59</time>
   <time name="diis">    6.26    6.26</time>
   <time name="orth">    0.32    0.32</time>
   <time name="total">    8.86    8.86</time>
   <energy>
    <i name="e_fr_energy">   -148.70627166 </i>
    <i name="e_wo_entrp">   -148.70627166 </i>
    <i name="e_0_energy">   -148.70627166 </i>
   </energy>
  </scstep>
  <scstep>
   <time name="diag">    1.59    1.59</time>
   <time name="diis">    6.22    6.22</time>
   <time name="orth">    0.32    0.32</time>
   <time name="total">    8.81    8.81</time>
   <energy>
    <i name="e_fr_energy">   -148.70629085 </i>
    <i name="e_wo_entrp">   -148.70629085 </i>
    <i name="e_0_energy">   -148.70629085 </i>
   </energy>
  </scstep>
  <scstep>
   <time name="diag">    1.59    1.59</time>
   <time name="diis">    6.22    6.21</time>
   <time name="orth">    0.32    0.32</time>
   <time name="total">    8.81    8.82</time>
   <energy>
    <i name="e_fr_energy">   -148.70626909 </i>
    <i name="e_wo_entrp">   -148.70626909 </i>
    <i name="e_0_energy">   -148.70626909 </i>
   </energy>
  </scstep>
  <scstep>
   <time name="diag">    1.59    1.59</time>
   <time name="diis">    6.17    6.16</time>
   <time name="orth">    0.32    0.32</time>
   <time name="total">    8.76    8.76</time>
   <energy>
    <i name="e_fr_energy">   -148.70629118 </i>
    <i name="e_wo_entrp">   -148.70629118 </i>
    <i name="e_0_energy">   -148.70629118 </i>
   </energy>
  </scstep>
  <scstep>
   <time name="diag">    1.59    1.59</time>
   <time name="diis">    6.18    6.18</time>
   <time name="orth">    0.32    0.32</time>
   <time name="total">    8.78    8.78</time>
   <energy>
    <i name="e_fr_energy">   -148.70626900 </i>
    <i name="e_wo_entrp">   -148.70626900 </i>
    <i name="e_0_energy">   -148.70626900 </i>
   </energy>
  </scstep>
  <scstep>
   <time name="diag">    1.59    1.59</time>
   <time name="diis">    6.19    6.18</time>
   <time name="orth">    0.32    0.32</time>
   <time name="total">    8.24    8.24</time>
   <energy>
    <i name="alphaZ">    378.09908315 </i>
    <i name="ewald">  22731.27163923 </i>
    <i name="hartreedc"> -31288.17685713 </i>
    <i name="XCdc">    340.18208823 </i>
    <i name="pawpsdc">   6163.85283290 </i>
    <i name="pawaedc">  -5993.40320414 </i>
    <i name="eentropy">      0.00000000 </i>
    <i name="bandstr">  -1417.80012336 </i>
    <i name="atom">   8937.26825017 </i>
    <i name="e_fr_energy">   -148.70629095 </i>
    <i name="e_wo_entrp">   -148.70629095 </i>
    <i name="e_0_energy">   -148.70629095 </i>
   </energy>
  </scstep>
  <structure>
   <crystal>
    <varray name="basis" >
     <v>       5.52288297       0.00000000       0.00000000 </v>
     <v>       0.00000000       3.90526800       0.00000000 </v>
     <v>       0.00000000       0.00000000      21.66504520 </v>
    </varray>
    <i name="volume">    467.27902047 </i>
    <varray name="rec_basis" >
     <v>       0.18106485       0.00000000       0.00000000 </v>
     <v>       0.00000000       0.25606437       0.00000000 </v>
     <v>       0.00000000       0.00000000       0.04615730 </v>
    </varray>
   </crystal>
   <varray name="positions" >
    <v>       0.50000000       0.00000000       0.27694380 </v>
    <v>       0.25000000       0.50000000       0.34067414 </v>
    <v>       0.75000000       0.50000000       0.34067414 </v>
    <v>       0.00000000       0.00000000       0.40440449 </v>
    <v>       0.75000000       0.50000000       0.46813483 </v>
    <v>       0.25000000       0.50000000       0.46813483 </v>
    <v>       0.50000000       0.00000000       0.53186517 </v>
    <v>       0.25000000       0.50000000       0.59559551 </v>
    <v>       0.75000000       0.50000000       0.59559551 </v>
    <v>       0.00000000       0.00000000       0.65932586 </v>
    <v>       0.75000000       0.50000000       0.72305620 </v>
    <v>       0.25000000       0.50000000       0.72305620 </v>
    <v>       0.00000000       0.00000000       0.27694380 </v>
    <v>       0.50000000       0.00000000       0.40440449 </v>
    <v>       0.00000000       0.00000000       0.53186517 </v>
    <v>       0.50000000       0.00000000       0.65932586 </v>
    <v>       0.50000000       0.50000000       0.27694380 </v>
    <v>       0.00000000       0.50000000       0.40440449 </v>
    <v>       0.50000000       0.50000000       0.53186517 </v>
    <v>       0.00000000       0.50000000       0.65932586 </v>
   </varray>
  </structure>
  <varray name="forces" >
   <v>       0.00000000      -0.00000000      -1.52203127 </v>
   <v>       0.70348411      -0.00000000      -2.12016757 </v>
   <v>      -0.70348411      -0.00000000      -2.12016757 </v>
   <v>       0.00000000      -0.00000000      -0.76125261 </v>
   <v>       0.56727445      -0.00000000      -1.30635538 </v>
   <v>      -0.56727445       0.00000000      -1.30635538 </v>
   <v>       0.00000000      -0.00000000      -0.59526353 </v>
   <v>       0.80306300      -0.00000000      -1.50351827 </v>
   <v>      -0.80306300      -0.00000000      -1.50351827 </v>
   <v>       0.00000000      -0.00000000      -1.05384954 </v>
   <v>       0.23457052      -0.00000000      -1.07569489 </v>
   <v>      -0.23457052      -0.00000000      -1.07569489 </v>
   <v>       0.00000000      -0.00000000       0.98245663 </v>
   <v>       0.00000000      -0.00000000       0.96284339 </v>
   <v>       0.00000000      -0.00000000       0.73936694 </v>
   <v>       0.00000000      -0.00000000       1.60746671 </v>
   <v>       0.00000000      -0.00000000       2.36810630 </v>
   <v>       0.00000000      -0.00000000       2.66945525 </v>
   <v>       0.00000000      -0.00000000       2.41360710 </v>
   <v>       0.00000000      -0.00000000       4.20056684 </v>
  </varray>
  <varray name="stress" >
   <v>      14.70795985       0.00000000       0.00000000 </v>
   <v>       0.00000000      30.62429198       0.00000000 </v>
   <v>       0.00000000       0.00000000       8.23714934 </v>
  </varray>
  <energy>
   <i name="e_fr_energy">   -148.70629095 </i>
   <i name="e_wo_entrp">   -148.70629095 </i>
   <i name="e_0_energy">      0.00000000 </i>
  </energy>
  <time name="totalsc">  816.11  816.26</time>
  <eigenvalues>
   <array>
    <dimension dim="1">band</dimension>
    <dimension dim="2">kpoint</dimension>
    <dimension dim="3">spin</dimension>
    <field>eigene</field>
    <field>occ</field>
    <set>
     <set comment="spin 1">
      <set comment="kpoint 1">
       <r>  -36.6160    1.0000 </r>
       <r>  -35.2837    1.0000 </r>
       <r>  -34.3206    1.0000 </r>
       <r>  -33.4109    1.0000 </r>
       <r>  -20.5197    1.0000 </r>
       <r>  -20.0472    1.0000 </r>
       <r>  -19.8709    1.0000 </r>
       <r>  -19.3732    1.0000 </r>
       <r>  -19.0600    1.0000 </r>
       <r>  -18.6955    1.0000 </r>
       <r>  -18.6165    1.0000 </r>
       <r>  -18.5524    1.0000 </r>
       <r>  -18.5400    1.0000 </r>
       <r>  -18.3611    1.0000 </r>
       <r>  -18.1033    1.0000 </r>
       <r>  -17.8253    1.0000 </r>
       <r>  -17.3391    1.0000 </r>
       <r>  -17.3272    1.0000 </r>
       <r>  -17.1493    1.0000 </r>
       <r>  -17.0704    1.0000 </r>
       <r>  -16.4781    1.0000 </r>
       <r>  -16.3575    1.0000 </r>
       <r>  -16.2646    1.0000 </r>
       <r>  -16.1580    1.0000 </r>
       <r>  -16.1078    1.0000 </r>
       <r>  -15.4227    1.0000 </r>
       <r>  -15.1559    1.0000 </r>
       <r>  -15.1033    1.0000 </r>
       <r>   -7.1292    1.0000 </r>
       <r>   -6.8165    1.0000 </r>
       <r>   -6.6541    1.0000 </r>
       <r>   -6.0223    1.0000 </r>
       <r>   -5.9017    1.0000 </r>
       <r>   -5.5501    1.0000 </r>
       <r>   -5.4625    1.0000 </r>
       <r>   -5.3030    1.0000 </r>
       <r>   -5.1477    1.0000 </r>
       <r>   -5.0680    1.0000 </r>
       <r>   -5.0121    1.0000 </r>
       <r>   -4.8570    1.0000 </r>
       <r>   -4.7716    1.0000 </r>
       <r>   -4.5818    1.0000 </r>
       <r>   -4.2595    1.0000 </r>
       <r>   -4.1297    1.0000 </r>
       <r>   -4.0911    1.0000 </r>
       <r>   -4.0150    1.0000 </r>
       <r>   -3.8046    1.0000 </r>
       <r>   -3.7835    1.0000 </r>
       <r>   -3.5575    1.0000 </r>
       <r>   -3.2542    1.0000 </r>
       <r>   -3.0226    1.0000 </r>
       <r>   -2.9358    1.0000 </r>
       <r>   -2.8692    1.0000 </r>
       <r>   -2.7249    1.0000 </r>
       <r>   -2.6732    1.0000 </r>
       <r>   -2.4120    1.0000 </r>
       <r>   -2.3089    1.0000 </r>
       <r>   -1.9624    1.0000 </r>
       <r>   -1.9309    1.0000 </r>
       <r>   -1.3585    1.0000 </r>
       <r>   -1.3321    1.0000 </r>
       <r>   -1.0900    1.0000 </r>
       <r>   -1.0715    1.0000 </r>
       <r>   -1.0485    1.0000 </r>
       <r>   -0.8788    1.0307 </r>
       <r>   -0.7857    0.3237 </r>
       <r>   -0.7679    0.0000 </r>
       <r>   -0.4189    0.0000 </r>
       <r>    0.0518    0.0000 </r>
       <r>    0.2759    0.0000 </r>
       <r>    0.3726    0.0000 </r>
       <r>    0.6353    0.0000 </r>
       <r>    1.3038    0.0000 </r>
       <r>    1.6124    0.0000 </r>
       <r>    2.6588    0.0000 </r>
       <r>    4.1332    0.0000 </r>
      </set>
      <set comment="kpoint 2">
       <r>  -36.6159    1.0000 </r>
       <r>  -35.2835    1.0000 </r>
       <r>  -34.3204    1.0000 </r>
       <r>  -33.4108    1.0000 </r>
       <r>  -20.5509    1.0000 </r>
       <r>  -20.1568    1.0000 </r>
       <r>  -19.7759    1.0000 </r>
       <r>  -19.3700    1.0000 </r>
       <r>  -19.1046    1.0000 </r>
       <r>  -18.7228    1.0000 </r>
       <r>  -18.6167    1.0000 </r>
       <r>  -18.5210    1.0000 </r>
       <r>  -18.4596    1.0000 </r>
       <r>  -18.3668    1.0000 </r>
       <r>  -18.1461    1.0000 </r>
       <r>  -17.8044    1.0000 </r>
       <r>  -17.3293    1.0000 </r>
       <r>  -17.3275    1.0000 </r>
       <r>  -17.1267    1.0000 </r>
       <r>  -17.0746    1.0000 </r>
       <r>  -16.4643    1.0000 </r>
       <r>  -16.3578    1.0000 </r>
       <r>  -16.2624    1.0000 </r>
       <r>  -16.1627    1.0000 </r>
       <r>  -16.0564    1.0000 </r>
       <r>  -15.4231    1.0000 </r>
       <r>  -15.1600    1.0000 </r>
       <r>  -15.0953    1.0000 </r>
       <r>   -7.0349    1.0000 </r>
       <r>   -6.7996    1.0000 </r>
       <r>   -6.6713    1.0000 </r>
       <r>   -6.0076    1.0000 </r>
       <r>   -5.8185    1.0000 </r>
       <r>   -5.5964    1.0000 </r>
       <r>   -5.5159    1.0000 </r>
       <r>   -5.3081    1.0000 </r>
       <r>   -5.1624    1.0000 </r>
       <r>   -5.1348    1.0000 </r>
       <r>   -4.9708    1.0000 </r>
       <r>   -4.7943    1.0000 </r>
       <r>   -4.7319    1.0000 </r>
       <r>   -4.6259    1.0000 </r>
       <r>   -4.3335    1.0000 </r>
       <r>   -4.2088    1.0000 </r>
       <r>   -4.0878    1.0000 </r>
       <r>   -4.0772    1.0000 </r>
       <r>   -3.9019    1.0000 </r>
       <r>   -3.7607    1.0000 </r>
       <r>   -3.5288    1.0000 </r>
       <r>   -3.3267    1.0000 </r>
       <r>   -3.0654    1.0000 </r>
       <r>   -3.0246    1.0000 </r>
       <r>   -2.8646    1.0000 </r>
       <r>   -2.7812    1.0000 </r>
       <r>   -2.6706    1.0000 </r>
       <r>   -2.4889    1.0000 </r>
       <r>   -2.3134    1.0000 </r>
       <r>   -2.0961    1.0000 </r>
       <r>   -1.9135    1.0000 </r>
       <r>   -1.3687    1.0000 </r>
       <r>   -1.3566    1.0000 </r>
       <r>   -1.1043    1.0000 </r>
       <r>   -1.0883    1.0000 </r>
       <r>   -0.9852    1.0000 </r>
       <r>   -0.8835    1.0158 </r>
       <r>   -0.7611    0.0417 </r>
       <r>   -0.7036    0.0000 </r>
       <r>   -0.5293    0.0000 </r>
       <r>    0.0662    0.0000 </r>
       <r>    0.2996    0.0000 </r>
       <r>    0.3569    0.0000 </r>
       <r>    0.7314    0.0000 </r>
       <r>    1.2890    0.0000 </r>
       <r>    2.6422    0.0000 </r>
       <r>    2.6747    0.0000 </r>
       <r>    4.1930    0.0000 </r>
      </set>
      <set comment="kpoint 3">
       <r>  -36.6155    1.0000 </r>
       <r>  -35.2831    1.0000 </r>
       <r>  -34.3200    1.0000 </r>
       <r>  -33.4105    1.0000 </r>
       <r>  -20.6254    1.0000 </r>
       <r>  -20.2732    1.0000 </r>
       <r>  -19.7040    1.0000 </r>
       <r>  -19.3445    1.0000 </r>
       <r>  -19.1908    1.0000 </r>
       <r>  -18.7421    1.0000 </r>
       <r>  -18.6171    1.0000 </r>
       <r>  -18.4442    1.0000 </r>
       <r>  -18.3762    1.0000 </r>
       <r>  -18.3521    1.0000 </r>
       <r>  -18.2144    1.0000 </r>
       <r>  -17.7797    1.0000 </r>
       <r>  -17.3283    1.0000 </r>
       <r>  -17.3120    1.0000 </r>
       <r>  -17.0874    1.0000 </r>
       <r>  -17.0678    1.0000 </r>
       <r>  -16.4221    1.0000 </r>
       <r>  -16.3587    1.0000 </r>
       <r>  -16.2798    1.0000 </r>
       <r>  -16.1117    1.0000 </r>
       <r>  -15.9980    1.0000 </r>
       <r>  -15.4243    1.0000 </r>
       <r>  -15.1637    1.0000 </r>
       <r>  -15.0755    1.0000 </r>
       <r>   -6.8737    1.0000 </r>
       <r>   -6.7147    1.0000 </r>
       <r>   -6.6389    1.0000 </r>
       <r>   -5.9689    1.0000 </r>
       <r>   -5.7468    1.0000 </r>
       <r>   -5.6186    1.0000 </r>
       <r>   -5.6036    1.0000 </r>
       <r>   -5.4456    1.0000 </r>
       <r>   -5.2130    1.0000 </r>
       <r>   -5.0629    1.0000 </r>
       <r>   -4.8832    1.0000 </r>
       <r>   -4.8641    1.0000 </r>
       <r>   -4.6542    1.0000 </r>
       <r>   -4.6227    1.0000 </r>
       <r>   -4.5702    1.0000 </r>
       <r>   -4.4524    1.0000 </r>
       <r>   -4.1044    1.0000 </r>
       <r>   -4.0576    1.0000 </r>
       <r>   -3.9885    1.0000 </r>
       <r>   -3.6796    1.0000 </r>
       <r>   -3.5554    1.0000 </r>
       <r>   -3.4820    1.0000 </r>
       <r>   -3.3955    1.0000 </r>
       <r>   -3.0623    1.0000 </r>
       <r>   -3.0264    1.0000 </r>
       <r>   -2.8435    1.0000 </r>
       <r>   -2.5750    1.0000 </r>
       <r>   -2.5657    1.0000 </r>
       <r>   -2.3867    1.0000 </r>
       <r>   -2.3254    1.0000 </r>
       <r>   -1.8344    1.0000 </r>
       <r>   -1.4579    1.0000 </r>
       <r>   -1.4112    1.0000 </r>
       <r>   -1.0759    1.0000 </r>
       <r>   -1.0638    1.0000 </r>
       <r>   -0.9304    1.0000 </r>
       <r>   -0.8647    1.0000 </r>
       <r>   -0.8115    0.7778 </r>
       <r>   -0.7400    0.0000 </r>
       <r>   -0.5301    0.0000 </r>
       <r>    0.0660    0.0000 </r>
       <r>    0.3137    0.0000 </r>
       <r>    0.3616    0.0000 </r>
       <r>    0.8859    0.0000 </r>
       <r>    1.2874    0.0000 </r>
       <r>    1.3138    0.0000 </r>
       <r>    2.6192    0.0000 </r>
       <r>    2.6815    0.0000 </r>
      </set>
      <set comment="kpoint 4">
       <r>  -36.6152    1.0000 </r>
       <r>  -35.2828    1.0000 </r>
       <r>  -34.3197    1.0000 </r>
       <r>  -33.4102    1.0000 </r>
       <r>  -20.6859    1.0000 </r>
       <r>  -20.3311    1.0000 </r>
       <r>  -19.6863    1.0000 </r>
       <r>  -19.3169    1.0000 </r>
       <r>  -19.2524    1.0000 </r>
       <r>  -18.7456    1.0000 </r>
       <r>  -18.6174    1.0000 </r>
       <r>  -18.3964    1.0000 </r>
       <r>  -18.3673    1.0000 </r>
       <r>  -18.3016    1.0000 </r>
       <r>  -18.2475    1.0000 </r>
       <r>  -17.7683    1.0000 </r>
       <r>  -17.3290    1.0000 </r>
       <r>  -17.3029    1.0000 </r>
       <r>  -17.0780    1.0000 </r>
       <r>  -17.0375    1.0000 </r>
       <r>  -16.3712    1.0000 </r>
       <r>  -16.3593    1.0000 </r>
       <r>  -16.2993    1.0000 </r>
       <r>  -16.0644    1.0000 </r>
       <r>  -15.9742    1.0000 </r>
       <r>  -15.4252    1.0000 </r>
       <r>  -15.1629    1.0000 </r>
       <r>  -15.0557    1.0000 </r>
       <r>   -6.8440    1.0000 </r>
       <r>   -6.7310    1.0000 </r>
       <r>   -6.2331    1.0000 </r>
       <r>   -5.9257    1.0000 </r>
       <r>   -5.8716    1.0000 </r>
       <r>   -5.7001    1.0000 </r>
       <r>   -5.6367    1.0000 </r>
       <r>   -5.5183    1.0000 </r>
       <r>   -5.3554    1.0000 </r>
       <r>   -5.1440    1.0000 </r>
       <r>   -4.7734    1.0000 </r>
       <r>   -4.7616    1.0000 </r>
       <r>   -4.6834    1.0000 </r>
       <r>   -4.6630    1.0000 </r>
       <r>   -4.5538    1.0000 </r>
       <r>   -4.5121    1.0000 </r>
       <r>   -4.1861    1.0000 </r>
       <r>   -4.1269    1.0000 </r>
       <r>   -3.9856    1.0000 </r>
       <r>   -3.8723    1.0000 </r>
       <r>   -3.7158    1.0000 </r>
       <r>   -3.4505    1.0000 </r>
       <r>   -3.3590    1.0000 </r>
       <r>   -3.1444    1.0000 </r>
       <r>   -3.0918    1.0000 </r>
       <r>   -3.0407    1.0000 </r>
       <r>   -2.8158    1.0000 </r>
       <r>   -2.5074    1.0000 </r>
       <r>   -2.3709    1.0000 </r>
       <r>   -2.3411    1.0000 </r>
       <r>   -1.6839    1.0000 </r>
       <r>   -1.5274    1.0000 </r>
       <r>   -1.4517    1.0000 </r>
       <r>   -1.1721    1.0000 </r>
       <r>   -1.0715    1.0000 </r>
       <r>   -1.0058    1.0000 </r>
       <r>   -0.8520    1.0000 </r>
       <r>   -0.8110    0.7465 </r>
       <r>   -0.7527    0.0000 </r>
       <r>   -0.3958    0.0000 </r>
       <r>    0.0302    0.0000 </r>
       <r>    0.2997    0.0000 </r>
       <r>    0.3847    0.0000 </r>
       <r>    0.9565    0.0000 </r>
       <r>    1.2891    0.0000 </r>
       <r>    1.3227    0.0000 </r>
       <r>    1.8241    0.0000 </r>
       <r>    2.6174    0.0000 </r>
      </set>
      <set comment="kpoint 5">
       <r>  -36.6143    1.0000 </r>
       <r>  -35.2817    1.0000 </r>
       <r>  -34.3186    1.0000 </r>
       <r>  -33.4090    1.0000 </r>
       <r>  -20.4918    1.0000 </r>
       <r>  -20.0263    1.0000 </r>
       <r>  -19.8474    1.0000 </r>
       <r>  -19.3510    1.0000 </r>
       <r>  -19.0699    1.0000 </r>
       <r>  -18.6730    1.0000 </r>
       <r>  -18.6280    1.0000 </r>
       <r>  -18.5551    1.0000 </r>
       <r>  -18.5295    1.0000 </r>
       <r>  -18.3409    1.0000 </r>
       <r>  -18.1103    1.0000 </r>
       <r>  -17.8048    1.0000 </r>
       <r>  -17.3256    1.0000 </r>
       <r>  -17.3002    1.0000 </r>
       <r>  -17.1739    1.0000 </r>
       <r>  -17.0801    1.0000 </r>
       <r>  -16.5045    1.0000 </r>
       <r>  -16.3355    1.0000 </r>
       <r>  -16.2559    1.0000 </r>
       <r>  -16.1748    1.0000 </r>
       <r>  -16.1172    1.0000 </r>
       <r>  -15.3952    1.0000 </r>
       <r>  -15.1719    1.0000 </r>
       <r>  -15.1359    1.0000 </r>
       <r>   -7.0968    1.0000 </r>
       <r>   -6.7834    1.0000 </r>
       <r>   -6.6512    1.0000 </r>
       <r>   -6.2089    1.0000 </r>
       <r>   -5.8691    1.0000 </r>
       <r>   -5.6978    1.0000 </r>
       <r>   -5.5517    1.0000 </r>
       <r>   -5.2957    1.0000 </r>
       <r>   -5.2545    1.0000 </r>
       <r>   -5.1694    1.0000 </r>
       <r>   -4.9732    1.0000 </r>
       <r>   -4.9627    1.0000 </r>
       <r>   -4.8522    1.0000 </r>
       <r>   -4.5990    1.0000 </r>
       <r>   -4.4004    1.0000 </r>
       <r>   -4.2886    1.0000 </r>
       <r>   -4.0491    1.0000 </r>
       <r>   -4.0481    1.0000 </r>
       <r>   -3.8652    1.0000 </r>
       <r>   -3.7267    1.0000 </r>
       <r>   -3.7241    1.0000 </r>
       <r>   -3.3568    1.0000 </r>
       <r>   -3.0115    1.0000 </r>
       <r>   -2.9783    1.0000 </r>
       <r>   -2.9088    1.0000 </r>
       <r>   -2.8506    1.0000 </r>
       <r>   -2.6891    1.0000 </r>
       <r>   -2.4558    1.0000 </r>
       <r>   -2.3900    1.0000 </r>
       <r>   -1.9861    1.0000 </r>
       <r>   -1.9644    1.0000 </r>
       <r>   -1.4278    1.0000 </r>
       <r>   -1.3034    1.0000 </r>
       <r>   -1.1143    1.0000 </r>
       <r>   -1.0143    1.0000 </r>
       <r>   -1.0134    1.0000 </r>
       <r>   -0.7688    0.5452 </r>
       <r>   -0.7664    0.0101 </r>
       <r>   -0.6222    0.0000 </r>
       <r>   -0.4223    0.0000 </r>
       <r>    0.0792    0.0000 </r>
       <r>    0.3718    0.0000 </r>
       <r>    0.4624    0.0000 </r>
       <r>    0.6516    0.0000 </r>
       <r>    1.3880    0.0000 </r>
       <r>    1.5305    0.0000 </r>
       <r>    2.7558    0.0000 </r>
       <r>    4.2071    0.0000 </r>
      </set>
      <set comment="kpoint 6">
       <r>  -36.6141    1.0000 </r>
       <r>  -35.2815    1.0000 </r>
       <r>  -34.3184    1.0000 </r>
       <r>  -33.4089    1.0000 </r>
       <r>  -20.5175    1.0000 </r>
       <r>  -20.1347    1.0000 </r>
       <r>  -19.7595    1.0000 </r>
       <r>  -19.3499    1.0000 </r>
       <r>  -19.1047    1.0000 </r>
       <r>  -18.7164    1.0000 </r>
       <r>  -18.6157    1.0000 </r>
       <r>  -18.5305    1.0000 </r>
       <r>  -18.4474    1.0000 </r>
       <r>  -18.3483    1.0000 </r>
       <r>  -18.1475    1.0000 </r>
       <r>  -17.7910    1.0000 </r>
       <r>  -17.3195    1.0000 </r>
       <r>  -17.2997    1.0000 </r>
       <r>  -17.1469    1.0000 </r>
       <r>  -17.0861    1.0000 </r>
       <r>  -16.4900    1.0000 </r>
       <r>  -16.3376    1.0000 </r>
       <r>  -16.2489    1.0000 </r>
       <r>  -16.1854    1.0000 </r>
       <r>  -16.0622    1.0000 </r>
       <r>  -15.3940    1.0000 </r>
       <r>  -15.1787    1.0000 </r>
       <r>  -15.1210    1.0000 </r>
       <r>   -7.0113    1.0000 </r>
       <r>   -6.7695    1.0000 </r>
       <r>   -6.6691    1.0000 </r>
       <r>   -6.1932    1.0000 </r>
       <r>   -5.8053    1.0000 </r>
       <r>   -5.7628    1.0000 </r>
       <r>   -5.5918    1.0000 </r>
       <r>   -5.3070    1.0000 </r>
       <r>   -5.2561    1.0000 </r>
       <r>   -5.1623    1.0000 </r>
       <r>   -5.0154    1.0000 </r>
       <r>   -4.9156    1.0000 </r>
       <r>   -4.8016    1.0000 </r>
       <r>   -4.6352    1.0000 </r>
       <r>   -4.4799    1.0000 </r>
       <r>   -4.2653    1.0000 </r>
       <r>   -4.2351    1.0000 </r>
       <r>   -4.0207    1.0000 </r>
       <r>   -3.8510    1.0000 </r>
       <r>   -3.7968    1.0000 </r>
       <r>   -3.6932    1.0000 </r>
       <r>   -3.4240    1.0000 </r>
       <r>   -3.0498    1.0000 </r>
       <r>   -2.9690    1.0000 </r>
       <r>   -2.9205    1.0000 </r>
       <r>   -2.8963    1.0000 </r>
       <r>   -2.8104    1.0000 </r>
       <r>   -2.4949    1.0000 </r>
       <r>   -2.3740    1.0000 </r>
       <r>   -2.1148    1.0000 </r>
       <r>   -1.9324    1.0000 </r>
       <r>   -1.4933    1.0000 </r>
       <r>   -1.2930    1.0000 </r>
       <r>   -1.1161    1.0000 </r>
       <r>   -1.0354    1.0000 </r>
       <r>   -0.9603    1.0000 </r>
       <r>   -0.8123    0.9664 </r>
       <r>   -0.6629   -0.0651 </r>
       <r>   -0.5917    0.0000 </r>
       <r>   -0.5300    0.0000 </r>
       <r>    0.1007    0.0000 </r>
       <r>    0.3929    0.0000 </r>
       <r>    0.4502    0.0000 </r>
       <r>    0.7442    0.0000 </r>
       <r>    1.3460    0.0000 </r>
       <r>    1.3848    0.0000 </r>
       <r>    2.6994    0.0000 </r>
       <r>    4.2464    0.0000 </r>
      </set>
      <set comment="kpoint 7">
       <r>  -36.6138    1.0000 </r>
       <r>  -35.2811    1.0000 </r>
       <r>  -34.3180    1.0000 </r>
       <r>  -33.4086    1.0000 </r>
       <r>  -20.5832    1.0000 </r>
       <r>  -20.2495    1.0000 </r>
       <r>  -19.6971    1.0000 </r>
       <r>  -19.3322    1.0000 </r>
       <r>  -19.1759    1.0000 </r>
       <r>  -18.7464    1.0000 </r>
       <r>  -18.6117    1.0000 </r>
[...]
      </set>
      <set comment="kpoint 24">
       <r>  -36.5974    1.0000 </r>
       <r>  -35.2625    1.0000 </r>
       <r>  -34.2995    1.0000 </r>
       <r>  -33.3903    1.0000 </r>
       <r>  -20.1625    1.0000 </r>
       <r>  -20.0003    1.0000 </r>
       <r>  -19.9000    1.0000 </r>
       <r>  -19.2329    1.0000 </r>
       <r>  -18.9506    1.0000 </r>
       <r>  -18.7524    1.0000 </r>
       <r>  -18.4975    1.0000 </r>
       <r>  -18.4511    1.0000 </r>
       <r>  -18.3552    1.0000 </r>
       <r>  -18.2472    1.0000 </r>
       <r>  -18.0340    1.0000 </r>
       <r>  -17.8643    1.0000 </r>
       <r>  -17.2569    1.0000 </r>
       <r>  -17.2343    1.0000 </r>
       <r>  -17.0910    1.0000 </r>
       <r>  -17.0258    1.0000 </r>
       <r>  -16.5305    1.0000 </r>
       <r>  -16.2699    1.0000 </r>
       <r>  -16.1605    1.0000 </r>
       <r>  -16.1566    1.0000 </r>
       <r>  -15.9577    1.0000 </r>
       <r>  -15.4691    1.0000 </r>
       <r>  -15.1979    1.0000 </r>
       <r>  -14.9982    1.0000 </r>
       <r>   -7.7012    1.0000 </r>
       <r>   -7.1638    1.0000 </r>
       <r>   -7.0503    1.0000 </r>
       <r>   -6.9408    1.0000 </r>
       <r>   -6.6862    1.0000 </r>
       <r>   -6.6034    1.0000 </r>
       <r>   -6.1591    1.0000 </r>
       <r>   -6.0297    1.0000 </r>
       <r>   -5.9344    1.0000 </r>
       <r>   -5.9296    1.0000 </r>
       <r>   -5.6623    1.0000 </r>
       <r>   -5.3661    1.0000 </r>
       <r>   -5.3608    1.0000 </r>
       <r>   -5.3171    1.0000 </r>
       <r>   -5.2305    1.0000 </r>
       <r>   -4.8728    1.0000 </r>
       <r>   -4.6861    1.0000 </r>
       <r>   -4.3425    1.0000 </r>
       <r>   -4.1752    1.0000 </r>
       <r>   -4.1229    1.0000 </r>
       <r>   -4.0910    1.0000 </r>
       <r>   -3.8643    1.0000 </r>
       <r>   -3.7964    1.0000 </r>
       <r>   -3.7618    1.0000 </r>
       <r>   -3.5652    1.0000 </r>
       <r>   -2.8499    1.0000 </r>
       <r>   -2.8304    1.0000 </r>
       <r>   -2.7526    1.0000 </r>
       <r>   -2.0020    1.0000 </r>
       <r>   -1.9835    1.0000 </r>
       <r>   -1.8814    1.0000 </r>
       <r>   -1.6405    1.0000 </r>
       <r>   -1.1762    1.0000 </r>
       <r>   -1.1188    1.0000 </r>
       <r>   -0.9032    1.0000 </r>
       <r>   -0.7481    0.0000 </r>
       <r>   -0.6297    0.0000 </r>
       <r>   -0.2623    0.0000 </r>
       <r>    0.1197    0.0000 </r>
       <r>    0.7594    0.0000 </r>
       <r>    0.7807    0.0000 </r>
       <r>    1.0822    0.0000 </r>
       <r>    1.4610    0.0000 </r>
       <r>    1.9221    0.0000 </r>
       <r>    2.2657    0.0000 </r>
       <r>    2.2767    0.0000 </r>
       <r>    3.1914    0.0000 </r>
       <r>    3.4856    0.0000 </r>
      </set>
     </set>
    </set>
   </array>
  </eigenvalues>
  <separator name="orbital magnetization" >
   <v name="MAGDIPOLOUT">      0.00000000      0.00000000      0.00000000</v>
  </separator>
  <dos>
   <i name="efermi">     -0.77695458 </i>
   <total>
    <array>
     <dimension dim="1">gridpoints</dimension>
     <dimension dim="2">spin</dimension>
     <field>energy</field>
     <field>total</field>
     <field>integrated</field>
     <set>
      <set comment="spin 1">
       <r>   -38.6757     0.0000     0.0000 </r>
       <r>   -38.5246     0.0000     0.0000 </r>
       <r>   -38.3736     0.0000     0.0000 </r>
       <r>   -38.2226     0.0000     0.0000 </r>
       <r>   -38.0715     0.0000     0.0000 </r>
       <r>   -37.9205     0.0000     0.0000 </r>
       <r>   -37.7694     0.0000     0.0000 </r>
       <r>   -37.6184     0.0000     0.0000 </r>
       <r>   -37.4674     0.0000     0.0000 </r>
       <r>   -37.3163     0.0000     0.0000 </r>
       <r>   -37.1653     0.0000     0.0000 </r>
       <r>   -37.0142     0.0000     0.0000 </r>
       <r>   -36.8632     0.0000     0.0000 </r>
       <r>   -36.7122     0.0000     0.0000 </r>
       <r>   -36.5611     0.0000     2.0000 </r>
       <r>   -36.4101     0.0000     2.0000 </r>
       <r>   -36.2590     0.0000     2.0000 </r>
       <r>   -36.1080     0.0000     2.0000 </r>
       <r>   -35.9570     0.0000     2.0000 </r>
       <r>   -35.8059     0.0000     2.0000 </r>
       <r>   -35.6549     0.0000     2.0000 </r>
       <r>   -35.5038     0.0000     2.0000 </r>
       <r>   -35.3528     0.0000     2.0000 </r>
       <r>   -35.2018     0.0000     4.0000 </r>
       <r>   -35.0507     0.0000     4.0000 </r>
       <r>   -34.8997     0.0000     4.0000 </r>
       <r>   -34.7486     0.0000     4.0000 </r>
       <r>   -34.5976     0.0000     4.0000 </r>
       <r>   -34.4466     0.0000     4.0000 </r>
       <r>   -34.2955     0.0000     6.0000 </r>
       <r>   -34.1445     0.0000     6.0000 </r>
       <r>   -33.9934     0.0000     6.0000 </r>
       <r>   -33.8424     0.0000     6.0000 </r>
       <r>   -33.6914     0.0000     6.0000 </r>
       <r>   -33.5403     0.0000     6.0000 </r>
       <r>   -33.3893     0.0000     8.0000 </r>
       <r>   -33.2382     0.0000     8.0000 </r>
       <r>   -33.0872     0.0000     8.0000 </r>
       <r>   -32.9362     0.0000     8.0000 </r>
       <r>   -32.7851     0.0000     8.0000 </r>
       <r>   -32.6341     0.0000     8.0000 </r>
       <r>   -32.4830     0.0000     8.0000 </r>
       <r>   -32.3320     0.0000     8.0000 </r>
       <r>   -32.1810     0.0000     8.0000 </r>
       <r>   -32.0299     0.0000     8.0000 </r>
       <r>   -31.8789     0.0000     8.0000 </r>
       <r>   -31.7278     0.0000     8.0000 </r>
       <r>   -31.5768     0.0000     8.0000 </r>
       <r>   -31.4258     0.0000     8.0000 </r>
       <r>   -31.2747     0.0000     8.0000 </r>
       <r>   -31.1237     0.0000     8.0000 </r>
       <r>   -30.9726     0.0000     8.0000 </r>
       <r>   -30.8216     0.0000     8.0000 </r>
       <r>   -30.6706     0.0000     8.0000 </r>
       <r>   -30.5195     0.0000     8.0000 </r>
       <r>   -30.3685     0.0000     8.0000 </r>
       <r>   -30.2174     0.0000     8.0000 </r>
       <r>   -30.0664     0.0000     8.0000 </r>
       <r>   -29.9154     0.0000     8.0000 </r>
       <r>   -29.7643     0.0000     8.0000 </r>
       <r>   -29.6133     0.0000     8.0000 </r>
       <r>   -29.4622     0.0000     8.0000 </r>
       <r>   -29.3112     0.0000     8.0000 </r>
       <r>   -29.1602     0.0000     8.0000 </r>
       <r>   -29.0091     0.0000     8.0000 </r>
       <r>   -28.8581     0.0000     8.0000 </r>
       <r>   -28.7070     0.0000     8.0000 </r>
       <r>   -28.5560     0.0000     8.0000 </r>
       <r>   -28.4050     0.0000     8.0000 </r>
       <r>   -28.2539     0.0000     8.0000 </r>
       <r>   -28.1029     0.0000     8.0000 </r>
       <r>   -27.9518     0.0000     8.0000 </r>
       <r>   -27.8008     0.0000     8.0000 </r>
       <r>   -27.6498     0.0000     8.0000 </r>
       <r>   -27.4987     0.0000     8.0000 </r>
       <r>   -27.3477     0.0000     8.0000 </r>
       <r>   -27.1966     0.0000     8.0000 </r>
       <r>   -27.0456     0.0000     8.0000 </r>
       <r>   -26.8946     0.0000     8.0000 </r>
       <r>   -26.7435     0.0000     8.0000 </r>
       <r>   -26.5925     0.0000     8.0000 </r>
       <r>   -26.4414     0.0000     8.0000 </r>
       <r>   -26.2904     0.0000     8.0000 </r>
       <r>   -26.1394     0.0000     8.0000 </r>
       <r>   -25.9883     0.0000     8.0000 </r>
       <r>   -25.8373     0.0000     8.0000 </r>
       <r>   -25.6862     0.0000     8.0000 </r>
       <r>   -25.5352     0.0000     8.0000 </r>
       <r>   -25.3842     0.0000     8.0000 </r>
       <r>   -25.2331     0.0000     8.0000 </r>
       <r>   -25.0821     0.0000     8.0000 </r>
       <r>   -24.9310     0.0000     8.0000 </r>
       <r>   -24.7800     0.0000     8.0000 </r>
       <r>   -24.6290     0.0000     8.0000 </r>
       <r>   -24.4779     0.0000     8.0000 </r>
       <r>   -24.3269     0.0000     8.0000 </r>
       <r>   -24.1758     0.0000     8.0000 </r>
       <r>   -24.0248     0.0000     8.0000 </r>
       <r>   -23.8738     0.0000     8.0000 </r>
       <r>   -23.7227     0.0000     8.0000 </r>
       <r>   -23.5717     0.0000     8.0000 </r>
       <r>   -23.4206     0.0000     8.0000 </r>
       <r>   -23.2696     0.0000     8.0000 </r>
       <r>   -23.1186     0.0000     8.0000 </r>
       <r>   -22.9675     0.0000     8.0000 </r>
       <r>   -22.8165     0.0000     8.0000 </r>
       <r>   -22.6654     0.0000     8.0000 </r>
       <r>   -22.5144     0.0000     8.0000 </r>
       <r>   -22.3634     0.0000     8.0000 </r>
       <r>   -22.2123     0.0000     8.0000 </r>
       <r>   -22.0613     0.0000     8.0000 </r>
       <r>   -21.9102     0.0000     8.0000 </r>
       <r>   -21.7592     0.0000     8.0000 </r>
       <r>   -21.6082     0.0000     8.0000 </r>
       <r>   -21.4571     0.0000     8.0000 </r>
       <r>   -21.3061     0.0000     8.0000 </r>
       <r>   -21.1550     0.0000     8.0000 </r>
       <r>   -21.0040     0.0000     8.0000 </r>
       <r>   -20.8530     0.0000     8.0000 </r>
       <r>   -20.7019     0.0000     8.0000 </r>
       <r>   -20.5509     3.6659     8.3651 </r>
       <r>   -20.3998    12.8141     9.1962 </r>
       <r>   -20.2488     5.5511    10.1205 </r>
       <r>   -20.0978     4.7043    10.9581 </r>
       <r>   -19.9467     2.7145    11.5832 </r>
       <r>   -19.7957     5.9567    12.1273 </r>
       <r>   -19.6446     3.9818    13.7928 </r>
       <r>   -19.4936     0.0000    14.0000 </r>
       <r>   -19.3426     8.9338    14.2252 </r>
       <r>   -19.1915    13.9959    16.0943 </r>
       <r>   -19.0405     2.9752    17.7710 </r>
       <r>   -18.8894     0.0000    18.0000 </r>
       <r>   -18.7384    14.9110    18.6286 </r>
       <r>   -18.5874    15.0726    21.1442 </r>
       <r>   -18.4363    24.6082    23.8542 </r>
       <r>   -18.2853     8.3856    26.9935 </r>
       <r>   -18.1342    22.1814    29.0431 </r>
       <r>   -17.9832     0.0000    30.0000 </r>
       <r>   -17.8322     3.1682    30.1162 </r>
       <r>   -17.6811     3.7752    31.6743 </r>
       <r>   -17.5301     0.0000    32.0000 </r>
       <r>   -17.3790     2.4244    32.1407 </r>
       <r>   -17.2280    33.4935    35.2301 </r>
       <r>   -17.0770    46.9035    38.9565 </r>
       <r>   -16.9259     0.0000    40.0000 </r>
       <r>   -16.7749     0.0000    40.0000 </r>
       <r>   -16.6238     0.0000    40.0000 </r>
       <r>   -16.4728    10.5249    41.5688 </r>
       <r>   -16.3218    16.8731    43.0695 </r>
       <r>   -16.1707    27.0035    46.2952 </r>
       <r>   -16.0197     8.4672    48.6162 </r>
       <r>   -15.8686     0.0000    50.0000 </r>
       <r>   -15.7176     0.0000    50.0000 </r>
       <r>   -15.5666     0.0000    50.0000 </r>
       <r>   -15.4155    19.7872    50.8502 </r>
       <r>   -15.2645     4.4019    52.6315 </r>
       <r>   -15.1134    19.5535    54.6749 </r>
       <r>   -14.9624     0.0000    56.0000 </r>
       <r>   -14.8114     0.0000    56.0000 </r>
       <r>   -14.6603     0.0000    56.0000 </r>
       <r>   -14.5093     0.0000    56.0000 </r>
       <r>   -14.3582     0.0000    56.0000 </r>
       <r>   -14.2072     0.0000    56.0000 </r>
       <r>   -14.0562     0.0000    56.0000 </r>
       <r>   -13.9051     0.0000    56.0000 </r>
       <r>   -13.7541     0.0000    56.0000 </r>
       <r>   -13.6030     0.0000    56.0000 </r>
       <r>   -13.4520     0.0000    56.0000 </r>
       <r>   -13.3010     0.0000    56.0000 </r>
       <r>   -13.1499     0.0000    56.0000 </r>
       <r>   -12.9989     0.0000    56.0000 </r>
       <r>   -12.8478     0.0000    56.0000 </r>
       <r>   -12.6968     0.0000    56.0000 </r>
       <r>   -12.5458     0.0000    56.0000 </r>
       <r>   -12.3947     0.0000    56.0000 </r>
       <r>   -12.2437     0.0000    56.0000 </r>
       <r>   -12.0926     0.0000    56.0000 </r>
       <r>   -11.9416     0.0000    56.0000 </r>
       <r>   -11.7906     0.0000    56.0000 </r>
       <r>   -11.6395     0.0000    56.0000 </r>
       <r>   -11.4885     0.0000    56.0000 </r>
       <r>   -11.3374     0.0000    56.0000 </r>
       <r>   -11.1864     0.0000    56.0000 </r>
       <r>   -11.0354     0.0000    56.0000 </r>
       <r>   -10.8843     0.0000    56.0000 </r>
       <r>   -10.7333     0.0000    56.0000 </r>
       <r>   -10.5822     0.0000    56.0000 </r>
       <r>   -10.4312     0.0000    56.0000 </r>
       <r>   -10.2802     0.0000    56.0000 </r>
       <r>   -10.1291     0.0000    56.0000 </r>
       <r>    -9.9781     0.0000    56.0000 </r>
       <r>    -9.8270     0.0000    56.0000 </r>
       <r>    -9.6760     0.0000    56.0000 </r>
       <r>    -9.5250     0.0000    56.0000 </r>
       <r>    -9.3739     0.0000    56.0000 </r>
       <r>    -9.2229     0.0000    56.0000 </r>
       <r>    -9.0718     0.0000    56.0000 </r>
       <r>    -8.9208     0.0000    56.0000 </r>
       <r>    -8.7698     0.0000    56.0000 </r>
       <r>    -8.6187     0.0000    56.0000 </r>
       <r>    -8.4677     0.0000    56.0000 </r>
       <r>    -8.3166     0.0000    56.0000 </r>
       <r>    -8.1656     0.0000    56.0000 </r>
       <r>    -8.0146     0.0000    56.0000 </r>
       <r>    -7.8635     0.0000    56.0000 </r>
       <r>    -7.7125     0.0000    56.0000 </r>
       <r>    -7.5614     2.2111    56.2803 </r>
       <r>    -7.4104     0.9177    56.4890 </r>
       <r>    -7.2594     0.9172    56.6276 </r>
       <r>    -7.1083     3.1814    56.8650 </r>
       <r>    -6.9573    10.8018    58.2453 </r>
       <r>    -6.8062     8.3383    59.6484 </r>
       <r>    -6.6552    32.4535    62.2095 </r>
       <r>    -6.5042     6.4872    64.1780 </r>
       <r>    -6.3531     7.1760    64.9961 </r>
       <r>    -6.2021     5.9433    65.8973 </r>
       <r>    -6.0510     7.7330    66.9876 </r>
       <r>    -5.9000    14.5260    68.7837 </r>
       <r>    -5.7490    12.0204    70.8231 </r>
       <r>    -5.5979    21.4109    72.7500 </r>
       <r>    -5.4469    10.6886    74.7130 </r>
       <r>    -5.2958    14.0276    76.8239 </r>
       <r>    -5.1448    17.2632    79.0288 </r>
       <r>    -4.9938    18.1155    81.2205 </r>
       <r>    -4.8427    16.8544    83.3834 </r>
       <r>    -4.6917    17.5545    85.6277 </r>
       <r>    -4.5406     7.4277    87.6804 </r>
       <r>    -4.3896     7.9101    88.8428 </r>
       <r>    -4.2386    16.4891    91.0598 </r>
       <r>    -4.0875    15.1279    93.8288 </r>
       <r>    -3.9365     8.2549    95.6279 </r>
       <r>    -3.7854    16.7225    97.5026 </r>
       <r>    -3.6344     8.6559    99.6445 </r>
       <r>    -3.4834    17.5385   101.3475 </r>
       <r>    -3.3323     6.3439   103.2085 </r>
       <r>    -3.1813     4.3556   103.9718 </r>
       <r>    -3.0302    15.1034   105.1085 </r>
       <r>    -2.8792    44.4400   107.7846 </r>
       <r>    -2.7282     6.1465   110.2251 </r>
       <r>    -2.5771     6.5871   111.3803 </r>
       <r>    -2.4261     2.9693   112.1229 </r>
       <r>    -2.2750    11.1451   113.2982 </r>
       <r>    -2.1240    14.2878   114.4885 </r>
       <r>    -1.9730     8.0939   116.5575 </r>
       <r>    -1.8219     2.0236   117.8286 </r>
       <r>    -1.6709     7.9894   118.0969 </r>
       <r>    -1.5198     6.1129   119.4266 </r>
       <r>    -1.3688     3.3647   120.0937 </r>
       <r>    -1.2178    17.8976   121.4268 </r>
       <r>    -1.0667    11.0482   123.3026 </r>
       <r>    -0.9157    16.7041   125.3745 </r>
       <r>    -0.7646    27.0821   128.3242 </r>
       <r>    -0.6136     7.1959   130.6534 </r>
       <r>    -0.4626     9.4286   132.1069 </r>
       <r>    -0.3115     7.0864   133.3741 </r>
       <r>    -0.1605     4.6711   134.2179 </r>
       <r>    -0.0094     2.7461   134.7291 </r>
       <r>     0.1416     3.9561   135.6217 </r>
       <r>     0.2926     3.7808   136.1485 </r>
       <r>     0.4437     8.6017   137.3755 </r>
       <r>     0.5947     5.7271   138.2725 </r>
       <r>     0.7458    10.2929   139.6593 </r>
       <r>     0.8968     6.8929   140.7275 </r>
       <r>     1.0478     6.6884   141.7867 </r>
       <r>     1.1989     3.8356   142.4564 </r>
       <r>     1.3499    10.1885   143.3692 </r>
       <r>     1.5010     4.7917   144.3162 </r>
       <r>     1.6520     3.9067   144.9776 </r>
       <r>     1.8030     4.6976   145.5724 </r>
       <r>     1.9541     3.5504   146.5369 </r>
       <r>     2.1051     2.8946   147.0236 </r>
       <r>     2.2562     4.0390   147.5000 </r>
       <r>     2.4072     1.3016   147.7939 </r>
       <r>     2.5582     1.2617   147.9875 </r>
       <r>     2.7093     5.2596   148.5121 </r>
       <r>     2.8603     4.1977   149.1994 </r>
       <r>     3.0114     3.0793   149.6849 </r>
       <r>     3.1624     4.3545   150.1550 </r>
       <r>     3.3134     3.0776   150.9357 </r>
       <r>     3.4645     4.4798   151.3761 </r>
       <r>     3.6155     0.2751   151.6880 </r>
       <r>     3.7666     0.2623   151.7285 </r>
       <r>     3.9176     0.2495   151.7672 </r>
       <r>     4.0686     0.2366   151.8039 </r>
       <r>     4.2197     1.5415   151.9350 </r>
       <r>     4.3707     0.1552   151.9840 </r>
       <r>     4.5218     0.0414   151.9989 </r>
       <r>     4.6728     0.0000   152.0000 </r>
       <r>     4.8238     0.0000   152.0000 </r>
       <r>     4.9749     0.0000   152.0000 </r>
       <r>     5.1259     0.0000   152.0000 </r>
       <r>     5.2770     0.0000   152.0000 </r>
       <r>     5.4280     0.0000   152.0000 </r>
       <r>     5.5790     0.0000   152.0000 </r>
       <r>     5.7301     0.0000   152.0000 </r>
       <r>     5.8811     0.0000   152.0000 </r>
       <r>     6.0322     0.0000   152.0000 </r>
       <r>     6.1832     0.0000   152.0000 </r>
       <r>     6.3342     0.0000   152.0000 </r>
       <r>     6.4853     0.0000   152.0000 </r>
       <r>     6.6363     0.0000   152.0000 </r>
      </set>
     </set>
    </array>
   </total>
  </dos>
 </calculation>
 <structure name="finalpos" >
  <crystal>
   <varray name="basis" >
    <v>       5.52288297       0.00000000       0.00000000 </v>
    <v>       0.00000000       3.90526800       0.00000000 </v>
    <v>       0.00000000       0.00000000      21.66504520 </v>
   </varray>
   <i name="volume">    467.27902047 </i>
   <varray name="rec_basis" >
    <v>       0.18106485       0.00000000       0.00000000 </v>
    <v>       0.00000000       0.25606437       0.00000000 </v>
    <v>       0.00000000       0.00000000       0.04615730 </v>
   </varray>
  </crystal>
  <varray name="positions" >
   <v>       0.50000000       0.00000000       0.27694380 </v>
   <v>       0.25000000       0.50000000       0.34067414 </v>
   <v>       0.75000000       0.50000000       0.34067414 </v>
   <v>       0.00000000       0.00000000       0.40440449 </v>
   <v>       0.75000000       0.50000000       0.46813483 </v>
   <v>       0.25000000       0.50000000       0.46813483 </v>
   <v>       0.50000000       0.00000000       0.53186517 </v>
   <v>       0.25000000       0.50000000       0.59559551 </v>
   <v>       0.75000000       0.50000000       0.59559551 </v>
   <v>       0.00000000       0.00000000       0.65932586 </v>
   <v>       0.75000000       0.50000000       0.72305620 </v>
   <v>       0.25000000       0.50000000       0.72305620 </v>
   <v>       0.00000000       0.00000000       0.27694380 </v>
   <v>       0.50000000       0.00000000       0.40440449 </v>
   <v>       0.00000000       0.00000000       0.53186517 </v>
   <v>       0.50000000       0.00000000       0.65932586 </v>
   <v>       0.50000000       0.50000000       0.27694380 </v>
   <v>       0.00000000       0.50000000       0.40440449 </v>
   <v>       0.50000000       0.50000000       0.53186517 </v>
   <v>       0.00000000       0.50000000       0.65932586 </v>
  </varray>
 </structure>
</modeling>
