  20  20   0   0
  0.2336395E+02  0.5522883E-09  0.3905268E-09  0.2166505E-08  0.5000000E-15
  1.000000000000000E-004
  CAR 
 unknown system                          
      6.49882392    -38.64449572  301     -0.76628264      1.00000000
    -38.644  0.0000E+00  0.0000E+00
    -38.494  0.0000E+00  0.0000E+00
    -38.344  0.0000E+00  0.0000E+00
    -38.193  0.0000E+00  0.0000E+00
    -38.043  0.0000E+00  0.0000E+00
    -37.892  0.0000E+00  0.0000E+00
    -37.742  0.0000E+00  0.0000E+00
    -37.591  0.0000E+00  0.0000E+00
    -37.441  0.0000E+00  0.0000E+00
    -37.290  0.0000E+00  0.0000E+00
    -37.140  0.0000E+00  0.0000E+00
    -36.989  0.0000E+00  0.0000E+00
    -36.839  0.0000E+00  0.0000E+00
    -36.688  0.0000E+00  0.0000E+00
    -36.538  0.0000E+00  0.2000E+01
    -36.387  0.0000E+00  0.2000E+01
    -36.237  0.0000E+00  0.2000E+01
    -36.086  0.0000E+00  0.2000E+01
    -35.936  0.0000E+00  0.2000E+01
    -35.785  0.0000E+00  0.2000E+01
    -35.635  0.0000E+00  0.2000E+01
    -35.484  0.0000E+00  0.2000E+01
    -35.334  0.0000E+00  0.2000E+01
    -35.184  0.0000E+00  0.4000E+01
    -35.033  0.0000E+00  0.4000E+01
    -34.883  0.0000E+00  0.4000E+01
    -34.732  0.0000E+00  0.4000E+01
    -34.582  0.0000E+00  0.4000E+01
    -34.431  0.0000E+00  0.4000E+01
    -34.281  0.0000E+00  0.6000E+01
    -34.130  0.0000E+00  0.6000E+01
    -33.980  0.0000E+00  0.6000E+01
    -33.829  0.0000E+00  0.6000E+01
    -33.679  0.0000E+00  0.6000E+01
    -33.528  0.0000E+00  0.6000E+01
    -33.378  0.0000E+00  0.8000E+01
    -33.227  0.0000E+00  0.8000E+01
    -33.077  0.0000E+00  0.8000E+01
    -32.926  0.0000E+00  0.8000E+01
    -32.776  0.0000E+00  0.8000E+01
    -32.625  0.0000E+00  0.8000E+01
    -32.475  0.0000E+00  0.8000E+01
    -32.324  0.0000E+00  0.8000E+01
    -32.174  0.0000E+00  0.8000E+01
    -32.023  0.0000E+00  0.8000E+01
    -31.873  0.0000E+00  0.8000E+01
    -31.723  0.0000E+00  0.8000E+01
    -31.572  0.0000E+00  0.8000E+01
    -31.422  0.0000E+00  0.8000E+01
    -31.271  0.0000E+00  0.8000E+01
    -31.121  0.0000E+00  0.8000E+01
    -30.970  0.0000E+00  0.8000E+01
    -30.820  0.0000E+00  0.8000E+01
    -30.669  0.0000E+00  0.8000E+01
    -30.519  0.0000E+00  0.8000E+01
    -30.368  0.0000E+00  0.8000E+01
    -30.218  0.0000E+00  0.8000E+01
    -30.067  0.0000E+00  0.8000E+01
    -29.917  0.0000E+00  0.8000E+01
    -29.766  0.0000E+00  0.8000E+01
    -29.616  0.0000E+00  0.8000E+01
    -29.465  0.0000E+00  0.8000E+01
    -29.315  0.0000E+00  0.8000E+01
    -29.164  0.0000E+00  0.8000E+01
    -29.014  0.0000E+00  0.8000E+01
    -28.863  0.0000E+00  0.8000E+01
    -28.713  0.0000E+00  0.8000E+01
    -28.562  0.0000E+00  0.8000E+01
    -28.412  0.0000E+00  0.8000E+01
    -28.262  0.0000E+00  0.8000E+01
    -28.111  0.0000E+00  0.8000E+01
    -27.961  0.0000E+00  0.8000E+01
    -27.810  0.0000E+00  0.8000E+01
    -27.660  0.0000E+00  0.8000E+01
    -27.509  0.0000E+00  0.8000E+01
    -27.359  0.0000E+00  0.8000E+01
    -27.208  0.0000E+00  0.8000E+01
    -27.058  0.0000E+00  0.8000E+01
    -26.907  0.0000E+00  0.8000E+01
    -26.757  0.0000E+00  0.8000E+01
    -26.606  0.0000E+00  0.8000E+01
    -26.456  0.0000E+00  0.8000E+01
    -26.305  0.0000E+00  0.8000E+01
    -26.155  0.0000E+00  0.8000E+01
    -26.004  0.0000E+00  0.8000E+01
    -25.854  0.0000E+00  0.8000E+01
    -25.703  0.0000E+00  0.8000E+01
    -25.553  0.0000E+00  0.8000E+01
    -25.402  0.0000E+00  0.8000E+01
    -25.252  0.0000E+00  0.8000E+01
    -25.101  0.0000E+00  0.8000E+01
    -24.951  0.0000E+00  0.8000E+01
    -24.801  0.0000E+00  0.8000E+01
    -24.650  0.0000E+00  0.8000E+01
    -24.500  0.0000E+00  0.8000E+01
    -24.349  0.0000E+00  0.8000E+01
    -24.199  0.0000E+00  0.8000E+01
    -24.048  0.0000E+00  0.8000E+01
    -23.898  0.0000E+00  0.8000E+01
    -23.747  0.0000E+00  0.8000E+01
    -23.597  0.0000E+00  0.8000E+01
    -23.446  0.0000E+00  0.8000E+01
    -23.296  0.0000E+00  0.8000E+01
    -23.145  0.0000E+00  0.8000E+01
    -22.995  0.0000E+00  0.8000E+01
    -22.844  0.0000E+00  0.8000E+01
    -22.694  0.0000E+00  0.8000E+01
    -22.543  0.0000E+00  0.8000E+01
    -22.393  0.0000E+00  0.8000E+01
    -22.242  0.0000E+00  0.8000E+01
    -22.092  0.0000E+00  0.8000E+01
    -21.941  0.0000E+00  0.8000E+01
    -21.791  0.0000E+00  0.8000E+01
    -21.641  0.0000E+00  0.8000E+01
    -21.490  0.0000E+00  0.8000E+01
    -21.340  0.0000E+00  0.8000E+01
    -21.189  0.0000E+00  0.8000E+01
    -21.039  0.0000E+00  0.8000E+01
    -20.888  0.0000E+00  0.8000E+01
    -20.738  0.0000E+00  0.8000E+01
    -20.587  0.3263E+01  0.8175E+01
    -20.437  0.4147E+01  0.8838E+01
    -20.286  0.5559E+01  0.9756E+01
    -20.136  0.4553E+01  0.1066E+02
    -19.985  0.3457E+01  0.1144E+02
    -19.835  0.2507E+01  0.1184E+02
    -19.684  0.2077E+02  0.1300E+02
    -19.534  0.0000E+00  0.1400E+02
    -19.383  0.0000E+00  0.1400E+02
    -19.233  0.8310E+01  0.1531E+02
    -19.082  0.2974E+02  0.1723E+02
    -18.932  0.0000E+00  0.1800E+02
    -18.781  0.0000E+00  0.1800E+02
    -18.631  0.1656E+02  0.1972E+02
    -18.480  0.1516E+02  0.2277E+02
    -18.330  0.1031E+02  0.2616E+02
    -18.180  0.1822E+02  0.2823E+02
    -18.029  0.0000E+00  0.3000E+02
    -17.879  0.0000E+00  0.3000E+02
    -17.728  0.6103E+01  0.3146E+02
    -17.578  0.1403E+01  0.3200E+02
    -17.427  0.9826E+00  0.3201E+02
    -17.277  0.2832E+02  0.3308E+02
    -17.126  0.1874E+02  0.3679E+02
    -16.976  0.0000E+00  0.4000E+02
    -16.825  0.0000E+00  0.4000E+02
    -16.675  0.0000E+00  0.4000E+02
    -16.524  0.9582E+01  0.4143E+02
    -16.374  0.2679E+01  0.4219E+02
    -16.223  0.1661E+02  0.4502E+02
    -16.073  0.1207E+02  0.4825E+02
    -15.922  0.0000E+00  0.5000E+02
    -15.772  0.0000E+00  0.5000E+02
    -15.621  0.0000E+00  0.5000E+02
    -15.471  0.3209E+01  0.5013E+02
    -15.320  0.3710E+01  0.5243E+02
    -15.170  0.1043E+02  0.5415E+02
    -15.019  0.0000E+00  0.5600E+02
    -14.869  0.0000E+00  0.5600E+02
    -14.719  0.0000E+00  0.5600E+02
    -14.568  0.0000E+00  0.5600E+02
    -14.418  0.0000E+00  0.5600E+02
    -14.267  0.0000E+00  0.5600E+02
    -14.117  0.0000E+00  0.5600E+02
    -13.966  0.0000E+00  0.5600E+02
    -13.816  0.0000E+00  0.5600E+02
    -13.665  0.0000E+00  0.5600E+02
    -13.515  0.0000E+00  0.5600E+02
    -13.364  0.0000E+00  0.5600E+02
    -13.214  0.0000E+00  0.5600E+02
    -13.063  0.0000E+00  0.5600E+02
    -12.913  0.0000E+00  0.5600E+02
    -12.762  0.0000E+00  0.5600E+02
    -12.612  0.0000E+00  0.5600E+02
    -12.461  0.0000E+00  0.5600E+02
    -12.311  0.0000E+00  0.5600E+02
    -12.160  0.0000E+00  0.5600E+02
    -12.010  0.0000E+00  0.5600E+02
    -11.859  0.0000E+00  0.5600E+02
    -11.709  0.0000E+00  0.5600E+02
    -11.559  0.0000E+00  0.5600E+02
    -11.408  0.0000E+00  0.5600E+02
    -11.258  0.0000E+00  0.5600E+02
    -11.107  0.0000E+00  0.5600E+02
    -10.957  0.0000E+00  0.5600E+02
    -10.806  0.0000E+00  0.5600E+02
    -10.656  0.0000E+00  0.5600E+02
    -10.505  0.0000E+00  0.5600E+02
    -10.355  0.0000E+00  0.5600E+02
    -10.204  0.0000E+00  0.5600E+02
    -10.054  0.0000E+00  0.5600E+02
     -9.903  0.0000E+00  0.5600E+02
     -9.753  0.0000E+00  0.5600E+02
     -9.602  0.0000E+00  0.5600E+02
     -9.452  0.0000E+00  0.5600E+02
     -9.301  0.0000E+00  0.5600E+02
     -9.151  0.0000E+00  0.5600E+02
     -9.000  0.0000E+00  0.5600E+02
     -8.850  0.0000E+00  0.5600E+02
     -8.699  0.0000E+00  0.5600E+02
     -8.549  0.0000E+00  0.5600E+02
     -8.398  0.0000E+00  0.5600E+02
     -8.248  0.0000E+00  0.5600E+02
     -8.098  0.0000E+00  0.5600E+02
     -7.947  0.0000E+00  0.5600E+02
     -7.797  0.0000E+00  0.5600E+02
     -7.646  0.0000E+00  0.5600E+02
     -7.496  0.9709E+00  0.5638E+02
     -7.345  0.9704E+00  0.5653E+02
     -7.195  0.9699E+00  0.5667E+02
     -7.044  0.4848E+01  0.5704E+02
     -6.894  0.8659E+01  0.5877E+02
     -6.743  0.1560E+02  0.6031E+02
     -6.593  0.7915E+01  0.6274E+02
     -6.442  0.7139E+01  0.6426E+02
     -6.292  0.6365E+01  0.6534E+02
     -6.141  0.6364E+01  0.6624E+02
     -5.991  0.1095E+02  0.6757E+02
     -5.840  0.1884E+02  0.6950E+02
     -5.690  0.1157E+02  0.7134E+02
     -5.539  0.1640E+02  0.7339E+02
     -5.389  0.1297E+02  0.7535E+02
     -5.238  0.1442E+02  0.7740E+02
     -5.088  0.1353E+02  0.7986E+02
     -4.937  0.1425E+02  0.8203E+02
     -4.787  0.1618E+02  0.8398E+02
     -4.637  0.1590E+02  0.8645E+02
     -4.486  0.8605E+01  0.8797E+02
     -4.336  0.1340E+02  0.8948E+02
     -4.185  0.1992E+02  0.9151E+02
     -4.035  0.1314E+02  0.9449E+02
     -3.884  0.8334E+01  0.9617E+02
     -3.734  0.1790E+02  0.9841E+02
     -3.583  0.9879E+01  0.1001E+03
     -3.433  0.9725E+01  0.1019E+03
     -3.282  0.6560E+01  0.1032E+03
     -3.132  0.8742E+01  0.1043E+03
     -2.981  0.1118E+02  0.1059E+03
     -2.831  0.2377E+02  0.1087E+03
     -2.680  0.9454E+01  0.1107E+03
     -2.530  0.6258E+01  0.1118E+03
     -2.379  0.6574E+01  0.1122E+03
     -2.229  0.5000E+01  0.1137E+03
     -2.078  0.1045E+02  0.1152E+03
     -1.928  0.1295E+02  0.1170E+03
     -1.777  0.1460E+01  0.1180E+03
     -1.627  0.5709E+01  0.1190E+03
     -1.476  0.3250E+01  0.1198E+03
     -1.326  0.7041E+01  0.1204E+03
     -1.176  0.5978E+01  0.1225E+03
     -1.025  0.1095E+02  0.1239E+03
     -0.875  0.1745E+02  0.1260E+03
     -0.724  0.2785E+02  0.1293E+03
     -0.574  0.7406E+01  0.1312E+03
     -0.423  0.7145E+01  0.1324E+03
     -0.273  0.6281E+01  0.1336E+03
     -0.122  0.3983E+01  0.1343E+03
      0.028  0.2800E+01  0.1348E+03
      0.179  0.3058E+01  0.1357E+03
      0.329  0.6107E+01  0.1362E+03
      0.480  0.8971E+01  0.1374E+03
      0.630  0.6156E+01  0.1386E+03
      0.781  0.7027E+01  0.1401E+03
      0.931  0.6115E+01  0.1411E+03
      1.082  0.5895E+01  0.1420E+03
      1.232  0.3178E+01  0.1426E+03
      1.383  0.7522E+01  0.1433E+03
      1.533  0.4118E+01  0.1446E+03
      1.684  0.4025E+01  0.1452E+03
      1.834  0.4663E+01  0.1458E+03
      1.984  0.3746E+01  0.1469E+03
      2.135  0.3138E+01  0.1474E+03
      2.285  0.1056E+01  0.1480E+03
      2.436  0.1073E+01  0.1482E+03
      2.586  0.1089E+01  0.1484E+03
      2.737  0.2809E+01  0.1488E+03
      2.887  0.1739E+01  0.1491E+03
      3.038  0.1977E+01  0.1494E+03
      3.188  0.2181E+01  0.1505E+03
      3.339  0.2153E+01  0.1508E+03
      3.489  0.3269E+01  0.1513E+03
      3.640  0.4507E+00  0.1515E+03
      3.790  0.4255E+00  0.1515E+03
      3.941  0.4004E+00  0.1516E+03
      4.091  0.3753E+00  0.1517E+03
      4.242  0.1017E+01  0.1518E+03
      4.392  0.1486E+01  0.1520E+03
      4.543  0.0000E+00  0.1520E+03
      4.693  0.0000E+00  0.1520E+03
      4.844  0.0000E+00  0.1520E+03
      4.994  0.0000E+00  0.1520E+03
      5.145  0.0000E+00  0.1520E+03
      5.295  0.0000E+00  0.1520E+03
      5.445  0.0000E+00  0.1520E+03
      5.596  0.0000E+00  0.1520E+03
      5.746  0.0000E+00  0.1520E+03
      5.897  0.0000E+00  0.1520E+03
      6.047  0.0000E+00  0.1520E+03
      6.198  0.0000E+00  0.1520E+03
      6.348  0.0000E+00  0.1520E+03
      6.499  0.0000E+00  0.1520E+03
