   20   20    1    1
  0.2336395E+02  0.5522883E-09  0.3905268E-09  0.2166505E-08  0.5000000E-15
  1.000000000000000E-004
  CAR 
 unknown system                          
    128     12     76
 
  0.0000000E+00  0.0000000E+00  0.0000000E+00  0.2857143E-01
    1      -36.592527   1.000000
    2      -35.266342   1.000000
    3      -34.306102   1.000000
    4      -33.417192   1.000000
    5      -20.503761   1.000000
    6      -20.032589   1.000000
    7      -19.846614   1.000000
    8      -19.355293   1.000000
    9      -19.044280   1.000000
   10      -18.678017   1.000000
   11      -18.591622   1.000000
   12      -18.534803   1.000000
   13      -18.518724   1.000000
   14      -18.344564   1.000000
   15      -18.091440   1.000000
   16      -17.826009   1.000000
   17      -17.309623   1.000000
   18      -17.288056   1.000000
   19      -17.132220   1.000000
   20      -17.050874   1.000000
   21      -16.517673   1.000000
   22      -16.344806   1.000000
   23      -16.290241   1.000000
   24      -16.158807   1.000000
   25      -16.091336   1.000000
   26      -15.436758   1.000000
   27      -15.168775   1.000000
   28      -15.117522   1.000000
   29       -7.108095   1.000000
   30       -6.797869   1.000000
   31       -6.633611   1.000000
   32       -6.008121   1.000000
   33       -5.890715   1.000000
   34       -5.538635   1.000000
   35       -5.444033   1.000000
   36       -5.298173   1.000000
   37       -5.142973   1.000000
   38       -5.060651   1.000000
   39       -4.999819   1.000000
   40       -4.859872   1.000000
   41       -4.765961   1.000000
   42       -4.583372   1.000000
   43       -4.247989   1.000000
   44       -4.124081   1.000000
   45       -4.081837   1.000000
   46       -3.994580   1.000000
   47       -3.807345   1.000000
   48       -3.768745   1.000000
   49       -3.544977   1.000000
   50       -3.251916   1.000000
   51       -3.017917   1.000000
   52       -2.925750   1.000000
   53       -2.910576   1.000000
   54       -2.699716   1.000000
   55       -2.666729   1.000000
   56       -2.391719   1.000000
   57       -2.297502   1.000000
   58       -1.954331   1.000000
   59       -1.916667   1.000000
   60       -1.371433   1.000000
   61       -1.344092   1.000000
   62       -1.089099   1.000000
   63       -1.080949   1.000000
   64       -1.038068   1.000000
   65       -0.868318   1.118855
   66       -0.777679   0.193828
   67       -0.752577   0.000000
   68       -0.515206   0.000000
   69        0.070050   0.000000
   70        0.288789   0.000000
   71        0.385684   0.000000
   72        0.649389   0.000000
   73        1.337074   0.000000
   74        1.617923   0.000000
   75        2.646371   0.000000
   76        4.143953   0.000000
 
  0.2000000E+00  0.0000000E+00  0.0000000E+00  0.5714286E-01
    1      -36.592226   1.000000
    2      -35.266010   1.000000
    3      -34.305775   1.000000
    4      -33.416928   1.000000
    5      -20.563767   1.000000
    6      -20.189611   1.000000
    7      -19.718037   1.000000
    8      -19.343936   1.000000
    9      -19.123645   1.000000
   10      -18.714624   1.000000
   11      -18.591956   1.000000
   12      -18.469427   1.000000
   13      -18.399598   1.000000
   14      -18.351807   1.000000
   15      -18.162128   1.000000
   16      -17.792405   1.000000
   17      -17.310257   1.000000
   18      -17.273642   1.000000
   19      -17.092005   1.000000
   20      -17.058659   1.000000
   21      -16.490035   1.000000
   22      -16.345482   1.000000
   23      -16.291117   1.000000
   24      -16.135092   1.000000
   25      -16.030664   1.000000
   26      -15.437676   1.000000
   27      -15.174577   1.000000
   28      -15.098843   1.000000
   29       -6.938105   1.000000
   30       -6.754430   1.000000
   31       -6.662970   1.000000
   32       -5.980653   1.000000
   33       -5.749936   1.000000
   34       -5.610646   1.000000
   35       -5.538490   1.000000
   36       -5.339476   1.000000
   37       -5.176340   1.000000
   38       -5.131427   1.000000
   39       -4.925889   1.000000
   40       -4.774654   1.000000
   41       -4.694063   1.000000
   42       -4.641876   1.000000
   43       -4.370141   1.000000
   44       -4.346052   1.000000
   45       -4.079695   1.000000
   46       -4.037425   1.000000
   47       -3.957647   1.000000
   48       -3.741362   1.000000
   49       -3.507086   1.000000
   50       -3.363699   1.000000
   51       -3.189742   1.000000
   52       -3.030027   1.000000
   53       -2.937343   1.000000
   54       -2.793443   1.000000
   55       -2.614249   1.000000
   56       -2.522511   1.000000
   57       -2.303529   1.000000
   58       -2.204148   1.000000
   59       -1.892145   1.000000
   60       -1.413479   1.000000
   61       -1.389839   1.000000
   62       -1.102768   1.000000
   63       -1.074925   1.000000
   64       -0.962776   1.000000
   65       -0.870203   1.081593
   66       -0.741466   0.041871
   67       -0.723857   0.000000
   68       -0.619145   0.000000
   69        0.088820   0.000000
   70        0.326926   0.000000
   71        0.363404   0.000000
   72        0.813848   0.000000
   73        1.301159   0.000000
   74        2.640041   0.000000
   75        2.660797   0.000000
   76        4.303552   0.000000
 
  0.4000000E+00  0.0000000E+00  0.0000000E+00  0.5714286E-01
    1      -36.591739   1.000000
    2      -35.265473   1.000000
    3      -34.305246   1.000000
    4      -33.416500   1.000000
    5      -20.664891   1.000000
    6      -20.302055   1.000000
    7      -19.668408   1.000000
    8      -19.301194   1.000000
    9      -19.229730   1.000000
   10      -18.725893   1.000000
   11      -18.592499   1.000000
   12      -18.383129   1.000000
   13      -18.347689   1.000000
   14      -18.293473   1.000000
   15      -18.227768   1.000000
   16      -17.768979   1.000000
   17      -17.311286   1.000000
   18      -17.260137   1.000000
   19      -17.063183   1.000000
   20      -17.025305   1.000000
   21      -16.419981   1.000000
   22      -16.346578   1.000000
   23      -16.311550   1.000000
   24      -16.062160   1.000000
   25      -15.985059   1.000000
   26      -15.439162   1.000000
   27      -15.175639   1.000000
   28      -15.062175   1.000000
   29       -6.826795   1.000000
   30       -6.709264   1.000000
   31       -6.302704   1.000000
   32       -5.920509   1.000000
   33       -5.822316   1.000000
   34       -5.670746   1.000000
   35       -5.611809   1.000000
   36       -5.492598   1.000000
   37       -5.309054   1.000000
   38       -5.106659   1.000000
   39       -4.803690   1.000000
   40       -4.783430   1.000000
   41       -4.689205   1.000000
   42       -4.637391   1.000000
   43       -4.571367   1.000000
   44       -4.500799   1.000000
   45       -4.131217   1.000000
   46       -4.113455   1.000000
   47       -3.898271   1.000000
   48       -3.891236   1.000000
   49       -3.675113   1.000000
   50       -3.516464   1.000000
   51       -3.350980   1.000000
   52       -3.109571   1.000000
   53       -3.069780   1.000000
   54       -3.007658   1.000000
   55       -2.763944   1.000000
   56       -2.508778   1.000000
   57       -2.365876   1.000000
   58       -2.317862   1.000000
   59       -1.747624   1.000000
   60       -1.549848   1.000000
   61       -1.460076   1.000000
   62       -1.198982   1.000000
   63       -1.062353   1.000000
   64       -1.028047   1.000000
   65       -0.848990   1.012690
   66       -0.811671   0.594296
   67       -0.740371   0.000000
   68       -0.397262   0.000000
   69        0.048482   0.000000
   70        0.316012   0.000000
   71        0.395070   0.000000
   72        1.236240   0.000000
   73        1.327302   0.000000
   74        1.813252   0.000000
   75        2.610758   0.000000
   76        2.698377   0.000000
 
  0.0000000E+00  0.1428571E+00  0.0000000E+00  0.5714286E-01
    1      -36.589098   1.000000
    2      -35.262431   1.000000
    3      -34.302200   1.000000
    4      -33.413350   1.000000
    5      -20.449514   1.000000
    6      -19.992080   1.000000
    7      -19.799611   1.000000
    8      -19.311383   1.000000
    9      -19.062416   1.000000
   10      -18.633203   1.000000
   11      -18.606086   1.000000
   12      -18.549145   1.000000
   13      -18.497250   1.000000
   14      -18.305669   1.000000
   15      -18.106785   1.000000
   16      -17.785122   1.000000
   17      -17.281556   1.000000
   18      -17.235833   1.000000
   19      -17.181420   1.000000
   20      -17.065925   1.000000
   21      -16.565075   1.000000
   22      -16.303767   1.000000
   23      -16.263311   1.000000
   24      -16.201842   1.000000
   25      -16.108774   1.000000
   26      -15.385986   1.000000
   27      -15.199882   1.000000
   28      -15.182388   1.000000
   29       -7.050233   1.000000
   30       -6.727794   1.000000
   31       -6.627881   1.000000
   32       -6.334244   1.000000
   33       -5.858856   1.000000
   34       -5.832905   1.000000
   35       -5.542754   1.000000
   36       -5.498443   1.000000
   37       -5.284186   1.000000
   38       -5.220704   1.000000
   39       -5.054879   1.000000
   40       -4.982067   1.000000
   41       -4.869238   1.000000
   42       -4.624618   1.000000
   43       -4.425554   1.000000
   44       -4.422747   1.000000
   45       -4.079539   1.000000
   46       -4.068756   1.000000
   47       -4.022786   1.000000
   48       -3.727562   1.000000
   49       -3.707067   1.000000
   50       -3.356293   1.000000
   51       -3.169960   1.000000
   52       -3.070809   1.000000
   53       -2.936347   1.000000
   54       -2.823692   1.000000
   55       -2.704626   1.000000
   56       -2.560277   1.000000
   57       -2.341232   1.000000
   58       -2.004689   1.000000
   59       -1.975769   1.000000
   60       -1.503539   1.000000
   61       -1.313069   1.000000
   62       -1.095970   1.000000
   63       -0.973446   1.000000
   64       -0.966717   1.037617
   65       -0.747069   0.264520
   66       -0.654532  -0.030939
   67       -0.521827   0.000000
   68       -0.465445   0.000000
   69        0.128726   0.000000
   70        0.486901   0.000000
   71        0.567329   0.000000
   72        0.679673   0.000000
   73        1.463110   0.000000
   74        2.755358   0.000000
   75        2.803757   0.000000
   76        4.389017   0.000000
 
  0.2000000E+00  0.1428571E+00  0.0000000E+00  0.1142857E+00
    1      -36.588829   1.000000
    2      -35.262138   1.000000
    3      -34.301912   1.000000
    4      -33.413122   1.000000
    5      -20.490082   1.000000
    6      -20.146261   1.000000
    7      -19.694225   1.000000
    8      -19.309327   1.000000
    9      -19.110947   1.000000
   10      -18.706764   1.000000
   11      -18.588974   1.000000
   12      -18.486130   1.000000
   13      -18.381926   1.000000
   14      -18.319076   1.000000
   15      -18.160508   1.000000
   16      -17.773530   1.000000
   17      -17.277121   1.000000
   18      -17.235387   1.000000
   19      -17.124575   1.000000
   20      -17.082216   1.000000
   21      -16.537019   1.000000
   22      -16.314358   1.000000
   23      -16.259189   1.000000
   24      -16.173487   1.000000
   25      -16.042977   1.000000
   26      -15.381071   1.000000
   27      -15.212065   1.000000
   28      -15.140880   1.000000
   29       -6.914406   1.000000
   30       -6.706236   1.000000
   31       -6.652921   1.000000
   32       -6.315932   1.000000
   33       -5.953613   1.000000
   34       -5.762495   1.000000
   35       -5.604589   1.000000
   36       -5.505626   1.000000
   37       -5.334348   1.000000
   38       -5.174439   1.000000
   39       -5.053173   1.000000
   40       -4.972035   1.000000
   41       -4.822093   1.000000
   42       -4.653199   1.000000
   43       -4.578843   1.000000
   44       -4.415292   1.000000
   45       -4.352598   1.000000
   46       -4.056330   1.000000
   47       -3.932598   1.000000
   48       -3.821817   1.000000
   49       -3.690545   1.000000
   50       -3.480470   1.000000
   51       -3.166831   1.000000
   52       -3.089275   1.000000
   53       -3.024591   1.000000
   54       -2.961292   1.000000
   55       -2.845458   1.000000
   56       -2.538327   1.000000
   57       -2.366684   1.000000
   58       -2.186083   1.000000
   59       -1.939306   1.000000
   60       -1.623705   1.000000
   61       -1.308186   1.000000
   62       -1.100127   1.000000
   63       -0.972018   1.000000
   64       -0.936266   1.017514
   65       -0.729983   0.311097
   66       -0.711274  -0.013788
   67       -0.529922   0.000000
   68       -0.417603   0.000000
   69        0.170088   0.000000
   70        0.518027   0.000000
   71        0.552895   0.000000
   72        0.835214   0.000000
   73        1.445726   0.000000
   74        1.452122   0.000000
   75        2.755085   0.000000
   76        4.446855   0.000000
 
  0.4000000E+00  0.1428571E+00  0.0000000E+00  0.1142857E+00
    1      -36.588396   1.000000
    2      -35.261666   1.000000
    3      -34.301447   1.000000
    4      -33.412752   1.000000
    5      -20.573257   1.000000
    6      -20.250648   1.000000
    7      -19.665097   1.000000
    8      -19.296825   1.000000
    9      -19.180031   1.000000
   10      -18.735192   1.000000
   11      -18.578656   1.000000
   12      -18.373479   1.000000
   13      -18.334039   1.000000
   14      -18.306671   1.000000
   15      -18.213566   1.000000
   16      -17.774160   1.000000
   17      -17.256155   1.000000
   18      -17.243219   1.000000
   19      -17.096359   1.000000
   20      -17.046030   1.000000
   21      -16.471704   1.000000
   22      -16.332716   1.000000
   23      -16.255903   1.000000
   24      -16.099658   1.000000
   25      -15.998254   1.000000
   26      -15.363412   1.000000
   27      -15.203195   1.000000
   28      -15.091502   1.000000
   29       -6.843508   1.000000
   30       -6.716613   1.000000
   31       -6.417978   1.000000
   32       -6.295733   1.000000
   33       -6.023319   1.000000
   34       -5.782333   1.000000
   35       -5.596602   1.000000
   36       -5.530397   1.000000
   37       -5.446454   1.000000
   38       -5.284015   1.000000
   39       -5.069403   1.000000
   40       -4.947964   1.000000
   41       -4.820662   1.000000
   42       -4.722913   1.000000
   43       -4.680371   1.000000
   44       -4.521886   1.000000
   45       -4.346152   1.000000
   46       -4.138319   1.000000
   47       -3.964029   1.000000
   48       -3.818812   1.000000
   49       -3.780579   1.000000
   50       -3.547108   1.000000
   51       -3.476152   1.000000
   52       -3.224591   1.000000
   53       -3.109474   1.000000
   54       -2.989095   1.000000
   55       -2.888188   1.000000
   56       -2.817024   1.000000
   57       -2.428270   1.000000
   58       -2.148668   1.000000
   59       -1.864085   1.000000
   60       -1.700369   1.000000
   61       -1.299839   1.000000
   62       -1.247217   1.000000
   63       -1.105510   1.000000
   64       -0.931262   1.000000
   65       -0.875264   1.062691
   66       -0.618050  -0.057868
   67       -0.369806   0.000000
   68       -0.331397   0.000000
   69        0.163914   0.000000
   70        0.526695   0.000000
   71        0.583329   0.000000
   72        0.996430   0.000000
   73        1.427507   0.000000
   74        1.465241   0.000000
   75        1.840900   0.000000
   76        2.717108   0.000000
 
  0.0000000E+00  0.2857143E+00  0.0000000E+00  0.5714286E-01
    1      -36.581379   1.000000
    2      -35.253622   1.000000
    3      -34.293412   1.000000
    4      -33.404696   1.000000
    5      -20.383774   1.000000
    6      -19.867785   1.000000
    7      -19.680064   1.000000
    8      -19.218069   1.000000
    9      -19.089624   1.000000
   10      -18.635578   1.000000
   11      -18.582440   1.000000
   12      -18.515693   1.000000
   13      -18.447363   1.000000
   14      -18.219281   1.000000
   15      -18.115113   1.000000
   16      -17.680725   1.000000
   17      -17.307104   1.000000
   18      -17.221359   1.000000
   19      -17.170818   1.000000
   20      -17.043761   1.000000
   21      -16.631847   1.000000
   22      -16.358892   1.000000
   23      -16.215995   1.000000
   24      -16.137662   1.000000
   25      -16.132606   1.000000
   26      -15.373851   1.000000
   27      -15.347685   1.000000
   28      -15.196952   1.000000
   29       -6.993578   1.000000
   30       -6.931513   1.000000
   31       -6.612666   1.000000
   32       -6.530252   1.000000
   33       -6.371720   1.000000
   34       -6.276905   1.000000
   35       -6.007729   1.000000
   36       -5.796208   1.000000
   37       -5.563422   1.000000
   38       -5.461238   1.000000
   39       -5.303540   1.000000
   40       -5.174703   1.000000
   41       -5.047980   1.000000
   42       -4.985884   1.000000
   43       -4.741740   1.000000
   44       -4.530230   1.000000
   45       -4.519164   1.000000
   46       -4.249005   1.000000
   47       -4.183486   1.000000
   48       -3.991325   1.000000
   49       -3.906363   1.000000
   50       -3.711526   1.000000
   51       -3.412862   1.000000
   52       -3.370410   1.000000
   53       -2.974461   1.000000
   54       -2.815568   1.000000
   55       -2.770074   1.000000
   56       -2.697073   1.000000
   57       -2.266226   1.000000
   58       -2.142716   1.000000
   59       -1.985680   1.000000
   60       -1.501598   1.000000
   61       -1.296702   1.000000
   62       -0.986095   1.000000
   63       -0.813762   1.038193
   64       -0.741734   0.396204
   65       -0.694368   0.000000
   66       -0.536507   0.000000
   67       -0.306713   0.000000
   68        0.162475   0.000000
   69        0.371140   0.000000
   70        0.732973   0.000000
   71        0.977512   0.000000
   72        1.018100   0.000000
   73        1.855552   0.000000
   74        1.886579   0.000000
   75        3.085308   0.000000
   76        3.131633   0.000000
 
  0.2000000E+00  0.2857143E+00  0.0000000E+00  0.1142857E+00
    1      -36.581183   1.000000
    2      -35.253419   1.000000
    3      -34.293213   1.000000
    4      -33.404549   1.000000
    5      -20.362420   1.000000
    6      -20.028561   1.000000
    7      -19.646332   1.000000
    8      -19.234325   1.000000
    9      -19.089258   1.000000
   10      -18.626571   1.000000
   11      -18.587074   1.000000
   12      -18.507565   1.000000
   13      -18.381239   1.000000
   14      -18.234183   1.000000
   15      -18.144263   1.000000
   16      -17.716371   1.000000
   17      -17.265830   1.000000
   18      -17.175755   1.000000
   19      -17.157849   1.000000
   20      -17.086489   1.000000
   21      -16.607717   1.000000
   22      -16.295824   1.000000
   23      -16.231831   1.000000
   24      -16.175334   1.000000
   25      -16.040157   1.000000
   26      -15.376138   1.000000
   27      -15.298203   1.000000
   28      -15.155795   1.000000
   29       -6.974136   1.000000
   30       -6.896601   1.000000
   31       -6.694928   1.000000
   32       -6.554013   1.000000
   33       -6.417409   1.000000
   34       -6.279920   1.000000
   35       -6.020443   1.000000
   36       -5.800546   1.000000
   37       -5.636280   1.000000
   38       -5.412016   1.000000
   39       -5.356120   1.000000
   40       -5.186187   1.000000
   41       -5.044425   1.000000
   42       -4.965711   1.000000
   43       -4.837040   1.000000
   44       -4.701824   1.000000
   45       -4.387135   1.000000
   46       -4.284188   1.000000
   47       -4.145362   1.000000
   48       -4.063496   1.000000
   49       -3.878832   1.000000
   50       -3.765178   1.000000
   51       -3.543814   1.000000
   52       -3.350625   1.000000
   53       -3.157848   1.000000
   54       -2.895143   1.000000
   55       -2.886464   1.000000
   56       -2.552413   1.000000
   57       -2.326963   1.000000
   58       -2.086313   1.000000
   59       -2.034018   1.000000
   60       -1.660963   1.000000
   61       -1.261048   1.000000
   62       -0.966129   1.000000
   63       -0.831023   1.033169
   64       -0.794212   0.881945
   65       -0.714328   0.021471
   66       -0.551071   0.000000
   67       -0.225274   0.000000
   68        0.195724   0.000000
   69        0.414431   0.000000
   70        0.871484   0.000000
   71        0.990800   0.000000
   72        1.015116   0.000000
   73        1.853386   0.000000
   74        1.866210   0.000000
   75        3.102494   0.000000
   76        3.151959   0.000000
 
  0.4000000E+00  0.2857143E+00  0.0000000E+00  0.1142857E+00
    1      -36.580866   1.000000
    2      -35.253088   1.000000
    3      -34.292889   1.000000
    4      -33.404309   1.000000
    5      -20.349334   1.000000
    6      -20.151358   1.000000
    7      -19.699367   1.000000
    8      -19.281791   1.000000
    9      -19.051884   1.000000
   10      -18.723766   1.000000
   11      -18.551277   1.000000
   12      -18.386378   1.000000
   13      -18.345238   1.000000
   14      -18.277660   1.000000
   15      -18.131564   1.000000
   16      -17.801803   1.000000
   17      -17.224149   1.000000
   18      -17.183033   1.000000
   19      -17.110648   1.000000
   20      -17.064092   1.000000
   21      -16.551731   1.000000
   22      -16.310775   1.000000
   23      -16.172581   1.000000
   24      -16.133255   1.000000
   25      -16.006981   1.000000
   26      -15.379248   1.000000
   27      -15.173712   1.000000
   28      -15.116741   1.000000
   29       -7.036675   1.000000
   30       -6.943607   1.000000
   31       -6.695420   1.000000
   32       -6.622851   1.000000
   33       -6.498230   1.000000
   34       -6.070353   1.000000
   35       -6.020818   1.000000
   36       -5.856669   1.000000
   37       -5.733348   1.000000
   38       -5.471590   1.000000
   39       -5.335020   1.000000
   40       -5.216755   1.000000
   41       -5.195233   1.000000
   42       -5.071424   1.000000
   43       -4.906507   1.000000
   44       -4.739054   1.000000
   45       -4.243176   1.000000
   46       -4.234001   1.000000
   47       -4.150723   1.000000
   48       -4.089915   1.000000
   49       -3.947059   1.000000
   50       -3.814345   1.000000
   51       -3.684399   1.000000
   52       -3.480927   1.000000
   53       -3.440383   1.000000
   54       -2.917559   1.000000
   55       -2.880801   1.000000
   56       -2.840110   1.000000
   57       -2.153214   1.000000
   58       -2.048827   1.000000
   59       -1.996257   1.000000
   60       -1.737791   1.000000
   61       -1.244880   1.000000
   62       -1.203556   1.000000
   63       -0.943977   1.005768
   64       -0.800895   0.992454
   65       -0.778884   0.524256
   66       -0.338745   0.000000
   67       -0.175035   0.000000
   68        0.255776   0.000000
   69        0.511218   0.000000
   70        1.017496   0.000000
   71        1.046925   0.000000
   72        1.827157   0.000000
   73        1.829593   0.000000
   74        1.885844   0.000000
   75        3.067709   0.000000
   76        3.111911   0.000000
 
  0.0000000E+00  0.4285714E+00  0.0000000E+00  0.5714286E-01
    1      -36.575171   1.000000
    2      -35.246535   1.000000
    3      -34.286341   1.000000
    4      -33.397733   1.000000
    5      -20.391946   1.000000
    6      -19.717437   1.000000
    7      -19.562228   1.000000
    8      -19.190921   1.000000
    9      -19.071690   1.000000
   10      -18.725525   1.000000
   11      -18.544860   1.000000
   12      -18.402548   1.000000
   13      -18.398034   1.000000
   14      -18.186917   1.000000
   15      -18.061537   1.000000
   16      -17.576045   1.000000
   17      -17.433179   1.000000
   18      -17.201095   1.000000
   19      -17.156872   1.000000
   20      -16.977260   1.000000
   21      -16.635082   1.000000
   22      -16.482427   1.000000
   23      -16.179150   1.000000
   24      -16.109075   1.000000
   25      -16.000812   1.000000
   26      -15.525151   1.000000
   27      -15.456146   1.000000
   28      -15.131201   1.000000
   29       -7.575716   1.000000
   30       -6.979043   1.000000
   31       -6.711376   1.000000
   32       -6.598358   1.000000
   33       -6.592827   1.000000
   34       -6.527689   1.000000
   35       -6.361292   1.000000
   36       -5.971661   1.000000
   37       -5.831419   1.000000
   38       -5.642210   1.000000
   39       -5.567076   1.000000
   40       -5.477640   1.000000
   41       -5.143217   1.000000
   42       -4.972901   1.000000
   43       -4.912963   1.000000
   44       -4.731148   1.000000
   45       -4.613456   1.000000
   46       -4.582022   1.000000
   47       -4.438518   1.000000
   48       -4.165197   1.000000
   49       -4.070773   1.000000
   50       -3.717579   1.000000
   51       -3.550929   1.000000
   52       -3.493607   1.000000
   53       -3.005623   1.000000
   54       -2.861832   1.000000
   55       -2.764693   1.000000
   56       -2.737317   1.000000
   57       -2.305601   1.000000
   58       -2.144333   1.000000
   59       -1.888561   1.000000
   60       -1.435670   1.000000
   61       -1.285205   1.000000
   62       -0.872607   1.000000
   63       -0.739031   0.139113
   64       -0.712446  -0.035999
   65       -0.553309   0.000000
   66       -0.414426   0.000000
   67       -0.186167   0.000000
   68        0.648684   0.000000
   69        0.715617   0.000000
   70        0.768594   0.000000
   71        1.393386   0.000000
   72        1.437376   0.000000
   73        2.157671   0.000000
   74        2.277011   0.000000
   75        3.181306   0.000000
   76        3.526368   0.000000
 
  0.2000000E+00  0.4285714E+00  0.0000000E+00  0.1142857E+00
    1      -36.575033   1.000000
    2      -35.246402   1.000000
    3      -34.286212   1.000000
    4      -33.397650   1.000000
    5      -20.330004   1.000000
    6      -19.859273   1.000000
    7      -19.632004   1.000000
    8      -19.155912   1.000000
    9      -19.103040   1.000000
   10      -18.571261   1.000000
   11      -18.512085   1.000000
   12      -18.497987   1.000000
   13      -18.418614   1.000000
   14      -18.163939   1.000000
   15      -18.128821   1.000000
   16      -17.660377   1.000000
   17      -17.302742   1.000000
   18      -17.217625   1.000000
   19      -17.108952   1.000000
   20      -17.041766   1.000000
   21      -16.618107   1.000000
   22      -16.350968   1.000000
   23      -16.218037   1.000000
   24      -16.100787   1.000000
   25      -16.014658   1.000000
   26      -15.458078   1.000000
   27      -15.392814   1.000000
   28      -15.092134   1.000000
   29       -7.585956   1.000000
   30       -6.947192   1.000000
   31       -6.796759   1.000000
   32       -6.755688   1.000000
   33       -6.631136   1.000000
   34       -6.579590   1.000000
   35       -6.273831   1.000000
   36       -5.985101   1.000000
   37       -5.850906   1.000000
   38       -5.773336   1.000000
   39       -5.538015   1.000000
   40       -5.443582   1.000000
   41       -5.161222   1.000000
   42       -5.112449   1.000000
   43       -4.959479   1.000000
   44       -4.818571   1.000000
   45       -4.660539   1.000000
   46       -4.415331   1.000000
   47       -4.300741   1.000000
   48       -4.189459   1.000000
   49       -4.131634   1.000000
   50       -3.765905   1.000000
   51       -3.671810   1.000000
   52       -3.500844   1.000000
   53       -3.202753   1.000000
   54       -2.878444   1.000000
   55       -2.809441   1.000000
   56       -2.634093   1.000000
   57       -2.305420   1.000000
   58       -2.052151   1.000000
   59       -1.923010   1.000000
   60       -1.629236   1.000000
   61       -1.220285   1.000000
   62       -0.853579   1.000000
   63       -0.757340   0.548999
   64       -0.735501   0.016781
   65       -0.702914  -0.005657
   66       -0.385455   0.000000
   67       -0.037134   0.000000
   68        0.671393   0.000000
   69        0.721982   0.000000
   70        0.904227   0.000000
   71        1.408149   0.000000
   72        1.427176   0.000000
   73        1.897633   0.000000
   74        2.256746   0.000000
   75        3.169016   0.000000
   76        3.493483   0.000000
 
  0.4000000E+00  0.4285714E+00  0.0000000E+00  0.1142857E+00
    1      -36.574812   1.000000
    2      -35.246188   1.000000
    3      -34.286005   1.000000
    4      -33.397517   1.000000
    5      -20.175319   1.000000
    6      -20.033007   1.000000
    7      -19.804633   1.000000
    8      -19.222544   1.000000
    9      -18.967551   1.000000
   10      -18.706528   1.000000
   11      -18.494107   1.000000
   12      -18.416181   1.000000
   13      -18.354311   1.000000
   14      -18.236065   1.000000
   15      -18.060117   1.000000
   16      -17.837353   1.000000
   17      -17.232874   1.000000
   18      -17.183620   1.000000
   19      -17.083608   1.000000
   20      -17.022755   1.000000
   21      -16.575863   1.000000
   22      -16.266891   1.000000
   23      -16.160834   1.000000
   24      -16.154990   1.000000
   25      -15.986286   1.000000
   26      -15.460804   1.000000
   27      -15.197736   1.000000
   28      -15.038678   1.000000
   29       -7.606625   1.000000
   30       -7.110247   1.000000
   31       -6.970598   1.000000
   32       -6.846596   1.000000
   33       -6.666279   1.000000
   34       -6.559366   1.000000
   35       -6.091013   1.000000
   36       -6.019242   1.000000
   37       -5.919941   1.000000
   38       -5.845756   1.000000
   39       -5.604038   1.000000
   40       -5.369849   1.000000
   41       -5.295274   1.000000
   42       -5.283366   1.000000
   43       -5.147879   1.000000
   44       -4.751096   1.000000