Starting job 28514178 ("jobname") on c14-23 at Wed Nov 6 14:14:10 CET 2019
 running on    4 total cores
 distrk:  each k-point on    4 cores,    1 groups
 distr:  one band on    2 cores,    2 groups
 using from now: INCAR     
 vasp.5.4.4.18Apr17-6-g9f103f2a35 (build Jun 30 2017 11:15:00) complex          
  
 POSCAR found type information on POSCAR  O  Sr Ti
 POSCAR found :  3 types and      20 ions
 scaLAPACK will be used

 ----------------------------------------------------------------------------- 
|                                                                             |
|  ADVICE TO THIS USER RUNNING 'VASP/VAMP'   (HEAR YOUR MASTER'S VOICE ...):  |
|                                                                             |
|      You have a (more or less) 'large supercell' and for larger cells       |
|      it might be more efficient to use real space projection operators      |
|      So try LREAL= Auto  in the INCAR   file.                               |
|      Mind: If you want to do a very accurate calculations keep the          |
|      reciprocal projection scheme          (i.e. LREAL=.FALSE.)             |
|                                                                             |
 ----------------------------------------------------------------------------- 

 WARNING: PSMAXN for non-local potential too small
 LDA part: xc-table for Pade appr. of Perdew
 POSCAR, INCAR and KPOINTS ok, starting setup
 FFT: planning ...
 WAVECAR not read
 entering main loop
       N       E                     dE             d eps       ncg     rms          rms(c)
DAV:   1     0.197722264793E+04    0.19772E+04   -0.71333E+04  1824   0.220E+03
DAV:   2     0.304295480507E+03   -0.16729E+04   -0.15939E+04  2152   0.465E+02
DAV:   3    -0.153385940398E+03   -0.45768E+03   -0.44357E+03  2452   0.224E+02
DAV:   4    -0.196885538860E+03   -0.43500E+02   -0.43333E+02  2400   0.729E+01
DAV:   5    -0.198765748387E+03   -0.18802E+01   -0.18791E+01  2864   0.169E+01    0.376E+01
RMM:   6    -0.206463867538E+03   -0.76981E+01   -0.39894E+02  2439   0.589E+01    0.526E+01
RMM:   7    -0.172704743834E+03    0.33759E+02   -0.97423E+01  2204   0.315E+01    0.211E+01
RMM:   8    -0.160715235130E+03    0.11990E+02   -0.22648E+01  2042   0.166E+01    0.152E+01
RMM:   9    -0.156361810083E+03    0.43534E+01   -0.20842E+00  2384   0.560E+00    0.125E+01
RMM:  10    -0.156635477132E+03   -0.27367E+00   -0.37168E+01  2185   0.161E+01    0.296E+01
RMM:  11    -0.155380218502E+03    0.12553E+01   -0.31145E+00  2817   0.360E+00    0.281E+01
RMM:  12    -0.156424861337E+03   -0.10446E+01   -0.80358E-01  2888   0.184E+00    0.297E+01
RMM:  13    -0.156120160825E+03    0.30470E+00   -0.15728E-01  2855   0.848E-01    0.295E+01
RMM:  14    -0.155928524208E+03    0.19164E+00   -0.53713E-01  2329   0.173E+00    0.312E+01
RMM:  15    -0.152818471298E+03    0.31101E+01   -0.17002E+00  2165   0.352E+00    0.256E+01
RMM:  16    -0.149992125756E+03    0.28263E+01   -0.51488E+00  2197   0.598E+00    0.111E+01
RMM:  17    -0.149708858092E+03    0.28327E+00   -0.87672E-01  2496   0.225E+00    0.962E+00
RMM:  18    -0.149286159330E+03    0.42270E+00   -0.61811E-01  2029   0.225E+00    0.720E+00
RMM:  19    -0.149090812565E+03    0.19535E+00   -0.20756E+00  2181   0.383E+00    0.499E+00
RMM:  20    -0.148852758427E+03    0.23805E+00   -0.38479E-01  2186   0.200E+00    0.191E+00
RMM:  21    -0.148830791020E+03    0.21967E-01   -0.39009E-02  2789   0.407E-01    0.178E+00
RMM:  22    -0.148835026715E+03   -0.42357E-02   -0.45849E-03  2784   0.147E-01    0.193E+00
RMM:  23    -0.148869310066E+03   -0.34283E-01   -0.16028E-02  2388   0.341E-01    0.321E+00
RMM:  24    -0.148842163856E+03    0.27146E-01   -0.50226E-02  2225   0.577E-01    0.292E+00
RMM:  25    -0.148808611870E+03    0.33552E-01   -0.23688E-02  2258   0.437E-01    0.173E+00
RMM:  26    -0.148797793031E+03    0.10819E-01   -0.67683E-02  2178   0.764E-01    0.123E+00
RMM:  27    -0.148810834367E+03   -0.13041E-01   -0.33737E-02  2357   0.488E-01    0.184E+00
RMM:  28    -0.148794697827E+03    0.16137E-01   -0.62624E-03  2163   0.237E-01    0.762E-01
RMM:  29    -0.148793856815E+03    0.84101E-03   -0.30376E-03  2182   0.153E-01    0.714E-01
RMM:  30    -0.148786858082E+03    0.69987E-02   -0.11628E-02  2071   0.320E-01    0.875E-01
RMM:  31    -0.148786929450E+03   -0.71368E-04   -0.31854E-03  2319   0.131E-01    0.342E-01
RMM:  32    -0.148787135367E+03   -0.20592E-03   -0.94427E-04  2241   0.784E-02    0.381E-01
RMM:  33    -0.148787003574E+03    0.13179E-03   -0.25398E-03  2099   0.150E-01    0.252E-01
RMM:  34    -0.148788244731E+03   -0.12412E-02   -0.14667E-03  2031   0.117E-01    0.370E-01
RMM:  35    -0.148787039901E+03    0.12048E-02   -0.53387E-04  2023   0.704E-02    0.188E-01
RMM:  36    -0.148786868590E+03    0.17131E-03   -0.21505E-04  1966   0.428E-02    0.136E-01
RMM:  37    -0.148787224018E+03   -0.35543E-03   -0.14474E-04  1730   0.402E-02    0.165E-01
RMM:  38    -0.148786736022E+03    0.48800E-03   -0.27030E-04  1893   0.453E-02    0.158E-01
RMM:  39    -0.148786694307E+03    0.41715E-04   -0.88145E-05  1613   0.270E-02    0.196E-01
RMM:  40    -0.148786762363E+03   -0.68056E-04   -0.10786E-04  1771   0.286E-02    0.258E-01
RMM:  41    -0.148786778186E+03   -0.15823E-04   -0.76866E-05  1591   0.295E-02    0.917E-02
RMM:  42    -0.148786844669E+03   -0.66483E-04   -0.12873E-04  1810   0.331E-02    0.371E-02
RMM:  43    -0.148786870928E+03   -0.26260E-04   -0.38333E-05  1410   0.221E-02    0.301E-02
RMM:  44    -0.148786833069E+03    0.37859E-04   -0.95898E-05  1518   0.282E-02    0.296E-02
RMM:  45    -0.148786939511E+03   -0.10644E-03   -0.23526E-05  1325   0.133E-02    0.372E-02
RMM:  46    -0.148786947584E+03   -0.80739E-05   -0.59097E-06  1097   0.823E-03
   1 F= -.14878695E+03 E0= -.14878695E+03  d E =0.000000E+00

Currently Loaded Modulefiles:
  1) intel/2017.4         2) perf-reports/7.0.6

Job script resource usage:
       JobID  MaxVMSize     MaxRSS 
------------ ---------- ---------- 
28514178.ba+    499232K      5887K 

Job step resource usage:
       JobID    JobName  AllocCPUS  MaxVMSize     MaxRSS    Elapsed ExitCode 
------------ ---------- ---------- ---------- ---------- ---------- -------- 
28514178        jobname          4                         00:14:19      0:0 
28514178.0    pmi_proxy          1   2247240K    992567K   00:14:15      0:0 

Job 28514178 ("jobname") completed on c14-23 at Wed Nov 6 14:28:26 CET 2019
