<?xml version="1.0" encoding="ISO-8859-1"?>
<modeling>
 <generator>
  <i name="program" type="string">vasp </i>
  <i name="version" type="string">5.4.4.18Apr17-6-g9f103f2a35  </i>
  <i name="subversion" type="string">(build Jun 30 2017 11:15:00) complex            parallel </i>
  <i name="platform" type="string">STALLO_VASP_5.4.4 </i>
  <i name="date" type="string">2019 11 06 </i>
  <i name="time" type="string">14:14:11 </i>
 </generator>
 <incar>
  <i type="string" name="PREC">normal    ! low/normal/accurate</i>
  <i type="string" name="ALGO"> Fast      ! Algorithm for electronic re</i>
  <i type="int" name="ISPIN">     1</i>
  <i type="int" name="NELMIN">     4</i>
  <i name="EDIFF">      0.00001000</i>
  <i type="int" name="NSW">     0</i>
  <i name="ENCUT">    850.00000000</i>
  <i type="logical" name="LREAL"> F  </i>
  <i type="int" name="ISMEAR">    -5</i>
  <i name="SIGMA">      0.20000000</i>
  <i type="logical" name="LWAVE"> F  </i>
  <v type="int" name="KPOINT_BSE">    -1     0     0     0</v>
 </incar>
 <structure name="primitive_cell" >
  <crystal>
   <varray name="basis" >
    <v>       5.52288297       0.00000000       0.00000000 </v>
    <v>       0.00000000       3.90526800       0.00000000 </v>
    <v>       0.00000000       0.00000000      21.66504520 </v>
   </varray>
   <i name="volume">    467.27902047 </i>
   <varray name="rec_basis" >
    <v>       0.18106485       0.00000000       0.00000000 </v>
    <v>       0.00000000       0.25606437       0.00000000 </v>
    <v>       0.00000000       0.00000000       0.04615730 </v>
   </varray>
  </crystal>
  <varray name="positions" >
   <v>      -0.50000000       0.00000000       0.27694380 </v>
   <v>      -0.50000000      -0.50000000       0.27694380 </v>
   <v>      -0.50000000       0.00000000       0.40440449 </v>
   <v>       0.25000000      -0.50000000       0.34067414 </v>
   <v>      -0.25000000      -0.50000000       0.34067414 </v>
   <v>       0.00000000       0.00000000       0.27694380 </v>
   <v>       0.00000000       0.00000000       0.40440449 </v>
   <v>       0.00000000      -0.50000000       0.40440449 </v>
   <v>      -0.25000000      -0.50000000       0.46813483 </v>
   <v>       0.25000000      -0.50000000       0.46813483 </v>
   <v>      -0.50000000       0.00000000      -0.46813483 </v>
   <v>      -0.50000000      -0.50000000      -0.46813483 </v>
   <v>       0.00000000       0.00000000      -0.46813483 </v>
   <v>       0.25000000      -0.50000000      -0.40440449 </v>
   <v>      -0.25000000      -0.50000000      -0.40440449 </v>
   <v>      -0.50000000       0.00000000      -0.34067414 </v>
   <v>       0.00000000       0.00000000      -0.34067414 </v>
   <v>       0.00000000      -0.50000000      -0.34067414 </v>
   <v>      -0.25000000      -0.50000000      -0.27694380 </v>
   <v>       0.25000000      -0.50000000      -0.27694380 </v>
  </varray>
 </structure>
 <varray name="primitive_index" >
  <v type="int" >        1 </v>
  <v type="int" >       17 </v>
  <v type="int" >       14 </v>
  <v type="int" >        2 </v>
  <v type="int" >        3 </v>
  <v type="int" >       13 </v>
  <v type="int" >        4 </v>
  <v type="int" >       18 </v>
  <v type="int" >        5 </v>
  <v type="int" >        6 </v>
  <v type="int" >        7 </v>
  <v type="int" >       19 </v>
  <v type="int" >       15 </v>
  <v type="int" >        8 </v>
  <v type="int" >        9 </v>
  <v type="int" >       16 </v>
  <v type="int" >       10 </v>
  <v type="int" >       20 </v>
  <v type="int" >       11 </v>
  <v type="int" >       12 </v>
 </varray>
 <kpoints>
  <generation param="Gamma">
   <v type="int" name="divisions">       5        7        1 </v>
   <v name="usershift">      0.00000000       0.00000000       0.00000000 </v>
   <v name="genvec1">      0.20000000       0.00000000       0.00000000 </v>
   <v name="genvec2">      0.00000000       0.14285714       0.00000000 </v>
   <v name="genvec3">      0.00000000       0.00000000       1.00000000 </v>
   <v name="shift">      0.00000000       0.00000000       0.00000000 </v>
  </generation>
  <varray name="kpointlist" >
   <v>       0.00000000       0.00000000       0.00000000 </v>
   <v>       0.20000000       0.00000000       0.00000000 </v>
   <v>       0.40000000       0.00000000       0.00000000 </v>
   <v>       0.00000000       0.14285714       0.00000000 </v>
   <v>       0.20000000       0.14285714       0.00000000 </v>
   <v>       0.40000000       0.14285714       0.00000000 </v>
   <v>       0.00000000       0.28571429       0.00000000 </v>
   <v>       0.20000000       0.28571429       0.00000000 </v>
   <v>       0.40000000       0.28571429       0.00000000 </v>
   <v>       0.00000000       0.42857143       0.00000000 </v>
   <v>       0.20000000       0.42857143       0.00000000 </v>
   <v>       0.40000000       0.42857143       0.00000000 </v>
  </varray>
  <varray name="weights" >
   <v>       0.02857143 </v>
   <v>       0.05714286 </v>
   <v>       0.05714286 </v>
   <v>       0.05714286 </v>
   <v>       0.11428571 </v>
   <v>       0.11428571 </v>
   <v>       0.05714286 </v>
   <v>       0.11428571 </v>
   <v>       0.11428571 </v>
   <v>       0.05714286 </v>
   <v>       0.11428571 </v>
   <v>       0.11428571 </v>
  </varray>
  <varray name="tetrahedronlist"  type="int" >
   <v type="int" >        2        1        1        2        5 </v>
   <v type="int" >        2        1        1        4        5 </v>
   <v type="int" >        2        1        4        4        5 </v>
   <v type="int" >        2        1        2        2        5 </v>
   <v type="int" >        2        1        2        5        5 </v>
   <v type="int" >        2        1        4        5        5 </v>
   <v type="int" >        2        2        2        3        6 </v>
   <v type="int" >        2        2        2        5        6 </v>
   <v type="int" >        2        2        5        5        6 </v>
   <v type="int" >        2        2        3        3        6 </v>
   <v type="int" >        2        2        3        6        6 </v>
   <v type="int" >        2        2        5        6        6 </v>
   <v type="int" >        4        3        3        3        6 </v>
   <v type="int" >        4        3        3        6        6 </v>
   <v type="int" >        4        3        6        6        6 </v>
   <v type="int" >        2        2        3        3        5 </v>
   <v type="int" >        2        3        3        5        6 </v>
   <v type="int" >        2        3        5        6        6 </v>
   <v type="int" >        2        2        2        3        5 </v>
   <v type="int" >        2        2        3        5        5 </v>
   <v type="int" >        2        3        5        5        6 </v>
   <v type="int" >        2        1        2        2        4 </v>
   <v type="int" >        2        2        2        4        5 </v>
   <v type="int" >        2        2        4        5        5 </v>
   <v type="int" >        2        1        1        2        4 </v>
   <v type="int" >        2        1        2        4        4 </v>
   <v type="int" >        2        2        4        4        5 </v>
   <v type="int" >        2        4        4        5        8 </v>
   <v type="int" >        2        4        4        7        8 </v>
   <v type="int" >        2        4        7        7        8 </v>
   <v type="int" >        2        4        5        5        8 </v>
   <v type="int" >        2        4        5        8        8 </v>
   <v type="int" >        2        4        7        8        8 </v>
   <v type="int" >        2        5        5        6        9 </v>
   <v type="int" >        2        5        5        8        9 </v>
   <v type="int" >        2        5        8        8        9 </v>
   <v type="int" >        2        5        6        6        9 </v>
   <v type="int" >        2        5        6        9        9 </v>
   <v type="int" >        2        5        8        9        9 </v>
   <v type="int" >        4        6        6        6        9 </v>
   <v type="int" >        4        6        6        9        9 </v>
   <v type="int" >        4        6        9        9        9 </v>
   <v type="int" >        2        5        6        6        8 </v>
   <v type="int" >        2        6        6        8        9 </v>
   <v type="int" >        2        6        8        9        9 </v>
   <v type="int" >        2        5        5        6        8 </v>
   <v type="int" >        2        5        6        8        8 </v>
   <v type="int" >        2        6        8        8        9 </v>
   <v type="int" >        2        4        5        5        7 </v>
   <v type="int" >        2        5        5        7        8 </v>
   <v type="int" >        2        5        7        8        8 </v>
   <v type="int" >        2        4        4        5        7 </v>
   <v type="int" >        2        4        5        7        7 </v>
   <v type="int" >        2        5        7        7        8 </v>
   <v type="int" >        2        7        7        8       11 </v>
   <v type="int" >        2        7        7       10       11 </v>
   <v type="int" >        2        7       10       10       11 </v>
   <v type="int" >        2        7        8        8       11 </v>
   <v type="int" >        2        7        8       11       11 </v>
   <v type="int" >        2        7       10       11       11 </v>
   <v type="int" >        2        8        8        9       12 </v>
   <v type="int" >        2        8        8       11       12 </v>
   <v type="int" >        2        8       11       11       12 </v>
   <v type="int" >        2        8        9        9       12 </v>
   <v type="int" >        2        8        9       12       12 </v>
   <v type="int" >        2        8       11       12       12 </v>
   <v type="int" >        4        9        9        9       12 </v>
   <v type="int" >        4        9        9       12       12 </v>
   <v type="int" >        4        9       12       12       12 </v>
   <v type="int" >        2        8        9        9       11 </v>
   <v type="int" >        2        9        9       11       12 </v>
   <v type="int" >        2        9       11       12       12 </v>
   <v type="int" >        2        8        8        9       11 </v>
   <v type="int" >        2        8        9       11       11 </v>
   <v type="int" >        2        9       11       11       12 </v>
   <v type="int" >        2        7        8        8       10 </v>
   <v type="int" >        2        8        8       10       11 </v>
   <v type="int" >        2        8       10       11       11 </v>
   <v type="int" >        2        7        7        8       10 </v>
   <v type="int" >        2        7        8       10       10 </v>
   <v type="int" >        2        8       10       10       11 </v>
   <v type="int" >        4       10       10       11       11 </v>
   <v type="int" >        4       10       10       10       11 </v>
   <v type="int" >        4       10       11       11       11 </v>
   <v type="int" >        4       11       11       12       12 </v>
   <v type="int" >        4       11       11       11       12 </v>
   <v type="int" >        4       11       12       12       12 </v>
   <v type="int" >        6       12       12       12       12 </v>
  </varray>
  <i name="volumeweight">      0.00476190 </i>
 </kpoints>
 <parameters>
  <separator name="general" >
   <i type="string" name="SYSTEM">unknown system</i>
   <i type="logical" name="LCOMPAT"> F  </i>
  </separator>
  <separator name="electronic" >
   <i type="string" name="PREC">normal</i>
   <i name="ENMAX">    850.00000000</i>
   <i name="ENAUG">    605.39200000</i>
   <i name="EDIFF">      0.00001000</i>
   <i type="int" name="IALGO">    68</i>
   <i type="int" name="IWAVPR">    10</i>
   <i type="int" name="NBANDS">    76</i>
   <i name="NELECT">    128.00000000</i>
   <i type="int" name="TURBO">     0</i>
   <i type="int" name="IRESTART">     0</i>
   <i type="int" name="NREBOOT">     0</i>
   <i type="int" name="NMIN">     0</i>
   <i name="EREF">      0.00000000</i>
   <separator name="electronic smearing" >
    <i type="int" name="ISMEAR">    -5</i>
    <i name="SIGMA">      0.20000000</i>
    <i name="KSPACING">      0.50000000</i>
    <i type="logical" name="KGAMMA"> T  </i>
   </separator>
   <separator name="electronic projectors" >
    <i type="logical" name="LREAL"> F  </i>
    <v name="ROPT">      0.00000000      0.00000000      0.00000000</v>
    <i type="int" name="LMAXPAW">  -100</i>
    <i type="int" name="LMAXMIX">     2</i>
    <i type="logical" name="NLSPLINE"> F  </i>
   </separator>
   <separator name="electronic startup" >
    <i type="int" name="ISTART">     0</i>
    <i type="int" name="ICHARG">     2</i>
    <i type="int" name="INIWAV">     1</i>
   </separator>
   <separator name="electronic spin" >
    <i type="int" name="ISPIN">     1</i>
    <i type="logical" name="LNONCOLLINEAR"> F  </i>
    <v name="MAGMOM">      1.00000000      1.00000000      1.00000000      1.00000000      1.00000000      1.00000000      1.00000000      1.00000000      1.00000000      1.00000000      1.00000000      1.00000000      1.00000000      1.00000000      1.00000000      1.00000000      1.00000000      1.00000000      1.00000000      1.00000000
</v>
    <i name="NUPDOWN">     -1.00000000</i>
    <i type="logical" name="LSORBIT"> F  </i>
    <v name="SAXIS">      0.00000000      0.00000000      1.00000000</v>
    <i type="logical" name="LSPIRAL"> F  </i>
    <v name="QSPIRAL">      0.00000000      0.00000000      0.00000000</v>
    <i type="logical" name="LZEROZ"> F  </i>
   </separator>
   <separator name="electronic exchange-correlation" >
    <i type="logical" name="LASPH"> F  </i>
    <i type="logical" name="LMETAGGA"> F  </i>
   </separator>
   <separator name="electronic convergence" >
    <i type="int" name="NELM">    60</i>
    <i type="int" name="NELMDL">    -5</i>
    <i type="int" name="NELMIN">     4</i>
    <i name="ENINI">    850.00000000</i>
    <separator name="electronic convergence detail" >
     <i type="logical" name="LDIAG"> T  </i>
     <i type="logical" name="LSUBROT"> F  </i>
     <i name="WEIMIN">      0.00000000</i>
     <i name="EBREAK">      0.00000003</i>
     <i name="DEPER">      0.30000000</i>
     <i type="int" name="NRMM">     4</i>
     <i name="TIME">      0.40000000</i>
    </separator>
   </separator>
   <separator name="electronic mixer" >
    <i name="AMIX">      0.40000000</i>
    <i name="BMIX">      1.00000000</i>
    <i name="AMIN">      0.10000000</i>
    <i name="AMIX_MAG">      1.60000000</i>
    <i name="BMIX_MAG">      1.00000000</i>
    <separator name="electronic mixer details" >
     <i type="int" name="IMIX">     4</i>
     <i type="logical" name="MIXFIRST"> F  </i>
     <i type="int" name="MAXMIX">   -45</i>
     <i name="WC">    100.00000000</i>
     <i type="int" name="INIMIX">     1</i>
     <i type="int" name="MIXPRE">     1</i>
     <i type="int" name="MREMOVE">     5</i>
    </separator>
   </separator>
   <separator name="electronic dipolcorrection" >
    <i type="logical" name="LDIPOL"> F  </i>
    <i type="logical" name="LMONO"> F  </i>
    <i type="int" name="IDIPOL">     0</i>
    <i name="EPSILON">      1.00000000</i>
    <v name="DIPOL">   -100.00000000   -100.00000000   -100.00000000</v>
    <i name="EFIELD">      0.00000000</i>
   </separator>
  </separator>
  <separator name="grids" >
   <i type="int" name="NGX">    40</i>
   <i type="int" name="NGY">    28</i>
   <i type="int" name="NGZ">   160</i>
   <i type="int" name="NGXF">    80</i>
   <i type="int" name="NGYF">    56</i>
   <i type="int" name="NGZF">   320</i>
   <i type="logical" name="ADDGRID"> F  </i>
  </separator>
  <separator name="ionic" >
   <i type="int" name="NSW">     0</i>
   <i type="int" name="IBRION">    -1</i>
   <i type="int" name="MDALGO">     0</i>
   <i type="int" name="ISIF">     2</i>
   <i name="PSTRESS">      0.00000000</i>
   <i name="EDIFFG">      0.00010000</i>
   <i type="int" name="NFREE">     0</i>
   <i name="POTIM">      0.50000000</i>
   <i name="SMASS">     -3.00000000</i>
   <i name="SCALEE">      1.00000000</i>
  </separator>
  <separator name="ionic md" >
   <i name="TEBEG">      0.00010000</i>
   <i name="TEEND">      0.00010000</i>
   <i type="int" name="NBLOCK">     1</i>
   <i type="int" name="KBLOCK">     1</i>
   <i type="int" name="NPACO">   256</i>
   <i name="APACO">     16.00000000</i>
  </separator>
  <separator name="symmetry" >
   <i type="int" name="ISYM">     2</i>
   <i name="SYMPREC">      0.00001000</i>
  </separator>
  <separator name="dos" >
   <i type="int" name="LORBIT">     0</i>
   <v name="RWIGS">     -1.00000000     -1.00000000     -1.00000000</v>
   <i type="int" name="NEDOS">   301</i>
   <i name="EMIN">     10.00000000</i>
   <i name="EMAX">    -10.00000000</i>
   <i name="EFERMI">      0.00000000</i>
  </separator>
  <separator name="writing" >
   <i type="int" name="NWRITE">     2</i>
   <i type="logical" name="LWAVE"> F  </i>
   <i type="logical" name="LDOWNSAMPLE"> F  </i>
   <i type="logical" name="LCHARG"> T  </i>
   <i type="logical" name="LPARD"> F  </i>
   <i type="logical" name="LVTOT"> F  </i>
   <i type="logical" name="LVHAR"> F  </i>
   <i type="logical" name="LELF"> F  </i>
   <i type="logical" name="LOPTICS"> F  </i>
   <v name="STM">      0.00000000      0.00000000      0.00000000      0.00000000      0.00000000      0.00000000      0.00000000</v>
  </separator>
  <separator name="performance" >
   <i type="int" name="NPAR">     2</i>
   <i type="int" name="NSIM">     4</i>
   <i type="int" name="NBLK">    -1</i>
   <i type="logical" name="LPLANE"> T  </i>
   <i type="logical" name="LSCALAPACK"> T  </i>
   <i type="logical" name="LSCAAWARE"> F  </i>
   <i type="logical" name="LSCALU"> F  </i>
   <i type="logical" name="LASYNC"> F  </i>
   <i type="logical" name="LORBITALREAL"> F  </i>
  </separator>
  <separator name="miscellaneous" >
   <i type="int" name="IDIOT">     3</i>
   <i type="int" name="ISPECIAL">     0</i>
   <i type="logical" name="LMUSIC"> F  </i>
   <v name="POMASS">     16.00000000     87.62000000     47.88000000</v>
   <v name="DARWINR">      0.00000000      0.00000000      0.00000000</v>
   <v name="DARWINV">      1.00000000      1.00000000      1.00000000</v>
   <i type="logical" name="LCORR"> T  </i>
  </separator>
  <i type="logical" name="GGA_COMPAT"> T  </i>
  <i type="logical" name="LBERRY"> F  </i>
  <i type="int" name="ICORELEVEL">     0</i>
  <i type="logical" name="LDAU"> F  </i>
  <i type="int" name="I_CONSTRAINED_M">     0</i>
  <separator name="electronic exchange-correlation" >
   <i type="string" name="GGA">--</i>
   <i type="int" name="VOSKOWN">     0</i>
   <i type="logical" name="LHFCALC"> F  </i>
   <i type="string" name="PRECFOCK"></i>
   <i type="logical" name="LSYMGRAD"> F  </i>
   <i type="logical" name="LHFONE"> F  </i>
   <i type="logical" name="LRHFCALC"> F  </i>
   <i type="logical" name="LTHOMAS"> F  </i>
   <i type="logical" name="LMODELHF"> F  </i>
   <i name="ENCUT4O">     -1.00000000</i>
   <i type="int" name="EXXOEP">     0</i>
   <i type="int" name="FOURORBIT">     0</i>
   <i name="AEXX">      0.00000000</i>
   <i name="HFALPHA">      0.00000000</i>
   <i name="MCALPHA">      0.00000000</i>
   <i name="ALDAX">      1.00000000</i>
   <i name="AGGAX">      1.00000000</i>
   <i name="ALDAC">      1.00000000</i>
   <i name="AGGAC">      1.00000000</i>
   <i type="int" name="NKREDX">     1</i>
   <i type="int" name="NKREDY">     1</i>
   <i type="int" name="NKREDZ">     1</i>
   <i type="logical" name="SHIFTRED"> F  </i>
   <i type="logical" name="ODDONLY"> F  </i>
   <i type="logical" name="EVENONLY"> F  </i>
   <i type="int" name="LMAXFOCK">     0</i>
   <i type="int" name="NMAXFOCKAE">     0</i>
   <i type="logical" name="LFOCKAEDFT"> F  </i>
   <i name="HFSCREEN">      0.00000000</i>
   <i name="HFSCREENC">      0.00000000</i>
   <i type="int" name="NBANDSGWLOW">     0</i>
  </separator>
  <separator name="vdW DFT" >
   <i type="logical" name="LUSE_VDW"> F  </i>
   <i name="Zab_VDW">     -0.84910000</i>
   <i name="PARAM1">      0.12340000</i>
   <i name="PARAM2">      1.00000000</i>
   <i name="PARAM3">      0.00000000</i>
  </separator>
  <separator name="model GW" >
   <i type="int" name="MODEL_GW">     0</i>
   <i name="MODEL_EPS0">     14.01837061</i>
   <i name="MODEL_ALPHA">      1.00000000</i>
  </separator>
  <separator name="linear response parameters" >
   <i type="logical" name="LEPSILON"> F  </i>
   <i type="logical" name="LRPA"> F  </i>
   <i type="logical" name="LNABLA"> F  </i>
   <i type="logical" name="LVEL"> F  </i>
   <i type="int" name="KINTER">     0</i>
   <i name="CSHIFT">      0.10000000</i>
   <i name="OMEGAMAX">     -1.00000000</i>
   <i name="DEG_THRESHOLD">      0.00200000</i>
   <i name="RTIME">     -0.10000000</i>
   <i name="WPLASMAI">      0.00000000</i>
   <v name="DFIELD">      0.00000000      0.00000000      0.00000000</v>
   <v name="WPLASMA">      0.00000000      0.00000000      0.00000000      0.00000000      0.00000000      0.00000000      0.00000000      0.00000000      0.00000000</v>
  </separator>
  <separator name="orbital magnetization" >
   <i type="logical" name="NUCIND"> F  </i>
   <v name="MAGPOS">      0.00000000      0.00000000      0.00000000</v>
   <i type="logical" name="LNICSALL"> T  </i>
   <i type="logical" name="ORBITALMAG"> F  </i>
   <i type="logical" name="LMAGBLOCH"> F  </i>
   <i type="logical" name="LCHIMAG"> F  </i>
   <i type="logical" name="LGAUGE"> T  </i>
   <i type="int" name="MAGATOM">     0</i>
   <v name="MAGDIPOL">      0.00000000      0.00000000      0.00000000</v>
   <v name="AVECCONST">      0.00000000      0.00000000      0.00000000</v>
  </separator>
  <separator name="response functions" >
   <i type="logical" name="LADDER"> F  </i>
   <i type="logical" name="LRPAFORCE"> F  </i>
   <i type="logical" name="LFXC"> F  </i>
   <i type="logical" name="LHARTREE"> T  </i>
   <i type="int" name="IBSE">     0</i>
   <v type="int" name="KPOINT">    -1     0     0     0</v>
   <i type="logical" name="LTCTE"> F  </i>
   <i type="logical" name="LTETE"> F  </i>
   <i type="logical" name="LTRIPLET"> F  </i>
   <i type="logical" name="LFXCEPS"> F  </i>
   <i type="logical" name="LFXHEG"> F  </i>
   <i type="int" name="NATURALO">     2</i>
   <i type="logical" name="L2ORDER"> F  </i>
   <i type="logical" name="LMP2LT"> F  </i>
   <i type="logical" name="LUSEW"> F  </i>
   <i name="ENCUTGW">     -2.00000000</i>
   <i name="ENCUTGWSOFT">     -2.00000000</i>
   <i name="ENCUTLF">     -1.00000000</i>
   <i type="int" name="LMAXMP2">    -1</i>
   <i name="SCISSOR">      0.00000000</i>
   <i type="int" name="NOMEGA">     0</i>
   <i type="int" name="NOMEGAR">     0</i>
   <i type="int" name="NBANDSGW">    -1</i>
   <i type="int" name="NBANDSO">    -1</i>
   <i type="int" name="NBANDSV">    -1</i>
   <i type="int" name="NELM">     1</i>
   <i type="int" name="NELMHF">     1</i>
   <i type="int" name="DIM">     3</i>
   <i type="int" name="ANTIRES">     0</i>
   <i name="OMEGAMAX">    -30.00000000</i>
   <i name="OMEGAMIN">    -30.00000000</i>
   <i name="OMEGATL">   -200.00000000</i>
   <i type="int" name="OMEGAGRID">   140</i>
   <i name="CSHIFT">     -0.10000000</i>
   <i type="logical" name="SELFENERGY"> F  </i>
   <i type="logical" name="LSPECTRAL"> F  </i>
   <i type="logical" name="LSPECTRALGW"> F  </i>
   <i type="logical" name="LSINGLES"> F  </i>
   <i type="logical" name="LFERMIGW"> F  </i>
   <i type="logical" name="ODDONLYGW"> F  </i>
   <i type="logical" name="EVENONLYGW"> F  </i>
   <i type="int" name="NKREDLFX">     1</i>
   <i type="int" name="NKREDLFY">     1</i>
   <i type="int" name="NKREDLFZ">     1</i>
   <i type="int" name="MAXMEM">  2800</i>
   <i type="int" name="TELESCOPE">     0</i>
   <i type="int" name="TAUPAR">     1</i>
   <i type="int" name="OMEGAPAR">    -1</i>
   <i name="LAMBDA">      1.00000000</i>
  </separator>
  <separator name="External order field" >
   <i name="OFIELD_KAPPA">      0.00000000</i>
   <v name="OFIELD_K">      0.00000000      0.00000000      0.00000000</v>
   <i name="OFIELD_Q6_NEAR">      0.00000000</i>
   <i name="OFIELD_Q6_FAR">      0.00000000</i>
   <i name="OFIELD_A">      0.00000000</i>
  </separator>
 </parameters>
 <atominfo>
  <atoms>      20 </atoms>
  <types>       3 </types>
  <array name="atoms" >
   <dimension dim="1">ion</dimension>
   <field type="string">element</field>
   <field type="int">atomtype</field>
   <set>
    <rc><c>O </c><c>   1</c></rc>
    <rc><c>O </c><c>   1</c></rc>
    <rc><c>O </c><c>   1</c></rc>
    <rc><c>O </c><c>   1</c></rc>
    <rc><c>O </c><c>   1</c></rc>
    <rc><c>O </c><c>   1</c></rc>
    <rc><c>O </c><c>   1</c></rc>
    <rc><c>O </c><c>   1</c></rc>
    <rc><c>O </c><c>   1</c></rc>
    <rc><c>O </c><c>   1</c></rc>
    <rc><c>O </c><c>   1</c></rc>
    <rc><c>O </c><c>   1</c></rc>
    <rc><c>Sr</c><c>   2</c></rc>
    <rc><c>Sr</c><c>   2</c></rc>
    <rc><c>Sr</c><c>   2</c></rc>
    <rc><c>Sr</c><c>   2</c></rc>
    <rc><c>Ti</c><c>   3</c></rc>
    <rc><c>Ti</c><c>   3</c></rc>
    <rc><c>Ti</c><c>   3</c></rc>
    <rc><c>Ti</c><c>   3</c></rc>
   </set>
  </array>
  <array name="atomtypes" >
   <dimension dim="1">type</dimension>
   <field type="int">atomspertype</field>
   <field type="string">element</field>
   <field>mass</field>
   <field>valence</field>
   <field type="string">pseudopotential</field>
   <set>
    <rc><c>  12</c><c>O </c><c>     16.00000000</c><c>      6.00000000</c><c> PAW_PBE O 08Apr2002                    </c></rc>
    <rc><c>   4</c><c>Sr</c><c>     87.62000000</c><c>     10.00000000</c><c> PAW_PBE Sr_sv 07Sep2000                </c></rc>
    <rc><c>   4</c><c>Ti</c><c>     47.88000000</c><c>      4.00000000</c><c> PAW_PBE Ti 08Apr2002                   </c></rc>
   </set>
  </array>
 </atominfo>
 <structure name="initialpos" >
  <crystal>
   <varray name="basis" >
    <v>       5.52288297       0.00000000       0.00000000 </v>
    <v>       0.00000000       3.90526800       0.00000000 </v>
    <v>       0.00000000       0.00000000      21.66504520 </v>
   </varray>
   <i name="volume">    467.27902047 </i>
   <varray name="rec_basis" >
    <v>       0.18106485       0.00000000       0.00000000 </v>
    <v>       0.00000000       0.25606437       0.00000000 </v>
    <v>       0.00000000       0.00000000       0.04615730 </v>
   </varray>
  </crystal>
  <varray name="positions" >
   <v>       0.50000000       0.00000000       0.27694380 </v>
   <v>       0.25000000       0.50000000       0.34067414 </v>
   <v>       0.75000000       0.50000000       0.34067414 </v>
   <v>       0.00000000       0.00000000       0.40440449 </v>
   <v>       0.75000000       0.50000000       0.46813483 </v>
   <v>       0.25000000       0.50000000       0.46813483 </v>
   <v>       0.50000000       0.00000000       0.53186517 </v>
   <v>       0.25000000       0.50000000       0.59559551 </v>
   <v>       0.75000000       0.50000000       0.59559551 </v>
   <v>       0.00000000       0.00000000       0.65932586 </v>
   <v>       0.75000000       0.50000000       0.72305620 </v>
   <v>       0.25000000       0.50000000       0.72305620 </v>
   <v>       0.00000000       0.00000000       0.27694380 </v>
   <v>       0.50000000       0.00000000       0.40440449 </v>
   <v>       0.00000000       0.00000000       0.53186517 </v>
   <v>       0.50000000       0.00000000       0.65932586 </v>
   <v>       0.50000000       0.50000000       0.27694380 </v>
   <v>       0.00000000       0.50000000       0.40440449 </v>
   <v>       0.50000000       0.50000000       0.53186517 </v>
   <v>       0.00000000       0.50000000       0.65932586 </v>
  </varray>
 </structure>
 <calculation>
  <scstep>
   <time name="dav">   16.85   16.85</time>
   <time name="total">   17.15   17.29</time>
   <energy>
    <i name="alphaZ">    378.09908315 </i>
    <i name="ewald">  22731.27163923 </i>
    <i name="hartreedc"> -30966.93774878 </i>
    <i name="XCdc">    325.41602833 </i>
    <i name="pawpsdc">   5334.45189010 </i>
    <i name="pawaedc">  -5139.13784255 </i>
    <i name="eentropy">      0.00000000 </i>
    <i name="bandstr">    376.55543965 </i>
    <i name="atom">   8937.50415881 </i>
    <i name="e_fr_energy">   1977.22264793 </i>
    <i name="e_wo_entrp">   1977.22264793 </i>
    <i name="e_0_energy">   1977.22264793 </i>
   </energy>
  </scstep>
  <scstep>
   <time name="dav">   19.27   19.29</time>
   <time name="total">   19.28   19.29</time>
   <energy>
    <i name="e_fr_energy">    304.29548051 </i>
    <i name="e_wo_entrp">    304.29548051 </i>
    <i name="e_0_energy">    304.29548051 </i>
   </energy>
  </scstep>
  <scstep>
   <time name="dav">   21.23   21.22</time>
   <time name="total">   21.23   21.23</time>
   <energy>
    <i name="e_fr_energy">   -153.38594040 </i>
    <i name="e_wo_entrp">   -153.38594040 </i>
    <i name="e_0_energy">   -153.38594040 </i>
   </energy>
  </scstep>
  <scstep>
   <time name="dav">   20.85   20.85</time>
   <time name="total">   20.86   20.85</time>
   <energy>
    <i name="e_fr_energy">   -196.88553886 </i>
    <i name="e_wo_entrp">   -196.88553886 </i>
    <i name="e_0_energy">   -196.88553886 </i>
   </energy>
  </scstep>
  <scstep>
   <time name="dav">   24.13   24.12</time>
   <time name="total">   24.77   24.76</time>
   <energy>
    <i name="e_fr_energy">   -198.76574839 </i>
    <i name="e_wo_entrp">   -198.76574839 </i>
    <i name="e_0_energy">   -198.76574839 </i>
   </energy>
  </scstep>
  <scstep>
   <time name="diag">    1.95    1.95</time>
   <time name="diis">   16.17   16.17</time>
   <time name="orth">    0.36    0.36</time>
   <time name="total">   19.43   19.43</time>
   <energy>
    <i name="e_fr_energy">   -206.46386754 </i>
    <i name="e_wo_entrp">   -206.46386754 </i>
    <i name="e_0_energy">   -206.46386754 </i>
   </energy>
  </scstep>
  <scstep>
   <time name="diag">    1.93    1.93</time>
   <time name="diis">   14.71   14.71</time>
   <time name="orth">    0.36    0.36</time>
   <time name="total">   17.94   17.94</time>
   <energy>
    <i name="e_fr_energy">   -172.70474383 </i>
    <i name="e_wo_entrp">   -172.70474383 </i>
    <i name="e_0_energy">   -172.70474383 </i>
   </energy>
  </scstep>
  <scstep>
   <time name="diag">    1.93    1.93</time>
   <time name="diis">   13.64   13.64</time>
   <time name="orth">    0.36    0.36</time>
   <time name="total">   16.84   16.84</time>
   <energy>
    <i name="e_fr_energy">   -160.71523513 </i>
    <i name="e_wo_entrp">   -160.71523513 </i>
    <i name="e_0_energy">   -160.71523513 </i>
   </energy>
  </scstep>
  <scstep>
   <time name="diag">    1.93    1.93</time>
   <time name="diis">   15.90   15.90</time>
   <time name="orth">    0.36    0.36</time>
   <time name="total">   19.11   19.11</time>
   <energy>
    <i name="e_fr_energy">   -156.36181008 </i>
    <i name="e_wo_entrp">   -156.36181008 </i>
    <i name="e_0_energy">   -156.36181008 </i>
   </energy>
  </scstep>
  <scstep>
   <time name="diag">    1.93    1.93</time>
   <time name="diis">   14.58   14.58</time>
   <time name="orth">    0.36    0.36</time>
   <time name="total">   17.81   17.81</time>
   <energy>
    <i name="e_fr_energy">   -156.63547713 </i>
    <i name="e_wo_entrp">   -156.63547713 </i>
    <i name="e_0_energy">   -156.63547713 </i>
   </energy>
  </scstep>
  <scstep>
   <time name="diag">    2.00    2.00</time>
   <time name="diis">   18.73   18.72</time>
   <time name="orth">    0.36    0.36</time>
   <time name="total">   22.03   22.03</time>
   <energy>
    <i name="e_fr_energy">   -155.38021850 </i>
    <i name="e_wo_entrp">   -155.38021850 </i>
    <i name="e_0_energy">   -155.38021850 </i>
   </energy>
  </scstep>
  <scstep>
   <time name="diag">    2.00    2.00</time>
   <time name="diis">   19.37   19.36</time>
   <time name="orth">    0.36    0.36</time>
   <time name="total">   22.66   22.66</time>
   <energy>
    <i name="e_fr_energy">   -156.42486134 </i>
    <i name="e_wo_entrp">   -156.42486134 </i>
    <i name="e_0_energy">   -156.42486134 </i>
   </energy>
  </scstep>
  <scstep>
   <time name="diag">    2.00    2.00</time>
   <time name="diis">   19.13   19.12</time>
   <time name="orth">    0.36    0.36</time>
   <time name="total">   22.43   22.42</time>
   <energy>
    <i name="e_fr_energy">   -156.12016082 </i>
    <i name="e_wo_entrp">   -156.12016082 </i>
    <i name="e_0_energy">   -156.12016082 </i>
   </energy>
  </scstep>
  <scstep>
   <time name="diag">    1.99    1.99</time>
   <time name="diis">   15.60   15.59</time>
   <time name="orth">    0.36    0.36</time>
   <time name="total">   18.88   18.88</time>
   <energy>
    <i name="e_fr_energy">   -155.92852421 </i>
    <i name="e_wo_entrp">   -155.92852421 </i>
    <i name="e_0_energy">   -155.92852421 </i>
   </energy>
  </scstep>
  <scstep>
   <time name="diag">    2.00    2.00</time>
   <time name="diis">   14.44   14.43</time>
   <time name="orth">    0.36    0.36</time>
   <time name="total">   17.73   17.73</time>
   <energy>
    <i name="e_fr_energy">   -152.81847130 </i>
    <i name="e_wo_entrp">   -152.81847130 </i>
    <i name="e_0_energy">   -152.81847130 </i>
   </energy>
  </scstep>
  <scstep>
   <time name="diag">    2.00    2.00</time>
   <time name="diis">   14.52   14.52</time>
   <time name="orth">    0.36    0.36</time>
   <time name="total">   17.83   17.82</time>
   <energy>
    <i name="e_fr_energy">   -149.99212576 </i>
    <i name="e_wo_entrp">   -149.99212576 </i>
    <i name="e_0_energy">   -149.99212576 </i>
   </energy>
  </scstep>
  <scstep>
   <time name="diag">    2.01    2.01</time>
   <time name="diis">   16.61   16.61</time>
   <time name="orth">    0.36    0.36</time>
   <time name="total">   19.92   19.92</time>
   <energy>
    <i name="e_fr_energy">   -149.70885809 </i>
    <i name="e_wo_entrp">   -149.70885809 </i>
    <i name="e_0_energy">   -149.70885809 </i>
   </energy>
  </scstep>
  <scstep>
   <time name="diag">    2.01    2.00</time>
   <time name="diis">   13.58   13.58</time>
   <time name="orth">    0.36    0.36</time>
   <time name="total">   16.89   16.89</time>
   <energy>
    <i name="e_fr_energy">   -149.28615933 </i>
    <i name="e_wo_entrp">   -149.28615933 </i>
    <i name="e_0_energy">   -149.28615933 </i>
   </energy>
  </scstep>
  <scstep>
   <time name="diag">    2.01    2.01</time>
   <time name="diis">   14.59   14.59</time>
   <time name="orth">    0.36    0.36</time>
   <time name="total">   17.91   17.90</time>
   <energy>
    <i name="e_fr_energy">   -149.09081257 </i>
    <i name="e_wo_entrp">   -149.09081257 </i>
    <i name="e_0_energy">   -149.09081257 </i>
   </energy>
  </scstep>
  <scstep>
   <time name="diag">    2.01    2.01</time>
   <time name="diis">   14.64   14.63</time>
   <time name="orth">    0.36    0.36</time>
   <time name="total">   17.96   17.96</time>
   <energy>
    <i name="e_fr_energy">   -148.85275843 </i>
    <i name="e_wo_entrp">   -148.85275843 </i>
    <i name="e_0_energy">   -148.85275843 </i>
   </energy>
  </scstep>
  <scstep>
   <time name="diag">    2.00    2.00</time>
   <time name="diis">   18.44   18.43</time>
   <time name="orth">    0.36    0.36</time>
   <time name="total">   21.74   21.74</time>
   <energy>
    <i name="e_fr_energy">   -148.83079102 </i>
    <i name="e_wo_entrp">   -148.83079102 </i>
    <i name="e_0_energy">   -148.83079102 </i>
   </energy>
  </scstep>
  <scstep>
   <time name="diag">    2.00    2.00</time>
   <time name="diis">   18.38   18.38</time>
   <time name="orth">    0.36    0.36</time>
   <time name="total">   21.70   21.69</time>
   <energy>
    <i name="e_fr_energy">   -148.83502671 </i>
    <i name="e_wo_entrp">   -148.83502671 </i>
    <i name="e_0_energy">   -148.83502671 </i>
   </energy>
  </scstep>
  <scstep>
   <time name="diag">    2.00    2.00</time>
   <time name="diis">   16.01   16.00</time>
   <time name="orth">    0.36    0.36</time>
   <time name="total">   19.32   19.31</time>
   <energy>
    <i name="e_fr_energy">   -148.86931007 </i>
    <i name="e_wo_entrp">   -148.86931007 </i>
    <i name="e_0_energy">   -148.86931007 </i>
   </energy>
  </scstep>
  <scstep>
   <time name="diag">    2.00    2.00</time>
   <time name="diis">   14.85   14.85</time>
   <time name="orth">    0.36    0.36</time>
   <time name="total">   18.15   18.15</time>
   <energy>
    <i name="e_fr_energy">   -148.84216386 </i>
    <i name="e_wo_entrp">   -148.84216386 </i>
    <i name="e_0_energy">   -148.84216386 </i>
   </energy>
  </scstep>
  <scstep>
   <time name="diag">    1.99    1.99</time>
   <time name="diis">   15.15   15.15</time>
   <time name="orth">    0.36    0.36</time>
   <time name="total">   18.46   18.45</time>
   <energy>
    <i name="e_fr_energy">   -148.80861187 </i>
    <i name="e_wo_entrp">   -148.80861187 </i>
    <i name="e_0_energy">   -148.80861187 </i>
   </energy>
  </scstep>
  <scstep>
   <time name="diag">    2.00    2.00</time>
   <time name="diis">   14.57   14.57</time>
   <time name="orth">    0.36    0.36</time>
   <time name="total">   17.88   17.88</time>
   <energy>
    <i name="e_fr_energy">   -148.79779303 </i>
    <i name="e_wo_entrp">   -148.79779303 </i>
    <i name="e_0_energy">   -148.79779303 </i>
   </energy>
  </scstep>
  <scstep>
   <time name="diag">    2.00    2.00</time>
   <time name="diis">   15.74   15.73</time>
   <time name="orth">    0.36    0.36</time>
   <time name="total">   19.06   19.06</time>
   <energy>
    <i name="e_fr_energy">   -148.81083437 </i>
    <i name="e_wo_entrp">   -148.81083437 </i>
    <i name="e_0_energy">   -148.81083437 </i>
   </energy>
  </scstep>
  <scstep>
   <time name="diag">    2.00    2.00</time>
   <time name="diis">   14.47   14.47</time>
   <time name="orth">    0.36    0.36</time>
   <time name="total">   17.79   17.79</time>
   <energy>
    <i name="e_fr_energy">   -148.79469783 </i>
    <i name="e_wo_entrp">   -148.79469783 </i>
    <i name="e_0_energy">   -148.79469783 </i>
   </energy>
  </scstep>
  <scstep>
   <time name="diag">    2.00    2.00</time>
   <time name="diis">   14.60   14.60</time>
   <time name="orth">    0.36    0.36</time>
   <time name="total">   17.91   17.91</time>
   <energy>
    <i name="e_fr_energy">   -148.79385681 </i>
    <i name="e_wo_entrp">   -148.79385681 </i>
    <i name="e_0_energy">   -148.79385681 </i>
   </energy>
  </scstep>
  <scstep>
   <time name="diag">    2.00    2.00</time>
   <time name="diis">   13.90   13.90</time>
   <time name="orth">    0.36    0.36</time>
   <time name="total">   17.22   17.22</time>
   <energy>
    <i name="e_fr_energy">   -148.78685808 </i>
    <i name="e_wo_entrp">   -148.78685808 </i>
    <i name="e_0_energy">   -148.78685808 </i>
   </energy>
  </scstep>
  <scstep>
   <time name="diag">    1.97    1.97</time>
   <time name="diis">   15.50   15.50</time>
   <time name="orth">    0.36    0.36</time>
   <time name="total">   18.79   18.79</time>
   <energy>
    <i name="e_fr_energy">   -148.78692945 </i>
    <i name="e_wo_entrp">   -148.78692945 </i>
    <i name="e_0_energy">   -148.78692945 </i>
   </energy>
  </scstep>
  <scstep>
   <time name="diag">    1.95    1.95</time>
   <time name="diis">   15.00   14.99</time>
   <time name="orth">    0.36    0.36</time>
   <time name="total">   18.28   18.28</time>
   <energy>
    <i name="e_fr_energy">   -148.78713537 </i>
    <i name="e_wo_entrp">   -148.78713537 </i>
    <i name="e_0_energy">   -148.78713537 </i>
   </energy>
  </scstep>
  <scstep>
   <time name="diag">    1.96    1.96</time>
   <time name="diis">   14.12   14.12</time>
   <time name="orth">    0.36    0.36</time>
   <time name="total">   17.41   17.40</time>
   <energy>
    <i name="e_fr_energy">   -148.78700357 </i>
    <i name="e_wo_entrp">   -148.78700357 </i>
    <i name="e_0_energy">   -148.78700357 </i>
   </energy>
  </scstep>
  <scstep>
   <time name="diag">    1.96    1.96</time>
   <time name="diis">   13.70   13.70</time>
   <time name="orth">    0.36    0.36</time>
   <time name="total">   17.00   16.99</time>
   <energy>
    <i name="e_fr_energy">   -148.78824473 </i>
    <i name="e_wo_entrp">   -148.78824473 </i>
    <i name="e_0_energy">   -148.78824473 </i>
   </energy>
  </scstep>
  <scstep>
   <time name="diag">    1.96    1.96</time>
   <time name="diis">   13.70   13.70</time>
   <time name="orth">    0.36    0.36</time>
   <time name="total">   17.00   16.99</time>
   <energy>
    <i name="e_fr_energy">   -148.78703990 </i>
    <i name="e_wo_entrp">   -148.78703990 </i>
    <i name="e_0_energy">   -148.78703990 </i>
   </energy>
  </scstep>
  <scstep>
   <time name="diag">    1.96    1.96</time>
   <time name="diis">   13.21   13.21</time>
   <time name="orth">    0.36    0.36</time>
   <time name="total">   16.51   16.51</time>
   <energy>
    <i name="e_fr_energy">   -148.78686859 </i>
    <i name="e_wo_entrp">   -148.78686859 </i>
    <i name="e_0_energy">   -148.78686859 </i>
   </energy>
  </scstep>
  <scstep>
   <time name="diag">    1.96    1.96</time>
   <time name="diis">   11.86   11.86</time>
   <time name="orth">    0.36    0.36</time>
   <time name="total">   15.15   15.16</time>
   <energy>
    <i name="e_fr_energy">   -148.78722402 </i>
    <i name="e_wo_entrp">   -148.78722402 </i>
    <i name="e_0_energy">   -148.78722402 </i>
   </energy>
  </scstep>
  <scstep>
   <time name="diag">    1.95    1.95</time>
   <time name="diis">   12.75   12.74</time>
   <time name="orth">    0.36    0.36</time>
   <time name="total">   16.04   16.04</time>
   <energy>
    <i name="e_fr_energy">   -148.78673602 </i>
    <i name="e_wo_entrp">   -148.78673602 </i>
    <i name="e_0_energy">   -148.78673602 </i>
   </energy>
  </scstep>
  <scstep>
   <time name="diag">    1.93    1.93</time>
   <time name="diis">   11.11   11.11</time>
   <time name="orth">    0.36    0.36</time>
   <time name="total">   14.38   14.37</time>
   <energy>
    <i name="e_fr_energy">   -148.78669431 </i>
    <i name="e_wo_entrp">   -148.78669431 </i>
    <i name="e_0_energy">   -148.78669431 </i>
   </energy>
  </scstep>
  <scstep>
   <time name="diag">    1.97    1.97</time>
   <time name="diis">   11.95   11.95</time>
   <time name="orth">    0.36    0.36</time>
   <time name="total">   15.26   15.26</time>
   <energy>
    <i name="e_fr_energy">   -148.78676236 </i>
    <i name="e_wo_entrp">   -148.78676236 </i>
    <i name="e_0_energy">   -148.78676236 </i>
   </energy>
  </scstep>
  <scstep>
   <time name="diag">    1.95    1.95</time>
   <time name="diis">   10.80   10.80</time>
   <time name="orth">    0.35    0.35</time>
   <time name="total">   14.08   14.08</time>
   <energy>
    <i name="e_fr_energy">   -148.78677819 </i>
    <i name="e_wo_entrp">   -148.78677819 </i>
    <i name="e_0_energy">   -148.78677819 </i>
   </energy>
  </scstep>
  <scstep>
   <time name="diag">    1.94    1.94</time>
   <time name="diis">   12.28   12.28</time>
   <time name="orth">    0.36    0.36</time>
   <time name="total">   15.57   15.57</time>
   <energy>
    <i name="e_fr_energy">   -148.78684467 </i>
    <i name="e_wo_entrp">   -148.78684467 </i>
    <i name="e_0_energy">   -148.78684467 </i>
   </energy>
  </scstep>
  <scstep>
   <time name="diag">    1.95    1.95</time>
   <time name="diis">    9.75    9.74</time>
   <time name="orth">    0.36    0.36</time>
   <time name="total">   13.04   13.04</time>
   <energy>
    <i name="e_fr_energy">   -148.78687093 </i>
    <i name="e_wo_entrp">   -148.78687093 </i>
    <i name="e_0_energy">   -148.78687093 </i>
   </energy>
  </scstep>
  <scstep>
   <time name="diag">    1.94    1.94</time>
   <time name="diis">   10.47   10.47</time>
   <time name="orth">    0.35    0.36</time>
   <time name="total">   13.75   13.75</time>
   <energy>
    <i name="e_fr_energy">   -148.78683307 </i>
    <i name="e_wo_entrp">   -148.78683307 </i>
    <i name="e_0_energy">   -148.78683307 </i>
   </energy>
  </scstep>
  <scstep>
   <time name="diag">    1.95    1.95</time>
   <time name="diis">    9.27    9.27</time>
   <time name="orth">    0.35    0.35</time>
   <time name="total">   12.57   12.57</time>
   <energy>
    <i name="e_fr_energy">   -148.78693951 </i>
    <i name="e_wo_entrp">   -148.78693951 </i>
    <i name="e_0_energy">   -148.78693951 </i>
   </energy>
  </scstep>
  <scstep>
   <time name="diag">    1.95    1.95</time>
   <time name="diis">    8.15    8.15</time>
   <time name="orth">    0.36    0.36</time>
   <time name="total">   10.75   10.75</time>
   <energy>
    <i name="alphaZ">    378.09908315 </i>
    <i name="ewald">  22731.27163923 </i>
    <i name="hartreedc"> -31289.55867577 </i>
    <i name="XCdc">    340.19626862 </i>
    <i name="pawpsdc">   6158.50551804 </i>
    <i name="pawaedc">  -5987.92246058 </i>
    <i name="eentropy">      0.00000000 </i>
    <i name="bandstr">  -1416.88247908 </i>
    <i name="atom">   8937.50415881 </i>
    <i name="e_fr_energy">   -148.78694758 </i>
    <i name="e_wo_entrp">   -148.78694758 </i>
    <i name="e_0_energy">   -148.78694758 </i>
   </energy>
  </scstep>
  <structure>
   <crystal>
    <varray name="basis" >
     <v>       5.52288297       0.00000000       0.00000000 </v>
     <v>       0.00000000       3.90526800       0.00000000 </v>
     <v>       0.00000000       0.00000000      21.66504520 </v>
    </varray>
    <i name="volume">    467.27902047 </i>
    <varray name="rec_basis" >
     <v>       0.18106485       0.00000000       0.00000000 </v>
     <v>       0.00000000       0.25606437       0.00000000 </v>
     <v>       0.00000000       0.00000000       0.04615730 </v>
    </varray>
   </crystal>
   <varray name="positions" >
    <v>       0.50000000       0.00000000       0.27694380 </v>
    <v>       0.25000000       0.50000000       0.34067414 </v>
    <v>       0.75000000       0.50000000       0.34067414 </v>
    <v>       0.00000000       0.00000000       0.40440449 </v>
    <v>       0.75000000       0.50000000       0.46813483 </v>
    <v>       0.25000000       0.50000000       0.46813483 </v>
    <v>       0.50000000       0.00000000       0.53186517 </v>
    <v>       0.25000000       0.50000000       0.59559551 </v>
    <v>       0.75000000       0.50000000       0.59559551 </v>
    <v>       0.00000000       0.00000000       0.65932586 </v>
    <v>       0.75000000       0.50000000       0.72305620 </v>
    <v>       0.25000000       0.50000000       0.72305620 </v>
    <v>       0.00000000       0.00000000       0.27694380 </v>
    <v>       0.50000000       0.00000000       0.40440449 </v>
    <v>       0.00000000       0.00000000       0.53186517 </v>
    <v>       0.50000000       0.00000000       0.65932586 </v>
    <v>       0.50000000       0.50000000       0.27694380 </v>
    <v>       0.00000000       0.50000000       0.40440449 </v>
    <v>       0.50000000       0.50000000       0.53186517 </v>
    <v>       0.00000000       0.50000000       0.65932586 </v>
   </varray>
  </structure>
  <varray name="forces" >
   <v>       0.00000000      -0.00000000      -1.51529388 </v>
   <v>       0.70353549      -0.00000000      -2.07183748 </v>
   <v>      -0.70353549      -0.00000000      -2.07183748 </v>
   <v>       0.00000000      -0.00000000      -0.75808945 </v>
   <v>       0.55232319      -0.00000000      -1.26612682 </v>
   <v>      -0.55232319       0.00000000      -1.26612682 </v>
   <v>       0.00000000      -0.00000000      -0.58941907 </v>
   <v>       0.80676901      -0.00000000      -1.45248486 </v>
   <v>      -0.80676901      -0.00000000      -1.45248486 </v>
   <v>       0.00000000      -0.00000000      -1.12642244 </v>
   <v>       0.19683513      -0.00000000      -0.99581307 </v>
   <v>      -0.19683513      -0.00000000      -0.99581307 </v>
   <v>       0.00000000      -0.00000000       0.99664410 </v>
   <v>       0.00000000      -0.00000000       0.96077751 </v>
   <v>       0.00000000      -0.00000000       0.74599295 </v>
   <v>       0.00000000      -0.00000000       1.58940674 </v>
   <v>       0.00000000      -0.00000000       2.28692144 </v>
   <v>       0.00000000      -0.00000000       2.59418367 </v>
   <v>       0.00000000      -0.00000000       2.34438751 </v>
   <v>       0.00000000      -0.00000000       4.04343539 </v>
  </varray>
  <varray name="stress" >
   <v>      13.85425458       0.00000000       0.00000000 </v>
   <v>       0.00000000      31.05358821       0.00000000 </v>
   <v>       0.00000000       0.00000000       9.24389503 </v>
  </varray>
  <energy>
   <i name="e_fr_energy">   -148.78694758 </i>
   <i name="e_wo_entrp">   -148.78694758 </i>
   <i name="e_0_energy">      0.00000000 </i>
  </energy>
  <time name="totalsc">  848.14  848.30</time>
  <eigenvalues>
   <array>
    <dimension dim="1">band</dimension>
    <dimension dim="2">kpoint</dimension>
    <dimension dim="3">spin</dimension>
    <field>eigene</field>
    <field>occ</field>
    <set>
     <set comment="spin 1">
      <set comment="kpoint 1">
       <r>  -36.5925    1.0000 </r>
       <r>  -35.2663    1.0000 </r>
       <r>  -34.3061    1.0000 </r>
       <r>  -33.4172    1.0000 </r>
       <r>  -20.5038    1.0000 </r>
       <r>  -20.0326    1.0000 </r>
       <r>  -19.8466    1.0000 </r>
       <r>  -19.3553    1.0000 </r>
       <r>  -19.0443    1.0000 </r>
       <r>  -18.6780    1.0000 </r>
       <r>  -18.5916    1.0000 </r>
       <r>  -18.5348    1.0000 </r>
       <r>  -18.5187    1.0000 </r>
       <r>  -18.3446    1.0000 </r>
       <r>  -18.0914    1.0000 </r>
       <r>  -17.8260    1.0000 </r>
       <r>  -17.3096    1.0000 </r>
       <r>  -17.2881    1.0000 </r>
       <r>  -17.1322    1.0000 </r>
       <r>  -17.0509    1.0000 </r>
       <r>  -16.5177    1.0000 </r>
       <r>  -16.3448    1.0000 </r>
       <r>  -16.2902    1.0000 </r>
       <r>  -16.1588    1.0000 </r>
       <r>  -16.0913    1.0000 </r>
       <r>  -15.4368    1.0000 </r>
       <r>  -15.1688    1.0000 </r>
       <r>  -15.1175    1.0000 </r>
       <r>   -7.1081    1.0000 </r>
       <r>   -6.7979    1.0000 </r>
       <r>   -6.6336    1.0000 </r>
       <r>   -6.0081    1.0000 </r>
       <r>   -5.8907    1.0000 </r>
       <r>   -5.5386    1.0000 </r>
       <r>   -5.4440    1.0000 </r>
       <r>   -5.2982    1.0000 </r>
       <r>   -5.1430    1.0000 </r>
       <r>   -5.0607    1.0000 </r>
       <r>   -4.9998    1.0000 </r>
       <r>   -4.8599    1.0000 </r>
       <r>   -4.7660    1.0000 </r>
       <r>   -4.5834    1.0000 </r>
       <r>   -4.2480    1.0000 </r>
       <r>   -4.1241    1.0000 </r>
       <r>   -4.0818    1.0000 </r>
       <r>   -3.9946    1.0000 </r>
       <r>   -3.8073    1.0000 </r>
       <r>   -3.7687    1.0000 </r>
       <r>   -3.5450    1.0000 </r>
       <r>   -3.2519    1.0000 </r>
       <r>   -3.0179    1.0000 </r>
       <r>   -2.9257    1.0000 </r>
       <r>   -2.9106    1.0000 </r>
       <r>   -2.6997    1.0000 </r>
       <r>   -2.6667    1.0000 </r>
       <r>   -2.3917    1.0000 </r>
       <r>   -2.2975    1.0000 </r>
       <r>   -1.9543    1.0000 </r>
       <r>   -1.9167    1.0000 </r>
       <r>   -1.3714    1.0000 </r>
       <r>   -1.3441    1.0000 </r>
       <r>   -1.0891    1.0000 </r>
       <r>   -1.0809    1.0000 </r>
       <r>   -1.0381    1.0000 </r>
       <r>   -0.8683    1.1189 </r>
       <r>   -0.7777    0.1938 </r>
       <r>   -0.7526    0.0000 </r>
       <r>   -0.5152    0.0000 </r>
       <r>    0.0701    0.0000 </r>
       <r>    0.2888    0.0000 </r>
       <r>    0.3857    0.0000 </r>
       <r>    0.6494    0.0000 </r>
       <r>    1.3371    0.0000 </r>
       <r>    1.6179    0.0000 </r>
       <r>    2.6464    0.0000 </r>
       <r>    4.1440    0.0000 </r>
      </set>
      <set comment="kpoint 2">
       <r>  -36.5922    1.0000 </r>
       <r>  -35.2660    1.0000 </r>
       <r>  -34.3058    1.0000 </r>
       <r>  -33.4169    1.0000 </r>
       <r>  -20.5638    1.0000 </r>
       <r>  -20.1896    1.0000 </r>
       <r>  -19.7180    1.0000 </r>
       <r>  -19.3439    1.0000 </r>
       <r>  -19.1236    1.0000 </r>
       <r>  -18.7146    1.0000 </r>
       <r>  -18.5920    1.0000 </r>
       <r>  -18.4694    1.0000 </r>
       <r>  -18.3996    1.0000 </r>
       <r>  -18.3518    1.0000 </r>
       <r>  -18.1621    1.0000 </r>
       <r>  -17.7924    1.0000 </r>
       <r>  -17.3103    1.0000 </r>
       <r>  -17.2736    1.0000 </r>
       <r>  -17.0920    1.0000 </r>
       <r>  -17.0587    1.0000 </r>
       <r>  -16.4900    1.0000 </r>
       <r>  -16.3455    1.0000 </r>
       <r>  -16.2911    1.0000 </r>
       <r>  -16.1351    1.0000 </r>
       <r>  -16.0307    1.0000 </r>
       <r>  -15.4377    1.0000 </r>
       <r>  -15.1746    1.0000 </r>
       <r>  -15.0988    1.0000 </r>
       <r>   -6.9381    1.0000 </r>
       <r>   -6.7544    1.0000 </r>
       <r>   -6.6630    1.0000 </r>
       <r>   -5.9807    1.0000 </r>
       <r>   -5.7499    1.0000 </r>
       <r>   -5.6106    1.0000 </r>
       <r>   -5.5385    1.0000 </r>
       <r>   -5.3395    1.0000 </r>
       <r>   -5.1763    1.0000 </r>
       <r>   -5.1314    1.0000 </r>
       <r>   -4.9259    1.0000 </r>
       <r>   -4.7747    1.0000 </r>
       <r>   -4.6941    1.0000 </r>
       <r>   -4.6419    1.0000 </r>
       <r>   -4.3701    1.0000 </r>
       <r>   -4.3461    1.0000 </r>
       <r>   -4.0797    1.0000 </r>
       <r>   -4.0374    1.0000 </r>
       <r>   -3.9576    1.0000 </r>
       <r>   -3.7414    1.0000 </r>
       <r>   -3.5071    1.0000 </r>
       <r>   -3.3637    1.0000 </r>
       <r>   -3.1897    1.0000 </r>
       <r>   -3.0300    1.0000 </r>
       <r>   -2.9373    1.0000 </r>
       <r>   -2.7934    1.0000 </r>
       <r>   -2.6142    1.0000 </r>
       <r>   -2.5225    1.0000 </r>
       <r>   -2.3035    1.0000 </r>
       <r>   -2.2041    1.0000 </r>
       <r>   -1.8921    1.0000 </r>
       <r>   -1.4135    1.0000 </r>
       <r>   -1.3898    1.0000 </r>
       <r>   -1.1028    1.0000 </r>
       <r>   -1.0749    1.0000 </r>
       <r>   -0.9628    1.0000 </r>
       <r>   -0.8702    1.0816 </r>
       <r>   -0.7415    0.0419 </r>
       <r>   -0.7239    0.0000 </r>
       <r>   -0.6191    0.0000 </r>
       <r>    0.0888    0.0000 </r>
       <r>    0.3269    0.0000 </r>
       <r>    0.3634    0.0000 </r>
       <r>    0.8138    0.0000 </r>
       <r>    1.3012    0.0000 </r>
       <r>    2.6400    0.0000 </r>
       <r>    2.6608    0.0000 </r>
       <r>    4.3036    0.0000 </r>
      </set>
      <set comment="kpoint 3">
       <r>  -36.5917    1.0000 </r>
       <r>  -35.2655    1.0000 </r>
       <r>  -34.3052    1.0000 </r>
       <r>  -33.4165    1.0000 </r>
       <r>  -20.6649    1.0000 </r>
       <r>  -20.3021    1.0000 </r>
       <r>  -19.6684    1.0000 </r>
       <r>  -19.3012    1.0000 </r>
       <r>  -19.2297    1.0000 </r>
       <r>  -18.7259    1.0000 </r>
       <r>  -18.5925    1.0000 </r>
       <r>  -18.3831    1.0000 </r>
       <r>  -18.3477    1.0000 </r>
       <r>  -18.2935    1.0000 </r>
       <r>  -18.2278    1.0000 </r>
       <r>  -17.7690    1.0000 </r>
       <r>  -17.3113    1.0000 </r>
       <r>  -17.2601    1.0000 </r>
       <r>  -17.0632    1.0000 </r>
       <r>  -17.0253    1.0000 </r>
       <r>  -16.4200    1.0000 </r>
       <r>  -16.3466    1.0000 </r>
       <r>  -16.3116    1.0000 </r>
       <r>  -16.0622    1.0000 </r>
       <r>  -15.9851    1.0000 </r>
       <r>  -15.4392    1.0000 </r>
       <r>  -15.1756    1.0000 </r>
       <r>  -15.0622    1.0000 </r>
       <r>   -6.8268    1.0000 </r>
       <r>   -6.7093    1.0000 </r>
       <r>   -6.3027    1.0000 </r>
       <r>   -5.9205    1.0000 </r>
       <r>   -5.8223    1.0000 </r>
       <r>   -5.6707    1.0000 </r>
       <r>   -5.6118    1.0000 </r>
       <r>   -5.4926    1.0000 </r>
       <r>   -5.3091    1.0000 </r>
       <r>   -5.1067    1.0000 </r>
       <r>   -4.8037    1.0000 </r>
       <r>   -4.7834    1.0000 </r>
       <r>   -4.6892    1.0000 </r>
       <r>   -4.6374    1.0000 </r>
       <r>   -4.5714    1.0000 </r>
       <r>   -4.5008    1.0000 </r>
       <r>   -4.1312    1.0000 </r>
       <r>   -4.1135    1.0000 </r>
       <r>   -3.8983    1.0000 </r>
       <r>   -3.8912    1.0000 </r>
       <r>   -3.6751    1.0000 </r>
       <r>   -3.5165    1.0000 </r>
       <r>   -3.3510    1.0000 </r>
       <r>   -3.1096    1.0000 </r>
       <r>   -3.0698    1.0000 </r>
       <r>   -3.0077    1.0000 </r>
       <r>   -2.7639    1.0000 </r>
       <r>   -2.5088    1.0000 </r>
       <r>   -2.3659    1.0000 </r>
       <r>   -2.3179    1.0000 </r>
       <r>   -1.7476    1.0000 </r>
       <r>   -1.5498    1.0000 </r>
       <r>   -1.4601    1.0000 </r>
       <r>   -1.1990    1.0000 </r>
       <r>   -1.0624    1.0000 </r>
       <r>   -1.0280    1.0000 </r>
       <r>   -0.8490    1.0127 </r>
       <r>   -0.8117    0.5943 </r>
       <r>   -0.7404    0.0000 </r>
       <r>   -0.3973    0.0000 </r>
       <r>    0.0485    0.0000 </r>
       <r>    0.3160    0.0000 </r>
       <r>    0.3951    0.0000 </r>
       <r>    1.2362    0.0000 </r>
       <r>    1.3273    0.0000 </r>
       <r>    1.8133    0.0000 </r>
       <r>    2.6108    0.0000 </r>
       <r>    2.6984    0.0000 </r>
      </set>
      <set comment="kpoint 4">
       <r>  -36.5891    1.0000 </r>
       <r>  -35.2624    1.0000 </r>
       <r>  -34.3022    1.0000 </r>
       <r>  -33.4134    1.0000 </r>
       <r>  -20.4495    1.0000 </r>
       <r>  -19.9921    1.0000 </r>
       <r>  -19.7996    1.0000 </r>
       <r>  -19.3114    1.0000 </r>
       <r>  -19.0624    1.0000 </r>
       <r>  -18.6332    1.0000 </r>
       <r>  -18.6061    1.0000 </r>
       <r>  -18.5491    1.0000 </r>
       <r>  -18.4972    1.0000 </r>
       <r>  -18.3057    1.0000 </r>
       <r>  -18.1068    1.0000 </r>
       <r>  -17.7851    1.0000 </r>
       <r>  -17.2816    1.0000 </r>
       <r>  -17.2358    1.0000 </r>
       <r>  -17.1814    1.0000 </r>
       <r>  -17.0659    1.0000 </r>
       <r>  -16.5651    1.0000 </r>
       <r>  -16.3038    1.0000 </r>
       <r>  -16.2633    1.0000 </r>
       <r>  -16.2018    1.0000 </r>
       <r>  -16.1088    1.0000 </r>
       <r>  -15.3860    1.0000 </r>
       <r>  -15.1999    1.0000 </r>
       <r>  -15.1824    1.0000 </r>
       <r>   -7.0502    1.0000 </r>
       <r>   -6.7278    1.0000 </r>
       <r>   -6.6279    1.0000 </r>
       <r>   -6.3342    1.0000 </r>
       <r>   -5.8589    1.0000 </r>
       <r>   -5.8329    1.0000 </r>
       <r>   -5.5428    1.0000 </r>
       <r>   -5.4984    1.0000 </r>
       <r>   -5.2842    1.0000 </r>
       <r>   -5.2207    1.0000 </r>
       <r>   -5.0549    1.0000 </r>
       <r>   -4.9821    1.0000 </r>
       <r>   -4.8692    1.0000 </r>
       <r>   -4.6246    1.0000 </r>
       <r>   -4.4256    1.0000 </r>
       <r>   -4.4227    1.0000 </r>
       <r>   -4.0795    1.0000 </r>
       <r>   -4.0688    1.0000 </r>
       <r>   -4.0228    1.0000 </r>
       <r>   -3.7276    1.0000 </r>
       <r>   -3.7071    1.0000 </r>
       <r>   -3.3563    1.0000 </r>
       <r>   -3.1700    1.0000 </r>
       <r>   -3.0708    1.0000 </r>
       <r>   -2.9363    1.0000 </r>
       <r>   -2.8237    1.0000 </r>
       <r>   -2.7046    1.0000 </r>
       <r>   -2.5603    1.0000 </r>
       <r>   -2.3412    1.0000 </r>
       <r>   -2.0047    1.0000 </r>
       <r>   -1.9758    1.0000 </r>
       <r>   -1.5035    1.0000 </r>
       <r>   -1.3131    1.0000 </r>
       <r>   -1.0960    1.0000 </r>
       <r>   -0.9734    1.0000 </r>
       <r>   -0.9667    1.0376 </r>
       <r>   -0.7471    0.2645 </r>
       <r>   -0.6545   -0.0309 </r>
       <r>   -0.5218    0.0000 </r>
       <r>   -0.4654    0.0000 </r>
       <r>    0.1287    0.0000 </r>
       <r>    0.4869    0.0000 </r>
       <r>    0.5673    0.0000 </r>
       <r>    0.6797    0.0000 </r>
       <r>    1.4631    0.0000 </r>
       <r>    2.7554    0.0000 </r>
       <r>    2.8038    0.0000 </r>
       <r>    4.3890    0.0000 </r>
      </set>
      <set comment="kpoint 5">
       <r>  -36.5888    1.0000 </r>
       <r>  -35.2621    1.0000 </r>
       <r>  -34.3019    1.0000 </r>
       <r>  -33.4131    1.0000 </r>
       <r>  -20.4901    1.0000 </r>
       <r>  -20.1463    1.0000 </r>
       <r>  -19.6942    1.0000 </r>
       <r>  -19.3093    1.0000 </r>
       <r>  -19.1109    1.0000 </r>
       <r>  -18.7068    1.0000 </r>
       <r>  -18.5890    1.0000 </r>
       <r>  -18.4861    1.0000 </r>
       <r>  -18.3819    1.0000 </r>
       <r>  -18.3191    1.0000 </r>
       <r>  -18.1605    1.0000 </r>
       <r>  -17.7735    1.0000 </r>
       <r>  -17.2771    1.0000 </r>
       <r>  -17.2354    1.0000 </r>
       <r>  -17.1246    1.0000 </r>
       <r>  -17.0822    1.0000 </r>
       <r>  -16.5370    1.0000 </r>
       <r>  -16.3144    1.0000 </r>
       <r>  -16.2592    1.0000 </r>
       <r>  -16.1735    1.0000 </r>
       <r>  -16.0430    1.0000 </r>
       <r>  -15.3811    1.0000 </r>
       <r>  -15.2121    1.0000 </r>
       <r>  -15.1409    1.0000 </r>
       <r>   -6.9144    1.0000 </r>
       <r>   -6.7062    1.0000 </r>
       <r>   -6.6529    1.0000 </r>
       <r>   -6.3159    1.0000 </r>
       <r>   -5.9536    1.0000 </r>
       <r>   -5.7625    1.0000 </r>
       <r>   -5.6046    1.0000 </r>
       <r>   -5.5056    1.0000 </r>
       <r>   -5.3343    1.0000 </r>
       <r>   -5.1744    1.0000 </r>
       <r>   -5.0532    1.0000 </r>
       <r>   -4.9720    1.0000 </r>
       <r>   -4.8221    1.0000 </r>
       <r>   -4.6532    1.0000 </r>
       <r>   -4.5788    1.0000 </r>
       <r>   -4.4153    1.0000 </r>
       <r>   -4.3526    1.0000 </r>
       <r>   -4.0563    1.0000 </r>
       <r>   -3.9326    1.0000 </r>
       <r>   -3.8218    1.0000 </r>
       <r>   -3.6905    1.0000 </r>
       <r>   -3.4805    1.0000 </r>
       <r>   -3.1668    1.0000 </r>
       <r>   -3.0893    1.0000 </r>
       <r>   -3.0246    1.0000 </r>
       <r>   -2.9613    1.0000 </r>
       <r>   -2.8455    1.0000 </r>
       <r>   -2.5383    1.0000 </r>
       <r>   -2.3667    1.0000 </r>
       <r>   -2.1861    1.0000 </r>
       <r>   -1.9393    1.0000 </r>
       <r>   -1.6237    1.0000 </r>
       <r>   -1.3082    1.0000 </r>
       <r>   -1.1001    1.0000 </r>
       <r>   -0.9720    1.0000 </r>
       <r>   -0.9363    1.0175 </r>
       <r>   -0.7300    0.3111 </r>
       <r>   -0.7113   -0.0138 </r>
       <r>   -0.5299    0.0000 </r>
       <r>   -0.4176    0.0000 </r>
       <r>    0.1701    0.0000 </r>
       <r>    0.5180    0.0000 </r>
       <r>    0.5529    0.0000 </r>
       <r>    0.8352    0.0000 </r>
       <r>    1.4457    0.0000 </r>
       <r>    1.4521    0.0000 </r>
       <r>    2.7551    0.0000 </r>
       <r>    4.4469    0.0000 </r>
      </set>
      <set comment="kpoint 6">
       <r>  -36.5884    1.0000 </r>
       <r>  -35.2617    1.0000 </r>
       <r>  -34.3014    1.0000 </r>
       <r>  -33.4128    1.0000 </r>
       <r>  -20.5733    1.0000 </r>
       <r>  -20.2506    1.0000 </r>
       <r>  -19.6651    1.0000 </r>
       <r>  -19.2968    1.0000 </r>
       <r>  -19.1800    1.0000 </r>
       <r>  -18.7352    1.0000 </r>
       <r>  -18.5787    1.0000 </r>
       <r>  -18.3735    1.0000 </r>
       <r>  -18.3340    1.0000 </r>
       <r>  -18.3067    1.0000 </r>
       <r>  -18.2136    1.0000 </r>
       <r>  -17.7742    1.0000 </r>
       <r>  -17.2562    1.0000 </r>
       <r>  -17.2432    1.0000 </r>
       <r>  -17.0964    1.0000 </r>
       <r>  -17.0460    1.0000 </r>
       <r>  -16.4717    1.0000 </r>
       <r>  -16.3327    1.0000 </r>
       <r>  -16.2559    1.0000 </r>
       <r>  -16.0997    1.0000 </r>
       <r>  -15.9983    1.0000 </r>
       <r>  -15.3634    1.0000 </r>
       <r>  -15.2032    1.0000 </r>
       <r>  -15.0915    1.0000 </r>
       <r>   -6.8435    1.0000 </r>
       <r>   -6.7166    1.0000 </r>
       <r>   -6.4180    1.0000 </r>
       <r>   -6.2957    1.0000 </r>
       <r>   -6.0233    1.0000 </r>
       <r>   -5.7823    1.0000 </r>
       <r>   -5.5966    1.0000 </r>
       <r>   -5.5304    1.0000 </r>
       <r>   -5.4465    1.0000 </r>
       <r>   -5.2840    1.0000 </r>
       <r>   -5.0694    1.0000 </r>
       <r>   -4.9480    1.0000 </r>
       <r>   -4.8207    1.0000 </r>
       <r>   -4.7229    1.0000 </r>
       <r>   -4.6804    1.0000 </r>
       <r>   -4.5219    1.0000 </r>
       <r>   -4.3462    1.0000 </r>
       <r>   -4.1383    1.0000 </r>
       <r>   -3.9640    1.0000 </r>
       <r>   -3.8188    1.0000 </r>
       <r>   -3.7806    1.0000 </r>
       <r>   -3.5471    1.0000 </r>
       <r>   -3.4762    1.0000 </r>
       <r>   -3.2246    1.0000 </r>
       <r>   -3.1095    1.0000 </r>
       <r>   -2.9891    1.0000 </r>
       <r>   -2.8882    1.0000 </r>
       <r>   -2.8170    1.0000 </r>
       <r>   -2.4283    1.0000 </r>
       <r>   -2.1487    1.0000 </r>
       <r>   -1.8641    1.0000 </r>
       <r>   -1.7004    1.0000 </r>
       <r>   -1.2998    1.0000 </r>
       <r>   -1.2472    1.0000 </r>
       <r>   -1.1055    1.0000 </r>
       <r>   -0.9313    1.0000 </r>
       <r>   -0.8753    1.0627 </r>
       <r>   -0.6180   -0.0579 </r>
       <r>   -0.3698    0.0000 </r>
       <r>   -0.3314    0.0000 </r>
       <r>    0.1639    0.0000 </r>
       <r>    0.5267    0.0000 </r>
       <r>    0.5833    0.0000 </r>
       <r>    0.9964    0.0000 </r>
       <r>    1.4275    0.0000 </r>
       <r>    1.4652    0.0000 </r>
       <r>    1.8409    0.0000 </r>
       <r>    2.7171    0.0000 </r>
      </set>
      <set comment="kpoint 7">
       <r>  -36.5814    1.0000 </r>
       <r>  -35.2536    1.0000 </r>
       <r>  -34.2934    1.0000 </r>
       <r>  -33.4047    1.0000 </r>
       <r>  -20.3838    1.0000 </r>
       <r>  -19.8678    1.0000 </r>
       <r>  -19.6801    1.0000 </r>
       <r>  -19.2181    1.0000 </r>
       <r>  -19.0896    1.0000 </r>
       <r>  -18.6356    1.0000 </r>
       <r>  -18.5824    1.0000 </r>
       <r>  -18.5157    1.0000 </r>
       <r>  -18.4474    1.0000 </r>
       <r>  -18.2193    1.0000 </r>
       <r>  -18.1151    1.0000 </r>
       <r>  -17.6807    1.0000 </r>
       <r>  -17.3071    1.0000 </r>
       <r>  -17.2214    1.0000 </r>
       <r>  -17.1708    1.0000 </r>
       <r>  -17.0438    1.0000 </r>
       <r>  -16.6318    1.0000 </r>
       <r>  -16.3589    1.0000 </r>
       <r>  -16.2160    1.0000 </r>
       <r>  -16.1377    1.0000 </r>
       <r>  -16.1326    1.0000 </r>
       <r>  -15.3739    1.0000 </r>
       <r>  -15.3477    1.0000 </r>
       <r>  -15.1970    1.0000 </r>
       <r>   -6.9936    1.0000 </r>
       <r>   -6.9315    1.0000 </r>
       <r>   -6.6127    1.0000 </r>
       <r>   -6.5303    1.0000 </r>
       <r>   -6.3717    1.0000 </r>
       <r>   -6.2769    1.0000 </r>
       <r>   -6.0077    1.0000 </r>
       <r>   -5.7962    1.0000 </r>
       <r>   -5.5634    1.0000 </r>
       <r>   -5.4612    1.0000 </r>
       <r>   -5.3035    1.0000 </r>
       <r>   -5.1747    1.0000 </r>
       <r>   -5.0480    1.0000 </r>
       <r>   -4.9859    1.0000 </r>
       <r>   -4.7417    1.0000 </r>
       <r>   -4.5302    1.0000 </r>
       <r>   -4.5192    1.0000 </r>
       <r>   -4.2490    1.0000 </r>
       <r>   -4.1835    1.0000 </r>
       <r>   -3.9913    1.0000 </r>
       <r>   -3.9064    1.0000 </r>
       <r>   -3.7115    1.0000 </r>
       <r>   -3.4129    1.0000 </r>
       <r>   -3.3704    1.0000 </r>
       <r>   -2.9745    1.0000 </r>
       <r>   -2.8156    1.0000 </r>
       <r>   -2.7701    1.0000 </r>
       <r>   -2.6971    1.0000 </r>
       <r>   -2.2662    1.0000 </r>
       <r>   -2.1427    1.0000 </r>
       <r>   -1.9857    1.0000 </r>
       <r>   -1.5016    1.0000 </r>
       <r>   -1.2967    1.0000 </r>
       <r>   -0.9861    1.0000 </r>
       <r>   -0.8138    1.0382 </r>
       <r>   -0.7417    0.3962 </r>
       <r>   -0.6944    0.0000 </r>
       <r>   -0.5365    0.0000 </r>
       <r>   -0.3067    0.0000 </r>
       <r>    0.1625    0.0000 </r>
       <r>    0.3711    0.0000 </r>
       <r>    0.7330    0.0000 </r>
       <r>    0.9775    0.0000 </r>
       <r>    1.0181    0.0000 </r>
       <r>    1.8556    0.0000 </r>
       <r>    1.8866    0.0000 </r>
       <r>    3.0853    0.0000 </r>
       <r>    3.1316    0.0000 </r>
      </set>
      <set comment="kpoint 8">
       <r>  -36.5812    1.0000 </r>
       <r>  -35.2534    1.0000 </r>
       <r>  -34.2932    1.0000 </r>
       <r>  -33.4045    1.0000 </r>
       <r>  -20.3624    1.0000 </r>
       <r>  -20.0286    1.0000 </r>
       <r>  -19.6463    1.0000 </r>
       <r>  -19.2343    1.0000 </r>
       <r>  -19.0893    1.0000 </r>
       <r>  -18.6266    1.0000 </r>
       <r>  -18.5871    1.0000 </r>
       <r>  -18.5076    1.0000 </r>
       <r>  -18.3812    1.0000 </r>
       <r>  -18.2342    1.0000 </r>
       <r>  -18.1443    1.0000 </r>
       <r>  -17.7164    1.0000 </r>
       <r>  -17.2658    1.0000 </r>
       <r>  -17.1758    1.0000 </r>
       <r>  -17.1578    1.0000 </r>
       <r>  -17.0865    1.0000 </r>
       <r>  -16.6077    1.0000 </r>
       <r>  -16.2958    1.0000 </r>
       <r>  -16.2318    1.0000 </r>
       <r>  -16.1753    1.0000 </r>
       <r>  -16.0402    1.0000 </r>
       <r>  -15.3761    1.0000 </r>
       <r>  -15.2982    1.0000 </r>
       <r>  -15.1558    1.0000 </r>
       <r>   -6.9741    1.0000 </r>
       <r>   -6.8966    1.0000 </r>
       <r>   -6.6949    1.0000 </r>
       <r>   -6.5540    1.0000 </r>
       <r>   -6.4174    1.0000 </r>
       <r>   -6.2799    1.0000 </r>
       <r>   -6.0204    1.0000 </r>
       <r>   -5.8005    1.0000 </r>
       <r>   -5.6363    1.0000 </r>
       <r>   -5.4120    1.0000 </r>
       <r>   -5.3561    1.0000 </r>
       <r>   -5.1862    1.0000 </r>
       <r>   -5.0444    1.0000 </r>
       <r>   -4.9657    1.0000 </r>
       <r>   -4.8370    1.0000 </r>
       <r>   -4.7018    1.0000 </r>
       <r>   -4.3871    1.0000 </r>
       <r>   -4.2842    1.0000 </r>
       <r>   -4.1454    1.0000 </r>
       <r>   -4.0635    1.0000 </r>
       <r>   -3.8788    1.0000 </r>
       <r>   -3.7652    1.0000 </r>
       <r>   -3.5438    1.0000 </r>
       <r>   -3.3506    1.0000 </r>
       <r>   -3.1578    1.0000 </r>
       <r>   -2.8951    1.0000 </r>
       <r>   -2.8865    1.0000 </r>
       <r>   -2.5524    1.0000 </r>
       <r>   -2.3270    1.0000 </r>
       <r>   -2.0863    1.0000 </r>
       <r>   -2.0340    1.0000 </r>
       <r>   -1.6610    1.0000 </r>
       <r>   -1.2610    1.0000 </r>
       <r>   -0.9661    1.0000 </r>
       <r>   -0.8310    1.0332 </r>
       <r>   -0.7942    0.8819 </r>
       <r>   -0.7143    0.0215 </r>
       <r>   -0.5511    0.0000 </r>
       <r>   -0.2253    0.0000 </r>
       <r>    0.1957    0.0000 </r>
       <r>    0.4144    0.0000 </r>
       <r>    0.8715    0.0000 </r>
       <r>    0.9908    0.0000 </r>
       <r>    1.0151    0.0000 </r>
       <r>    1.8534    0.0000 </r>
       <r>    1.8662    0.0000 </r>
       <r>    3.1025    0.0000 </r>
       <r>    3.1520    0.0000 </r>
      </set>
      <set comment="kpoint 9">
       <r>  -36.5809    1.0000 </r>
       <r>  -35.2531    1.0000 </r>
       <r>  -34.2929    1.0000 </r>
       <r>  -33.4043    1.0000 </r>
       <r>  -20.3493    1.0000 </r>
       <r>  -20.1514    1.0000 </r>
       <r>  -19.6994    1.0000 </r>
       <r>  -19.2818    1.0000 </r>
       <r>  -19.0519    1.0000 </r>
       <r>  -18.7238    1.0000 </r>
       <r>  -18.5513    1.0000 </r>
       <r>  -18.3864    1.0000 </r>
       <r>  -18.3452    1.0000 </r>
       <r>  -18.2777    1.0000 </r>
       <r>  -18.1316    1.0000 </r>
       <r>  -17.8018    1.0000 </r>
       <r>  -17.2241    1.0000 </r>
       <r>  -17.1830    1.0000 </r>
       <r>  -17.1106    1.0000 </r>
       <r>  -17.0641    1.0000 </r>
       <r>  -16.5517    1.0000 </r>
       <r>  -16.3108    1.0000 </r>
       <r>  -16.1726    1.0000 </r>
       <r>  -16.1333    1.0000 </r>
       <r>  -16.0070    1.0000 </r>
       <r>  -15.3792    1.0000 </r>
       <r>  -15.1737    1.0000 </r>
       <r>  -15.1167    1.0000 </r>
       <r>   -7.0367    1.0000 </r>
       <r>   -6.9436    1.0000 </r>
       <r>   -6.6954    1.0000 </r>
       <r>   -6.6229    1.0000 </r>
       <r>   -6.4982    1.0000 </r>
       <r>   -6.0704    1.0000 </r>
       <r>   -6.0208    1.0000 </r>
       <r>   -5.8567    1.0000 </r>
       <r>   -5.7333    1.0000 </r>
       <r>   -5.4716    1.0000 </r>
       <r>   -5.3350    1.0000 </r>
       <r>   -5.2168    1.0000 </r>
       <r>   -5.1952    1.0000 </r>
       <r>   -5.0714    1.0000 </r>
       <r>   -4.9065    1.0000 </r>
       <r>   -4.7391    1.0000 </r>
       <r>   -4.2432    1.0000 </r>
       <r>   -4.2340    1.0000 </r>
       <r>   -4.1507    1.0000 </r>
       <r>   -4.0899    1.0000 </r>
       <r>   -3.9471    1.0000 </r>
       <r>   -3.8143    1.0000 </r>
       <r>   -3.6844    1.0000 </r>
       <r>   -3.4809    1.0000 </r>
       <r>   -3.4404    1.0000 </r>
       <r>   -2.9176    1.0000 </r>
       <r>   -2.8808    1.0000 </r>
       <r>   -2.8401    1.0000 </r>
       <r>   -2.1532    1.0000 </r>
       <r>   -2.0488    1.0000 </r>
       <r>   -1.9963    1.0000 </r>
       <r>   -1.7378    1.0000 </r>
       <r>   -1.2449    1.0000 </r>
       <r>   -1.2036    1.0000 </r>
       <r>   -0.9440    1.0058 </r>
       <r>   -0.8009    0.9925 </r>
       <r>   -0.7789    0.5243 </r>
       <r>   -0.3387    0.0000 </r>
       <r>   -0.1750    0.0000 </r>
       <r>    0.2558    0.0000 </r>
       <r>    0.5112    0.0000 </r>
       <r>    1.0175    0.0000 </r>
       <r>    1.0469    0.0000 </r>
       <r>    1.8272    0.0000 </r>
       <r>    1.8296    0.0000 </r>
       <r>    1.8858    0.0000 </r>
       <r>    3.0677    0.0000 </r>
       <r>    3.1119    0.0000 </r>
      </set>
      <set comment="kpoint 10">
       <r>  -36.5752    1.0000 </r>
       <r>  -35.2465    1.0000 </r>
       <r>  -34.2863    1.0000 </r>
       <r>  -33.3977    1.0000 </r>
       <r>  -20.3919    1.0000 </r>
       <r>  -19.7174    1.0000 </r>
       <r>  -19.5622    1.0000 </r>
       <r>  -19.1909    1.0000 </r>
       <r>  -19.0717    1.0000 </r>
       <r>  -18.7255    1.0000 </r>
       <r>  -18.5449    1.0000 </r>
       <r>  -18.4025    1.0000 </r>
       <r>  -18.3980    1.0000 </r>
       <r>  -18.1869    1.0000 </r>
       <r>  -18.0615    1.0000 </r>
       <r>  -17.5760    1.0000 </r>
       <r>  -17.4332    1.0000 </r>
       <r>  -17.2011    1.0000 </r>
       <r>  -17.1569    1.0000 </r>
       <r>  -16.9773    1.0000 </r>
       <r>  -16.6351    1.0000 </r>
       <r>  -16.4824    1.0000 </r>
       <r>  -16.1792    1.0000 </r>
       <r>  -16.1091    1.0000 </r>
       <r>  -16.0008    1.0000 </r>
       <r>  -15.5252    1.0000 </r>
       <r>  -15.4561    1.0000 </r>
       <r>  -15.1312    1.0000 </r>
       <r>   -7.5757    1.0000 </r>
       <r>   -6.9790    1.0000 </r>
       <r>   -6.7114    1.0000 </r>
       <r>   -6.5984    1.0000 </r>
       <r>   -6.5928    1.0000 </r>
       <r>   -6.5277    1.0000 </r>
       <r>   -6.3613    1.0000 </r>
       <r>   -5.9717    1.0000 </r>
       <r>   -5.8314    1.0000 </r>
       <r>   -5.6422    1.0000 </r>
       <r>   -5.5671    1.0000 </r>
       <r>   -5.4776    1.0000 </r>
       <r>   -5.1432    1.0000 </r>
       <r>   -4.9729    1.0000 </r>
       <r>   -4.9130    1.0000 </r>
       <r>   -4.7311    1.0000 </r>
       <r>   -4.6135    1.0000 </r>
       <r>   -4.5820    1.0000 </r>
       <r>   -4.4385    1.0000 </r>
       <r>   -4.1652    1.0000 </r>
       <r>   -4.0708    1.0000 </r>
       <r>   -3.7176    1.0000 </r>
       <r>   -3.5509    1.0000 </r>
       <r>   -3.4936    1.0000 </r>
       <r>   -3.0056    1.0000 </r>
       <r>   -2.8618    1.0000 </r>
       <r>   -2.7647    1.0000 </r>
       <r>   -2.7373    1.0000 </r>
       <r>   -2.3056    1.0000 </r>
       <r>   -2.1443    1.0000 </r>
       <r>   -1.8886    1.0000 </r>
       <r>   -1.4357    1.0000 </r>
       <r>   -1.2852    1.0000 </r>
       <r>   -0.8726    1.0000 </r>
       <r>   -0.7390    0.1391 </r>
       <r>   -0.7124   -0.0360 </r>
       <r>   -0.5533    0.0000 </r>
       <r>   -0.4144    0.0000 </r>
       <r>   -0.1862    0.0000 </r>
       <r>    0.6487    0.0000 </r>
       <r>    0.7156    0.0000 </r>
       <r>    0.7686    0.0000 </r>
       <r>    1.3934    0.0000 </r>
       <r>    1.4374    0.0000 </r>
       <r>    2.1577    0.0000 </r>
       <r>    2.2770    0.0000 </r>
       <r>    3.1813    0.0000 </r>
       <r>    3.5264    0.0000 </r>
      </set>
      <set comment="kpoint 11">
       <r>  -36.5750    1.0000 </r>
       <r>  -35.2464    1.0000 </r>
       <r>  -34.2862    1.0000 </r>
       <r>  -33.3976    1.0000 </r>
       <r>  -20.3300    1.0000 </r>
       <r>  -19.8593    1.0000 </r>
       <r>  -19.6320    1.0000 </r>
       <r>  -19.1559    1.0000 </r>
       <r>  -19.1030    1.0000 </r>
       <r>  -18.5713    1.0000 </r>
       <r>  -18.5121    1.0000 </r>
       <r>  -18.4980    1.0000 </r>
       <r>  -18.4186    1.0000 </r>
       <r>  -18.1639    1.0000 </r>
       <r>  -18.1288    1.0000 </r>
       <r>  -17.6604    1.0000 </r>
       <r>  -17.3027    1.0000 </r>
       <r>  -17.2176    1.0000 </r>
       <r>  -17.1090    1.0000 </r>
       <r>  -17.0418    1.0000 </r>
       <r>  -16.6181    1.0000 </r>
       <r>  -16.3510    1.0000 </r>
       <r>  -16.2180    1.0000 </r>
       <r>  -16.1008    1.0000 </r>
       <r>  -16.0147    1.0000 </r>
       <r>  -15.4581    1.0000 </r>
       <r>  -15.3928    1.0000 </r>
       <r>  -15.0921    1.0000 </r>
       <r>   -7.5860    1.0000 </r>
       <r>   -6.9472    1.0000 </r>
       <r>   -6.7968    1.0000 </r>
       <r>   -6.7557    1.0000 </r>
       <r>   -6.6311    1.0000 </r>
       <r>   -6.5796    1.0000 </r>
       <r>   -6.2738    1.0000 </r>
       <r>   -5.9851    1.0000 </r>
       <r>   -5.8509    1.0000 </r>
       <r>   -5.7733    1.0000 </r>
       <r>   -5.5380    1.0000 </r>
       <r>   -5.4436    1.0000 </r>
       <r>   -5.1612    1.0000 </r>
       <r>   -5.1124    1.0000 </r>
       <r>   -4.9595    1.0000 </r>
       <r>   -4.8186    1.0000 </r>
       <r>   -4.6605    1.0000 </r>
       <r>   -4.4153    1.0000 </r>
       <r>   -4.3007    1.0000 </r>
       <r>   -4.1895    1.0000 </r>
       <r>   -4.1316    1.0000 </r>
       <r>   -3.7659    1.0000 </r>
       <r>   -3.6718    1.0000 </r>
       <r>   -3.5008    1.0000 </r>
       <r>   -3.2028    1.0000 </r>
       <r>   -2.8784    1.0000 </r>
       <r>   -2.8094    1.0000 </r>
       <r>   -2.6341    1.0000 </r>
       <r>   -2.3054    1.0000 </r>
       <r>   -2.0522    1.0000 </r>
       <r>   -1.9230    1.0000 </r>
       <r>   -1.6292    1.0000 </r>
       <r>   -1.2203    1.0000 </r>
       <r>   -0.8536    1.0000 </r>
       <r>   -0.7573    0.5490 </r>
       <r>   -0.7355    0.0168 </r>
       <r>   -0.7029   -0.0057 </r>
       <r>   -0.3855    0.0000 </r>
       <r>   -0.0371    0.0000 </r>
       <r>    0.6714    0.0000 </r>
       <r>    0.7220    0.0000 </r>
       <r>    0.9042    0.0000 </r>
       <r>    1.4081    0.0000 </r>
       <r>    1.4272    0.0000 </r>
       <r>    1.8976    0.0000 </r>
       <r>    2.2567    0.0000 </r>
       <r>    3.1690    0.0000 </r>
       <r>    3.4935    0.0000 </r>
      </set>
      <set comment="kpoint 12">
       <r>  -36.5748    1.0000 </r>
       <r>  -35.2462    1.0000 </r>
       <r>  -34.2860    1.0000 </r>
       <r>  -33.3975    1.0000 </r>
       <r>  -20.1753    1.0000 </r>
       <r>  -20.0330    1.0000 </r>
       <r>  -19.8046    1.0000 </r>
       <r>  -19.2225    1.0000 </r>
       <r>  -18.9676    1.0000 </r>
       <r>  -18.7065    1.0000 </r>
       <r>  -18.4941    1.0000 </r>
       <r>  -18.4162    1.0000 </r>
       <r>  -18.3543    1.0000 </r>
       <r>  -18.2361    1.0000 </r>
       <r>  -18.0601    1.0000 </r>
       <r>  -17.8374    1.0000 </r>
       <r>  -17.2329    1.0000 </r>
       <r>  -17.1836    1.0000 </r>
       <r>  -17.0836    1.0000 </r>
       <r>  -17.0228    1.0000 </r>
       <r>  -16.5759    1.0000 </r>
       <r>  -16.2669    1.0000 </r>
       <r>  -16.1608    1.0000 </r>
       <r>  -16.1550    1.0000 </r>
       <r>  -15.9863    1.0000 </r>
       <r>  -15.4608    1.0000 </r>
       <r>  -15.1977    1.0000 </r>
       <r>  -15.0387    1.0000 </r>
       <r>   -7.6066    1.0000 </r>
       <r>   -7.1102    1.0000 </r>
       <r>   -6.9706    1.0000 </r>
       <r>   -6.8466    1.0000 </r>
       <r>   -6.6663    1.0000 </r>
       <r>   -6.5594    1.0000 </r>
       <r>   -6.0910    1.0000 </r>
       <r>   -6.0192    1.0000 </r>
       <r>   -5.9199    1.0000 </r>
       <r>   -5.8458    1.0000 </r>
       <r>   -5.6040    1.0000 </r>
       <r>   -5.3698    1.0000 </r>
       <r>   -5.2953    1.0000 </r>
       <r>   -5.2834    1.0000 </r>
       <r>   -5.1479    1.0000 </r>
       <r>   -4.7511    1.0000 </r>
       <r>   -4.6924    1.0000 </r>
       <r>   -4.3000    1.0000 </r>
       <r>   -4.2017    1.0000 </r>
       <r>   -4.1415    1.0000 </r>
       <r>   -4.0514    1.0000 </r>
       <r>   -3.8558    1.0000 </r>
       <r>   -3.7637    1.0000 </r>
       <r>   -3.6675    1.0000 </r>
       <r>   -3.5662    1.0000 </r>
       <r>   -2.8372    1.0000 </r>
       <r>   -2.8246    1.0000 </r>
       <r>   -2.7549    1.0000 </r>
       <r>   -2.0856    1.0000 </r>
       <r>   -1.9952    1.0000 </r>
       <r>   -1.8948    1.0000 </r>
       <r>   -1.7296    1.0000 </r>
       <r>   -1.2211    1.0000 </r>
       <r>   -1.1551    1.0000 </r>
       <r>   -0.8926    1.0425 </r>
       <r>   -0.7402    0.0692 </r>
       <r>   -0.6434   -0.0483 </r>
       <r>   -0.2594    0.0000 </r>
       <r>    0.0811    0.0000 </r>
       <r>    0.7100    0.0000 </r>
       <r>    0.7318    0.0000 </r>
       <r>    1.0841    0.0000 </r>
       <r>    1.4139    0.0000 </r>
       <r>    1.4341    0.0000 </r>
       <r>    1.9163    0.0000 </r>
       <r>    2.2163    0.0000 </r>
       <r>    3.1658    0.0000 </r>
       <r>    3.4396    0.0000 </r>
      </set>
     </set>
    </set>
   </array>
  </eigenvalues>
  <separator name="orbital magnetization" >
   <v name="MAGDIPOLOUT">      0.00000000      0.00000000      0.00000000</v>
  </separator>
  <dos>
   <i name="efermi">     -0.76628264 </i>
   <total>
    <array>
     <dimension dim="1">gridpoints</dimension>
     <dimension dim="2">spin</dimension>
     <field>energy</field>
     <field>total</field>
     <field>integrated</field>
     <set>
      <set comment="spin 1">
       <r>   -38.6445     0.0000     0.0000 </r>
       <r>   -38.4940     0.0000     0.0000 </r>
       <r>   -38.3435     0.0000     0.0000 </r>
       <r>   -38.1931     0.0000     0.0000 </r>
       <r>   -38.0426     0.0000     0.0000 </r>
       <r>   -37.8921     0.0000     0.0000 </r>
       <r>   -37.7416     0.0000     0.0000 </r>
       <r>   -37.5912     0.0000     0.0000 </r>
       <r>   -37.4407     0.0000     0.0000 </r>
       <r>   -37.2902     0.0000     0.0000 </r>
       <r>   -37.1397     0.0000     0.0000 </r>
       <r>   -36.9892     0.0000     0.0000 </r>
       <r>   -36.8388     0.0000     0.0000 </r>
       <r>   -36.6883     0.0000     0.0000 </r>
       <r>   -36.5378     0.0000     2.0000 </r>
       <r>   -36.3873     0.0000     2.0000 </r>
       <r>   -36.2369     0.0000     2.0000 </r>
       <r>   -36.0864     0.0000     2.0000 </r>
       <r>   -35.9359     0.0000     2.0000 </r>
       <r>   -35.7854     0.0000     2.0000 </r>
       <r>   -35.6349     0.0000     2.0000 </r>
       <r>   -35.4845     0.0000     2.0000 </r>
       <r>   -35.3340     0.0000     2.0000 </r>
       <r>   -35.1835     0.0000     4.0000 </r>
       <r>   -35.0330     0.0000     4.0000 </r>
       <r>   -34.8826     0.0000     4.0000 </r>
       <r>   -34.7321     0.0000     4.0000 </r>
       <r>   -34.5816     0.0000     4.0000 </r>
       <r>   -34.4311     0.0000     4.0000 </r>
       <r>   -34.2806     0.0000     6.0000 </r>
       <r>   -34.1302     0.0000     6.0000 </r>
       <r>   -33.9797     0.0000     6.0000 </r>
       <r>   -33.8292     0.0000     6.0000 </r>
       <r>   -33.6787     0.0000     6.0000 </r>
       <r>   -33.5283     0.0000     6.0000 </r>
       <r>   -33.3778     0.0000     8.0000 </r>
       <r>   -33.2273     0.0000     8.0000 </r>
       <r>   -33.0768     0.0000     8.0000 </r>
       <r>   -32.9263     0.0000     8.0000 </r>
       <r>   -32.7759     0.0000     8.0000 </r>
       <r>   -32.6254     0.0000     8.0000 </r>
       <r>   -32.4749     0.0000     8.0000 </r>
       <r>   -32.3244     0.0000     8.0000 </r>
       <r>   -32.1740     0.0000     8.0000 </r>
       <r>   -32.0235     0.0000     8.0000 </r>
       <r>   -31.8730     0.0000     8.0000 </r>
       <r>   -31.7225     0.0000     8.0000 </r>
       <r>   -31.5720     0.0000     8.0000 </r>
       <r>   -31.4216     0.0000     8.0000 </r>
       <r>   -31.2711     0.0000     8.0000 </r>
       <r>   -31.1206     0.0000     8.0000 </r>
       <r>   -30.9701     0.0000     8.0000 </r>
       <r>   -30.8197     0.0000     8.0000 </r>
       <r>   -30.6692     0.0000     8.0000 </r>
       <r>   -30.5187     0.0000     8.0000 </r>
       <r>   -30.3682     0.0000     8.0000 </r>
       <r>   -30.2177     0.0000     8.0000 </r>
       <r>   -30.0673     0.0000     8.0000 </r>
       <r>   -29.9168     0.0000     8.0000 </r>
       <r>   -29.7663     0.0000     8.0000 </r>
       <r>   -29.6158     0.0000     8.0000 </r>
       <r>   -29.4654     0.0000     8.0000 </r>
       <r>   -29.3149     0.0000     8.0000 </r>
       <r>   -29.1644     0.0000     8.0000 </r>
       <r>   -29.0139     0.0000     8.0000 </r>
       <r>   -28.8634     0.0000     8.0000 </r>
       <r>   -28.7130     0.0000     8.0000 </r>
       <r>   -28.5625     0.0000     8.0000 </r>
       <r>   -28.4120     0.0000     8.0000 </r>
       <r>   -28.2615     0.0000     8.0000 </r>
       <r>   -28.1111     0.0000     8.0000 </r>
       <r>   -27.9606     0.0000     8.0000 </r>
       <r>   -27.8101     0.0000     8.0000 </r>
       <r>   -27.6596     0.0000     8.0000 </r>
       <r>   -27.5091     0.0000     8.0000 </r>
       <r>   -27.3587     0.0000     8.0000 </r>
       <r>   -27.2082     0.0000     8.0000 </r>
       <r>   -27.0577     0.0000     8.0000 </r>
       <r>   -26.9072     0.0000     8.0000 </r>
       <r>   -26.7568     0.0000     8.0000 </r>
       <r>   -26.6063     0.0000     8.0000 </r>
       <r>   -26.4558     0.0000     8.0000 </r>
       <r>   -26.3053     0.0000     8.0000 </r>
       <r>   -26.1548     0.0000     8.0000 </r>
       <r>   -26.0044     0.0000     8.0000 </r>
       <r>   -25.8539     0.0000     8.0000 </r>
       <r>   -25.7034     0.0000     8.0000 </r>
       <r>   -25.5529     0.0000     8.0000 </r>
       <r>   -25.4025     0.0000     8.0000 </r>
       <r>   -25.2520     0.0000     8.0000 </r>
       <r>   -25.1015     0.0000     8.0000 </r>
       <r>   -24.9510     0.0000     8.0000 </r>
       <r>   -24.8005     0.0000     8.0000 </r>
       <r>   -24.6501     0.0000     8.0000 </r>
       <r>   -24.4996     0.0000     8.0000 </r>
       <r>   -24.3491     0.0000     8.0000 </r>
       <r>   -24.1986     0.0000     8.0000 </r>
       <r>   -24.0482     0.0000     8.0000 </r>
       <r>   -23.8977     0.0000     8.0000 </r>
       <r>   -23.7472     0.0000     8.0000 </r>
       <r>   -23.5967     0.0000     8.0000 </r>
       <r>   -23.4462     0.0000     8.0000 </r>
       <r>   -23.2958     0.0000     8.0000 </r>
       <r>   -23.1453     0.0000     8.0000 </r>
       <r>   -22.9948     0.0000     8.0000 </r>
       <r>   -22.8443     0.0000     8.0000 </r>
       <r>   -22.6939     0.0000     8.0000 </r>
       <r>   -22.5434     0.0000     8.0000 </r>
       <r>   -22.3929     0.0000     8.0000 </r>
       <r>   -22.2424     0.0000     8.0000 </r>
       <r>   -22.0919     0.0000     8.0000 </r>
       <r>   -21.9415     0.0000     8.0000 </r>
       <r>   -21.7910     0.0000     8.0000 </r>
       <r>   -21.6405     0.0000     8.0000 </r>
       <r>   -21.4900     0.0000     8.0000 </r>
       <r>   -21.3396     0.0000     8.0000 </r>
       <r>   -21.1891     0.0000     8.0000 </r>
       <r>   -21.0386     0.0000     8.0000 </r>
       <r>   -20.8881     0.0000     8.0000 </r>
       <r>   -20.7376     0.0000     8.0000 </r>
       <r>   -20.5872     3.2628     8.1753 </r>
       <r>   -20.4367     4.1470     8.8382 </r>
       <r>   -20.2862     5.5594     9.7564 </r>
       <r>   -20.1357     4.5528    10.6559 </r>
       <r>   -19.9853     3.4566    11.4355 </r>
       <r>   -19.8348     2.5069    11.8368 </r>
       <r>   -19.6843    20.7653    13.0006 </r>
       <r>   -19.5338     0.0000    14.0000 </r>
       <r>   -19.3833     0.0000    14.0000 </r>
       <r>   -19.2329     8.3096    15.3091 </r>
       <r>   -19.0824    29.7360    17.2261 </r>
       <r>   -18.9319     0.0000    18.0000 </r>
       <r>   -18.7814     0.0000    18.0000 </r>
       <r>   -18.6310    16.5628    19.7216 </r>
       <r>   -18.4805    15.1579    22.7675 </r>
       <r>   -18.3300    10.3138    26.1604 </r>
       <r>   -18.1795    18.2150    28.2329 </r>
       <r>   -18.0290     0.0000    30.0000 </r>
       <r>   -17.8786     0.0000    30.0000 </r>
       <r>   -17.7281     6.1027    31.4585 </r>
       <r>   -17.5776     1.4028    31.9978 </r>
       <r>   -17.4271     0.9826    32.0056 </r>
       <r>   -17.2767    28.3160    33.0821 </r>
       <r>   -17.1262    18.7402    36.7892 </r>
       <r>   -16.9757     0.0000    40.0000 </r>
       <r>   -16.8252     0.0000    40.0000 </r>
       <r>   -16.6747     0.0000    40.0000 </r>
       <r>   -16.5243     9.5819    41.4265 </r>
       <r>   -16.3738     2.6786    42.1927 </r>
       <r>   -16.2233    16.6069    45.0243 </r>
       <r>   -16.0728    12.0737    48.2462 </r>
       <r>   -15.9224     0.0000    50.0000 </r>
       <r>   -15.7719     0.0000    50.0000 </r>
       <r>   -15.6214     0.0000    50.0000 </r>
       <r>   -15.4709     3.2095    50.1332 </r>
       <r>   -15.3204     3.7096    52.4256 </r>
       <r>   -15.1700    10.4318    54.1467 </r>
       <r>   -15.0195     0.0000    56.0000 </r>
       <r>   -14.8690     0.0000    56.0000 </r>
       <r>   -14.7185     0.0000    56.0000 </r>
       <r>   -14.5681     0.0000    56.0000 </r>
       <r>   -14.4176     0.0000    56.0000 </r>
       <r>   -14.2671     0.0000    56.0000 </r>
       <r>   -14.1166     0.0000    56.0000 </r>
       <r>   -13.9661     0.0000    56.0000 </r>
       <r>   -13.8157     0.0000    56.0000 </r>
       <r>   -13.6652     0.0000    56.0000 </r>
       <r>   -13.5147     0.0000    56.0000 </r>
       <r>   -13.3642     0.0000    56.0000 </r>
       <r>   -13.2138     0.0000    56.0000 </r>
       <r>   -13.0633     0.0000    56.0000 </r>
       <r>   -12.9128     0.0000    56.0000 </r>
       <r>   -12.7623     0.0000    56.0000 </r>
       <r>   -12.6118     0.0000    56.0000 </r>
       <r>   -12.4614     0.0000    56.0000 </r>
       <r>   -12.3109     0.0000    56.0000 </r>
       <r>   -12.1604     0.0000    56.0000 </r>
       <r>   -12.0099     0.0000    56.0000 </r>
       <r>   -11.8595     0.0000    56.0000 </r>
       <r>   -11.7090     0.0000    56.0000 </r>
       <r>   -11.5585     0.0000    56.0000 </r>
       <r>   -11.4080     0.0000    56.0000 </r>
       <r>   -11.2575     0.0000    56.0000 </r>
       <r>   -11.1071     0.0000    56.0000 </r>
       <r>   -10.9566     0.0000    56.0000 </r>
       <r>   -10.8061     0.0000    56.0000 </r>
       <r>   -10.6556     0.0000    56.0000 </r>
       <r>   -10.5052     0.0000    56.0000 </r>
       <r>   -10.3547     0.0000    56.0000 </r>
       <r>   -10.2042     0.0000    56.0000 </r>
       <r>   -10.0537     0.0000    56.0000 </r>
       <r>    -9.9032     0.0000    56.0000 </r>
       <r>    -9.7528     0.0000    56.0000 </r>
       <r>    -9.6023     0.0000    56.0000 </r>
       <r>    -9.4518     0.0000    56.0000 </r>
       <r>    -9.3013     0.0000    56.0000 </r>
       <r>    -9.1509     0.0000    56.0000 </r>
       <r>    -9.0004     0.0000    56.0000 </r>
       <r>    -8.8499     0.0000    56.0000 </r>
       <r>    -8.6994     0.0000    56.0000 </r>
       <r>    -8.5489     0.0000    56.0000 </r>
       <r>    -8.3985     0.0000    56.0000 </r>
       <r>    -8.2480     0.0000    56.0000 </r>
       <r>    -8.0975     0.0000    56.0000 </r>
       <r>    -7.9470     0.0000    56.0000 </r>
       <r>    -7.7966     0.0000    56.0000 </r>
       <r>    -7.6461     0.0000    56.0000 </r>
       <r>    -7.4956     0.9709    56.3796 </r>
       <r>    -7.3451     0.9704    56.5257 </r>
       <r>    -7.1946     0.9699    56.6717 </r>
       <r>    -7.0442     4.8476    57.0419 </r>
       <r>    -6.8937     8.6590    58.7696 </r>
       <r>    -6.7432    15.6048    60.3131 </r>
       <r>    -6.5927     7.9147    62.7418 </r>
       <r>    -6.4423     7.1391    64.2637 </r>
       <r>    -6.2918     6.3649    65.3387 </r>
       <r>    -6.1413     6.3639    66.2370 </r>
       <r>    -5.9908    10.9520    67.5711 </r>
       <r>    -5.8404    18.8406    69.4973 </r>
       <r>    -5.6899    11.5691    71.3443 </r>
       <r>    -5.5394    16.4036    73.3899 </r>
       <r>    -5.3889    12.9692    75.3462 </r>
       <r>    -5.2384    14.4206    77.4009 </r>
       <r>    -5.0880    13.5263    79.8645 </r>
       <r>    -4.9375    14.2523    82.0300 </r>
       <r>    -4.7870    16.1768    83.9835 </r>
       <r>    -4.6365    15.9005    86.4471 </r>
       <r>    -4.4861     8.6055    87.9745 </r>
       <r>    -4.3356    13.3979    89.4771 </r>
       <r>    -4.1851    19.9249    91.5122 </r>
       <r>    -4.0346    13.1354    94.4884 </r>
       <r>    -3.8841     8.3342    96.1655 </r>
       <r>    -3.7337    17.8972    98.4137 </r>
       <r>    -3.5832     9.8788   100.0676 </r>
       <r>    -3.4327     9.7247   101.9270 </r>
       <r>    -3.2822     6.5597   103.1920 </r>
       <r>    -3.1318     8.7424   104.3254 </r>
       <r>    -2.9813    11.1822   105.8859 </r>
       <r>    -2.8308    23.7723   108.7290 </r>
       <r>    -2.6803     9.4541   110.7347 </r>
       <r>    -2.5298     6.2576   111.7817 </r>
       <r>    -2.3794     6.5740   112.2157 </r>
       <r>    -2.2289     4.9997   113.7098 </r>
       <r>    -2.0784    10.4464   115.2025 </r>
       <r>    -1.9279    12.9509   117.0344 </r>
       <r>    -1.7775     1.4596   117.9636 </r>
       <r>    -1.6270     5.7093   119.0106 </r>
       <r>    -1.4765     3.2496   119.8240 </r>
       <r>    -1.3260     7.0414   120.4375 </r>
       <r>    -1.1755     5.9778   122.4534 </r>
       <r>    -1.0251    10.9509   123.9065 </r>
       <r>    -0.8746    17.4546   125.9939 </r>
       <r>    -0.7241    27.8537   129.3453 </r>
       <r>    -0.5736     7.4063   131.2389 </r>
       <r>    -0.4232     7.1452   132.3721 </r>
       <r>    -0.2727     6.2814   133.6081 </r>
       <r>    -0.1222     3.9829   134.3198 </r>
       <r>     0.0283     2.7996   134.8242 </r>
       <r>     0.1788     3.0578   135.7234 </r>
       <r>     0.3292     6.1070   136.2461 </r>
       <r>     0.4797     8.9712   137.4477 </r>
       <r>     0.6302     6.1557   138.5719 </r>
       <r>     0.7807     7.0271   140.0786 </r>
       <r>     0.9311     6.1146   141.0670 </r>
       <r>     1.0816     5.8945   142.0251 </r>
       <r>     1.2321     3.1780   142.5899 </r>
       <r>     1.3826     7.5221   143.3036 </r>
       <r>     1.5331     4.1178   144.6119 </r>
       <r>     1.6835     4.0251   145.2279 </r>
       <r>     1.8340     4.6632   145.8151 </r>
       <r>     1.9845     3.7464   146.9021 </r>
       <r>     2.1350     3.1381   147.4200 </r>
       <r>     2.2854     1.0563   148.0442 </r>
       <r>     2.4359     1.0726   148.2043 </r>
       <r>     2.5864     1.0889   148.3670 </r>
       <r>     2.7369     2.8087   148.8117 </r>
       <r>     2.8874     1.7395   149.1026 </r>
       <r>     3.0378     1.9767   149.3822 </r>
       <r>     3.1883     2.1808   150.4936 </r>
       <r>     3.3388     2.1533   150.8197 </r>
       <r>     3.4893     3.2687   151.2712 </r>
       <r>     3.6397     0.4507   151.4771 </r>
       <r>     3.7902     0.4255   151.5430 </r>
       <r>     3.9407     0.4004   151.6051 </r>
       <r>     4.0912     0.3753   151.6635 </r>
       <r>     4.2417     1.0170   151.7507 </r>
       <r>     4.3921     1.4863   151.9593 </r>
       <r>     4.5426     0.0000   152.0000 </r>
       <r>     4.6931     0.0000   152.0000 </r>
       <r>     4.8436     0.0000   152.0000 </r>
       <r>     4.9940     0.0000   152.0000 </r>
       <r>     5.1445     0.0000   152.0000 </r>
       <r>     5.2950     0.0000   152.0000 </r>
       <r>     5.4455     0.0000   152.0000 </r>
       <r>     5.5960     0.0000   152.0000 </r>
       <r>     5.7464     0.0000   152.0000 </r>
       <r>     5.8969     0.0000   152.0000 </r>
       <r>     6.0474     0.0000   152.0000 </r>
       <r>     6.1979     0.0000   152.0000 </r>
       <r>     6.3483     0.0000   152.0000 </r>
       <r>     6.4988     0.0000   152.0000 </r>
      </set>
     </set>
    </array>
   </total>
  </dos>
 </calculation>
 <structure name="finalpos" >
  <crystal>
   <varray name="basis" >
    <v>       5.52288297       0.00000000       0.00000000 </v>
    <v>       0.00000000       3.90526800       0.00000000 </v>
    <v>       0.00000000       0.00000000      21.66504520 </v>
   </varray>
   <i name="volume">    467.27902047 </i>
   <varray name="rec_basis" >
    <v>       0.18106485       0.00000000       0.00000000 </v>
    <v>       0.00000000       0.25606437       0.00000000 </v>
    <v>       0.00000000       0.00000000       0.04615730 </v>
   </varray>
  </crystal>
  <varray name="positions" >
   <v>       0.50000000       0.00000000       0.27694380 </v>
   <v>       0.25000000       0.50000000       0.34067414 </v>
   <v>       0.75000000       0.50000000       0.34067414 </v>
   <v>       0.00000000       0.00000000       0.40440449 </v>
   <v>       0.75000000       0.50000000       0.46813483 </v>
   <v>       0.25000000       0.50000000       0.46813483 </v>
   <v>       0.50000000       0.00000000       0.53186517 </v>
   <v>       0.25000000       0.50000000       0.59559551 </v>
   <v>       0.75000000       0.50000000       0.59559551 </v>
   <v>       0.00000000       0.00000000       0.65932586 </v>
   <v>       0.75000000       0.50000000       0.72305620 </v>
   <v>       0.25000000       0.50000000       0.72305620 </v>
   <v>       0.00000000       0.00000000       0.27694380 </v>
   <v>       0.50000000       0.00000000       0.40440449 </v>
   <v>       0.00000000       0.00000000       0.53186517 </v>
   <v>       0.50000000       0.00000000       0.65932586 </v>
   <v>       0.50000000       0.50000000       0.27694380 </v>
   <v>       0.00000000       0.50000000       0.40440449 </v>
   <v>       0.50000000       0.50000000       0.53186517 </v>
   <v>       0.00000000       0.50000000       0.65932586 </v>
  </varray>
 </structure>
</modeling>
