  20  20   0   0
  0.2336395E+02  0.5522883E-09  0.3905268E-09  0.2166505E-08  0.5000000E-15
  1.000000000000000E-004
  CAR 
 unknown system                          
      6.55731308    -38.65289298  301     -0.77188049      1.00000000
    -38.653  0.0000E+00  0.0000E+00
    -38.502  0.0000E+00  0.0000E+00
    -38.351  0.0000E+00  0.0000E+00
    -38.201  0.0000E+00  0.0000E+00
    -38.050  0.0000E+00  0.0000E+00
    -37.899  0.0000E+00  0.0000E+00
    -37.749  0.0000E+00  0.0000E+00
    -37.598  0.0000E+00  0.0000E+00
    -37.447  0.0000E+00  0.0000E+00
    -37.297  0.0000E+00  0.0000E+00
    -37.146  0.0000E+00  0.0000E+00
    -36.995  0.0000E+00  0.0000E+00
    -36.844  0.0000E+00  0.0000E+00
    -36.694  0.0000E+00  0.0000E+00
    -36.543  0.0000E+00  0.2000E+01
    -36.392  0.0000E+00  0.2000E+01
    -36.242  0.0000E+00  0.2000E+01
    -36.091  0.0000E+00  0.2000E+01
    -35.940  0.0000E+00  0.2000E+01
    -35.790  0.0000E+00  0.2000E+01
    -35.639  0.0000E+00  0.2000E+01
    -35.488  0.0000E+00  0.2000E+01
    -35.337  0.0000E+00  0.2000E+01
    -35.187  0.0000E+00  0.4000E+01
    -35.036  0.0000E+00  0.4000E+01
    -34.885  0.0000E+00  0.4000E+01
    -34.735  0.0000E+00  0.4000E+01
    -34.584  0.0000E+00  0.4000E+01
    -34.433  0.0000E+00  0.4000E+01
    -34.283  0.0000E+00  0.6000E+01
    -34.132  0.0000E+00  0.6000E+01
    -33.981  0.0000E+00  0.6000E+01
    -33.830  0.0000E+00  0.6000E+01
    -33.680  0.0000E+00  0.6000E+01
    -33.529  0.0000E+00  0.6000E+01
    -33.378  0.0000E+00  0.8000E+01
    -33.228  0.0000E+00  0.8000E+01
    -33.077  0.0000E+00  0.8000E+01
    -32.926  0.0000E+00  0.8000E+01
    -32.776  0.0000E+00  0.8000E+01
    -32.625  0.0000E+00  0.8000E+01
    -32.474  0.0000E+00  0.8000E+01
    -32.323  0.0000E+00  0.8000E+01
    -32.173  0.0000E+00  0.8000E+01
    -32.022  0.0000E+00  0.8000E+01
    -31.871  0.0000E+00  0.8000E+01
    -31.721  0.0000E+00  0.8000E+01
    -31.570  0.0000E+00  0.8000E+01
    -31.419  0.0000E+00  0.8000E+01
    -31.269  0.0000E+00  0.8000E+01
    -31.118  0.0000E+00  0.8000E+01
    -30.967  0.0000E+00  0.8000E+01
    -30.816  0.0000E+00  0.8000E+01
    -30.666  0.0000E+00  0.8000E+01
    -30.515  0.0000E+00  0.8000E+01
    -30.364  0.0000E+00  0.8000E+01
    -30.214  0.0000E+00  0.8000E+01
    -30.063  0.0000E+00  0.8000E+01
    -29.912  0.0000E+00  0.8000E+01
    -29.762  0.0000E+00  0.8000E+01
    -29.611  0.0000E+00  0.8000E+01
    -29.460  0.0000E+00  0.8000E+01
    -29.309  0.0000E+00  0.8000E+01
    -29.159  0.0000E+00  0.8000E+01
    -29.008  0.0000E+00  0.8000E+01
    -28.857  0.0000E+00  0.8000E+01
    -28.707  0.0000E+00  0.8000E+01
    -28.556  0.0000E+00  0.8000E+01
    -28.405  0.0000E+00  0.8000E+01
    -28.255  0.0000E+00  0.8000E+01
    -28.104  0.0000E+00  0.8000E+01
    -27.953  0.0000E+00  0.8000E+01
    -27.802  0.0000E+00  0.8000E+01
    -27.652  0.0000E+00  0.8000E+01
    -27.501  0.0000E+00  0.8000E+01
    -27.350  0.0000E+00  0.8000E+01
    -27.200  0.0000E+00  0.8000E+01
    -27.049  0.0000E+00  0.8000E+01
    -26.898  0.0000E+00  0.8000E+01
    -26.748  0.0000E+00  0.8000E+01
    -26.597  0.0000E+00  0.8000E+01
    -26.446  0.0000E+00  0.8000E+01
    -26.295  0.0000E+00  0.8000E+01
    -26.145  0.0000E+00  0.8000E+01
    -25.994  0.0000E+00  0.8000E+01
    -25.843  0.0000E+00  0.8000E+01
    -25.693  0.0000E+00  0.8000E+01
    -25.542  0.0000E+00  0.8000E+01
    -25.391  0.0000E+00  0.8000E+01
    -25.241  0.0000E+00  0.8000E+01
    -25.090  0.0000E+00  0.8000E+01
    -24.939  0.0000E+00  0.8000E+01
    -24.788  0.0000E+00  0.8000E+01
    -24.638  0.0000E+00  0.8000E+01
    -24.487  0.0000E+00  0.8000E+01
    -24.336  0.0000E+00  0.8000E+01
    -24.186  0.0000E+00  0.8000E+01
    -24.035  0.0000E+00  0.8000E+01
    -23.884  0.0000E+00  0.8000E+01
    -23.734  0.0000E+00  0.8000E+01
    -23.583  0.0000E+00  0.8000E+01
    -23.432  0.0000E+00  0.8000E+01
    -23.281  0.0000E+00  0.8000E+01
    -23.131  0.0000E+00  0.8000E+01
    -22.980  0.0000E+00  0.8000E+01
    -22.829  0.0000E+00  0.8000E+01
    -22.679  0.0000E+00  0.8000E+01
    -22.528  0.0000E+00  0.8000E+01
    -22.377  0.0000E+00  0.8000E+01
    -22.227  0.0000E+00  0.8000E+01
    -22.076  0.0000E+00  0.8000E+01
    -21.925  0.0000E+00  0.8000E+01
    -21.774  0.0000E+00  0.8000E+01
    -21.624  0.0000E+00  0.8000E+01
    -21.473  0.0000E+00  0.8000E+01
    -21.322  0.0000E+00  0.8000E+01
    -21.172  0.0000E+00  0.8000E+01
    -21.021  0.0000E+00  0.8000E+01
    -20.870  0.0000E+00  0.8000E+01
    -20.720  0.0000E+00  0.8000E+01
    -20.569  0.3524E+01  0.8276E+01
    -20.418  0.4223E+01  0.8966E+01
    -20.267  0.6440E+01  0.9939E+01
    -20.117  0.4873E+01  0.1080E+02
    -19.966  0.3114E+01  0.1154E+02
    -19.815  0.5269E+01  0.1199E+02
    -19.665  0.8566E+01  0.1366E+02
    -19.514  0.0000E+00  0.1400E+02
    -19.363  0.2186E+01  0.1400E+02
    -19.213  0.1173E+02  0.1571E+02
    -19.062  0.5578E+01  0.1765E+02
    -18.911  0.0000E+00  0.1800E+02
    -18.760  0.0000E+00  0.1800E+02
    -18.610  0.6025E+01  0.1990E+02
    -18.459  0.1483E+02  0.2318E+02
    -18.308  0.2269E+02  0.2664E+02
    -18.158  0.1378E+02  0.2865E+02
    -18.007  0.0000E+00  0.3000E+02
    -17.856  0.0000E+00  0.3000E+02
    -17.705  0.4883E+01  0.3161E+02
    -17.555  0.0000E+00  0.3200E+02
    -17.404  0.1456E+01  0.3204E+02
    -17.253  0.3234E+02  0.3400E+02
    -17.103  0.2874E+02  0.3752E+02
    -16.952  0.0000E+00  0.4000E+02
    -16.801  0.0000E+00  0.4000E+02
    -16.651  0.0000E+00  0.4000E+02
    -16.500  0.6201E+01  0.4168E+02
    -16.349  0.5957E+01  0.4229E+02
    -16.198  0.1823E+02  0.4554E+02
    -16.048  0.1001E+02  0.4855E+02
    -15.897  0.0000E+00  0.5000E+02
    -15.746  0.0000E+00  0.5000E+02
    -15.596  0.0000E+00  0.5000E+02
    -15.445  0.8271E+01  0.5044E+02
    -15.294  0.3973E+01  0.5252E+02
    -15.144  0.1385E+02  0.5446E+02
    -14.993  0.0000E+00  0.5600E+02
    -14.842  0.0000E+00  0.5600E+02
    -14.691  0.0000E+00  0.5600E+02
    -14.541  0.0000E+00  0.5600E+02
    -14.390  0.0000E+00  0.5600E+02
    -14.239  0.0000E+00  0.5600E+02
    -14.089  0.0000E+00  0.5600E+02
    -13.938  0.0000E+00  0.5600E+02
    -13.787  0.0000E+00  0.5600E+02
    -13.637  0.0000E+00  0.5600E+02
    -13.486  0.0000E+00  0.5600E+02
    -13.335  0.0000E+00  0.5600E+02
    -13.184  0.0000E+00  0.5600E+02
    -13.034  0.0000E+00  0.5600E+02
    -12.883  0.0000E+00  0.5600E+02
    -12.732  0.0000E+00  0.5600E+02
    -12.582  0.0000E+00  0.5600E+02
    -12.431  0.0000E+00  0.5600E+02
    -12.280  0.0000E+00  0.5600E+02
    -12.130  0.0000E+00  0.5600E+02
    -11.979  0.0000E+00  0.5600E+02
    -11.828  0.0000E+00  0.5600E+02
    -11.677  0.0000E+00  0.5600E+02
    -11.527  0.0000E+00  0.5600E+02
    -11.376  0.0000E+00  0.5600E+02
    -11.225  0.0000E+00  0.5600E+02
    -11.075  0.0000E+00  0.5600E+02
    -10.924  0.0000E+00  0.5600E+02
    -10.773  0.0000E+00  0.5600E+02
    -10.623  0.0000E+00  0.5600E+02
    -10.472  0.0000E+00  0.5600E+02
    -10.321  0.0000E+00  0.5600E+02
    -10.170  0.0000E+00  0.5600E+02
    -10.020  0.0000E+00  0.5600E+02
     -9.869  0.0000E+00  0.5600E+02
     -9.718  0.0000E+00  0.5600E+02
     -9.568  0.0000E+00  0.5600E+02
     -9.417  0.0000E+00  0.5600E+02
     -9.266  0.0000E+00  0.5600E+02
     -9.116  0.0000E+00  0.5600E+02
     -8.965  0.0000E+00  0.5600E+02
     -8.814  0.0000E+00  0.5600E+02
     -8.663  0.0000E+00  0.5600E+02
     -8.513  0.0000E+00  0.5600E+02
     -8.362  0.0000E+00  0.5600E+02
     -8.211  0.0000E+00  0.5600E+02
     -8.061  0.0000E+00  0.5600E+02
     -7.910  0.0000E+00  0.5600E+02
     -7.759  0.0000E+00  0.5600E+02
     -7.609  0.6016E+01  0.5611E+02
     -7.458  0.9687E+00  0.5643E+02
     -7.307  0.9682E+00  0.5657E+02
     -7.156  0.9676E+00  0.5672E+02
     -7.006  0.9309E+01  0.5738E+02
     -6.855  0.9565E+01  0.5923E+02
     -6.704  0.8794E+01  0.6119E+02
     -6.554  0.1112E+02  0.6343E+02
     -6.403  0.6877E+01  0.6461E+02
     -6.252  0.5673E+01  0.6563E+02
     -6.102  0.6685E+01  0.6656E+02
     -5.951  0.9086E+01  0.6813E+02
     -5.800  0.1140E+02  0.7016E+02
     -5.649  0.8906E+01  0.7188E+02
     -5.499  0.1045E+02  0.7408E+02
     -5.348  0.1194E+02  0.7603E+02
     -5.197  0.1492E+02  0.7814E+02
     -5.047  0.1454E+02  0.8055E+02
     -4.896  0.1188E+02  0.8268E+02
     -4.745  0.1515E+02  0.8490E+02
     -4.595  0.8807E+01  0.8706E+02
     -4.444  0.9203E+01  0.8840E+02
     -4.293  0.1461E+02  0.9021E+02
     -4.142  0.1979E+02  0.9255E+02
     -3.992  0.9489E+01  0.9504E+02
     -3.841  0.1568E+02  0.9680E+02
     -3.690  0.9984E+01  0.9906E+02
     -3.540  0.1407E+02  0.1007E+03
     -3.389  0.9545E+01  0.1024E+03
     -3.238  0.6057E+01  0.1035E+03
     -3.088  0.1285E+02  0.1049E+03
     -2.937  0.1200E+02  0.1065E+03
     -2.786  0.1496E+02  0.1097E+03
     -2.635  0.6352E+01  0.1112E+03
     -2.485  0.1381E+01  0.1119E+03
     -2.334  0.1138E+02  0.1127E+03
     -2.183  0.7380E+01  0.1140E+03
     -2.033  0.1000E+02  0.1157E+03
     -1.882  0.3308E+01  0.1177E+03
     -1.731  0.7760E+01  0.1182E+03
     -1.581  0.6063E+01  0.1193E+03
     -1.430  0.3132E+01  0.1200E+03
     -1.279  0.1528E+02  0.1211E+03
     -1.128  0.4332E+01  0.1228E+03
     -0.978  0.1453E+02  0.1246E+03
     -0.827  0.1439E+02  0.1270E+03
     -0.676  0.1320E+02  0.1303E+03
     -0.526  0.7246E+01  0.1316E+03
     -0.375  0.8613E+01  0.1329E+03
     -0.224  0.4145E+01  0.1339E+03
     -0.074  0.3448E+01  0.1345E+03
      0.077  0.6240E+01  0.1351E+03
      0.228  0.3286E+01  0.1359E+03
      0.379  0.8057E+01  0.1366E+03
      0.529  0.7786E+01  0.1380E+03
      0.680  0.9770E+01  0.1391E+03
      0.831  0.6662E+01  0.1405E+03
      0.981  0.6431E+01  0.1414E+03
      1.132  0.4145E+01  0.1424E+03
      1.283  0.3324E+01  0.1430E+03
      1.433  0.4091E+01  0.1443E+03
      1.584  0.2352E+01  0.1446E+03
      1.735  0.2315E+01  0.1450E+03
      1.886  0.3785E+01  0.1459E+03
      2.036  0.2844E+01  0.1465E+03
      2.187  0.1637E+01  0.1469E+03
      2.338  0.1065E+01  0.1472E+03
      2.488  0.9657E+00  0.1474E+03
      2.639  0.4296E+01  0.1476E+03
      2.790  0.4973E+01  0.1485E+03
      2.940  0.2884E+01  0.1489E+03
      3.091  0.3806E+01  0.1494E+03
      3.242  0.4614E+01  0.1502E+03
      3.393  0.3524E+01  0.1508E+03
      3.543  0.4742E+00  0.1514E+03
      3.694  0.4499E+00  0.1515E+03
      3.845  0.4256E+00  0.1516E+03
      3.995  0.4014E+00  0.1516E+03
      4.146  0.8316E+00  0.1517E+03
      4.297  0.1109E+01  0.1519E+03
      4.448  0.3638E+00  0.1520E+03
      4.598  0.0000E+00  0.1520E+03
      4.749  0.0000E+00  0.1520E+03
      4.900  0.0000E+00  0.1520E+03
      5.050  0.0000E+00  0.1520E+03
      5.201  0.0000E+00  0.1520E+03
      5.352  0.0000E+00  0.1520E+03
      5.502  0.0000E+00  0.1520E+03
      5.653  0.0000E+00  0.1520E+03
      5.804  0.0000E+00  0.1520E+03
      5.955  0.0000E+00  0.1520E+03
      6.105  0.0000E+00  0.1520E+03
      6.256  0.0000E+00  0.1520E+03
      6.407  0.0000E+00  0.1520E+03
      6.557  0.0000E+00  0.1520E+03
