   20   20    1    1
  0.2336395E+02  0.5522883E-09  0.3905268E-09  0.2166505E-08  0.5000000E-15
  1.000000000000000E-004
  CAR 
 unknown system                          
    128     12     76
 
  0.0000000E+00  0.0000000E+00  0.0000000E+00  0.2857143E-01
    1      -36.597884   1.000000
    2      -35.271645   1.000000
    3      -34.309575   1.000000
    4      -33.416469   1.000000
    5      -20.515948   1.000000
    6      -20.044948   1.000000
    7      -19.857699   1.000000
    8      -19.367383   1.000000
    9      -19.055032   1.000000
   10      -18.686987   1.000000
   11      -18.594860   1.000000
   12      -18.540606   1.000000
   13      -18.524069   1.000000
   14      -18.352191   1.000000
   15      -18.099838   1.000000
   16      -17.831866   1.000000
   17      -17.312603   1.000000
   18      -17.296152   1.000000
   19      -17.136835   1.000000
   20      -17.055851   1.000000
   21      -16.524300   1.000000
   22      -16.345889   1.000000
   23      -16.294600   1.000000
   24      -16.162172   1.000000
   25      -16.094017   1.000000
   26      -15.433694   1.000000
   27      -15.168493   1.000000
   28      -15.118462   1.000000
   29       -7.116303   1.000000
   30       -6.807483   1.000000
   31       -6.645054   1.000000
   32       -6.018225   1.000000
   33       -5.897175   1.000000
   34       -5.547756   1.000000
   35       -5.453607   1.000000
   36       -5.305587   1.000000
   37       -5.152317   1.000000
   38       -5.069491   1.000000
   39       -5.009810   1.000000
   40       -4.863747   1.000000
   41       -4.776418   1.000000
   42       -4.589591   1.000000
   43       -4.254780   1.000000
   44       -4.129656   1.000000
   45       -4.091213   1.000000
   46       -4.004692   1.000000
   47       -3.814562   1.000000
   48       -3.778456   1.000000
   49       -3.555790   1.000000
   50       -3.255267   1.000000
   51       -3.023909   1.000000
   52       -2.932311   1.000000
   53       -2.913242   1.000000
   54       -2.707656   1.000000
   55       -2.674559   1.000000
   56       -2.395379   1.000000
   57       -2.302720   1.000000
   58       -1.959453   1.000000
   59       -1.921811   1.000000
   60       -1.376413   1.000000
   61       -1.346038   1.000000
   62       -1.093730   1.000000
   63       -1.086479   1.000000
   64       -1.042948   1.000000
   65       -0.873066   1.117642
   66       -0.783167   0.191038
   67       -0.757746   0.000000
   68       -0.520482   0.000000
   69        0.064309   0.000000
   70        0.283581   0.000000
   71        0.380835   0.000000
   72        0.644831   0.000000
   73        1.320501   0.000000
   74        2.612420   0.000000
   75        2.656721   0.000000
   76        4.041541   0.000000
 
  0.2000000E+00  0.0000000E+00  0.0000000E+00  0.5714286E-01
    1      -36.597590   1.000000
    2      -35.271320   1.000000
    3      -34.309256   1.000000
    4      -33.416212   1.000000
    5      -20.576026   1.000000
    6      -20.201366   1.000000
    7      -19.731331   1.000000
    8      -19.356467   1.000000
    9      -19.134127   1.000000
   10      -18.722973   1.000000
   11      -18.595204   1.000000
   12      -18.474628   1.000000
   13      -18.408253   1.000000
   14      -18.359636   1.000000
   15      -18.170148   1.000000
   16      -17.799621   1.000000
   17      -17.313249   1.000000
   18      -17.282546   1.000000
   19      -17.096696   1.000000
   20      -17.063436   1.000000
   21      -16.496846   1.000000
   22      -16.346576   1.000000
   23      -16.296069   1.000000
   24      -16.137776   1.000000
   25      -16.035359   1.000000
   26      -15.434620   1.000000
   27      -15.174324   1.000000
   28      -15.099444   1.000000
   29       -6.948207   1.000000
   30       -6.764056   1.000000
   31       -6.674913   1.000000
   32       -5.991347   1.000000
   33       -5.758642   1.000000
   34       -5.620284   1.000000
   35       -5.548870   1.000000
   36       -5.348210   1.000000
   37       -5.186378   1.000000
   38       -5.140330   1.000000
   39       -4.935486   1.000000
   40       -4.781153   1.000000
   41       -4.705049   1.000000
   42       -4.648492   1.000000
   43       -4.378314   1.000000
   44       -4.356827   1.000000
   45       -4.090089   1.000000
   46       -4.043250   1.000000
   47       -3.968248   1.000000
   48       -3.748857   1.000000
   49       -3.517003   1.000000
   50       -3.370166   1.000000
   51       -3.197934   1.000000
   52       -3.038042   1.000000
   53       -2.944886   1.000000
   54       -2.798623   1.000000
   55       -2.622088   1.000000
   56       -2.528080   1.000000
   57       -2.309547   1.000000
   58       -2.210593   1.000000
   59       -1.898308   1.000000
   60       -1.419147   1.000000
   61       -1.393388   1.000000
   62       -1.108589   1.000000
   63       -1.081030   1.000000
   64       -0.968240   1.000000
   65       -0.875773   1.081621
   66       -0.746790   0.041041
   67       -0.730601   0.000000
   68       -0.624408   0.000000
   69        0.083022   0.000000
   70        0.321487   0.000000
   71        0.358047   0.000000
   72        0.808959   0.000000
   73        1.300929   0.000000
   74        2.631725   0.000000
   75        2.674830   0.000000
   76        4.221693   0.000000
 
  0.4000000E+00  0.0000000E+00  0.0000000E+00  0.5714286E-01
    1      -36.597103   1.000000
    2      -35.270784   1.000000
    3      -34.308728   1.000000
    4      -33.415784   1.000000
    5      -20.676495   1.000000
    6      -20.313920   1.000000
    7      -19.681844   1.000000
    8      -19.314100   1.000000
    9      -19.239507   1.000000
   10      -18.734028   1.000000
   11      -18.595747   1.000000
   12      -18.389255   1.000000
   13      -18.353825   1.000000
   14      -18.303364   1.000000
   15      -18.235802   1.000000
   16      -17.776447   1.000000
   17      -17.314276   1.000000
   18      -17.268860   1.000000
   19      -17.067808   1.000000
   20      -17.029889   1.000000
   21      -16.426601   1.000000
   22      -16.347671   1.000000
   23      -16.316557   1.000000
   24      -16.065092   1.000000
   25      -15.990735   1.000000
   26      -15.436101   1.000000
   27      -15.175342   1.000000
   28      -15.062047   1.000000
   29       -6.837689   1.000000
   30       -6.720754   1.000000
   31       -6.311883   1.000000
   32       -5.930880   1.000000
   33       -5.831516   1.000000
   34       -5.681230   1.000000
   35       -5.621541   1.000000
   36       -5.502376   1.000000
   37       -5.318649   1.000000
   38       -5.116454   1.000000
   39       -4.810952   1.000000
   40       -4.792438   1.000000
   41       -4.695871   1.000000
   42       -4.647168   1.000000
   43       -4.578068   1.000000
   44       -4.511039   1.000000
   45       -4.141639   1.000000
   46       -4.123572   1.000000
   47       -3.906675   1.000000
   48       -3.896765   1.000000
   49       -3.680919   1.000000
   50       -3.522537   1.000000
   51       -3.362544   1.000000
   52       -3.117686   1.000000
   53       -3.078003   1.000000
   54       -3.013239   1.000000
   55       -2.768900   1.000000
   56       -2.516963   1.000000
   57       -2.371199   1.000000
   58       -2.323523   1.000000
   59       -1.753628   1.000000
   60       -1.555672   1.000000
   61       -1.464367   1.000000
   62       -1.204539   1.000000
   63       -1.068779   1.000000
   64       -1.033752   1.000000
   65       -0.854401   1.012613
   66       -0.817302   0.593551
   67       -0.745877   0.000000
   68       -0.402471   0.000000
   69        0.043076   0.000000
   70        0.310451   0.000000
   71        0.389702   0.000000
   72        0.962870   0.000000
   73        1.290658   0.000000
   74        1.326163   0.000000
   75        2.609468   0.000000
   76        2.745472   0.000000
 
  0.0000000E+00  0.1428571E+00  0.0000000E+00  0.5714286E-01
    1      -36.594459   1.000000
    2      -35.267738   1.000000
    3      -34.305679   1.000000
    4      -33.412632   1.000000
    5      -20.461802   1.000000
    6      -20.004614   1.000000
    7      -19.811294   1.000000
    8      -19.323505   1.000000
    9      -19.072351   1.000000
   10      -18.642576   1.000000
   11      -18.610352   1.000000
   12      -18.554626   1.000000
   13      -18.502897   1.000000
   14      -18.313617   1.000000
   15      -18.114839   1.000000
   16      -17.791563   1.000000
   17      -17.285984   1.000000
   18      -17.242575   1.000000
   19      -17.185909   1.000000
   20      -17.071510   1.000000
   21      -16.571021   1.000000
   22      -16.305260   1.000000
   23      -16.266898   1.000000
   24      -16.206351   1.000000
   25      -16.111754   1.000000
   26      -15.383552   1.000000
   27      -15.199621   1.000000
   28      -15.183099   1.000000
   29       -7.058882   1.000000
   30       -6.737493   1.000000
   31       -6.639673   1.000000
   32       -6.343933   1.000000
   33       -5.866223   1.000000
   34       -5.842688   1.000000
   35       -5.552198   1.000000
   36       -5.509321   1.000000
   37       -5.293977   1.000000
   38       -5.228145   1.000000
   39       -5.064793   1.000000
   40       -4.991111   1.000000
   41       -4.874140   1.000000
   42       -4.631318   1.000000
   43       -4.434064   1.000000
   44       -4.429502   1.000000
   45       -4.089312   1.000000
   46       -4.076639   1.000000
   47       -4.033389   1.000000
   48       -3.736315   1.000000
   49       -3.714774   1.000000
   50       -3.363895   1.000000
   51       -3.177981   1.000000
   52       -3.075569   1.000000
   53       -2.943274   1.000000
   54       -2.830589   1.000000
   55       -2.712399   1.000000
   56       -2.563902   1.000000
   57       -2.345734   1.000000
   58       -2.010733   1.000000
   59       -1.981774   1.000000
   60       -1.508224   1.000000
   61       -1.317777   1.000000
   62       -1.101236   1.000000
   63       -0.978565   1.000000
   64       -0.971666   1.038094
   65       -0.752409   0.262698
   66       -0.659827  -0.030605
   67       -0.528060   0.000000
   68       -0.470742   0.000000
   69        0.122877   0.000000
   70        0.481415   0.000000
   71        0.561791   0.000000
   72        0.675094   0.000000
   73        1.423097   0.000000
   74        2.774829   0.000000
   75        2.838156   0.000000
   76        4.338612   0.000000
 
  0.2000000E+00  0.1428571E+00  0.0000000E+00  0.1142857E+00
    1      -36.594192   1.000000
    2      -35.267448   1.000000
    3      -34.305393   1.000000
    4      -33.412405   1.000000
    5      -20.502134   1.000000
    6      -20.157854   1.000000
    7      -19.707351   1.000000
    8      -19.321458   1.000000
    9      -19.120638   1.000000
   10      -18.714019   1.000000
   11      -18.593843   1.000000
   12      -18.491354   1.000000
   13      -18.390026   1.000000
   14      -18.326948   1.000000
   15      -18.167963   1.000000
   16      -17.780479   1.000000
   17      -17.281449   1.000000
   18      -17.242638   1.000000
   19      -17.129382   1.000000
   20      -17.087027   1.000000
   21      -16.542936   1.000000
   22      -16.316443   1.000000
   23      -16.263251   1.000000
   24      -16.175998   1.000000
   25      -16.048048   1.000000
   26      -15.378714   1.000000
   27      -15.211632   1.000000
   28      -15.141337   1.000000
   29       -6.924621   1.000000
   30       -6.715842   1.000000
   31       -6.663758   1.000000
   32       -6.325662   1.000000
   33       -5.963139   1.000000
   34       -5.771105   1.000000
   35       -5.614037   1.000000
   36       -5.516151   1.000000
   37       -5.344143   1.000000
   38       -5.182401   1.000000
   39       -5.062245   1.000000
   40       -4.981482   1.000000
   41       -4.828325   1.000000
   42       -4.659921   1.000000
   43       -4.587254   1.000000
   44       -4.423320   1.000000
   45       -4.361118   1.000000
   46       -4.067018   1.000000
   47       -3.939791   1.000000
   48       -3.830486   1.000000
   49       -3.698415   1.000000
   50       -3.488302   1.000000
   51       -3.174206   1.000000
   52       -3.097500   1.000000
   53       -3.031473   1.000000
   54       -2.967707   1.000000
   55       -2.851776   1.000000
   56       -2.544101   1.000000
   57       -2.371194   1.000000
   58       -2.191802   1.000000
   59       -1.945210   1.000000
   60       -1.628069   1.000000
   61       -1.312705   1.000000
   62       -1.105152   1.000000
   63       -0.977362   1.000000
   64       -0.941622   1.017749
   65       -0.735519   0.310686
   66       -0.716989  -0.013511
   67       -0.535099   0.000000
   68       -0.422960   0.000000
   69        0.164394   0.000000
   70        0.512422   0.000000
   71        0.547439   0.000000
   72        0.830229   0.000000
   73        1.448962   0.000000
   74        2.759635   0.000000
   75        2.823829   0.000000
   76        4.502304   0.000000
 
  0.4000000E+00  0.1428571E+00  0.0000000E+00  0.1142857E+00
    1      -36.593760   1.000000
    2      -35.266977   1.000000
    3      -34.304930   1.000000
    4      -33.412037   1.000000
    5      -20.584835   1.000000
    6      -20.262503   1.000000
    7      -19.678453   1.000000
    8      -19.309326   1.000000
    9      -19.189348   1.000000
   10      -18.742234   1.000000
   11      -18.583914   1.000000
   12      -18.378939   1.000000
   13      -18.340748   1.000000
   14      -18.316265   1.000000
   15      -18.220681   1.000000
   16      -17.781406   1.000000
   17      -17.263562   1.000000
   18      -17.247695   1.000000
   19      -17.100880   1.000000
   20      -17.050650   1.000000
   21      -16.477733   1.000000
   22      -16.336391   1.000000
   23      -16.258593   1.000000
   24      -16.102104   1.000000
   25      -16.004338   1.000000
   26      -15.361275   1.000000
   27      -15.202985   1.000000
   28      -15.091295   1.000000
   29       -6.854263   1.000000
   30       -6.728038   1.000000
   31       -6.427337   1.000000
   32       -6.305684   1.000000
   33       -6.032951   1.000000
   34       -5.791421   1.000000
   35       -5.606349   1.000000
   36       -5.540706   1.000000
   37       -5.455965   1.000000
   38       -5.294196   1.000000
   39       -5.078503   1.000000
   40       -4.957121   1.000000
   41       -4.827872   1.000000
   42       -4.729640   1.000000
   43       -4.688597   1.000000
   44       -4.527732   1.000000
   45       -4.354820   1.000000
   46       -4.148109   1.000000
   47       -3.971807   1.000000
   48       -3.827564   1.000000
   49       -3.789164   1.000000
   50       -3.553096   1.000000
   51       -3.485866   1.000000
   52       -3.231184   1.000000
   53       -3.117045   1.000000
   54       -2.996244   1.000000
   55       -2.894626   1.000000
   56       -2.822933   1.000000
   57       -2.434041   1.000000
   58       -2.154435   1.000000
   59       -1.869632   1.000000
   60       -1.705069   1.000000
   61       -1.304734   1.000000
   62       -1.252727   1.000000
   63       -1.110488   1.000000
   64       -0.936492   1.000000
   65       -0.881055   1.062671
   66       -0.623239  -0.057878
   67       -0.375246   0.000000
   68       -0.336647   0.000000
   69        0.158569   0.000000
   70        0.520909   0.000000
   71        0.577720   0.000000
   72        1.300433   0.000000
   73        1.432637   0.000000
   74        1.795759   0.000000
   75        2.721219   0.000000
   76        2.807883   0.000000
 
  0.0000000E+00  0.2857143E+00  0.0000000E+00  0.5714286E-01
    1      -36.586744   1.000000
    2      -35.258935   1.000000
    3      -34.296897   1.000000
    4      -33.403984   1.000000
    5      -20.395832   1.000000
    6      -19.880477   1.000000
    7      -19.692449   1.000000
    8      -19.228904   1.000000
    9      -19.098749   1.000000
   10      -18.639989   1.000000
   11      -18.587880   1.000000
   12      -18.526090   1.000000
   13      -18.453307   1.000000
   14      -18.227248   1.000000
   15      -18.123033   1.000000
   16      -17.687537   1.000000
   17      -17.311052   1.000000
   18      -17.225866   1.000000
   19      -17.175491   1.000000
   20      -17.051612   1.000000
   21      -16.637021   1.000000
   22      -16.360725   1.000000
   23      -16.218401   1.000000
   24      -16.141233   1.000000
   25      -16.138828   1.000000
   26      -15.371863   1.000000
   27      -15.347473   1.000000
   28      -15.196859   1.000000
   29       -7.002844   1.000000
   30       -6.941182   1.000000
   31       -6.624462   1.000000
   32       -6.539656   1.000000
   33       -6.382241   1.000000
   34       -6.286315   1.000000
   35       -6.017860   1.000000
   36       -5.804952   1.000000
   37       -5.573086   1.000000
   38       -5.469365   1.000000
   39       -5.312488   1.000000
   40       -5.182552   1.000000
   41       -5.056014   1.000000
   42       -4.991753   1.000000
   43       -4.748870   1.000000
   44       -4.537745   1.000000
   45       -4.524501   1.000000
   46       -4.257439   1.000000
   47       -4.193469   1.000000
   48       -3.998669   1.000000
   49       -3.914705   1.000000
   50       -3.717494   1.000000
   51       -3.420725   1.000000
   52       -3.378502   1.000000
   53       -2.981874   1.000000
   54       -2.824665   1.000000
   55       -2.778094   1.000000
   56       -2.699235   1.000000
   57       -2.272145   1.000000
   58       -2.148667   1.000000
   59       -1.991504   1.000000
   60       -1.506339   1.000000
   61       -1.301788   1.000000
   62       -0.991253   1.000000
   63       -0.819628   1.038185
   64       -0.747070   0.392761
   65       -0.698942   0.000000
   66       -0.543524   0.000000
   67       -0.312129   0.000000
   68        0.157367   0.000000
   69        0.365630   0.000000
   70        0.728203   0.000000
   71        0.971905   0.000000
   72        1.012586   0.000000
   73        1.853298   0.000000
   74        1.881218   0.000000
   75        3.085531   0.000000
   76        3.139520   0.000000
 
  0.2000000E+00  0.2857143E+00  0.0000000E+00  0.1142857E+00
    1      -36.586549   1.000000
    2      -35.258732   1.000000
    3      -34.296698   1.000000
    4      -33.403837   1.000000
    5      -20.374444   1.000000
    6      -20.040053   1.000000
    7      -19.659605   1.000000
    8      -19.245282   1.000000
    9      -19.098392   1.000000
   10      -18.634316   1.000000
   11      -18.592112   1.000000
   12      -18.513558   1.000000
   13      -18.388728   1.000000
   14      -18.242521   1.000000
   15      -18.151498   1.000000
   16      -17.723388   1.000000
   17      -17.269903   1.000000
   18      -17.180186   1.000000
   19      -17.163782   1.000000
   20      -17.093125   1.000000
   21      -16.612914   1.000000
   22      -16.297754   1.000000
   23      -16.235615   1.000000
   24      -16.178229   1.000000
   25      -16.046866   1.000000
   26      -15.374120   1.000000
   27      -15.297400   1.000000
   28      -15.156194   1.000000
   29       -6.984092   1.000000
   30       -6.906723   1.000000
   31       -6.705002   1.000000
   32       -6.564552   1.000000
   33       -6.428094   1.000000
   34       -6.289316   1.000000
   35       -6.031140   1.000000
   36       -5.809632   1.000000
   37       -5.645377   1.000000
   38       -5.420572   1.000000
   39       -5.365092   1.000000
   40       -5.193996   1.000000
   41       -5.051910   1.000000
   42       -4.972368   1.000000
   43       -4.844572   1.000000
   44       -4.709717   1.000000
   45       -4.393954   1.000000
   46       -4.293110   1.000000
   47       -4.153072   1.000000
   48       -4.071611   1.000000
   49       -3.886622   1.000000
   50       -3.771424   1.000000
   51       -3.551336   1.000000
   52       -3.358762   1.000000
   53       -3.165601   1.000000
   54       -2.903076   1.000000
   55       -2.894208   1.000000
   56       -2.558046   1.000000
   57       -2.331396   1.000000
   58       -2.092285   1.000000
   59       -2.040168   1.000000
   60       -1.665420   1.000000
   61       -1.265764   1.000000
   62       -0.971179   1.000000
   63       -0.836728   1.033054
   64       -0.799366   0.881365
   65       -0.720548   0.022511
   66       -0.556014   0.000000
   67       -0.230461   0.000000
   68        0.190673   0.000000
   69        0.408915   0.000000
   70        0.866328   0.000000
   71        0.985143   0.000000
   72        1.009366   0.000000
   73        1.844410   0.000000
   74        1.860901   0.000000
   75        3.103590   0.000000
   76        3.128084   0.000000
 
  0.4000000E+00  0.2857143E+00  0.0000000E+00  0.1142857E+00
    1      -36.586232   1.000000
    2      -35.258401   1.000000
    3      -34.296374   1.000000
    4      -33.403596   1.000000
    5      -20.360802   1.000000
    6      -20.162813   1.000000
    7      -19.712420   1.000000
    8      -19.292640   1.000000
    9      -19.061173   1.000000
   10      -18.731652   1.000000
   11      -18.557557   1.000000
   12      -18.392367   1.000000
   13      -18.351551   1.000000
   14      -18.286150   1.000000
   15      -18.138278   1.000000
   16      -17.808759   1.000000
   17      -17.231106   1.000000
   18      -17.187209   1.000000
   19      -17.115795   1.000000
   20      -17.069152   1.000000
   21      -16.557176   1.000000
   22      -16.314541   1.000000
   23      -16.175260   1.000000
   24      -16.136138   1.000000
   25      -16.013790   1.000000
   26      -15.377234   1.000000
   27      -15.173237   1.000000
   28      -15.117281   1.000000
   29       -7.046361   1.000000
   30       -6.952944   1.000000
   31       -6.705988   1.000000
   32       -6.633687   1.000000
   33       -6.508746   1.000000
   34       -6.081199   1.000000
   35       -6.030770   1.000000
   36       -5.865622   1.000000
   37       -5.742294   1.000000
   38       -5.480517   1.000000
   39       -5.343845   1.000000
   40       -5.225357   1.000000
   41       -5.203599   1.000000
   42       -5.078811   1.000000
   43       -4.913704   1.000000
   44       -4.746453   1.000000
   45       -4.249956   1.000000
   46       -4.242474   1.000000
   47       -4.157239   1.000000
   48       -4.098334   1.000000
   49       -3.955334   1.000000
   50       -3.821472   1.000000
   51       -3.691778   1.000000
   52       -3.487956   1.000000
   53       -3.447763   1.000000
   54       -2.925725   1.000000
   55       -2.887124   1.000000
   56       -2.848659   1.000000
   57       -2.158603   1.000000
   58       -2.054913   1.000000
   59       -2.001401   1.000000
   60       -1.742181   1.000000
   61       -1.249641   1.000000
   62       -1.208583   1.000000
   63       -0.949477   1.005820
   64       -0.805952   0.992253
   65       -0.784971   0.529247
   66       -0.343713   0.000000
   67       -0.180122   0.000000
   68        0.250643   0.000000
   69        0.456750   0.000000
   70        0.992716   0.000000
   71        1.017528   0.000000
   72        1.044863   0.000000
   73        1.829904   0.000000
   74        1.879936   0.000000
   75        3.079630   0.000000
   76        3.126861   0.000000
 
  0.0000000E+00  0.4285714E+00  0.0000000E+00  0.5714286E-01
    1      -36.580543   1.000000
    2      -35.251855   1.000000
    3      -34.289834   1.000000
    4      -33.397028   1.000000
    5      -20.403624   1.000000
    6      -19.730728   1.000000
    7      -19.575927   1.000000
    8      -19.200095   1.000000
    9      -19.080925   1.000000
   10      -18.729012   1.000000
   11      -18.550396   1.000000
   12      -18.413986   1.000000
   13      -18.405825   1.000000
   14      -18.194445   1.000000
   15      -18.070139   1.000000
   16      -17.583650   1.000000
   17      -17.436340   1.000000
   18      -17.205737   1.000000
   19      -17.161398   1.000000
   20      -16.985009   1.000000
   21      -16.640757   1.000000
   22      -16.483555   1.000000
   23      -16.183158   1.000000
   24      -16.112934   1.000000
   25      -16.009055   1.000000
   26      -15.522888   1.000000
   27      -15.453674   1.000000
   28      -15.131632   1.000000
   29       -7.586954   1.000000
   30       -6.988969   1.000000
   31       -6.721208   1.000000
   32       -6.610839   1.000000
   33       -6.604846   1.000000
   34       -6.537556   1.000000
   35       -6.370898   1.000000
   36       -5.979866   1.000000
   37       -5.840312   1.000000
   38       -5.651256   1.000000
   39       -5.575284   1.000000
   40       -5.487860   1.000000
   41       -5.150035   1.000000
   42       -4.980484   1.000000
   43       -4.919907   1.000000
   44       -4.737821   1.000000
   45       -4.621692   1.000000
   46       -4.586943   1.000000
   47       -4.447402   1.000000
   48       -4.173913   1.000000
   49       -4.080525   1.000000
   50       -3.725171   1.000000
   51       -3.558486   1.000000
   52       -3.501548   1.000000
   53       -3.014467   1.000000
   54       -2.871610   1.000000
   55       -2.766757   1.000000
   56       -2.745942   1.000000
   57       -2.312325   1.000000
   58       -2.151728   1.000000
   59       -1.895291   1.000000
   60       -1.441051   1.000000
   61       -1.291338   1.000000
   62       -0.879514   1.000000
   63       -0.744456   0.138649
   64       -0.718763  -0.035937
   65       -0.561258   0.000000
   66       -0.418597   0.000000
   67       -0.192028   0.000000
   68        0.643625   0.000000
   69        0.710820   0.000000
   70        0.763738   0.000000
   71        1.387063   0.000000
   72        1.430175   0.000000
   73        1.803885   0.000000
   74        2.265801   0.000000
   75        3.432661   0.000000
   76        3.523470   0.000000
 
  0.2000000E+00  0.4285714E+00  0.0000000E+00  0.1142857E+00
    1      -36.580403   1.000000
    2      -35.251720   1.000000
    3      -34.289703   1.000000
    4      -33.396942   1.000000
    5      -20.341658   1.000000
    6      -19.871147   1.000000
    7      -19.645250   1.000000
    8      -19.165516   1.000000
    9      -19.112220   1.000000
   10      -18.575837   1.000000
   11      -18.520770   1.000000
   12      -18.505300   1.000000
   13      -18.425979   1.000000
   14      -18.171515   1.000000
   15      -18.136674   1.000000
   16      -17.667574   1.000000
   17      -17.306707   1.000000
   18      -17.221881   1.000000
   19      -17.114335   1.000000
   20      -17.048696   1.000000
   21      -16.623675   1.000000
   22      -16.352795   1.000000
   23      -16.221228   1.000000
   24      -16.105149   1.000000
   25      -16.022376   1.000000
   26      -15.455596   1.000000
   27      -15.391367   1.000000
   28      -15.092958   1.000000
   29       -7.597080   1.000000
   30       -6.957261   1.000000
   31       -6.806190   1.000000
   32       -6.764802   1.000000
   33       -6.642887   1.000000
   34       -6.592161   1.000000
   35       -6.283311   1.000000
   36       -5.993143   1.000000
   37       -5.859633   1.000000
   38       -5.782110   1.000000
   39       -5.547086   1.000000
   40       -5.452479   1.000000
   41       -5.167617   1.000000
   42       -5.119794   1.000000
   43       -4.967670   1.000000
   44       -4.825333   1.000000
   45       -4.668234   1.000000
   46       -4.421051   1.000000
   47       -4.308616   1.000000
   48       -4.198518   1.000000
   49       -4.138954   1.000000
   50       -3.773739   1.000000
   51       -3.679419   1.000000
   52       -3.508617   1.000000
   53       -3.210966   1.000000
   54       -2.887011   1.000000
   55       -2.817825   1.000000
   56       -2.639357   1.000000
   57       -2.310194   1.000000
   58       -2.058935   1.000000
   59       -1.929032   1.000000
   60       -1.634212   1.000000
   61       -1.225695   1.000000
   62       -0.859571   1.000000
   63       -0.762841   0.548110
   64       -0.742026   0.018438
   65       -0.708276  -0.005860
   66       -0.390333   0.000000
   67       -0.042266   0.000000
   68        0.666578   0.000000
   69        0.717040   0.000000
   70        0.899089   0.000000
   71        1.401373   0.000000
   72        1.419874   0.000000
   73        1.843764   0.000000
   74        2.250927   0.000000
   75        3.171443   0.000000
   76        3.498435   0.000000
 
  0.4000000E+00  0.4285714E+00  0.0000000E+00  0.1142857E+00
    1      -36.580179   1.000000
    2      -35.251503   1.000000
    3      -34.289492   1.000000
    4      -33.396806   1.000000
    5      -20.186592   1.000000
    6      -20.043942   1.000000
    7      -19.817122   1.000000
    8      -19.232216   1.000000
    9      -18.977003   1.000000
   10      -18.716066   1.000000
   11      -18.500101   1.000000
   12      -18.422385   1.000000
   13      -18.359858   1.000000
   14      -18.243848   1.000000
   15      -18.066942   1.000000
   16      -17.844027   1.000000
   17      -17.236804   1.000000
   18      -17.189539   1.000000
   19      -17.089277   1.000000
   20      -17.028253   1.000000
   21      -16.581393   1.000000
   22      -16.270011   1.000000
   23      -16.164743   1.000000
   24      -16.159111   1.000000
   25      -15.992081   1.000000
   26      -15.458325   1.000000
   27      -15.197324   1.000000
   28      -15.039856   1.000000
   29       -7.617313   1.000000
   30       -7.118684   1.000000
   31       -6.978751   1.000000
   32       -6.857097   1.000000
   33       -6.677686   1.000000
   34       -6.572093   1.000000
   35       -6.098732   1.000000
   36       -6.028241   1.000000
   37       -5.928774   1.000000
   38       -5.854227   1.000000
   39       -5.613229   1.000000
   40       -5.378403   1.000000
   41       -5.302845   1.000000
   42       -5.289999   1.000000
   43       -5.156329   1.000000
   44       -4.757780   1.000000