 vasp.5.4.4.18Apr17-6-g9f103f2a35 (build Jun 30 2017 11:15:00) complex          
  
 executed on    STALLO_VASP_5.4.4 date 2019.11.06  13:53:57
 running on    4 total cores
 distrk:  each k-point on    4 cores,    1 groups
 distr:  one band on NCORES_PER_BAND=   2 cores,    2 groups


--------------------------------------------------------------------------------------------------------


 INCAR:
 POTCAR:   PAW_PBE O 08Apr2002                    
 POTCAR:   PAW_PBE Sr_sv 07Sep2000                
 POTCAR:   PAW_PBE Ti 08Apr2002                   
 POTCAR:   PAW_PBE O 08Apr2002                    
   VRHFIN =O: s2p4                                                              
   LEXCH  = PE                                                                  
   EATOM  =   432.3788 eV,   31.7789 Ry                                         
                                                                                
   TITEL  = PAW_PBE O 08Apr2002                                                 
   LULTRA =        F    use ultrasoft PP ?                                      
   IUNSCR =        0    unscreen: 0-lin 1-nonlin 2-no                           
   RPACOR =     .000    partial core radius                                     
   POMASS =   16.000; ZVAL   =    6.000    mass and valenz                      
   RCORE  =    1.520    outmost cutoff radius                                   
   RWIGS  =    1.550; RWIGS  =     .820    wigner-seitz radius (au A)           
   ENMAX  =  400.000; ENMIN  =  300.000 eV                                      
   ICORE  =        2    local potential                                         
   LCOR   =        T    correct aug charges                                     
   LPAW   =        T    paw PP                                                  
   EAUG   =  605.392                                                            
   DEXC   =     .000                                                            
   RMAX   =    2.264    core radius for proj-oper                               
   RAUG   =    1.300    factor for augmentation sphere                          
   RDEP   =    1.550    radius for radial grids                                 
   QCUT   =   -5.520; QGAM   =   11.041    optimization parameters              
                                                                                
   Description                                                                  
     l     E      TYP  RCUT    TYP  RCUT                                        
     0   .000     23  1.200                                                     
     0  -.700     23  1.200                                                     
     1   .000     23  1.520                                                     
     1   .600     23  1.520                                                     
     2   .000      7  1.500                                                     
  local pseudopotential read in
  atomic valenz-charges read in
  non local Contribution for L=           0  read in
    real space projection operators read in
  non local Contribution for L=           0  read in
    real space projection operators read in
  non local Contribution for L=           1  read in
    real space projection operators read in
  non local Contribution for L=           1  read in
    real space projection operators read in
    PAW grid and wavefunctions read in
 
   number of l-projection  operators is LMAX  =           4
   number of lm-projection operators is LMMAX =           8
 
 POTCAR:   PAW_PBE Sr_sv 07Sep2000                
   VRHFIN =Sr: 4s4p5s                                                           
   LEXCH  = PE                                                                  
   EATOM  =   842.4562 eV,   61.9188 Ry                                         
                                                                                
   TITEL  = PAW_PBE Sr_sv 07Sep2000                                             
   LULTRA =        F    use ultrasoft PP ?                                      
   IUNSCR =        1    unscreen: 0-lin 1-nonlin 2-no                           
   RPACOR =    2.200    partial core radius                                     
   POMASS =   87.620; ZVAL   =   10.000    mass and valenz                      
   RCORE  =    2.500    outmost cutoff radius                                   
   RWIGS  =    4.040; RWIGS  =    2.138    wigner-seitz radius (au A)           
   ENMAX  =  229.282; ENMIN  =  171.961 eV                                      
   RCLOC  =    2.201    cutoff for local pot                                    
   LCOR   =        T    correct aug charges                                     
   LPAW   =        T    paw PP                                                  
   EAUG   =  366.804                                                            
   DEXC   =     .000                                                            
   RMAX   =    3.045    core radius for proj-oper                               
   RAUG   =    1.300    factor for augmentation sphere                          
   RDEP   =    2.562    radius for radial grids                                 
   QCUT   =   -4.105; QGAM   =    8.210    optimization parameters              
                                                                                
   Description                                                                  
     l     E      TYP  RCUT    TYP  RCUT                                        
     0   .000     23  2.480                                                     
     0   .000     23  2.480                                                     
     1   .000     23  2.500                                                     
     1   .000     23  2.500                                                     
     2   .000     23  2.500                                                     
     2   .000     23  2.500                                                     
  local pseudopotential read in
  partial core-charges read in
  atomic valenz-charges read in
  non local Contribution for L=           0  read in
    real space projection operators read in
  non local Contribution for L=           0  read in
    real space projection operators read in
  non local Contribution for L=           1  read in
    real space projection operators read in
  non local Contribution for L=           1  read in
    real space projection operators read in
  non local Contribution for L=           2  read in
    real space projection operators read in
  non local Contribution for L=           2  read in
    real space projection operators read in
    PAW grid and wavefunctions read in
 
   number of l-projection  operators is LMAX  =           6
   number of lm-projection operators is LMMAX =          18
 
 POTCAR:   PAW_PBE Ti 08Apr2002                   
   VRHFIN =Ti: d3 s1                                                            
   LEXCH  = PE                                                                  
   EATOM  =    94.7929 eV,    6.9671 Ry                                         
                                                                                
   TITEL  = PAW_PBE Ti 08Apr2002                                                
   LULTRA =        F    use ultrasoft PP ?                                      
   IUNSCR =        1    unscreen: 0-lin 1-nonlin 2-no                           
   RPACOR =    2.200    partial core radius                                     
   POMASS =   47.880; ZVAL   =    4.000    mass and valenz                      
   RCORE  =    2.800    outmost cutoff radius                                   
   RWIGS  =    2.500; RWIGS  =    1.323    wigner-seitz radius (au A)           
   ENMAX  =  178.330; ENMIN  =  133.747 eV                                      
   RCLOC  =    2.215    cutoff for local pot                                    
   LCOR   =        T    correct aug charges                                     
   LPAW   =        T    paw PP                                                  
   EAUG   =  328.883                                                            
   DEXC   =    -.043                                                            
   RMAX   =    3.453    core radius for proj-oper                               
   RAUG   =    1.300    factor for augmentation sphere                          
   RDEP   =    2.885    radius for radial grids                                 
   QCUT   =   -3.620; QGAM   =    7.241    optimization parameters              
                                                                                
   Description                                                                  
     l     E      TYP  RCUT    TYP  RCUT                                        
     2   .000     23  2.800                                                     
     2   .000     23  2.800                                                     
     0   .000     23  2.800                                                     
     0  1.500     23  2.800                                                     
     1  -.400     23  2.800                                                     
     3   .000      7   .000                                                     
  local pseudopotential read in
  partial core-charges read in
  atomic valenz-charges read in
  non local Contribution for L=           2  read in
    real space projection operators read in
  non local Contribution for L=           2  read in
    real space projection operators read in
  non local Contribution for L=           0  read in
    real space projection operators read in
  non local Contribution for L=           0  read in
    real space projection operators read in
  non local Contribution for L=           1  read in
    real space projection operators read in
    PAW grid and wavefunctions read in
 
   number of l-projection  operators is LMAX  =           5
   number of lm-projection operators is LMMAX =          15
 

 ----------------------------------------------------------------------------- 
|                                                                             |
|  ADVICE TO THIS USER RUNNING 'VASP/VAMP'   (HEAR YOUR MASTER'S VOICE ...):  |
|                                                                             |
|      You have a (more or less) 'large supercell' and for larger cells       |
|      it might be more efficient to use real space projection operators      |
|      So try LREAL= Auto  in the INCAR   file.                               |
|      Mind: If you want to do a very accurate calculations keep the          |
|      reciprocal projection scheme          (i.e. LREAL=.FALSE.)             |
|                                                                             |
 ----------------------------------------------------------------------------- 

 PAW_PBE O 08Apr2002                    :
 energy of atom  1       EATOM= -432.3788
 kinetic energy error for atom=    0.1156 (will be added to EATOM!!)
 PAW_PBE Sr_sv 07Sep2000                :
 energy of atom  2       EATOM= -842.4562
 kinetic energy error for atom=    0.0031 (will be added to EATOM!!)
 PAW_PBE Ti 08Apr2002                   :
 energy of atom  3       EATOM=  -94.7929
 kinetic energy error for atom=    0.0005 (will be added to EATOM!!)
 
 
 POSCAR:  O Sr Ti                                
  positions in direct lattice
  No initial velocities read in
 exchange correlation table for  LEXCH =        8
   RHO(1)=    0.500       N(1)  =     2000
   RHO(2)=  100.500       N(2)  =     4000
 


--------------------------------------------------------------------------------------------------------


 ion  position               nearest neighbor table
   1  0.500  0.000  0.277-  17 1.95  17 1.95  14 2.76  13 2.76  13 2.76
   2  0.250  0.500  0.341-  17 1.95  18 1.95  13 2.76  14 2.76  13 2.76  14 2.76
   3  0.750  0.500  0.341-  17 1.95  18 1.95  13 2.76  14 2.76  13 2.76  14 2.76
   4  0.000  0.000  0.404-  18 1.95  18 1.95  13 2.76  14 2.76  14 2.76  15 2.76
   5  0.750  0.500  0.468-  18 1.95  19 1.95  14 2.76  14 2.76  15 2.76  15 2.76
   6  0.250  0.500  0.468-  18 1.95  19 1.95  14 2.76  14 2.76  15 2.76  15 2.76
   7  0.500  0.000  0.532-  19 1.95  19 1.95  16 2.76  15 2.76  15 2.76  14 2.76
   8  0.250  0.500  0.596-  19 1.95  20 1.95  15 2.76  16 2.76  15 2.76  16 2.76
   9  0.750  0.500  0.596-  19 1.95  20 1.95  15 2.76  16 2.76  15 2.76  16 2.76
  10  0.000  0.000  0.659-  20 1.95  20 1.95  15 2.76  16 2.76  16 2.76
  11  0.750  0.500  0.723-  20 1.95  16 2.76  16 2.76
  12  0.250  0.500  0.723-  20 1.95  16 2.76  16 2.76
  13  0.000  0.000  0.277-   4 2.76   3 2.76   2 2.76   2 2.76   3 2.76   1 2.76   1 2.76  18 3.38
                            18 3.38  17 3.38  17 3.38  17 3.38  17 3.38  14 3.91  14 3.91
  14  0.500  0.000  0.404-   1 2.76   2 2.76   3 2.76   5 2.76   6 2.76   2 2.76   3 2.76   5 2.76
                             6 2.76   4 2.76   4 2.76   7 2.76  17 3.38  17 3.38  18 3.38  18 3.38
  15  0.000  0.000  0.532-  10 2.76   9 2.76   8 2.76   8 2.76   9 2.76   7 2.76   7 2.76   6 2.76
                             5 2.76   6 2.76   5 2.76   4 2.76  20 3.38  20 3.38  19 3.38  19 3.38
  16  0.500  0.000  0.659-   7 2.76   8 2.76   9 2.76  11 2.76  12 2.76   8 2.76   9 2.76  11 2.76
                            12 2.76  10 2.76  10 2.76  19 3.38  19 3.38  20 3.38  20 3.38  20 3.38
  17  0.500  0.500  0.277-   2 1.95   3 1.95   1 1.95   1 1.95  14 3.38  14 3.38  13 3.38  13 3.38
                            13 3.38  13 3.38
  18  0.000  0.500  0.404-   2 1.95   3 1.95   5 1.95   6 1.95   4 1.95   4 1.95  13 3.38  13 3.38
                            14 3.38  14 3.38  14 3.38  14 3.38  15 3.38  15 3.38
  19  0.500  0.500  0.532-   8 1.95   9 1.95   7 1.95   7 1.95   5 1.95   6 1.95  16 3.38  16 3.38
                            15 3.38  15 3.38  15 3.38  15 3.38  14 3.38  14 3.38
  20  0.000  0.500  0.659-   8 1.95   9 1.95  11 1.95  12 1.95  10 1.95  10 1.95  15 3.38  15 3.38
                            16 3.38  16 3.38  16 3.38  16 3.38
 
  LATTYP: Found a simple orthorhombic cell.
 ALAT       =     3.9052680000
 B/A-ratio  =     1.4142135624
 C/A-ratio  =     5.5476462046
  
  Lattice vectors:
  
 A1 = (   0.0000000000,  -3.9052680000,   0.0000000000)
 A2 = (  -5.5228829703,   0.0000000000,   0.0000000000)
 A3 = (   0.0000000000,   0.0000000000, -21.6650451980)


Analysis of symmetry for initial positions (statically):
=====================================================================
 Subroutine PRICEL returns:
 Original cell was already a primitive cell.
 

 Routine SETGRP: Setting up the symmetry group for a 
 simple orthorhombic supercell.


 Subroutine GETGRP returns: Found  4 space group operations
 (whereof  4 operations were pure point group operations)
 out of a pool of  8 trial point group operations.


The static configuration has the point symmetry C_2v.


Analysis of symmetry for dynamics (positions and initial velocities):
=====================================================================
 Subroutine PRICEL returns:
 Original cell was already a primitive cell.
 

 Routine SETGRP: Setting up the symmetry group for a 
 simple orthorhombic supercell.


 Subroutine GETGRP returns: Found  4 space group operations
 (whereof  4 operations were pure point group operations)
 out of a pool of  8 trial point group operations.


The dynamic configuration has the point symmetry C_2v.


 Subroutine INISYM returns: Found  4 space group operations
 (whereof  4 operations are pure point group operations),
 and found     1 'primitive' translations

 
 
 KPOINTS: k-density: 4.0                          

Automatic generation of k-mesh.
Space group operators:
 irot       det(A)        alpha          n_x          n_y          n_z        tau_x        tau_y        tau_z
    1     1.000000     0.000000     1.000000     0.000000     0.000000     0.000000     0.000000     0.000000
    2     1.000000   179.999999     0.000000     0.000000     1.000000     0.000000     0.000000     0.000000
    3    -1.000000   180.000000     1.000000     0.000000     0.000000     0.000000     0.000000     0.000000
    4    -1.000000   180.000000     0.000000     1.000000     0.000000     0.000000     0.000000     0.000000
 
 Subroutine IBZKPT returns following result:
 ===========================================
 
 Found     12 irreducible k-points:
 
 Following reciprocal coordinates:
            Coordinates               Weight
  0.000000  0.000000  0.000000      1.000000
  0.200000  0.000000  0.000000      2.000000
  0.400000  0.000000  0.000000      2.000000
  0.000000  0.142857  0.000000      2.000000
  0.200000  0.142857  0.000000      4.000000
  0.400000  0.142857  0.000000      4.000000
  0.000000  0.285714  0.000000      2.000000
  0.200000  0.285714  0.000000      4.000000
  0.400000  0.285714  0.000000      4.000000
  0.000000  0.428571  0.000000      2.000000
  0.200000  0.428571  0.000000      4.000000
  0.400000  0.428571  0.000000      4.000000
 
 Following cartesian coordinates:
            Coordinates               Weight
  0.000000  0.000000  0.000000      1.000000
  0.036213  0.000000  0.000000      2.000000
  0.072426  0.000000  0.000000      2.000000
  0.000000  0.036581  0.000000      2.000000
  0.036213  0.036581  0.000000      4.000000
  0.072426  0.036581  0.000000      4.000000
  0.000000  0.073161  0.000000      2.000000
  0.036213  0.073161  0.000000      4.000000
  0.072426  0.073161  0.000000      4.000000
  0.000000  0.109742  0.000000      2.000000
  0.036213  0.109742  0.000000      4.000000
  0.072426  0.109742  0.000000      4.000000
 
 TETIRR: Found     88 inequivalent tetrahedra from      210


--------------------------------------------------------------------------------------------------------




 Dimension of arrays:
   k-points           NKPTS =     12   k-points in BZ     NKDIM =     12   number of bands    NBANDS=     76
   number of dos      NEDOS =    301   number of ions     NIONS =     20
   non local maximal  LDIM  =      6   non local SUM 2l+1 LMDIM =     18
   total plane-waves  NPLWV =  60480
   max r-space proj   IRMAX =      1   max aug-charges    IRDMAX=   9138
   dimension x,y,z NGX =    28 NGY =   20 NGZ =  108
   dimension x,y,z NGXF=    56 NGYF=   40 NGZF=  216
   support grid    NGXF=    56 NGYF=   40 NGZF=  216
   ions per type =              12   4   4
   NGX,Y,Z   is equivalent  to a cutoff of   8.43,  8.51,  8.29 a.u.
   NGXF,Y,Z  is equivalent  to a cutoff of  16.86, 17.03, 16.57 a.u.

 SYSTEM =  unknown system                          
 POSCAR =   O Sr Ti                                

 Startparameter for this run:
   NWRITE =      2    write-flag & timer
   PREC   = normal    normal or accurate (medium, high low for compatibility)
   ISTART =      0    job   : 0-new  1-cont  2-samecut
   ICHARG =      2    charge: 1-file 2-atom 10-const
   ISPIN  =      1    spin polarized calculation?
   LNONCOLLINEAR =      F non collinear calculations
   LSORBIT =      F    spin-orbit coupling
   INIWAV =      1    electr: 0-lowe 1-rand  2-diag
   LASPH  =      F    aspherical Exc in radial PAW
   METAGGA=      F    non-selfconsistent MetaGGA calc.

 Electronic Relaxation 1
   ENCUT  =  400.0 eV  29.40 Ry    5.42 a.u.   9.01  6.37 35.33*2*pi/ulx,y,z
   ENINI  =  400.0     initial cutoff
   ENAUG  =  605.4 eV  augmentation charge cutoff
   NELM   =     60;   NELMIN=  4; NELMDL= -5     # of ELM steps 
   EDIFF  = 0.1E-04   stopping-criterion for ELM
   LREAL  =      F    real-space projection
   NLSPLINE    = F    spline interpolate recip. space projectors
   LCOMPAT=      F    compatible to vasp.4.4
   GGA_COMPAT  = T    GGA compatible to vasp.4.4-vasp.4.6
   LMAXPAW     = -100 max onsite density
   LMAXMIX     =    2 max onsite mixed and CHGCAR
   VOSKOWN=      0    Vosko Wilk Nusair interpolation
   ROPT   =    0.00000   0.00000   0.00000
 Ionic relaxation
   EDIFFG = 0.1E-03   stopping-criterion for IOM
   NSW    =      0    number of steps for IOM
   NBLOCK =      1;   KBLOCK =      1    inner block; outer block 
   IBRION =     -1    ionic relax: 0-MD 1-quasi-New 2-CG
   NFREE  =      0    steps in history (QN), initial steepest desc. (CG)
   ISIF   =      2    stress and relaxation
   IWAVPR =     10    prediction:  0-non 1-charg 2-wave 3-comb
   ISYM   =      2    0-nonsym 1-usesym 2-fastsym
   LCORR  =      T    Harris-Foulkes like correction to forces

   POTIM  = 0.5000    time-step for ionic-motion
   TEIN   =    0.0    initial temperature
   TEBEG  =    0.0;   TEEND  =   0.0 temperature during run
   SMASS  =  -3.00    Nose mass-parameter (am)
   estimated Nose-frequenzy (Omega)   =  0.10E-29 period in steps =****** mass=  -0.697E-27a.u.
   SCALEE = 1.0000    scale energy and forces
   NPACO  =    256;   APACO  = 16.0  distance and # of slots for P.C.
   PSTRESS=    0.0 pullay stress

  Mass of Ions in am
   POMASS =  16.00 87.62 47.88
  Ionic Valenz
   ZVAL   =   6.00 10.00  4.00
  Atomic Wigner-Seitz radii
   RWIGS  =  -1.00 -1.00 -1.00
  virtual crystal weights 
   VCA    =   1.00  1.00  1.00
   NELECT =     128.0000    total number of electrons
   NUPDOWN=      -1.0000    fix difference up-down

 DOS related values:
   EMIN   =  10.00;   EMAX   =-10.00  energy-range for DOS
   EFERMI =   0.00
   ISMEAR =    -5;   SIGMA  =   0.20  broadening in eV -4-tet -1-fermi 0-gaus

 Electronic relaxation 2 (details)
   IALGO  =     68    algorithm
   LDIAG  =      T    sub-space diagonalisation (order eigenvalues)
   LSUBROT=      F    optimize rotation matrix (better conditioning)
   TURBO    =      0    0=normal 1=particle mesh
   IRESTART =      0    0=no restart 2=restart with 2 vectors
   NREBOOT  =      0    no. of reboots
   NMIN     =      0    reboot dimension
   EREF     =   0.00    reference energy to select bands
   IMIX   =      4    mixing-type and parameters
     AMIX     =   0.40;   BMIX     =  1.00
     AMIX_MAG =   1.60;   BMIX_MAG =  1.00
     AMIN     =   0.10
     WC   =   100.;   INIMIX=   1;  MIXPRE=   1;  MAXMIX= -45

 Intra band minimization:
   WEIMIN = 0.0000     energy-eigenvalue tresh-hold
   EBREAK =  0.33E-07  absolut break condition
   DEPER  =   0.30     relativ break condition  

   TIME   =   0.40     timestep for ELM

  volume/ion in A,a.u.               =      23.36       157.67
  Fermi-wavevector in a.u.,A,eV,Ry     =   1.063211  2.009177 15.380261  1.130417
  Thomas-Fermi vector in A             =   2.198688
 
 Write flags
   LWAVE        =      F    write WAVECAR
   LDOWNSAMPLE  =      F    k-point downsampling of WAVECAR
   LCHARG       =      T    write CHGCAR
   LVTOT        =      F    write LOCPOT, total local potential
   LVHAR        =      F    write LOCPOT, Hartree potential only
   LELF         =      F    write electronic localiz. function (ELF)
   LORBIT       =      0    0 simple, 1 ext, 2 COOP (PROOUT), +10 PAW based schemes


 Dipole corrections
   LMONO  =      F    monopole corrections only (constant potential shift)
   LDIPOL =      F    correct potential (dipole corrections)
   IDIPOL =      0    1-x, 2-y, 3-z, 4-all directions 
   EPSILON=  1.0000000 bulk dielectric constant

 Exchange correlation treatment:
   GGA     =    --    GGA type
   LEXCH   =     8    internal setting for exchange type
   VOSKOWN=      0    Vosko Wilk Nusair interpolation
   LHFCALC =     F    Hartree Fock is set to
   LHFONE  =     F    Hartree Fock one center treatment
   AEXX    =    0.0000 exact exchange contribution

 Linear response parameters
   LEPSILON=     F    determine dielectric tensor
   LRPA    =     F    only Hartree local field effects (RPA)
   LNABLA  =     F    use nabla operator in PAW spheres
   LVEL    =     F    velocity operator in full k-point grid
   LINTERFAST=   F  fast interpolation
   KINTER  =     0    interpolate to denser k-point grid
   CSHIFT  =0.1000    complex shift for real part using Kramers Kronig
   OMEGAMAX=  -1.0    maximum frequency
   DEG_THRESHOLD= 0.2000000E-02 threshold for treating states as degnerate
   RTIME   =   -0.100 relaxation time in fs
  (WPLASMAI=    0.000 imaginary part of plasma frequency in eV, 0.658/RTIME)
   DFIELD  = 0.0000000 0.0000000 0.0000000 field for delta impulse in time
 
 Orbital magnetization related:
   ORBITALMAG=     F  switch on orbital magnetization
   LCHIMAG   =     F  perturbation theory with respect to B field
   DQ        =  0.001000  dq finite difference perturbation B field
   LLRAUG    =     F  two centre corrections for induced B field



--------------------------------------------------------------------------------------------------------


 Static calculation
 charge density and potential will be updated during run
 non-spin polarized calculation
 RMM-DIIS sequential band-by-band and
  variant of blocked Davidson during initial phase
 perform sub-space diagonalisation
    before iterative eigenvector-optimisation
 modified Broyden-mixing scheme, WC =      100.0
 initial mixing is a Kerker type mixing with AMIX =  0.4000 and BMIX =      1.0000
 Hartree-type preconditioning will be used
 using additional bands           12
 reciprocal scheme for non local part
 use partial core corrections
 calculate Harris-corrections to forces 
   (improved forces if not selfconsistent)
 use gradient corrections 
 use of overlap-Matrix (Vanderbilt PP)
 Fermi weights with tetrahedron method with Bloechl corrections


--------------------------------------------------------------------------------------------------------


  energy-cutoff  :      400.00
  volume of cell :      467.28
      direct lattice vectors                 reciprocal lattice vectors
     5.522882970  0.000000000  0.000000000     0.181064854  0.000000000  0.000000000
     0.000000000  3.905268000  0.000000000     0.000000000  0.256064373  0.000000000
     0.000000000  0.000000000 21.665045198     0.000000000  0.000000000  0.046157300

  length of vectors
     5.522882970  3.905268000 21.665045198     0.181064854  0.256064373  0.046157300


 
 k-points in units of 2pi/SCALE and weight: k-density: 4.0                          
   0.00000000  0.00000000  0.00000000       0.029
   0.03621297  0.00000000  0.00000000       0.057
   0.07242594  0.00000000  0.00000000       0.057
   0.00000000  0.03658062  0.00000000       0.057
   0.03621297  0.03658062  0.00000000       0.114
   0.07242594  0.03658062  0.00000000       0.114
   0.00000000  0.07316125  0.00000000       0.057
   0.03621297  0.07316125  0.00000000       0.114
   0.07242594  0.07316125  0.00000000       0.114
   0.00000000  0.10974187  0.00000000       0.057
   0.03621297  0.10974187  0.00000000       0.114
   0.07242594  0.10974187  0.00000000       0.114
 
 k-points in reciprocal lattice and weights: k-density: 4.0                          
   0.00000000  0.00000000  0.00000000       0.029
   0.20000000  0.00000000  0.00000000       0.057
   0.40000000  0.00000000  0.00000000       0.057
   0.00000000  0.14285714  0.00000000       0.057
   0.20000000  0.14285714  0.00000000       0.114
   0.40000000  0.14285714  0.00000000       0.114
   0.00000000  0.28571429  0.00000000       0.057
   0.20000000  0.28571429  0.00000000       0.114
   0.40000000  0.28571429  0.00000000       0.114
   0.00000000  0.42857143  0.00000000       0.057
   0.20000000  0.42857143  0.00000000       0.114
   0.40000000  0.42857143  0.00000000       0.114
 
 position of ions in fractional coordinates (direct lattice) 
   0.50000000  0.00000000  0.27694380
   0.25000000  0.50000000  0.34067414
   0.75000000  0.50000000  0.34067414
   0.00000000  0.00000000  0.40440449
   0.75000000  0.50000000  0.46813483
   0.25000000  0.50000000  0.46813483
   0.50000000  0.00000000  0.53186517
   0.25000000  0.50000000  0.59559551
   0.75000000  0.50000000  0.59559551
   0.00000000  0.00000000  0.65932586
   0.75000000  0.50000000  0.72305620
   0.25000000  0.50000000  0.72305620
   0.00000000  0.00000000  0.27694380
   0.50000000  0.00000000  0.40440449
   0.00000000  0.00000000  0.53186517
   0.50000000  0.00000000  0.65932586
   0.50000000  0.50000000  0.27694380
   0.00000000  0.50000000  0.40440449
   0.50000000  0.50000000  0.53186517
   0.00000000  0.50000000  0.65932586
 
 position of ions in cartesian coordinates  (Angst):
   2.76144149  0.00000000  6.00000000
   1.38072074  1.95263400  7.38072074
   4.14216223  1.95263400  7.38072074
   0.00000000  0.00000000  8.76144149
   4.14216223  1.95263400 10.14216223
   1.38072074  1.95263400 10.14216223
   2.76144149  0.00000000 11.52288297
   1.38072074  1.95263400 12.90360371
   4.14216223  1.95263400 12.90360371
   0.00000000  0.00000000 14.28432446
   4.14216223  1.95263400 15.66504520
   1.38072074  1.95263400 15.66504520
   0.00000000  0.00000000  6.00000000
   2.76144149  0.00000000  8.76144149
   0.00000000  0.00000000 11.52288297
   2.76144149  0.00000000 14.28432446
   2.76144149  1.95263400  6.00000000
   0.00000000  1.95263400  8.76144149
   2.76144149  1.95263400 11.52288297
   0.00000000  1.95263400 14.28432446
 


--------------------------------------------------------------------------------------------------------


 k-point  1 :   0.0000 0.0000 0.0000  plane waves:    8445
 k-point  2 :   0.2000 0.0000 0.0000  plane waves:    8536
 k-point  3 :   0.4000 0.0000 0.0000  plane waves:    8534
 k-point  4 :   0.0000 0.1429 0.0000  plane waves:    8479
 k-point  5 :   0.2000 0.1429 0.0000  plane waves:    8497
 k-point  6 :   0.4000 0.1429 0.0000  plane waves:    8516
 k-point  7 :   0.0000 0.2857 0.0000  plane waves:    8473
 k-point  8 :   0.2000 0.2857 0.0000  plane waves:    8482
 k-point  9 :   0.4000 0.2857 0.0000  plane waves:    8490
 k-point 10 :   0.0000 0.4286 0.0000  plane waves:    8500
 k-point 11 :   0.2000 0.4286 0.0000  plane waves:    8482
 k-point 12 :   0.4000 0.4286 0.0000  plane waves:    8455

 maximum and minimum number of plane-waves per node :      4273     4216

 maximum number of plane-waves:      8536
 maximum index in each direction: 
   IXMAX=    9   IYMAX=    6   IZMAX=   35
   IXMIN=   -9   IYMIN=   -6   IZMIN=  -35


 parallel 3D FFT for wavefunctions:
    minimum data exchange during FFTs selected (reduces bandwidth)
 parallel 3D FFT for charge:
    minimum data exchange during FFTs selected (reduces bandwidth)


 total amount of memory used by VASP MPI-rank0    99717. kBytes
=======================================================================

   base      :      30000. kBytes
   nonl-proj :      23524. kBytes
   fftplans  :       5015. kBytes
   grid      :       9009. kBytes
   one-center:        155. kBytes
   wavefun   :      32014. kBytes
 
     INWAV:  cpu time    0.0000: real time    0.0000
 Broyden mixing: mesh for mixing (old mesh)
   NGX = 19   NGY = 13   NGZ = 71
  (NGX  = 56   NGY  = 40   NGZ  =216)
  gives a total of  17537 points

 initial charge density was supplied:
 charge density of overlapping atoms calculated
 number of electron     128.0000000 magnetization 
 keeping initial charge density in first step


--------------------------------------------------------------------------------------------------------


 Maximum index for augmentation-charges         2175 (set IRDMAX)


--------------------------------------------------------------------------------------------------------


 First call to EWALD:  gamma=   0.228
 Maximum number of real-space cells 4x 5x 1
 Maximum number of reciprocal cells 2x 2x 7

    FEWALD:  cpu time    0.0020: real time    0.0019


--------------------------------------- Iteration      1(   1)  ---------------------------------------


    POTLOK:  cpu time    0.0750: real time    0.2382
    SETDIJ:  cpu time    0.0100: real time    0.0108
     EDDAV:  cpu time    5.5352: real time    5.5404
 BZINTS: Fermi energy: 12.499206;128.000000 electrons
         Band energy:-171.569865;  BLOECHL correction: -0.049937
       DOS:  cpu time    0.0100: real time    0.0101
    --------------------------------------------
      LOOP:  cpu time    5.6301: real time    5.7995

 eigenvalue-minimisations  :  1856
 total energy-change (2. order) : 0.1427733E+04  (-0.5014320E+04)
 number of electron     128.0000000 magnetization 
 augmentation part      128.0000000 magnetization 

 Free energy of the ion-electron system (eV)
  ---------------------------------------------------
  alpha Z        PSCENC =       378.09908315
  Ewald energy   TEWEN  =     22731.27163923
  -Hartree energ DENC   =    -30966.93774877
  -exchange      EXHF   =         0.00000000
  -V(xc)+E(xc)   XCENC  =       325.41629502
  PAW double counting   =      5334.45189010    -5139.13784255
  entropy T*S    EENTRO =         0.00000000
  eigenvalues    EBANDS =      -171.56986535
  atomic energy  EATOM  =      8936.14004472
  Solvation  Ediel_sol  =         0.00000000
  ---------------------------------------------------
  free energy    TOTEN  =      1427.73349555 eV

  energy without entropy =     1427.73349555  energy(sigma->0) =     1427.73349555


--------------------------------------------------------------------------------------------------------




--------------------------------------- Iteration      1(   2)  ---------------------------------------


     EDDAV:  cpu time    6.4960: real time    6.5012
 BZINTS: Fermi energy:  3.097281;128.000000 electrons
         Band energy:***********;  BLOECHL correction: -0.079675
       DOS:  cpu time    0.0090: real time    0.0092
    --------------------------------------------
      LOOP:  cpu time    6.5050: real time    6.5104

 eigenvalue-minimisations  :  2260
 total energy-change (2. order) :-0.1295478E+04  (-0.1251796E+04)
 number of electron     128.0000000 magnetization 
 augmentation part      128.0000000 magnetization 

 Free energy of the ion-electron system (eV)
  ---------------------------------------------------
  alpha Z        PSCENC =       378.09908315
  Ewald energy   TEWEN  =     22731.27163923
  -Hartree energ DENC   =    -30966.93774877
  -exchange      EXHF   =         0.00000000
  -V(xc)+E(xc)   XCENC  =       325.41629502
  PAW double counting   =      5334.45189010    -5139.13784255
  entropy T*S    EENTRO =         0.00000000
  eigenvalues    EBANDS =     -1467.04807545
  atomic energy  EATOM  =      8936.14004472
  Solvation  Ediel_sol  =         0.00000000
  ---------------------------------------------------
  free energy    TOTEN  =       132.25528545 eV

  energy without entropy =      132.25528545  energy(sigma->0) =      132.25528545


--------------------------------------------------------------------------------------------------------




--------------------------------------- Iteration      1(   3)  ---------------------------------------


     EDDAV:  cpu time    6.9509: real time    6.9543
 BZINTS: Fermi energy: -2.487064;128.000000 electrons
         Band energy:***********;  BLOECHL correction:  0.000000
       DOS:  cpu time    0.0020: real time    0.0021
    --------------------------------------------
      LOOP:  cpu time    6.9529: real time    6.9564

 eigenvalue-minimisations  :  2456
 total energy-change (2. order) :-0.3096732E+03  (-0.3024272E+03)
 number of electron     128.0000000 magnetization 
 augmentation part      128.0000000 magnetization 

 Free energy of the ion-electron system (eV)
  ---------------------------------------------------
  alpha Z        PSCENC =       378.09908315
  Ewald energy   TEWEN  =     22731.27163923
  -Hartree energ DENC   =    -30966.93774877
  -exchange      EXHF   =         0.00000000
  -V(xc)+E(xc)   XCENC  =       325.41629502
  PAW double counting   =      5334.45189010    -5139.13784255
  entropy T*S    EENTRO =         0.00000000
  eigenvalues    EBANDS =     -1776.72127888
  atomic energy  EATOM  =      8936.14004472
  Solvation  Ediel_sol  =         0.00000000
  ---------------------------------------------------
  free energy    TOTEN  =      -177.41791798 eV

  energy without entropy =     -177.41791798  energy(sigma->0) =     -177.41791798


--------------------------------------------------------------------------------------------------------




--------------------------------------- Iteration      1(   4)  ---------------------------------------


     EDDAV:  cpu time    6.9429: real time    6.9470
 BZINTS: Fermi energy: -4.396200;128.000000 electrons
         Band energy:***********;  BLOECHL correction:  0.000000
       DOS:  cpu time    0.0020: real time    0.0016
    --------------------------------------------
      LOOP:  cpu time    6.9449: real time    6.9486

 eigenvalue-minimisations  :  2456
 total energy-change (2. order) :-0.1997805E+02  (-0.1991583E+02)
 number of electron     128.0000000 magnetization 
 augmentation part      128.0000000 magnetization 

 Free energy of the ion-electron system (eV)
  ---------------------------------------------------
  alpha Z        PSCENC =       378.09908315
  Ewald energy   TEWEN  =     22731.27163923
  -Hartree energ DENC   =    -30966.93774877
  -exchange      EXHF   =         0.00000000
  -V(xc)+E(xc)   XCENC  =       325.41629502
  PAW double counting   =      5334.45189010    -5139.13784255
  entropy T*S    EENTRO =         0.00000000
  eigenvalues    EBANDS =     -1796.69932838
  atomic energy  EATOM  =      8936.14004472
  Solvation  Ediel_sol  =         0.00000000
  ---------------------------------------------------
  free energy    TOTEN  =      -197.39596747 eV

  energy without entropy =     -197.39596747  energy(sigma->0) =     -197.39596747


--------------------------------------------------------------------------------------------------------




--------------------------------------- Iteration      1(   5)  ---------------------------------------


     EDDAV:  cpu time    8.7407: real time    8.7428
 BZINTS: Fermi energy: -4.448521;128.000000 electrons
         Band energy:***********;  BLOECHL correction:  0.000000
       DOS:  cpu time    0.0020: real time    0.0016
    CHARGE:  cpu time    0.1860: real time    0.1861
    MIXING:  cpu time    0.0030: real time    0.0026
    --------------------------------------------
      LOOP:  cpu time    8.9316: real time    8.9331

 eigenvalue-minimisations  :  3240
 total energy-change (2. order) :-0.1090730E+01  (-0.1090259E+01)
 number of electron     128.0000627 magnetization 
 augmentation part       13.5712918 magnetization 

 Broyden mixing:
  rms(total) = 0.36999E+01    rms(broyden)= 0.36989E+01
  rms(prec ) = 0.42091E+01
  weight for this iteration     100.00

 Free energy of the ion-electron system (eV)
  ---------------------------------------------------
  alpha Z        PSCENC =       378.09908315
  Ewald energy   TEWEN  =     22731.27163923
  -Hartree energ DENC   =    -30966.93774877
  -exchange      EXHF   =         0.00000000
  -V(xc)+E(xc)   XCENC  =       325.41629502
  PAW double counting   =      5334.45189010    -5139.13784255
  entropy T*S    EENTRO =         0.00000000
  eigenvalues    EBANDS =     -1797.79005817
  atomic energy  EATOM  =      8936.14004472
  Solvation  Ediel_sol  =         0.00000000
  ---------------------------------------------------
  free energy    TOTEN  =      -198.48669727 eV

  energy without entropy =     -198.48669727  energy(sigma->0) =     -198.48669727


--------------------------------------------------------------------------------------------------------




--------------------------------------- Iteration      1(   6)  ---------------------------------------


    POTLOK:  cpu time    0.0800: real time    0.0826
    SETDIJ:  cpu time    0.0100: real time    0.0101
    EDDIAG:  cpu time    0.6069: real time    0.6070
  RMM-DIIS:  cpu time    5.0142: real time    5.0126
    ORTHCH:  cpu time    0.1180: real time    0.1187
 BZINTS: Fermi energy: -0.981819;128.000000 electrons
         Band energy:***********;  BLOECHL correction: -0.117331
       DOS:  cpu time    0.0100: real time    0.0097
    CHARGE:  cpu time    0.1880: real time    0.1877
    MIXING:  cpu time    0.0020: real time    0.0025
    --------------------------------------------
      LOOP:  cpu time    6.0291: real time    6.0309

 eigenvalue-minimisations  :  2400
 total energy-change (2. order) :-0.6716785E+01  (-0.3829357E+02)
 number of electron     128.0000298 magnetization 
 augmentation part       17.2056940 magnetization 

 Broyden mixing:
  rms(total) = 0.51803E+01    rms(broyden)= 0.51782E+01
  rms(prec ) = 0.80711E+01
  weight for this iteration     100.00

 eigenvalues of (default mixing * dielectric matrix)
  average eigenvalue GAMMA=   0.4068
  0.4068

 Free energy of the ion-electron system (eV)
  ---------------------------------------------------
  alpha Z        PSCENC =       378.09908315
  Ewald energy   TEWEN  =     22731.27163923
  -Hartree energ DENC   =    -31251.97779209
  -exchange      EXHF   =         0.00000000
  -V(xc)+E(xc)   XCENC  =       345.39926340
  PAW double counting   =      5964.72029283    -5781.97805186
  entropy T*S    EENTRO =         0.00000000
  eigenvalues    EBANDS =     -1526.87796209
  atomic energy  EATOM  =      8936.14004472
  Solvation  Ediel_sol  =         0.00000000
  ---------------------------------------------------
  free energy    TOTEN  =      -205.20348271 eV

  energy without entropy =     -205.20348271  energy(sigma->0) =     -205.20348271


--------------------------------------------------------------------------------------------------------




--------------------------------------- Iteration      1(   7)  ---------------------------------------


    POTLOK:  cpu time    0.0710: real time    0.0725
    SETDIJ:  cpu time    0.0100: real time    0.0099
    EDDIAG:  cpu time    0.6039: real time    0.6043
  RMM-DIIS:  cpu time    4.5093: real time    4.5080
    ORTHCH:  cpu time    0.1250: real time    0.1249
 BZINTS: Fermi energy: -1.110000;128.000000 electrons
         Band energy:***********;  BLOECHL correction: -0.164038
       DOS:  cpu time    0.0100: real time    0.0104
    CHARGE:  cpu time    0.1910: real time    0.1906
    MIXING:  cpu time    0.0030: real time    0.0027
    --------------------------------------------
      LOOP:  cpu time    5.5232: real time    5.5233

 eigenvalue-minimisations  :  2142
 total energy-change (2. order) : 0.3332606E+02  (-0.9353941E+01)
 number of electron     128.0000454 magnetization 
 augmentation part       14.2777386 magnetization 

 Broyden mixing:
  rms(total) = 0.20879E+01    rms(broyden)= 0.20846E+01
  rms(prec ) = 0.32374E+01
  weight for this iteration     100.00

 eigenvalues of (default mixing * dielectric matrix)
  average eigenvalue GAMMA=   0.4397
  0.6469  0.2325

 Free energy of the ion-electron system (eV)
  ---------------------------------------------------
  alpha Z        PSCENC =       378.09908315
  Ewald energy   TEWEN  =     22731.27163923
  -Hartree energ DENC   =    -31264.66020384
  -exchange      EXHF   =         0.00000000
  -V(xc)+E(xc)   XCENC  =       340.55551106
  PAW double counting   =      5928.11518655    -5748.29054793
  entropy T*S    EENTRO =         0.00000000
  eigenvalues    EBANDS =     -1473.10813835
  atomic energy  EATOM  =      8936.14004472
  Solvation  Ediel_sol  =         0.00000000
  ---------------------------------------------------
  free energy    TOTEN  =      -171.87742541 eV

  energy without entropy =     -171.87742541  energy(sigma->0) =     -171.87742541


--------------------------------------------------------------------------------------------------------




--------------------------------------- Iteration      1(   8)  ---------------------------------------


    POTLOK:  cpu time    0.0780: real time    0.0820
    SETDIJ:  cpu time    0.0100: real time    0.0102
    EDDIAG:  cpu time    0.5939: real time    0.5937
  RMM-DIIS:  cpu time    4.3483: real time    4.3479
    ORTHCH:  cpu time    0.1240: real time    0.1243
 BZINTS: Fermi energy: -1.994683;128.000000 electrons
         Band energy:***********;  BLOECHL correction:  0.000000
       DOS:  cpu time    0.0010: real time    0.0016
    CHARGE:  cpu time    0.1860: real time    0.1856
    MIXING:  cpu time    0.0030: real time    0.0033
    --------------------------------------------
      LOOP:  cpu time    5.3442: real time    5.3486

 eigenvalue-minimisations  :  2096
 total energy-change (2. order) : 0.1137556E+02  (-0.2078638E+01)
 number of electron     128.0000504 magnetization 
 augmentation part       12.9555383 magnetization 

 Broyden mixing:
  rms(total) = 0.15081E+01    rms(broyden)= 0.15074E+01
  rms(prec ) = 0.19992E+01
  weight for this iteration     100.00

 eigenvalues of (default mixing * dielectric matrix)
  average eigenvalue GAMMA=   0.4521
  0.7623  0.2969  0.2969

 Free energy of the ion-electron system (eV)
  ---------------------------------------------------
  alpha Z        PSCENC =       378.09908315
  Ewald energy   TEWEN  =     22731.27163923
  -Hartree energ DENC   =    -31258.92726507
  -exchange      EXHF   =         0.00000000
  -V(xc)+E(xc)   XCENC  =       338.31316846
  PAW double counting   =      5959.41233979    -5782.90007727
  entropy T*S    EENTRO =         0.00000000
  eigenvalues    EBANDS =     -1461.91080173
  atomic energy  EATOM  =      8936.14004472
  Solvation  Ediel_sol  =         0.00000000
  ---------------------------------------------------
  free energy    TOTEN  =      -160.50186872 eV

  energy without entropy =     -160.50186872  energy(sigma->0) =     -160.50186872


--------------------------------------------------------------------------------------------------------




--------------------------------------- Iteration      1(   9)  ---------------------------------------


    POTLOK:  cpu time    0.0770: real time    0.0813
    SETDIJ:  cpu time    0.0110: real time    0.0101
    EDDIAG:  cpu time    0.6079: real time    0.6088
  RMM-DIIS:  cpu time    4.8763: real time    4.8742
    ORTHCH:  cpu time    0.1230: real time    0.1237
 BZINTS: Fermi energy: -1.780469;128.000000 electrons
         Band energy:***********;  BLOECHL correction:  0.000000
       DOS:  cpu time    0.0020: real time    0.0017
    CHARGE:  cpu time    0.1850: real time    0.1852
    MIXING:  cpu time    0.0030: real time    0.0029
    --------------------------------------------
      LOOP:  cpu time    5.8851: real time    5.8879

 eigenvalue-minimisations  :  2361
 total energy-change (2. order) : 0.4300925E+01  (-0.2014707E+00)
 number of electron     128.0000500 magnetization 
 augmentation part       13.0727167 magnetization 

 Broyden mixing:
  rms(total) = 0.12368E+01    rms(broyden)= 0.12367E+01
  rms(prec ) = 0.17465E+01
  weight for this iteration     100.00

 eigenvalues of (default mixing * dielectric matrix)
  average eigenvalue GAMMA=   0.9293
  1.9428  1.0112  0.2571  0.5062

 Free energy of the ion-electron system (eV)
  ---------------------------------------------------
  alpha Z        PSCENC =       378.09908315
  Ewald energy   TEWEN  =     22731.27163923
  -Hartree energ DENC   =    -31283.80073642
  -exchange      EXHF   =         0.00000000
  -V(xc)+E(xc)   XCENC  =       339.32121910
  PAW double counting   =      6021.03860842    -5846.00958384
  entropy T*S    EENTRO =         0.00000000
  eigenvalues    EBANDS =     -1432.26121780
  atomic energy  EATOM  =      8936.14004472
  Solvation  Ediel_sol  =         0.00000000
  ---------------------------------------------------
  free energy    TOTEN  =      -156.20094345 eV

  energy without entropy =     -156.20094345  energy(sigma->0) =     -156.20094345


--------------------------------------------------------------------------------------------------------




--------------------------------------- Iteration      1(  10)  ---------------------------------------


    POTLOK:  cpu time    0.0780: real time    0.0830
    SETDIJ:  cpu time    0.0100: real time    0.0101
    EDDIAG:  cpu time    0.6089: real time    0.6091
  RMM-DIIS:  cpu time    4.5193: real time    4.5182
    ORTHCH:  cpu time    0.1240: real time    0.1241
 BZINTS: Fermi energy: -0.648700;128.000000 electrons
         Band energy:***********;  BLOECHL correction: -0.059617
       DOS:  cpu time    0.0090: real time    0.0099
    CHARGE:  cpu time    0.1920: real time    0.1916
    MIXING:  cpu time    0.0040: real time    0.0029
    --------------------------------------------
      LOOP:  cpu time    5.5452: real time    5.5489

 eigenvalue-minimisations  :  2168
 total energy-change (2. order) :-0.1889283E+01  (-0.3736067E+01)
 number of electron     128.0000357 magnetization 
 augmentation part       15.2947177 magnetization 

 Broyden mixing:
  rms(total) = 0.31351E+01    rms(broyden)= 0.31335E+01
  rms(prec ) = 0.44619E+01
  weight for this iteration     100.00

 eigenvalues of (default mixing * dielectric matrix)
  average eigenvalue GAMMA=   0.7451
  1.9309  1.0157  0.5091  0.2569  0.0127

 Free energy of the ion-electron system (eV)
  ---------------------------------------------------
  alpha Z        PSCENC =       378.09908315
  Ewald energy   TEWEN  =     22731.27163923
  -Hartree energ DENC   =    -31349.12299231
  -exchange      EXHF   =         0.00000000
  -V(xc)+E(xc)   XCENC  =       342.39479664
  PAW double counting   =      6199.87135334    -6028.70278934
  entropy T*S    EENTRO =         0.00000000
  eigenvalues    EBANDS =     -1368.04136145
  atomic energy  EATOM  =      8936.14004472
  Solvation  Ediel_sol  =         0.00000000
  ---------------------------------------------------
  free energy    TOTEN  =      -158.09022601 eV

  energy without entropy =     -158.09022601  energy(sigma->0) =     -158.09022601


--------------------------------------------------------------------------------------------------------




--------------------------------------- Iteration      1(  11)  ---------------------------------------


    POTLOK:  cpu time    0.0760: real time    0.0793
    SETDIJ:  cpu time    0.0100: real time    0.0102
    EDDIAG:  cpu time    0.6119: real time    0.6120
  RMM-DIIS:  cpu time    5.7241: real time    5.7227
    ORTHCH:  cpu time    0.1240: real time    0.1239
 BZINTS: Fermi energy: -0.600898;128.000000 electrons
         Band energy:***********;  BLOECHL correction: -0.053189
       DOS:  cpu time    0.0100: real time    0.0098
    CHARGE:  cpu time    0.1910: real time    0.1911
    MIXING:  cpu time    0.0030: real time    0.0031
    --------------------------------------------
      LOOP:  cpu time    6.7500: real time    6.7521

 eigenvalue-minimisations  :  2794
 total energy-change (2. order) : 0.1432954E+01  (-0.3086823E+00)
 number of electron     128.0000360 magnetization 
 augmentation part       15.3199813 magnetization 

 Broyden mixing:
  rms(total) = 0.30878E+01    rms(broyden)= 0.30877E+01
  rms(prec ) = 0.43596E+01
  weight for this iteration     100.00

 eigenvalues of (default mixing * dielectric matrix)
  average eigenvalue GAMMA=   0.6769
  2.0793  0.9644  0.5122  0.2580  0.1430  0.1046

 Free energy of the ion-electron system (eV)
  ---------------------------------------------------
  alpha Z        PSCENC =       378.09908315
  Ewald energy   TEWEN  =     22731.27163923
  -Hartree energ DENC   =    -31346.89552228
  -exchange      EXHF   =         0.00000000
  -V(xc)+E(xc)   XCENC  =       342.34002601
  PAW double counting   =      6198.88367283    -6027.76030530
  entropy T*S    EENTRO =         0.00000000
  eigenvalues    EBANDS =     -1368.73591087
  atomic energy  EATOM  =      8936.14004472
  Solvation  Ediel_sol  =         0.00000000
  ---------------------------------------------------
  free energy    TOTEN  =      -156.65727249 eV

  energy without entropy =     -156.65727249  energy(sigma->0) =     -156.65727249


--------------------------------------------------------------------------------------------------------




--------------------------------------- Iteration      1(  12)  ---------------------------------------


    POTLOK:  cpu time    0.0770: real time    0.0815
    SETDIJ:  cpu time    0.0110: real time    0.0102
    EDDIAG:  cpu time    0.6099: real time    0.6099
  RMM-DIIS:  cpu time    5.5602: real time    5.5589
    ORTHCH:  cpu time    0.1230: real time    0.1231
 BZINTS: Fermi energy: -0.648625;128.000000 electrons
         Band energy:***********;  BLOECHL correction: -0.039106
       DOS:  cpu time    0.0090: real time    0.0095
    CHARGE:  cpu time    0.1930: real time    0.1925
    MIXING:  cpu time    0.0030: real time    0.0033
    --------------------------------------------
      LOOP:  cpu time    6.5860: real time    6.5889

 eigenvalue-minimisations  :  2671
 total energy-change (2. order) :-0.3196374E+01  (-0.1649630E+00)
 number of electron     128.0000351 magnetization 
 augmentation part       15.7048332 magnetization 

 Broyden mixing:
  rms(total) = 0.34663E+01    rms(broyden)= 0.34662E+01
  rms(prec ) = 0.49029E+01
  weight for this iteration     100.00

 eigenvalues of (default mixing * dielectric matrix)
  average eigenvalue GAMMA=   0.5847
  2.0770  0.9656  0.5120  0.2579  0.1609  0.0903  0.0294

 Free energy of the ion-electron system (eV)
  ---------------------------------------------------
  alpha Z        PSCENC =       378.09908315
  Ewald energy   TEWEN  =     22731.27163923
  -Hartree energ DENC   =    -31361.54160901
  -exchange      EXHF   =         0.00000000
  -V(xc)+E(xc)   XCENC  =       342.81357827
  PAW double counting   =      6215.86375512    -6045.05615089
  entropy T*S    EENTRO =         0.00000000
  eigenvalues    EBANDS =     -1357.44398695
  atomic energy  EATOM  =      8936.14004472
  Solvation  Ediel_sol  =         0.00000000
  ---------------------------------------------------
  free energy    TOTEN  =      -159.85364635 eV

  energy without entropy =     -159.85364635  energy(sigma->0) =     -159.85364635


--------------------------------------------------------------------------------------------------------




--------------------------------------- Iteration      1(  13)  ---------------------------------------


    POTLOK:  cpu time    0.0780: real time    0.0824
    SETDIJ:  cpu time    0.0100: real time    0.0102
    EDDIAG:  cpu time    0.6119: real time    0.6115
  RMM-DIIS:  cpu time    6.3740: real time    6.3733
    ORTHCH:  cpu time    0.1240: real time    0.1234
 BZINTS: Fermi energy: -0.659945;128.000000 electrons
         Band energy:***********;  BLOECHL correction: -0.034768
       DOS:  cpu time    0.0100: real time    0.0100
    CHARGE:  cpu time    0.1890: real time    0.1889
    MIXING:  cpu time    0.0030: real time    0.0035
    --------------------------------------------
      LOOP:  cpu time    7.3999: real time    7.4032

 eigenvalue-minimisations  :  3101
 total energy-change (2. order) : 0.9476095E-02  (-0.2951711E-01)
 number of electron     128.0000351 magnetization 
 augmentation part       15.7442356 magnetization 

 Broyden mixing:
  rms(total) = 0.35047E+01    rms(broyden)= 0.35047E+01
  rms(prec ) = 0.49658E+01
  weight for this iteration     100.00

 eigenvalues of (default mixing * dielectric matrix)
  average eigenvalue GAMMA=   0.5599
  2.0753  0.9684  0.5127  0.2580  0.2014  0.2014  0.1308  0.1308

 Free energy of the ion-electron system (eV)
  ---------------------------------------------------
  alpha Z        PSCENC =       378.09908315
  Ewald energy   TEWEN  =     22731.27163923
  -Hartree energ DENC   =    -31360.72885734
  -exchange      EXHF   =         0.00000000
  -V(xc)+E(xc)   XCENC  =       342.79083151
  PAW double counting   =      6215.73732919    -6044.92267324
  entropy T*S    EENTRO =         0.00000000
  eigenvalues    EBANDS =     -1358.23156747
  atomic energy  EATOM  =      8936.14004472
  Solvation  Ediel_sol  =         0.00000000
  ---------------------------------------------------
  free energy    TOTEN  =      -159.84417026 eV

  energy without entropy =     -159.84417026  energy(sigma->0) =     -159.84417026


--------------------------------------------------------------------------------------------------------




--------------------------------------- Iteration      1(  14)  ---------------------------------------


    POTLOK:  cpu time    0.0780: real time    0.0825
    SETDIJ:  cpu time    0.0100: real time    0.0102
    EDDIAG:  cpu time    0.6109: real time    0.6111
  RMM-DIIS:  cpu time    6.8430: real time    6.8414
    ORTHCH:  cpu time    0.1230: real time    0.1230
 BZINTS: Fermi energy: -0.657255;128.000000 electrons
         Band energy:***********;  BLOECHL correction: -0.035295
       DOS:  cpu time    0.0100: real time    0.0096
    CHARGE:  cpu time    0.1890: real time    0.1894
    MIXING:  cpu time    0.0040: real time    0.0035
    --------------------------------------------
      LOOP:  cpu time    7.8678: real time    7.8707

 eigenvalue-minimisations  :  3302
 total energy-change (2. order) : 0.1281613E+00  (-0.4725119E-02)
 number of electron     128.0000351 magnetization 
 augmentation part       15.7394278 magnetization 

 Broyden mixing:
  rms(total) = 0.34976E+01    rms(broyden)= 0.34976E+01
  rms(prec ) = 0.49518E+01
  weight for this iteration     100.00

 eigenvalues of (default mixing * dielectric matrix)
  average eigenvalue GAMMA=   0.5026
  2.0753  0.9682  0.5127  0.2580  0.2137  0.2137  0.1273  0.1273  0.0271

 Free energy of the ion-electron system (eV)
  ---------------------------------------------------
  alpha Z        PSCENC =       378.09908315
  Ewald energy   TEWEN  =     22731.27163923
  -Hartree energ DENC   =    -31359.87063116
  -exchange      EXHF   =         0.00000000
  -V(xc)+E(xc)   XCENC  =       342.77179559
  PAW double counting   =      6215.24191875    -6044.41247301
  entropy T*S    EENTRO =         0.00000000
  eigenvalues    EBANDS =     -1358.95738622
  atomic energy  EATOM  =      8936.14004472
  Solvation  Ediel_sol  =         0.00000000
  ---------------------------------------------------
  free energy    TOTEN  =      -159.71600894 eV

  energy without entropy =     -159.71600894  energy(sigma->0) =     -159.71600894


--------------------------------------------------------------------------------------------------------




--------------------------------------- Iteration      1(  15)  ---------------------------------------


    POTLOK:  cpu time    0.0770: real time    0.0828
    SETDIJ:  cpu time    0.0100: real time    0.0102
    EDDIAG:  cpu time    0.6099: real time    0.6093
  RMM-DIIS:  cpu time    6.7900: real time    6.7892
    ORTHCH:  cpu time    0.1230: real time    0.1231
 BZINTS: Fermi energy: -0.661469;128.000000 electrons
         Band energy:***********;  BLOECHL correction: -0.035935
       DOS:  cpu time    0.0100: real time    0.0095
    CHARGE:  cpu time    0.1890: real time    0.1895
    MIXING:  cpu time    0.0050: real time    0.0038
    --------------------------------------------
      LOOP:  cpu time    7.8138: real time    7.8174

 eigenvalue-minimisations  :  3292
 total energy-change (2. order) :-0.4302778E-01  (-0.2412077E-02)
 number of electron     128.0000352 magnetization 
 augmentation part       15.7485419 magnetization 

 Broyden mixing:
  rms(total) = 0.35039E+01    rms(broyden)= 0.35039E+01
  rms(prec ) = 0.49579E+01
  weight for this iteration     100.00

 eigenvalues of (default mixing * dielectric matrix)
  average eigenvalue GAMMA=   0.5134
  2.0777  0.9659  0.5126  0.3408  0.2485  0.2485  0.2580  0.1535  0.1642  0.1642

 Free energy of the ion-electron system (eV)
  ---------------------------------------------------
  alpha Z        PSCENC =       378.09908315
  Ewald energy   TEWEN  =     22731.27163923
  -Hartree energ DENC   =    -31360.09725649
  -exchange      EXHF   =         0.00000000
  -V(xc)+E(xc)   XCENC  =       342.77986394
  PAW double counting   =      6215.31674741    -6044.48970208
  entropy T*S    EENTRO =         0.00000000
  eigenvalues    EBANDS =     -1358.77945661
  atomic energy  EATOM  =      8936.14004472
  Solvation  Ediel_sol  =         0.00000000
  ---------------------------------------------------
  free energy    TOTEN  =      -159.75903673 eV

  energy without entropy =     -159.75903673  energy(sigma->0) =     -159.75903673


--------------------------------------------------------------------------------------------------------




--------------------------------------- Iteration      1(  16)  ---------------------------------------


    POTLOK:  cpu time    0.0770: real time    0.0806
    SETDIJ:  cpu time    0.0100: real time    0.0100
    EDDIAG:  cpu time    0.6089: real time    0.6089
  RMM-DIIS:  cpu time    4.5613: real time    4.5603
    ORTHCH:  cpu time    0.1170: real time    0.1184
 BZINTS: Fermi energy: -0.664272;128.000000 electrons
         Band energy:***********;  BLOECHL correction: -0.047086
       DOS:  cpu time    0.0100: real time    0.0097
    CHARGE:  cpu time    0.1860: real time    0.1856
    MIXING:  cpu time    0.0040: real time    0.0037
    --------------------------------------------
      LOOP:  cpu time    5.5742: real time    5.5773

 eigenvalue-minimisations  :  2180
 total energy-change (2. order) : 0.1762556E+01  (-0.1580546E-01)
 number of electron     128.0000356 magnetization 
 augmentation part       15.6098324 magnetization 

 Broyden mixing:
  rms(total) = 0.33012E+01    rms(broyden)= 0.33012E+01
  rms(prec ) = 0.46338E+01
  weight for this iteration     100.00

 eigenvalues of (default mixing * dielectric matrix)
  average eigenvalue GAMMA=   0.6303
  2.1052  0.8330  0.8330  0.9444  0.5043  0.3683  0.3683  0.2386  0.2386  0.2498
  0.2498

 Free energy of the ion-electron system (eV)
  ---------------------------------------------------
  alpha Z        PSCENC =       378.09908315
  Ewald energy   TEWEN  =     22731.27163923
  -Hartree energ DENC   =    -31348.84051433
  -exchange      EXHF   =         0.00000000
  -V(xc)+E(xc)   XCENC  =       342.49747885
  PAW double counting   =      6208.25669011    -6037.25311964
  entropy T*S    EENTRO =         0.00000000
  eigenvalues    EBANDS =     -1368.16778245
  atomic energy  EATOM  =      8936.14004472
  Solvation  Ediel_sol  =         0.00000000
  ---------------------------------------------------
  free energy    TOTEN  =      -157.99648037 eV

  energy without entropy =     -157.99648037  energy(sigma->0) =     -157.99648037


--------------------------------------------------------------------------------------------------------




--------------------------------------- Iteration      1(  17)  ---------------------------------------


    POTLOK:  cpu time    0.0710: real time    0.0746
    SETDIJ:  cpu time    0.0100: real time    0.0101
    EDDIAG:  cpu time    0.5819: real time    0.5822
  RMM-DIIS:  cpu time    4.4703: real time    4.4688
    ORTHCH:  cpu time    0.1220: real time    0.1234
 BZINTS: Fermi energy: -0.640031;128.000000 electrons
         Band energy:***********;  BLOECHL correction: -0.044192
       DOS:  cpu time    0.0100: real time    0.0099
    CHARGE:  cpu time    0.1930: real time    0.1919
    MIXING:  cpu time    0.0050: real time    0.0044
    --------------------------------------------
      LOOP:  cpu time    5.4632: real time    5.4651

 eigenvalue-minimisations  :  2131
 total energy-change (2. order) : 0.4855990E+01  (-0.2448429E+00)
 number of electron     128.0000382 magnetization 
 augmentation part       14.9083305 magnetization 

 Broyden mixing:
  rms(total) = 0.24145E+01    rms(broyden)= 0.24143E+01
  rms(prec ) = 0.33967E+01
  weight for this iteration     100.00

 eigenvalues of (default mixing * dielectric matrix)
  average eigenvalue GAMMA=   0.6308
  2.0792  0.9791  0.9791  0.9611  0.4306  0.4306  0.4983  0.2628  0.2628  0.2558
  0.2150  0.2150

 Free energy of the ion-electron system (eV)
  ---------------------------------------------------
  alpha Z        PSCENC =       378.09908315
  Ewald energy   TEWEN  =     22731.27163923
  -Hartree energ DENC   =    -31320.47242031
  -exchange      EXHF   =         0.00000000
  -V(xc)+E(xc)   XCENC  =       341.57103313
  PAW double counting   =      6196.50870313    -6025.23126017
  entropy T*S    EENTRO =         0.00000000
  eigenvalues    EBANDS =     -1391.02731275
  atomic energy  EATOM  =      8936.14004472
  Solvation  Ediel_sol  =         0.00000000
  ---------------------------------------------------
  free energy    TOTEN  =      -153.14048988 eV

  energy without entropy =     -153.14048988  energy(sigma->0) =     -153.14048988


--------------------------------------------------------------------------------------------------------




--------------------------------------- Iteration      1(  18)  ---------------------------------------


    POTLOK:  cpu time    0.0790: real time    0.0831
    SETDIJ:  cpu time    0.0100: real time    0.0101
    EDDIAG:  cpu time    0.6109: real time    0.6100
  RMM-DIIS:  cpu time    4.4973: real time    4.4964
    ORTHCH:  cpu time    0.1230: real time    0.1237
 BZINTS: Fermi energy: -0.811405;128.000000 electrons
         Band energy:***********;  BLOECHL correction: -0.025873
       DOS:  cpu time    0.0090: real time    0.0094
    CHARGE:  cpu time    0.1880: real time    0.1878
    MIXING:  cpu time    0.0050: real time    0.0046
    --------------------------------------------
      LOOP:  cpu time    5.5222: real time    5.5253

 eigenvalue-minimisations  :  2182
 total energy-change (2. order) : 0.3013198E+01  (-0.1133191E+01)
 number of electron     128.0000449 magnetization 
 augmentation part       13.3633476 magnetization 

 Broyden mixing:
  rms(total) = 0.73452E+00    rms(broyden)= 0.72738E+00
  rms(prec ) = 0.84630E+00
  weight for this iteration     100.00

 eigenvalues of (default mixing * dielectric matrix)
  average eigenvalue GAMMA=   0.5925
  2.0615  0.9749  0.9749  0.9666  0.4978  0.4283  0.4283  0.2451  0.2451  0.2396
  0.2396  0.2004  0.2004

 Free energy of the ion-electron system (eV)
  ---------------------------------------------------
  alpha Z        PSCENC =       378.09908315
  Ewald energy   TEWEN  =     22731.27163923
  -Hartree energ DENC   =    -31247.72410502
  -exchange      EXHF   =         0.00000000
  -V(xc)+E(xc)   XCENC  =       339.46922208
  PAW double counting   =      6161.35199308    -5989.18394906
  entropy T*S    EENTRO =         0.00000000
  eigenvalues    EBANDS =     -1459.55122052
  atomic energy  EATOM  =      8936.14004472
  Solvation  Ediel_sol  =         0.00000000
  ---------------------------------------------------
  free energy    TOTEN  =      -150.12729233 eV

  energy without entropy =     -150.12729233  energy(sigma->0) =     -150.12729233


--------------------------------------------------------------------------------------------------------




--------------------------------------- Iteration      1(  19)  ---------------------------------------


    POTLOK:  cpu time    0.0800: real time    0.0839
    SETDIJ:  cpu time    0.0100: real time    0.0102
    EDDIAG:  cpu time    0.6139: real time    0.6140
  RMM-DIIS:  cpu time    5.1932: real time    5.1924
    ORTHCH:  cpu time    0.1230: real time    0.1235
 BZINTS: Fermi energy: -0.806403;128.000000 electrons
         Band energy:***********;  BLOECHL correction: -0.025680
       DOS:  cpu time    0.0090: real time    0.0092
    CHARGE:  cpu time    0.1890: real time    0.1882
    MIXING:  cpu time    0.0050: real time    0.0049
    --------------------------------------------
      LOOP:  cpu time    6.2231: real time    6.2263

 eigenvalue-minimisations  :  2486
 total energy-change (2. order) :-0.3174653E-01  (-0.1743477E+00)
 number of electron     128.0000455 magnetization 
 augmentation part       13.3001037 magnetization 

 Broyden mixing:
  rms(total) = 0.73586E+00    rms(broyden)= 0.73556E+00
  rms(prec ) = 0.85363E+00
  weight for this iteration     100.00

 eigenvalues of (default mixing * dielectric matrix)
  average eigenvalue GAMMA=   0.6219
  2.0046  0.9669  0.9669  0.9463  0.5872  0.5872  0.5411  0.3990  0.3990  0.2792
  0.2792  0.2609  0.2443  0.2443

 Free energy of the ion-electron system (eV)
  ---------------------------------------------------
  alpha Z        PSCENC =       378.09908315
  Ewald energy   TEWEN  =     22731.27163923
  -Hartree energ DENC   =    -31244.00879591
  -exchange      EXHF   =         0.00000000
  -V(xc)+E(xc)   XCENC  =       339.35855866
  PAW double counting   =      6159.55522747    -5987.36099999
  entropy T*S    EENTRO =         0.00000000
  eigenvalues    EBANDS =     -1463.21379618
  atomic energy  EATOM  =      8936.14004472
  Solvation  Ediel_sol  =         0.00000000
  ---------------------------------------------------
  free energy    TOTEN  =      -150.15903886 eV

  energy without entropy =     -150.15903886  energy(sigma->0) =     -150.15903886


--------------------------------------------------------------------------------------------------------




--------------------------------------- Iteration      1(  20)  ---------------------------------------


    POTLOK:  cpu time    0.0790: real time    0.0822
    SETDIJ:  cpu time    0.0100: real time    0.0099
    EDDIAG:  cpu time    0.5789: real time    0.5779
  RMM-DIIS:  cpu time    4.5243: real time    4.5234
    ORTHCH:  cpu time    0.1230: real time    0.1233
 BZINTS: Fermi energy: -0.693186;128.000000 electrons
         Band energy:***********;  BLOECHL correction: -0.017551
       DOS:  cpu time    0.0100: real time    0.0099
    CHARGE:  cpu time    0.1880: real time    0.1879
    MIXING:  cpu time    0.0050: real time    0.0050
    --------------------------------------------
      LOOP:  cpu time    5.5182: real time    5.5196

 eigenvalue-minimisations  :  2158
 total energy-change (2. order) : 0.1849965E+00  (-0.9537919E-01)
 number of electron     128.0000443 magnetization 
 augmentation part       13.3312298 magnetization 

 Broyden mixing:
  rms(total) = 0.68796E+00    rms(broyden)= 0.68793E+00
  rms(prec ) = 0.78264E+00
  weight for this iteration     100.00

 eigenvalues of (default mixing * dielectric matrix)
  average eigenvalue GAMMA=   0.5841
  2.0071  0.9681  0.9681  0.9453  0.5975  0.5975  0.5398  0.4011  0.4011  0.2791
  0.2791  0.2608  0.2437  0.2437  0.0292

 Free energy of the ion-electron system (eV)
  ---------------------------------------------------
  alpha Z        PSCENC =       378.09908315
  Ewald energy   TEWEN  =     22731.27163923
  -Hartree energ DENC   =    -31260.74683982
  -exchange      EXHF   =         0.00000000
  -V(xc)+E(xc)   XCENC  =       340.16580365
  PAW double counting   =      6176.30373171    -6004.39212785
  entropy T*S    EENTRO =         0.00000000
  eigenvalues    EBANDS =     -1446.81537714
  atomic energy  EATOM  =      8936.14004472
  Solvation  Ediel_sol  =         0.00000000
  ---------------------------------------------------
  free energy    TOTEN  =      -149.97404235 eV

  energy without entropy =     -149.97404235  energy(sigma->0) =     -149.97404235


--------------------------------------------------------------------------------------------------------




--------------------------------------- Iteration      1(  21)  ---------------------------------------


    POTLOK:  cpu time    0.0800: real time    0.0843
    SETDIJ:  cpu time    0.0100: real time    0.0101
    EDDIAG:  cpu time    0.6099: real time    0.6089
  RMM-DIIS:  cpu time    4.9532: real time    4.9533
    ORTHCH:  cpu time    0.1250: real time    0.1249
 BZINTS: Fermi energy: -0.666383;128.000000 electrons
         Band energy:***********;  BLOECHL correction: -0.011636
       DOS:  cpu time    0.0090: real time    0.0087
    CHARGE:  cpu time    0.1870: real time    0.1876
    MIXING:  cpu time    0.0050: real time    0.0051
    --------------------------------------------
      LOOP:  cpu time    5.9791: real time    5.9827

 eigenvalue-minimisations  :  2402
 total energy-change (2. order) : 0.8148825E-01  (-0.1309068E-01)
 number of electron     128.0000441 magnetization 
 augmentation part       13.3457323 magnetization 

 Broyden mixing:
  rms(total) = 0.67491E+00    rms(broyden)= 0.67490E+00
  rms(prec ) = 0.76752E+00
  weight for this iteration     100.00

 eigenvalues of (default mixing * dielectric matrix)
  average eigenvalue GAMMA=   0.6861
  1.9646  0.9949  0.9949  1.0310  1.0310  1.0355  0.6178  0.5289  0.5289  0.4460
  0.4460  0.2989  0.2989  0.2628  0.2484  0.2484

 Free energy of the ion-electron system (eV)
  ---------------------------------------------------
  alpha Z        PSCENC =       378.09908315
  Ewald energy   TEWEN  =     22731.27163923
  -Hartree energ DENC   =    -31262.00728439
  -exchange      EXHF   =         0.00000000
  -V(xc)+E(xc)   XCENC  =       340.26929229
  PAW double counting   =      6180.00619773    -6008.14514200
  entropy T*S    EENTRO =         0.00000000
  eigenvalues    EBANDS =     -1445.52638483
  atomic energy  EATOM  =      8936.14004472
  Solvation  Ediel_sol  =         0.00000000
  ---------------------------------------------------
  free energy    TOTEN  =      -149.89255410 eV

  energy without entropy =     -149.89255410  energy(sigma->0) =     -149.89255410


--------------------------------------------------------------------------------------------------------




--------------------------------------- Iteration      1(  22)  ---------------------------------------


    POTLOK:  cpu time    0.0830: real time    0.0854
    SETDIJ:  cpu time    0.0100: real time    0.0102
    EDDIAG:  cpu time    0.6109: real time    0.6100
  RMM-DIIS:  cpu time    4.4443: real time    4.4436
    ORTHCH:  cpu time    0.1240: real time    0.1240
 BZINTS: Fermi energy: -0.732957;128.000000 electrons
         Band energy:***********;  BLOECHL correction: -0.018855
       DOS:  cpu time    0.0090: real time    0.0094
    CHARGE:  cpu time    0.1870: real time    0.1874
    MIXING:  cpu time    0.0060: real time    0.0055
    --------------------------------------------
      LOOP:  cpu time    5.4742: real time    5.4755

 eigenvalue-minimisations  :  2141
 total energy-change (2. order) : 0.1637059E+00  (-0.2315602E+00)
 number of electron     128.0000456 magnetization 
 augmentation part       13.2375574 magnetization 

 Broyden mixing:
  rms(total) = 0.58409E+00    rms(broyden)= 0.58394E+00
  rms(prec ) = 0.71854E+00
  weight for this iteration     100.00

 eigenvalues of (default mixing * dielectric matrix)
  average eigenvalue GAMMA=   0.7138
  2.0862  1.2217  1.2217  1.0417  1.0417  0.9632  0.6122  0.6122  0.5386  0.5386
  0.4486  0.4486  0.3001  0.3001  0.2629  0.2481  0.2481

 Free energy of the ion-electron system (eV)
  ---------------------------------------------------
  alpha Z        PSCENC =       378.09908315
  Ewald energy   TEWEN  =     22731.27163923
  -Hartree energ DENC   =    -31245.23164505
  -exchange      EXHF   =         0.00000000
  -V(xc)+E(xc)   XCENC  =       339.38744810
  PAW double counting   =      6172.36156247    -6000.50759533
  entropy T*S    EENTRO =         0.00000000
  eigenvalues    EBANDS =     -1461.24938546
  atomic energy  EATOM  =      8936.14004472
  Solvation  Ediel_sol  =         0.00000000
  ---------------------------------------------------
  free energy    TOTEN  =      -149.72884818 eV

  energy without entropy =     -149.72884818  energy(sigma->0) =     -149.72884818


--------------------------------------------------------------------------------------------------------




--------------------------------------- Iteration      1(  23)  ---------------------------------------


    POTLOK:  cpu time    0.0830: real time    0.0870
    SETDIJ:  cpu time    0.0100: real time    0.0100
    EDDIAG:  cpu time    0.6079: real time    0.6077
  RMM-DIIS:  cpu time    4.3683: real time    4.3677
    ORTHCH:  cpu time    0.1200: real time    0.1194
 BZINTS: Fermi energy: -0.624258;128.000000 electrons
         Band energy:***********;  BLOECHL correction: -0.021333
       DOS:  cpu time    0.0090: real time    0.0096
    CHARGE:  cpu time    0.1890: real time    0.1890
    MIXING:  cpu time    0.0060: real time    0.0060
    --------------------------------------------
      LOOP:  cpu time    5.3932: real time    5.3965

 eigenvalue-minimisations  :  2128
 total energy-change (2. order) : 0.5084944E+00  (-0.1202917E+00)
 number of electron     128.0000444 magnetization 
 augmentation part       13.3809577 magnetization 

 Broyden mixing:
  rms(total) = 0.39213E+00    rms(broyden)= 0.39019E+00
  rms(prec ) = 0.48859E+00
  weight for this iteration     100.00

 eigenvalues of (default mixing * dielectric matrix)
  average eigenvalue GAMMA=   0.7069
  2.1212  1.3020  1.3020  1.0312  1.0312  0.9880  0.6384  0.6384  0.4530  0.4530
  0.4956  0.4956  0.4135  0.3011  0.3011  0.2629  0.2483  0.2483

 Free energy of the ion-electron system (eV)
  ---------------------------------------------------
  alpha Z        PSCENC =       378.09908315
  Ewald energy   TEWEN  =     22731.27163923
  -Hartree energ DENC   =    -31276.22012316
  -exchange      EXHF   =         0.00000000
  -V(xc)+E(xc)   XCENC  =       340.24006640
  PAW double counting   =      6199.08864033    -6027.98007710
  entropy T*S    EENTRO =         0.00000000
  eigenvalues    EBANDS =     -1429.85962734
  atomic energy  EATOM  =      8936.14004472
  Solvation  Ediel_sol  =         0.00000000
  ---------------------------------------------------
  free energy    TOTEN  =      -149.22035377 eV

  energy without entropy =     -149.22035377  energy(sigma->0) =     -149.22035377


--------------------------------------------------------------------------------------------------------




--------------------------------------- Iteration      1(  24)  ---------------------------------------


    POTLOK:  cpu time    0.0820: real time    0.0834
    SETDIJ:  cpu time    0.0100: real time    0.0101
    EDDIAG:  cpu time    0.6109: real time    0.6096
  RMM-DIIS:  cpu time    4.8193: real time    4.8189
    ORTHCH:  cpu time    0.1240: real time    0.1239
 BZINTS: Fermi energy: -0.697943;128.000000 electrons
         Band energy:***********;  BLOECHL correction: -0.021795
       DOS:  cpu time    0.0080: real time    0.0090
    CHARGE:  cpu time    0.1900: real time    0.1899
    MIXING:  cpu time    0.0070: real time    0.0059
    --------------------------------------------
      LOOP:  cpu time    5.8511: real time    5.8507

 eigenvalue-minimisations  :  2294
 total energy-change (2. order) : 0.1353821E+00  (-0.2288241E-01)
 number of electron     128.0000452 magnetization 
 augmentation part       13.3587250 magnetization 

 Broyden mixing:
  rms(total) = 0.27157E+00    rms(broyden)= 0.27134E+00
  rms(prec ) = 0.30952E+00
  weight for this iteration     100.00

 eigenvalues of (default mixing * dielectric matrix)
  average eigenvalue GAMMA=   0.7083
  2.1550  1.4362  1.4362  1.0254  1.0254  1.0151  0.6381  0.6381  0.5581  0.4538
  0.4538  0.4669  0.4669  0.3000  0.3000  0.2629  0.2482  0.2482  0.3298

 Free energy of the ion-electron system (eV)
  ---------------------------------------------------
  alpha Z        PSCENC =       378.09908315
  Ewald energy   TEWEN  =     22731.27163923
  -Hartree energ DENC   =    -31277.18551247
  -exchange      EXHF   =         0.00000000
  -V(xc)+E(xc)   XCENC  =       340.13344009
  PAW double counting   =      6197.84593840    -6026.75665231
  entropy T*S    EENTRO =         0.00000000
  eigenvalues    EBANDS =     -1428.63295246
  atomic energy  EATOM  =      8936.14004472
  Solvation  Ediel_sol  =         0.00000000
  ---------------------------------------------------
  free energy    TOTEN  =      -149.08497165 eV

  energy without entropy =     -149.08497165  energy(sigma->0) =     -149.08497165


[...]
     43      -4.9137      2.00000
     44      -4.7465      2.00000
     45      -4.2500      2.00000
     46      -4.2425      2.00000
     47      -4.1572      2.00000
     48      -4.0983      2.00000
     49      -3.9553      2.00000
     50      -3.8215      2.00000
     51      -3.6918      2.00000
     52      -3.4880      2.00000
     53      -3.4478      2.00000
     54      -2.9257      2.00000
     55      -2.8871      2.00000
     56      -2.8487      2.00000
     57      -2.1586      2.00000
     58      -2.0549      2.00000
     59      -2.0014      2.00000
     60      -1.7422      2.00000
     61      -1.2496      2.00000
     62      -1.2086      2.00000
     63      -0.9495      2.01164
     64      -0.8060      1.98451
     65      -0.7850      1.05849
     66      -0.3437      0.00000
     67      -0.1801      0.00000
     68       0.2506      0.00000
     69       0.4567      0.00000
     70       0.9927      0.00000
     71       1.0175      0.00000
     72       1.0449      0.00000
     73       1.8299      0.00000
     74       1.8799      0.00000
     75       3.0796      0.00000
     76       3.1269      0.00000

 k-point    10 :       0.0000    0.4286    0.0000
  band No.  band energies     occupation 
      1     -36.5805      2.00000
      2     -35.2519      2.00000
      3     -34.2898      2.00000
      4     -33.3970      2.00000
      5     -20.4036      2.00000
      6     -19.7307      2.00000
      7     -19.5759      2.00000
      8     -19.2001      2.00000
      9     -19.0809      2.00000
     10     -18.7290      2.00000
     11     -18.5504      2.00000
     12     -18.4140      2.00000
     13     -18.4058      2.00000
     14     -18.1944      2.00000
     15     -18.0701      2.00000
     16     -17.5836      2.00000
     17     -17.4363      2.00000
     18     -17.2057      2.00000
     19     -17.1614      2.00000
     20     -16.9850      2.00000
     21     -16.6408      2.00000
     22     -16.4836      2.00000
     23     -16.1832      2.00000
     24     -16.1129      2.00000
     25     -16.0091      2.00000
     26     -15.5229      2.00000
     27     -15.4537      2.00000
     28     -15.1316      2.00000
     29      -7.5870      2.00000
     30      -6.9890      2.00000
     31      -6.7212      2.00000
     32      -6.6108      2.00000
     33      -6.6048      2.00000
     34      -6.5376      2.00000
     35      -6.3709      2.00000
     36      -5.9799      2.00000
     37      -5.8403      2.00000
     38      -5.6513      2.00000
     39      -5.5753      2.00000
     40      -5.4879      2.00000
     41      -5.1500      2.00000
     42      -4.9805      2.00000
     43      -4.9199      2.00000
     44      -4.7378      2.00000
     45      -4.6217      2.00000
     46      -4.5869      2.00000
     47      -4.4474      2.00000
     48      -4.1739      2.00000
     49      -4.0805      2.00000
     50      -3.7252      2.00000
     51      -3.5585      2.00000
     52      -3.5015      2.00000
     53      -3.0145      2.00000
     54      -2.8716      2.00000
     55      -2.7668      2.00000
     56      -2.7459      2.00000
     57      -2.3123      2.00000
     58      -2.1517      2.00000
     59      -1.8953      2.00000
     60      -1.4411      2.00000
     61      -1.2913      2.00000
     62      -0.8795      2.00000
     63      -0.7445      0.27730
     64      -0.7188     -0.07187
     65      -0.5613      0.00000
     66      -0.4186      0.00000
     67      -0.1920      0.00000
     68       0.6436      0.00000
     69       0.7108      0.00000
     70       0.7637      0.00000
     71       1.3871      0.00000
     72       1.4302      0.00000
     73       1.8039      0.00000
     74       2.2658      0.00000
     75       3.4327      0.00000
     76       3.5235      0.00000

 k-point    11 :       0.2000    0.4286    0.0000
  band No.  band energies     occupation 
      1     -36.5804      2.00000
      2     -35.2517      2.00000
      3     -34.2897      2.00000
      4     -33.3969      2.00000
      5     -20.3417      2.00000
      6     -19.8711      2.00000
      7     -19.6453      2.00000
      8     -19.1655      2.00000
      9     -19.1122      2.00000
     10     -18.5758      2.00000
     11     -18.5208      2.00000
     12     -18.5053      2.00000
     13     -18.4260      2.00000
     14     -18.1715      2.00000
     15     -18.1367      2.00000
     16     -17.6676      2.00000
     17     -17.3067      2.00000
     18     -17.2219      2.00000
     19     -17.1143      2.00000
     20     -17.0487      2.00000
     21     -16.6237      2.00000
     22     -16.3528      2.00000
     23     -16.2212      2.00000
     24     -16.1051      2.00000
     25     -16.0224      2.00000
     26     -15.4556      2.00000
     27     -15.3914      2.00000
     28     -15.0930      2.00000
     29      -7.5971      2.00000
     30      -6.9573      2.00000
     31      -6.8062      2.00000
     32      -6.7648      2.00000
     33      -6.6429      2.00000
     34      -6.5922      2.00000
     35      -6.2833      2.00000
     36      -5.9931      2.00000
     37      -5.8596      2.00000
     38      -5.7821      2.00000
     39      -5.5471      2.00000
     40      -5.4525      2.00000
     41      -5.1676      2.00000
     42      -5.1198      2.00000
     43      -4.9677      2.00000
     44      -4.8253      2.00000
     45      -4.6682      2.00000
     46      -4.4211      2.00000
     47      -4.3086      2.00000
     48      -4.1985      2.00000
     49      -4.1390      2.00000
     50      -3.7737      2.00000
     51      -3.6794      2.00000
     52      -3.5086      2.00000
     53      -3.2110      2.00000
     54      -2.8870      2.00000
     55      -2.8178      2.00000
     56      -2.6394      2.00000
     57      -2.3102      2.00000
     58      -2.0589      2.00000
     59      -1.9290      2.00000
     60      -1.6342      2.00000
     61      -1.2257      2.00000
     62      -0.8596      2.00000
     63      -0.7628      1.09622
     64      -0.7420      0.03688
     65      -0.7083     -0.01172
     66      -0.3903      0.00000
     67      -0.0423      0.00000
     68       0.6666      0.00000
     69       0.7170      0.00000
     70       0.8991      0.00000
     71       1.4014      0.00000
     72       1.4199      0.00000
     73       1.8438      0.00000
     74       2.2509      0.00000
     75       3.1714      0.00000
     76       3.4984      0.00000

 k-point    12 :       0.4000    0.4286    0.0000
  band No.  band energies     occupation 
      1     -36.5802      2.00000
      2     -35.2515      2.00000
      3     -34.2895      2.00000
      4     -33.3968      2.00000
      5     -20.1866      2.00000
      6     -20.0439      2.00000
      7     -19.8171      2.00000
      8     -19.2322      2.00000
      9     -18.9770      2.00000
     10     -18.7161      2.00000
     11     -18.5001      2.00000
     12     -18.4224      2.00000
     13     -18.3599      2.00000
     14     -18.2438      2.00000
     15     -18.0669      2.00000
     16     -17.8440      2.00000
     17     -17.2368      2.00000
     18     -17.1895      2.00000
     19     -17.0893      2.00000
     20     -17.0283      2.00000
     21     -16.5814      2.00000
     22     -16.2700      2.00000
     23     -16.1647      2.00000
     24     -16.1591      2.00000
     25     -15.9921      2.00000
     26     -15.4583      2.00000
     27     -15.1973      2.00000
     28     -15.0399      2.00000
     29      -7.6173      2.00000
     30      -7.1187      2.00000
     31      -6.9788      2.00000
     32      -6.8571      2.00000
     33      -6.6777      2.00000
     34      -6.5721      2.00000
     35      -6.0987      2.00000
     36      -6.0282      2.00000
     37      -5.9288      2.00000
     38      -5.8542      2.00000
     39      -5.6132      2.00000
     40      -5.3784      2.00000
     41      -5.3028      2.00000
     42      -5.2900      2.00000
     43      -5.1563      2.00000
     44      -4.7578      2.00000
     45      -4.6996      2.00000
     46      -4.3055      2.00000
     47      -4.2082      2.00000
     48      -4.1493      2.00000
     49      -4.0584      2.00000
     50      -3.8638      2.00000
     51      -3.7724      2.00000
     52      -3.6755      2.00000
     53      -3.5722      2.00000
     54      -2.8436      2.00000
     55      -2.8322      2.00000
     56      -2.7634      2.00000
     57      -2.0900      2.00000
     58      -2.0008      2.00000
     59      -1.9005      2.00000
     60      -1.7339      2.00000
     61      -1.2260      2.00000
     62      -1.1601      2.00000
     63      -0.8979      2.08511
     64      -0.7460      0.13574
     65      -0.6485     -0.09717
     66      -0.2645      0.00000
     67       0.0764      0.00000
     68       0.7052      0.00000
     69       0.7271      0.00000
     70       1.0783      0.00000
     71       1.4139      0.00000
     72       1.9131      0.00000
     73       2.1820      0.00000
     74       3.1588      0.00000
     75       3.4360      0.00000
     76       3.4916      0.00000


--------------------------------------------------------------------------------------------------------


 soft charge-density along one line, spin component           1
         0         1         2         3         4         5         6         7         8         9
 total charge-density along one line
 
 pseudopotential strength for first ion, spin component:           1
 13.312  -0.449  -0.000   0.001   0.000   0.000   0.000  -0.000
 -0.449   0.104   0.000  -0.000  -0.000  -0.000   0.000   0.000
 -0.000   0.000  -9.851  -0.000  -0.000   0.127   0.000   0.000
  0.001  -0.000  -0.000  -9.808   0.000   0.000   0.120  -0.000
  0.000  -0.000  -0.000   0.000  -9.816   0.000  -0.000   0.122
  0.000  -0.000   0.127   0.000   0.000   0.179  -0.000  -0.000
  0.000   0.000   0.000   0.120  -0.000  -0.000   0.180   0.000
 -0.000   0.000   0.000  -0.000   0.122  -0.000   0.000   0.180
 total augmentation occupancy for first ion, spin component:           1
  1.879   0.176   0.000   0.018   0.000   0.000   0.002   0.000
  0.176   0.021   0.000  -0.005   0.000   0.000   0.001   0.000
  0.000   0.000   1.581   0.000   0.000   0.170   0.000   0.000
  0.018  -0.005   0.000   1.527   0.000   0.000   0.134   0.000
  0.000   0.000   0.000   0.000   1.515   0.000   0.000   0.142
  0.000   0.000   0.170   0.000   0.000   0.020   0.000   0.000
  0.002   0.001   0.000   0.134   0.000   0.000   0.013   0.000
  0.000   0.000   0.000   0.000   0.142   0.000   0.000   0.015


------------------------ aborting loop because EDIFF is reached ----------------------------------------


    CHARGE:  cpu time    0.1920: real time    0.1926
    FORLOC:  cpu time    0.0170: real time    0.0164
    FORNL :  cpu time    2.1067: real time    2.1067
    STRESS:  cpu time    4.5513: real time    4.5518
    FORCOR:  cpu time    0.0890: real time    0.0880
    FORHAR:  cpu time    0.0300: real time    0.0299
    MIXING:  cpu time    0.0140: real time    0.0148
    OFIELD:  cpu time    0.0000: real time    0.0000

  FORCE on cell =-STRESS in cart. coord.  units (eV):
  Direction    XX          YY          ZZ          XY          YZ          ZX
  --------------------------------------------------------------------------------------
  Alpha Z   378.09908   378.09908   378.09908
  Ewald   27809.53423 27749.52952-32827.80614    -0.00000    -0.00000    -0.00000
  Hartree 30093.64677 30021.66772-28826.99532    -0.00000    -0.00000    -0.00000
  E(xc)    -577.28342  -577.36769  -577.09408     0.00000     0.00000     0.00000
  Local  -59563.25184-59442.97436 59983.00067    -0.00000     0.00000     0.00000
  n-local  -479.00119  -481.04511  -481.92706     0.78409    -0.00001    -0.00000
  augment   113.76480   115.25006   114.26984    -0.00000     0.00000     0.00000
  Kinetic  2221.31109  2238.55719  2233.80611    -1.27819     0.00004     0.00002
  Fock        0.00000     0.00000     0.00000     0.00000     0.00000     0.00000
  -------------------------------------------------------------------------------------
  Total      -3.18047     1.71641    -4.64691     0.00000     0.00000     0.00000
  in kB     -10.90500     5.88511   -15.93303     0.00000     0.00000     0.00000
  external pressure =       -6.98 kB  Pullay stress =        0.00 kB


 VOLUME and BASIS-vectors are now :
 -----------------------------------------------------------------------------
  energy-cutoff  :      400.00
  volume of cell :      467.28
      direct lattice vectors                 reciprocal lattice vectors
     5.522882970  0.000000000  0.000000000     0.181064854  0.000000000  0.000000000
     0.000000000  3.905268000  0.000000000     0.000000000  0.256064373  0.000000000
     0.000000000  0.000000000 21.665045198     0.000000000  0.000000000  0.046157300

  length of vectors
     5.522882970  3.905268000 21.665045198     0.181064854  0.256064373  0.046157300


 FORCES acting on ions
    electron-ion (+dipol)            ewald-force                    non-local-force                 convergence-correction
 -----------------------------------------------------------------------------------------------
   0.223E-12 0.637E-13 0.128E+04   -.677E-14 0.936E-15 -.128E+04   0.000E+00 0.000E+00 -.179E+01   0.339E-13 0.116E-13 -.289E-02
   0.199E+00 -.364E-13 0.948E+03   -.132E+00 -.110E-13 -.946E+03   0.635E+00 0.000E+00 -.443E+01   0.850E-03 -.265E-13 0.474E-01
   -.199E+00 -.764E-12 0.948E+03   0.132E+00 -.115E-13 -.946E+03   -.635E+00 0.000E+00 -.443E+01   -.850E-03 -.245E-13 0.474E-01
   0.116E-13 0.610E-13 0.544E+03   -.628E-14 -.372E-14 -.542E+03   0.000E+00 0.000E+00 -.264E+01   -.425E-13 0.697E-13 0.707E-01
   0.176E+00 -.113E-11 0.149E+03   0.246E-13 -.106E-13 -.148E+03   0.381E+00 0.867E-18 -.270E+01   -.373E-02 -.281E-13 0.942E-01
   -.176E+00 -.138E-12 0.149E+03   -.125E-12 -.112E-13 -.148E+03   -.381E+00 -.867E-18 -.270E+01   0.373E-02 -.258E-13 0.942E-01
   0.245E-12 -.455E-13 -.245E+03   -.187E-14 -.940E-15 0.247E+03   0.000E+00 0.000E+00 -.200E+01   -.555E-13 0.343E-13 0.103E+00
   -.364E+00 -.143E-13 -.640E+03   0.132E+00 -.870E-15 0.641E+03   0.106E+01 -.694E-17 -.265E+01   -.150E-01 -.540E-14 0.116E+00
   0.364E+00 -.885E-12 -.640E+03   -.132E+00 0.195E-17 0.641E+03   -.106E+01 0.694E-17 -.265E+01   0.150E-01 -.483E-13 0.116E+00
   -.308E-15 -.277E-12 -.104E+04   -.158E-13 -.726E-14 0.105E+04   0.000E+00 0.000E+00 -.586E+01   0.338E-13 -.510E-14 0.777E-01
   0.204E+02 0.459E-12 -.134E+04   -.268E+02 0.747E-16 0.136E+04   0.658E+01 0.000E+00 -.168E+02   0.946E-02 0.700E-13 -.171E-02
   -.204E+02 0.291E-13 -.134E+04   0.268E+02 -.841E-15 0.136E+04   -.658E+01 0.000E+00 -.168E+02   -.946E-02 0.458E-13 -.171E-02
   -.152E-13 -.617E-13 0.213E+04   0.588E-13 0.130E-13 -.212E+04   0.000E+00 0.000E+00 -.229E+01   0.315E-13 -.741E-13 -.744E-02
   0.770E-13 0.450E-13 0.906E+03   0.105E-12 0.220E-13 -.904E+03   0.000E+00 0.000E+00 -.159E+01   0.466E-13 0.468E-13 0.120E+00
   -.420E-14 0.233E-12 -.409E+03   0.102E-12 0.196E-13 0.411E+03   0.000E+00 0.000E+00 -.137E+01   0.496E-13 0.849E-13 0.180E+00
   0.808E-13 -.650E-14 -.173E+04   -.674E-14 -.509E-14 0.174E+04   0.000E+00 0.000E+00 -.116E+01   0.206E-14 -.139E-14 0.127E+00
   0.139E-13 -.268E-12 0.900E+03   -.162E-13 0.219E-14 -.895E+03   0.000E+00 0.000E+00 -.264E+01   0.811E-14 -.783E-15 -.483E-02
   -.302E-15 -.794E-13 0.364E+03   -.108E-13 0.545E-15 -.362E+03   0.000E+00 0.000E+00 0.505E+00   -.933E-14 -.232E-13 0.485E-01
   0.649E-14 -.140E-12 -.163E+03   -.935E-14 0.336E-14 0.164E+03   0.000E+00 0.000E+00 0.734E+00   -.167E-13 -.867E-14 0.688E-01
   -.700E-15 -.882E-13 -.682E+03   -.243E-13 0.323E-14 0.685E+03   0.000E+00 0.000E+00 0.113E+01   0.720E-14 0.270E-14 0.558E-01
 -----------------------------------------------------------------------------------------------
   0.236E-11 -.304E-11 0.707E+02   -.390E-13 0.210E-14 -.182E-11   0.000E+00 0.000E+00 -.720E+02   -.561E-13 0.939E-13 0.135E+01
 
 
 POSITION                                       TOTAL-FORCE (eV/Angst)
 -----------------------------------------------------------------------------------
      2.76144      0.00000      6.00000         0.000000      0.000000     -1.509437
      1.38072      1.95263      7.38072         0.703213     -0.000000     -2.079471
      4.14216      1.95263      7.38072        -0.703213      0.000000     -2.079471
      0.00000      0.00000      8.76144         0.000000      0.000000     -0.773844
      4.14216      1.95263     10.14216         0.553436      0.000000     -1.280070
      1.38072      1.95263     10.14216        -0.553436      0.000000     -1.280070
      2.76144      0.00000     11.52288         0.000000      0.000000     -0.574898
      1.38072      1.95263     12.90360         0.808581     -0.000000     -1.451692
      4.14216      1.95263     12.90360        -0.808581      0.000000     -1.451692
      0.00000      0.00000     14.28432         0.000000      0.000000     -1.124660
      4.14216      1.95263     15.66505         0.197029      0.000000     -0.998441
      1.38072      1.95263     15.66505        -0.197029     -0.000000     -0.998441
      0.00000      0.00000      6.00000         0.000000      0.000000      0.993061
      2.76144      0.00000      8.76144         0.000000      0.000000      0.964558
      0.00000      0.00000     11.52288         0.000000      0.000000      0.751564
      2.76144      0.00000     14.28432         0.000000      0.000000      1.598525
      2.76144      1.95263      6.00000         0.000000      0.000000      2.288523
      0.00000      1.95263      8.76144         0.000000      0.000000      2.598264
      2.76144      1.95263     11.52288         0.000000      0.000000      2.353375
      0.00000      1.95263     14.28432         0.000000      0.000000      4.054319
 -----------------------------------------------------------------------------------
    total drift:                                0.000000     -0.000000     -0.036109


--------------------------------------------------------------------------------------------------------



  FREE ENERGIE OF THE ION-ELECTRON SYSTEM (eV)
  ---------------------------------------------------
  free  energy   TOTEN  =      -148.94035242 eV

  energy  without entropy=     -148.94035242  energy(sigma->0) =     -148.94035242
 


--------------------------------------------------------------------------------------------------------


    POTLOK:  cpu time    0.0920: real time    0.0919


--------------------------------------------------------------------------------------------------------


     LOOP+:  cpu time  306.6314: real time  307.1444
    4ORBIT:  cpu time    0.0000: real time    0.0000
 BZINTS: Fermi energy: -0.771880;128.000000 electrons
         Band energy:***********;  BLOECHL correction: -0.020404

 total amount of memory used by VASP MPI-rank0    99717. kBytes
=======================================================================

   base      :      30000. kBytes
   nonl-proj :      23524. kBytes
   fftplans  :       5015. kBytes
   grid      :       9009. kBytes
   one-center:        155. kBytes
   wavefun   :      32014. kBytes
 
  
  
 General timing and accounting informations for this job:
 ========================================================
  
                  Total CPU time used (sec):      308.865
                            User time (sec):      304.072
                          System time (sec):        4.793
                         Elapsed time (sec):      310.587
  
                   Maximum memory used (kb):      114336.
                   Average memory used (kb):           0.
  
                          Minor page faults:        36637
                          Major page faults:           96
                 Voluntary context switches:         3766
