Starting job 28514169 ("jobname") on c15-9 at Wed Nov 6 13:53:55 CET 2019
 running on    4 total cores
 distrk:  each k-point on    4 cores,    1 groups
 distr:  one band on    2 cores,    2 groups
 using from now: INCAR     
 vasp.5.4.4.18Apr17-6-g9f103f2a35 (build Jun 30 2017 11:15:00) complex          
  
 POSCAR found type information on POSCAR  O  Sr Ti
 POSCAR found :  3 types and      20 ions
 scaLAPACK will be used

 ----------------------------------------------------------------------------- 
|                                                                             |
|  ADVICE TO THIS USER RUNNING 'VASP/VAMP'   (HEAR YOUR MASTER'S VOICE ...):  |
|                                                                             |
|      You have a (more or less) 'large supercell' and for larger cells       |
|      it might be more efficient to use real space projection operators      |
|      So try LREAL= Auto  in the INCAR   file.                               |
|      Mind: If you want to do a very accurate calculations keep the          |
|      reciprocal projection scheme          (i.e. LREAL=.FALSE.)             |
|                                                                             |
 ----------------------------------------------------------------------------- 

 LDA part: xc-table for Pade appr. of Perdew
 POSCAR, INCAR and KPOINTS ok, starting setup
 FFT: planning ...
 WAVECAR not read
 entering main loop
       N       E                     dE             d eps       ncg     rms          rms(c)
DAV:   1     0.142773349555E+04    0.14277E+04   -0.50143E+04  1856   0.125E+03
DAV:   2     0.132255285452E+03   -0.12955E+04   -0.12518E+04  2260   0.354E+02
DAV:   3    -0.177417917979E+03   -0.30967E+03   -0.30243E+03  2456   0.175E+02
DAV:   4    -0.197395967473E+03   -0.19978E+02   -0.19916E+02  2456   0.533E+01
DAV:   5    -0.198486697270E+03   -0.10907E+01   -0.10903E+01  3240   0.102E+01    0.370E+01
RMM:   6    -0.205203482707E+03   -0.67168E+01   -0.38294E+02  2400   0.573E+01    0.518E+01
RMM:   7    -0.171877425413E+03    0.33326E+02   -0.93539E+01  2142   0.305E+01    0.209E+01
RMM:   8    -0.160501868719E+03    0.11376E+02   -0.20786E+01  2096   0.157E+01    0.151E+01
RMM:   9    -0.156200943446E+03    0.43009E+01   -0.20147E+00  2361   0.542E+00    0.124E+01
RMM:  10    -0.158090226007E+03   -0.18893E+01   -0.37361E+01  2168   0.159E+01    0.314E+01
RMM:  11    -0.156657272488E+03    0.14330E+01   -0.30868E+00  2794   0.360E+00    0.309E+01
RMM:  12    -0.159853646353E+03   -0.31964E+01   -0.16496E+00  2671   0.294E+00    0.347E+01
RMM:  13    -0.159844170258E+03    0.94761E-02   -0.29517E-01  3101   0.816E-01    0.350E+01
RMM:  14    -0.159716008942E+03    0.12816E+00   -0.47251E-02  3302   0.310E-01    0.350E+01
RMM:  15    -0.159759036726E+03   -0.43028E-01   -0.24121E-02  3292   0.165E-01    0.350E+01
RMM:  16    -0.157996480367E+03    0.17626E+01   -0.15805E-01  2180   0.104E+00    0.330E+01
RMM:  17    -0.153140489878E+03    0.48560E+01   -0.24484E+00  2131   0.401E+00    0.241E+01
RMM:  18    -0.150127292334E+03    0.30132E+01   -0.11332E+01  2182   0.926E+00    0.735E+00
RMM:  19    -0.150159038862E+03   -0.31747E-01   -0.17435E+00  2486   0.350E+00    0.736E+00
RMM:  20    -0.149974042349E+03    0.18500E+00   -0.95379E-01  2158   0.259E+00    0.688E+00
RMM:  21    -0.149892554099E+03    0.81488E-01   -0.13091E-01  2402   0.107E+00    0.675E+00
RMM:  22    -0.149728848176E+03    0.16371E+00   -0.23156E+00  2141   0.423E+00    0.584E+00
RMM:  23    -0.149220353772E+03    0.50849E+00   -0.12029E+00  2128   0.299E+00    0.392E+00
RMM:  24    -0.149084971648E+03    0.13538E+00   -0.22882E-01  2294   0.127E+00    0.272E+00
RMM:  25    -0.148998842955E+03    0.86129E-01   -0.24444E-01  2259   0.114E+00    0.262E+00
RMM:  26    -0.149012884460E+03   -0.14042E-01   -0.26018E-01  2386   0.107E+00    0.370E+00
RMM:  27    -0.148954622655E+03    0.58262E-01   -0.68172E-02  2423   0.619E-01    0.163E+00
RMM:  28    -0.149025616799E+03   -0.70994E-01   -0.60130E-02  2162   0.683E-01    0.457E+00
RMM:  29    -0.148957298340E+03    0.68318E-01   -0.29463E-02  2095   0.574E-01    0.247E+00
  WARNING: DENTET: can't reach specified precision
  Number of Electrons is NELECT =   128.045926038679     
RMM:  30    -0.148982546315E+03   -0.25248E-01   -0.52267E-02  2032   0.680E-01BRMIX: very serious problems
 the old and the new charge density differ
 old charge density:   128.00004 new  128.04597
    0.174E+00
RMM:  31    -0.148937992830E+03    0.44553E-01   -0.59120E-03  2057   0.322E-01BRMIX: very serious problems
 the old and the new charge density differ
 old charge density:   128.04597 new  128.00005
    0.568E-01
RMM:  32    -0.148945309925E+03   -0.73171E-02   -0.98579E-03  2064   0.265E-01    0.688E-01
RMM:  33    -0.148944837946E+03    0.47198E-03   -0.20440E-03  2316   0.131E-01    0.751E-01
RMM:  34    -0.148976809321E+03   -0.31971E-01   -0.33734E-02  2065   0.507E-01    0.282E+00
RMM:  35    -0.148960808133E+03    0.16001E-01   -0.38379E-03  2118   0.230E-01    0.257E+00
RMM:  36    -0.148943891991E+03    0.16916E-01   -0.22239E-03  2021   0.144E-01    0.211E+00
RMM:  37    -0.148931987758E+03    0.11904E-01   -0.56906E-03  2100   0.211E-01    0.605E-01
RMM:  38    -0.148941133080E+03   -0.91453E-02   -0.10177E-03  2015   0.131E-01    0.129E+00
RMM:  39    -0.148937680622E+03    0.34525E-02   -0.55671E-04  2262   0.675E-02    0.941E-01
RMM:  40    -0.148938076339E+03   -0.39572E-03   -0.21204E-03  2088   0.129E-01    0.202E-01
RMM:  41    -0.148939474411E+03   -0.13981E-02   -0.57443E-04  2179   0.773E-02    0.208E-01
RMM:  42    -0.148940365851E+03   -0.89144E-03   -0.49236E-04  2105   0.670E-02    0.206E-01
RMM:  43    -0.148940450152E+03   -0.84300E-04   -0.33956E-04  1981   0.587E-02    0.141E-01
RMM:  44    -0.148940287623E+03    0.16253E-03   -0.12443E-04  1750   0.374E-02    0.153E-01
RMM:  45    -0.148940236612E+03    0.51011E-04   -0.81272E-05  1716   0.244E-02    0.126E-01
RMM:  46    -0.148940197716E+03    0.38896E-04   -0.33629E-05  1403   0.181E-02    0.132E-01
RMM:  47    -0.148940145650E+03    0.52066E-04   -0.17411E-04  1935   0.361E-02    0.965E-02
RMM:  48    -0.148940176945E+03   -0.31295E-04   -0.17190E-04  2002   0.372E-02    0.465E-02
RMM:  49    -0.148940361717E+03   -0.18477E-03   -0.99097E-05  1801   0.276E-02    0.579E-02
RMM:  50    -0.148940308088E+03    0.53629E-04   -0.30568E-05  1395   0.195E-02    0.383E-02
RMM:  51    -0.148940326042E+03   -0.17955E-04   -0.19630E-05  1263   0.146E-02    0.423E-02
RMM:  52    -0.148940353316E+03   -0.27274E-04   -0.13353E-05  1146   0.129E-02    0.348E-02
RMM:  53    -0.148940352422E+03    0.89433E-06   -0.13597E-05  1173   0.123E-02
   1 F= -.14894035E+03 E0= -.14894035E+03  d E =0.000000E+00

Currently Loaded Modulefiles:
  1) intel/2017.4         2) perf-reports/7.0.6

Job script resource usage:
       JobID  MaxVMSize     MaxRSS 
------------ ---------- ---------- 
28514169.ba+    499228K      5381K 

Job step resource usage:
       JobID    JobName  AllocCPUS  MaxVMSize     MaxRSS    Elapsed ExitCode 
------------ ---------- ---------- ---------- ---------- ---------- -------- 
28514169        jobname          4                         00:05:14      0:0 
28514169.0    pmi_proxy          1   1592884K    390197K   00:05:11      0:0 

Job 28514169 ("jobname") completed on c15-9 at Wed Nov 6 13:59:07 CET 2019
