<?xml version="1.0" encoding="ISO-8859-1"?>
<modeling>
 <generator>
  <i name="program" type="string">vasp </i>
  <i name="version" type="string">5.4.4.18Apr17-6-g9f103f2a35  </i>
  <i name="subversion" type="string">(build Jun 30 2017 11:15:00) complex            parallel </i>
  <i name="platform" type="string">STALLO_VASP_5.4.4 </i>
  <i name="date" type="string">2019 11 06 </i>
  <i name="time" type="string">13:53:57 </i>
 </generator>
 <incar>
  <i type="string" name="PREC">normal    ! low/normal/accurate</i>
  <i type="string" name="ALGO"> Fast      ! Algorithm for electronic re</i>
  <i type="int" name="ISPIN">     1</i>
  <i type="int" name="NELMIN">     4</i>
  <i name="EDIFF">      0.00001000</i>
  <i type="int" name="NSW">     0</i>
  <i name="ENCUT">    400.00000000</i>
  <i type="logical" name="LREAL"> F  </i>
  <i type="int" name="ISMEAR">    -5</i>
  <i name="SIGMA">      0.20000000</i>
  <i type="logical" name="LWAVE"> F  </i>
  <v type="int" name="KPOINT_BSE">    -1     0     0     0</v>
 </incar>
 <structure name="primitive_cell" >
  <crystal>
   <varray name="basis" >
    <v>       5.52288297       0.00000000       0.00000000 </v>
    <v>       0.00000000       3.90526800       0.00000000 </v>
    <v>       0.00000000       0.00000000      21.66504520 </v>
   </varray>
   <i name="volume">    467.27902047 </i>
   <varray name="rec_basis" >
    <v>       0.18106485       0.00000000       0.00000000 </v>
    <v>       0.00000000       0.25606437       0.00000000 </v>
    <v>       0.00000000       0.00000000       0.04615730 </v>
   </varray>
  </crystal>
  <varray name="positions" >
   <v>      -0.50000000       0.00000000       0.27694380 </v>
   <v>      -0.50000000      -0.50000000       0.27694380 </v>
   <v>      -0.50000000       0.00000000       0.40440449 </v>
   <v>       0.25000000      -0.50000000       0.34067414 </v>
   <v>      -0.25000000      -0.50000000       0.34067414 </v>
   <v>       0.00000000       0.00000000       0.27694380 </v>
   <v>       0.00000000       0.00000000       0.40440449 </v>
   <v>       0.00000000      -0.50000000       0.40440449 </v>
   <v>      -0.25000000      -0.50000000       0.46813483 </v>
   <v>       0.25000000      -0.50000000       0.46813483 </v>
   <v>      -0.50000000       0.00000000      -0.46813483 </v>
   <v>      -0.50000000      -0.50000000      -0.46813483 </v>
   <v>       0.00000000       0.00000000      -0.46813483 </v>
   <v>       0.25000000      -0.50000000      -0.40440449 </v>
   <v>      -0.25000000      -0.50000000      -0.40440449 </v>
   <v>      -0.50000000       0.00000000      -0.34067414 </v>
   <v>       0.00000000       0.00000000      -0.34067414 </v>
   <v>       0.00000000      -0.50000000      -0.34067414 </v>
   <v>      -0.25000000      -0.50000000      -0.27694380 </v>
   <v>       0.25000000      -0.50000000      -0.27694380 </v>
  </varray>
 </structure>
 <varray name="primitive_index" >
  <v type="int" >        1 </v>
  <v type="int" >       17 </v>
  <v type="int" >       14 </v>
  <v type="int" >        2 </v>
  <v type="int" >        3 </v>
  <v type="int" >       13 </v>
  <v type="int" >        4 </v>
  <v type="int" >       18 </v>
  <v type="int" >        5 </v>
  <v type="int" >        6 </v>
  <v type="int" >        7 </v>
  <v type="int" >       19 </v>
  <v type="int" >       15 </v>
  <v type="int" >        8 </v>
  <v type="int" >        9 </v>
  <v type="int" >       16 </v>
  <v type="int" >       10 </v>
  <v type="int" >       20 </v>
  <v type="int" >       11 </v>
  <v type="int" >       12 </v>
 </varray>
 <kpoints>
  <generation param="Gamma">
   <v type="int" name="divisions">       5        7        1 </v>
   <v name="usershift">      0.00000000       0.00000000       0.00000000 </v>
   <v name="genvec1">      0.20000000       0.00000000       0.00000000 </v>
   <v name="genvec2">      0.00000000       0.14285714       0.00000000 </v>
   <v name="genvec3">      0.00000000       0.00000000       1.00000000 </v>
   <v name="shift">      0.00000000       0.00000000       0.00000000 </v>
  </generation>
  <varray name="kpointlist" >
   <v>       0.00000000       0.00000000       0.00000000 </v>
   <v>       0.20000000       0.00000000       0.00000000 </v>
   <v>       0.40000000       0.00000000       0.00000000 </v>
   <v>       0.00000000       0.14285714       0.00000000 </v>
   <v>       0.20000000       0.14285714       0.00000000 </v>
   <v>       0.40000000       0.14285714       0.00000000 </v>
   <v>       0.00000000       0.28571429       0.00000000 </v>
   <v>       0.20000000       0.28571429       0.00000000 </v>
   <v>       0.40000000       0.28571429       0.00000000 </v>
   <v>       0.00000000       0.42857143       0.00000000 </v>
   <v>       0.20000000       0.42857143       0.00000000 </v>
   <v>       0.40000000       0.42857143       0.00000000 </v>
  </varray>
  <varray name="weights" >
   <v>       0.02857143 </v>
   <v>       0.05714286 </v>
   <v>       0.05714286 </v>
   <v>       0.05714286 </v>
   <v>       0.11428571 </v>
   <v>       0.11428571 </v>
   <v>       0.05714286 </v>
   <v>       0.11428571 </v>
   <v>       0.11428571 </v>
   <v>       0.05714286 </v>
   <v>       0.11428571 </v>
   <v>       0.11428571 </v>
  </varray>
  <varray name="tetrahedronlist"  type="int" >
   <v type="int" >        2        1        1        2        5 </v>
   <v type="int" >        2        1        1        4        5 </v>
   <v type="int" >        2        1        4        4        5 </v>
   <v type="int" >        2        1        2        2        5 </v>
   <v type="int" >        2        1        2        5        5 </v>
   <v type="int" >        2        1        4        5        5 </v>
   <v type="int" >        2        2        2        3        6 </v>
   <v type="int" >        2        2        2        5        6 </v>
   <v type="int" >        2        2        5        5        6 </v>
   <v type="int" >        2        2        3        3        6 </v>
   <v type="int" >        2        2        3        6        6 </v>
   <v type="int" >        2        2        5        6        6 </v>
   <v type="int" >        4        3        3        3        6 </v>
   <v type="int" >        4        3        3        6        6 </v>
   <v type="int" >        4        3        6        6        6 </v>
   <v type="int" >        2        2        3        3        5 </v>
   <v type="int" >        2        3        3        5        6 </v>
   <v type="int" >        2        3        5        6        6 </v>
   <v type="int" >        2        2        2        3        5 </v>
   <v type="int" >        2        2        3        5        5 </v>
   <v type="int" >        2        3        5        5        6 </v>
   <v type="int" >        2        1        2        2        4 </v>
   <v type="int" >        2        2        2        4        5 </v>
   <v type="int" >        2        2        4        5        5 </v>
   <v type="int" >        2        1        1        2        4 </v>
   <v type="int" >        2        1        2        4        4 </v>
   <v type="int" >        2        2        4        4        5 </v>
   <v type="int" >        2        4        4        5        8 </v>
   <v type="int" >        2        4        4        7        8 </v>
   <v type="int" >        2        4        7        7        8 </v>
   <v type="int" >        2        4        5        5        8 </v>
   <v type="int" >        2        4        5        8        8 </v>
   <v type="int" >        2        4        7        8        8 </v>
   <v type="int" >        2        5        5        6        9 </v>
   <v type="int" >        2        5        5        8        9 </v>
   <v type="int" >        2        5        8        8        9 </v>
   <v type="int" >        2        5        6        6        9 </v>
   <v type="int" >        2        5        6        9        9 </v>
   <v type="int" >        2        5        8        9        9 </v>
   <v type="int" >        4        6        6        6        9 </v>
   <v type="int" >        4        6        6        9        9 </v>
   <v type="int" >        4        6        9        9        9 </v>
   <v type="int" >        2        5        6        6        8 </v>
   <v type="int" >        2        6        6        8        9 </v>
   <v type="int" >        2        6        8        9        9 </v>
   <v type="int" >        2        5        5        6        8 </v>
   <v type="int" >        2        5        6        8        8 </v>
   <v type="int" >        2        6        8        8        9 </v>
   <v type="int" >        2        4        5        5        7 </v>
   <v type="int" >        2        5        5        7        8 </v>
   <v type="int" >        2        5        7        8        8 </v>
   <v type="int" >        2        4        4        5        7 </v>
   <v type="int" >        2        4        5        7        7 </v>
   <v type="int" >        2        5        7        7        8 </v>
   <v type="int" >        2        7        7        8       11 </v>
   <v type="int" >        2        7        7       10       11 </v>
   <v type="int" >        2        7       10       10       11 </v>
   <v type="int" >        2        7        8        8       11 </v>
   <v type="int" >        2        7        8       11       11 </v>
   <v type="int" >        2        7       10       11       11 </v>
   <v type="int" >        2        8        8        9       12 </v>
   <v type="int" >        2        8        8       11       12 </v>
   <v type="int" >        2        8       11       11       12 </v>
   <v type="int" >        2        8        9        9       12 </v>
   <v type="int" >        2        8        9       12       12 </v>
   <v type="int" >        2        8       11       12       12 </v>
   <v type="int" >        4        9        9        9       12 </v>
   <v type="int" >        4        9        9       12       12 </v>
   <v type="int" >        4        9       12       12       12 </v>
   <v type="int" >        2        8        9        9       11 </v>
   <v type="int" >        2        9        9       11       12 </v>
   <v type="int" >        2        9       11       12       12 </v>
   <v type="int" >        2        8        8        9       11 </v>
   <v type="int" >        2        8        9       11       11 </v>
   <v type="int" >        2        9       11       11       12 </v>
   <v type="int" >        2        7        8        8       10 </v>
   <v type="int" >        2        8        8       10       11 </v>
   <v type="int" >        2        8       10       11       11 </v>
   <v type="int" >        2        7        7        8       10 </v>
   <v type="int" >        2        7        8       10       10 </v>
   <v type="int" >        2        8       10       10       11 </v>
   <v type="int" >        4       10       10       11       11 </v>
   <v type="int" >        4       10       10       10       11 </v>
   <v type="int" >        4       10       11       11       11 </v>
   <v type="int" >        4       11       11       12       12 </v>
   <v type="int" >        4       11       11       11       12 </v>
   <v type="int" >        4       11       12       12       12 </v>
   <v type="int" >        6       12       12       12       12 </v>
  </varray>
  <i name="volumeweight">      0.00476190 </i>
 </kpoints>
 <parameters>
  <separator name="general" >
   <i type="string" name="SYSTEM">unknown system</i>
   <i type="logical" name="LCOMPAT"> F  </i>
  </separator>
  <separator name="electronic" >
   <i type="string" name="PREC">normal</i>
   <i name="ENMAX">    400.00000000</i>
   <i name="ENAUG">    605.39200000</i>
   <i name="EDIFF">      0.00001000</i>
   <i type="int" name="IALGO">    68</i>
   <i type="int" name="IWAVPR">    10</i>
   <i type="int" name="NBANDS">    76</i>
   <i name="NELECT">    128.00000000</i>
   <i type="int" name="TURBO">     0</i>
   <i type="int" name="IRESTART">     0</i>
   <i type="int" name="NREBOOT">     0</i>
   <i type="int" name="NMIN">     0</i>
   <i name="EREF">      0.00000000</i>
   <separator name="electronic smearing" >
    <i type="int" name="ISMEAR">    -5</i>
    <i name="SIGMA">      0.20000000</i>
    <i name="KSPACING">      0.50000000</i>
    <i type="logical" name="KGAMMA"> T  </i>
   </separator>
   <separator name="electronic projectors" >
    <i type="logical" name="LREAL"> F  </i>
    <v name="ROPT">      0.00000000      0.00000000      0.00000000</v>
    <i type="int" name="LMAXPAW">  -100</i>
    <i type="int" name="LMAXMIX">     2</i>
    <i type="logical" name="NLSPLINE"> F  </i>
   </separator>
   <separator name="electronic startup" >
    <i type="int" name="ISTART">     0</i>
    <i type="int" name="ICHARG">     2</i>
    <i type="int" name="INIWAV">     1</i>
   </separator>
   <separator name="electronic spin" >
    <i type="int" name="ISPIN">     1</i>
    <i type="logical" name="LNONCOLLINEAR"> F  </i>
    <v name="MAGMOM">      1.00000000      1.00000000      1.00000000      1.00000000      1.00000000      1.00000000      1.00000000      1.00000000      1.00000000      1.00000000      1.00000000      1.00000000      1.00000000      1.00000000      1.00000000      1.00000000      1.00000000      1.00000000      1.00000000      1.00000000
</v>
    <i name="NUPDOWN">     -1.00000000</i>
    <i type="logical" name="LSORBIT"> F  </i>
    <v name="SAXIS">      0.00000000      0.00000000      1.00000000</v>
    <i type="logical" name="LSPIRAL"> F  </i>
    <v name="QSPIRAL">      0.00000000      0.00000000      0.00000000</v>
    <i type="logical" name="LZEROZ"> F  </i>
   </separator>
   <separator name="electronic exchange-correlation" >
    <i type="logical" name="LASPH"> F  </i>
    <i type="logical" name="LMETAGGA"> F  </i>
   </separator>
   <separator name="electronic convergence" >
    <i type="int" name="NELM">    60</i>
    <i type="int" name="NELMDL">    -5</i>
    <i type="int" name="NELMIN">     4</i>
    <i name="ENINI">    400.00000000</i>
    <separator name="electronic convergence detail" >
     <i type="logical" name="LDIAG"> T  </i>
     <i type="logical" name="LSUBROT"> F  </i>
     <i name="WEIMIN">      0.00000000</i>
     <i name="EBREAK">      0.00000003</i>
     <i name="DEPER">      0.30000000</i>
     <i type="int" name="NRMM">     4</i>
     <i name="TIME">      0.40000000</i>
    </separator>
   </separator>
   <separator name="electronic mixer" >
    <i name="AMIX">      0.40000000</i>
    <i name="BMIX">      1.00000000</i>
    <i name="AMIN">      0.10000000</i>
    <i name="AMIX_MAG">      1.60000000</i>
    <i name="BMIX_MAG">      1.00000000</i>
    <separator name="electronic mixer details" >
     <i type="int" name="IMIX">     4</i>
     <i type="logical" name="MIXFIRST"> F  </i>
     <i type="int" name="MAXMIX">   -45</i>
     <i name="WC">    100.00000000</i>
     <i type="int" name="INIMIX">     1</i>
     <i type="int" name="MIXPRE">     1</i>
     <i type="int" name="MREMOVE">     5</i>
    </separator>
   </separator>
   <separator name="electronic dipolcorrection" >
    <i type="logical" name="LDIPOL"> F  </i>
    <i type="logical" name="LMONO"> F  </i>
    <i type="int" name="IDIPOL">     0</i>
    <i name="EPSILON">      1.00000000</i>
    <v name="DIPOL">   -100.00000000   -100.00000000   -100.00000000</v>
    <i name="EFIELD">      0.00000000</i>
   </separator>
  </separator>
  <separator name="grids" >
   <i type="int" name="NGX">    28</i>
   <i type="int" name="NGY">    20</i>
   <i type="int" name="NGZ">   108</i>
   <i type="int" name="NGXF">    56</i>
   <i type="int" name="NGYF">    40</i>
   <i type="int" name="NGZF">   216</i>
   <i type="logical" name="ADDGRID"> F  </i>
  </separator>
  <separator name="ionic" >
   <i type="int" name="NSW">     0</i>
   <i type="int" name="IBRION">    -1</i>
   <i type="int" name="MDALGO">     0</i>
   <i type="int" name="ISIF">     2</i>
   <i name="PSTRESS">      0.00000000</i>
   <i name="EDIFFG">      0.00010000</i>
   <i type="int" name="NFREE">     0</i>
   <i name="POTIM">      0.50000000</i>
   <i name="SMASS">     -3.00000000</i>
   <i name="SCALEE">      1.00000000</i>
  </separator>
  <separator name="ionic md" >
   <i name="TEBEG">      0.00010000</i>
   <i name="TEEND">      0.00010000</i>
   <i type="int" name="NBLOCK">     1</i>
   <i type="int" name="KBLOCK">     1</i>
   <i type="int" name="NPACO">   256</i>
   <i name="APACO">     16.00000000</i>
  </separator>
  <separator name="symmetry" >
   <i type="int" name="ISYM">     2</i>
   <i name="SYMPREC">      0.00001000</i>
  </separator>
  <separator name="dos" >
   <i type="int" name="LORBIT">     0</i>
   <v name="RWIGS">     -1.00000000     -1.00000000     -1.00000000</v>
   <i type="int" name="NEDOS">   301</i>
   <i name="EMIN">     10.00000000</i>
   <i name="EMAX">    -10.00000000</i>
   <i name="EFERMI">      0.00000000</i>
  </separator>
  <separator name="writing" >
   <i type="int" name="NWRITE">     2</i>
   <i type="logical" name="LWAVE"> F  </i>
   <i type="logical" name="LDOWNSAMPLE"> F  </i>
   <i type="logical" name="LCHARG"> T  </i>
   <i type="logical" name="LPARD"> F  </i>
   <i type="logical" name="LVTOT"> F  </i>
   <i type="logical" name="LVHAR"> F  </i>
   <i type="logical" name="LELF"> F  </i>
   <i type="logical" name="LOPTICS"> F  </i>
   <v name="STM">      0.00000000      0.00000000      0.00000000      0.00000000      0.00000000      0.00000000      0.00000000</v>
  </separator>
  <separator name="performance" >
   <i type="int" name="NPAR">     2</i>
   <i type="int" name="NSIM">     4</i>
   <i type="int" name="NBLK">    -1</i>
   <i type="logical" name="LPLANE"> T  </i>
   <i type="logical" name="LSCALAPACK"> T  </i>
   <i type="logical" name="LSCAAWARE"> F  </i>
   <i type="logical" name="LSCALU"> F  </i>
   <i type="logical" name="LASYNC"> F  </i>
   <i type="logical" name="LORBITALREAL"> F  </i>
  </separator>
  <separator name="miscellaneous" >
   <i type="int" name="IDIOT">     3</i>
   <i type="int" name="ISPECIAL">     0</i>
   <i type="logical" name="LMUSIC"> F  </i>
   <v name="POMASS">     16.00000000     87.62000000     47.88000000</v>
   <v name="DARWINR">      0.00000000      0.00000000      0.00000000</v>
   <v name="DARWINV">      1.00000000      1.00000000      1.00000000</v>
   <i type="logical" name="LCORR"> T  </i>
  </separator>
  <i type="logical" name="GGA_COMPAT"> T  </i>
  <i type="logical" name="LBERRY"> F  </i>
  <i type="int" name="ICORELEVEL">     0</i>
  <i type="logical" name="LDAU"> F  </i>
  <i type="int" name="I_CONSTRAINED_M">     0</i>
  <separator name="electronic exchange-correlation" >
   <i type="string" name="GGA">--</i>
   <i type="int" name="VOSKOWN">     0</i>
   <i type="logical" name="LHFCALC"> F  </i>
   <i type="string" name="PRECFOCK"></i>
   <i type="logical" name="LSYMGRAD"> F  </i>
   <i type="logical" name="LHFONE"> F  </i>
   <i type="logical" name="LRHFCALC"> F  </i>
   <i type="logical" name="LTHOMAS"> F  </i>
   <i type="logical" name="LMODELHF"> F  </i>
   <i name="ENCUT4O">     -1.00000000</i>
   <i type="int" name="EXXOEP">     0</i>
   <i type="int" name="FOURORBIT">     0</i>
   <i name="AEXX">      0.00000000</i>
   <i name="HFALPHA">      0.00000000</i>
   <i name="MCALPHA">      0.00000000</i>
   <i name="ALDAX">      1.00000000</i>
   <i name="AGGAX">      1.00000000</i>
   <i name="ALDAC">      1.00000000</i>
   <i name="AGGAC">      1.00000000</i>
   <i type="int" name="NKREDX">     1</i>
   <i type="int" name="NKREDY">     1</i>
   <i type="int" name="NKREDZ">     1</i>
   <i type="logical" name="SHIFTRED"> F  </i>
   <i type="logical" name="ODDONLY"> F  </i>
   <i type="logical" name="EVENONLY"> F  </i>
   <i type="int" name="LMAXFOCK">     0</i>
   <i type="int" name="NMAXFOCKAE">     0</i>
   <i type="logical" name="LFOCKAEDFT"> F  </i>
   <i name="HFSCREEN">      0.00000000</i>
   <i name="HFSCREENC">      0.00000000</i>
   <i type="int" name="NBANDSGWLOW">     0</i>
  </separator>
  <separator name="vdW DFT" >
   <i type="logical" name="LUSE_VDW"> F  </i>
   <i name="Zab_VDW">     -0.84910000</i>
   <i name="PARAM1">      0.12340000</i>
   <i name="PARAM2">      1.00000000</i>
   <i name="PARAM3">      0.00000000</i>
  </separator>
  <separator name="model GW" >
   <i type="int" name="MODEL_GW">     0</i>
   <i name="MODEL_EPS0">     14.01837061</i>
   <i name="MODEL_ALPHA">      1.00000000</i>
  </separator>
  <separator name="linear response parameters" >
   <i type="logical" name="LEPSILON"> F  </i>
   <i type="logical" name="LRPA"> F  </i>
   <i type="logical" name="LNABLA"> F  </i>
   <i type="logical" name="LVEL"> F  </i>
   <i type="int" name="KINTER">     0</i>
   <i name="CSHIFT">      0.10000000</i>
   <i name="OMEGAMAX">     -1.00000000</i>
   <i name="DEG_THRESHOLD">      0.00200000</i>
   <i name="RTIME">     -0.10000000</i>
   <i name="WPLASMAI">      0.00000000</i>
   <v name="DFIELD">      0.00000000      0.00000000      0.00000000</v>
   <v name="WPLASMA">      0.00000000      0.00000000      0.00000000      0.00000000      0.00000000      0.00000000      0.00000000      0.00000000      0.00000000</v>
  </separator>
  <separator name="orbital magnetization" >
   <i type="logical" name="NUCIND"> F  </i>
   <v name="MAGPOS">      0.00000000      0.00000000      0.00000000</v>
   <i type="logical" name="LNICSALL"> T  </i>
   <i type="logical" name="ORBITALMAG"> F  </i>
   <i type="logical" name="LMAGBLOCH"> F  </i>
   <i type="logical" name="LCHIMAG"> F  </i>
   <i type="logical" name="LGAUGE"> T  </i>
   <i type="int" name="MAGATOM">     0</i>
   <v name="MAGDIPOL">      0.00000000      0.00000000      0.00000000</v>
   <v name="AVECCONST">      0.00000000      0.00000000      0.00000000</v>
  </separator>
  <separator name="response functions" >
   <i type="logical" name="LADDER"> F  </i>
   <i type="logical" name="LRPAFORCE"> F  </i>
   <i type="logical" name="LFXC"> F  </i>
   <i type="logical" name="LHARTREE"> T  </i>
   <i type="int" name="IBSE">     0</i>
   <v type="int" name="KPOINT">    -1     0     0     0</v>
   <i type="logical" name="LTCTE"> F  </i>
   <i type="logical" name="LTETE"> F  </i>
   <i type="logical" name="LTRIPLET"> F  </i>
   <i type="logical" name="LFXCEPS"> F  </i>
   <i type="logical" name="LFXHEG"> F  </i>
   <i type="int" name="NATURALO">     2</i>
   <i type="logical" name="L2ORDER"> F  </i>
   <i type="logical" name="LMP2LT"> F  </i>
   <i type="logical" name="LUSEW"> F  </i>
   <i name="ENCUTGW">     -2.00000000</i>
   <i name="ENCUTGWSOFT">     -2.00000000</i>
   <i name="ENCUTLF">     -1.00000000</i>
   <i type="int" name="LMAXMP2">    -1</i>
   <i name="SCISSOR">      0.00000000</i>
   <i type="int" name="NOMEGA">     0</i>
   <i type="int" name="NOMEGAR">     0</i>
   <i type="int" name="NBANDSGW">    -1</i>
   <i type="int" name="NBANDSO">    -1</i>
   <i type="int" name="NBANDSV">    -1</i>
   <i type="int" name="NELM">     1</i>
   <i type="int" name="NELMHF">     1</i>
   <i type="int" name="DIM">     3</i>
   <i type="int" name="ANTIRES">     0</i>
   <i name="OMEGAMAX">    -30.00000000</i>
   <i name="OMEGAMIN">    -30.00000000</i>
   <i name="OMEGATL">   -200.00000000</i>
   <i type="int" name="OMEGAGRID">   140</i>
   <i name="CSHIFT">     -0.10000000</i>
   <i type="logical" name="SELFENERGY"> F  </i>
   <i type="logical" name="LSPECTRAL"> F  </i>
   <i type="logical" name="LSPECTRALGW"> F  </i>
   <i type="logical" name="LSINGLES"> F  </i>
   <i type="logical" name="LFERMIGW"> F  </i>
   <i type="logical" name="ODDONLYGW"> F  </i>
   <i type="logical" name="EVENONLYGW"> F  </i>
   <i type="int" name="NKREDLFX">     1</i>
   <i type="int" name="NKREDLFY">     1</i>
   <i type="int" name="NKREDLFZ">     1</i>
   <i type="int" name="MAXMEM">  2800</i>
   <i type="int" name="TELESCOPE">     0</i>
   <i type="int" name="TAUPAR">     1</i>
   <i type="int" name="OMEGAPAR">    -1</i>
   <i name="LAMBDA">      1.00000000</i>
  </separator>
  <separator name="External order field" >
   <i name="OFIELD_KAPPA">      0.00000000</i>
   <v name="OFIELD_K">      0.00000000      0.00000000      0.00000000</v>
   <i name="OFIELD_Q6_NEAR">      0.00000000</i>
   <i name="OFIELD_Q6_FAR">      0.00000000</i>
   <i name="OFIELD_A">      0.00000000</i>
  </separator>
 </parameters>
 <atominfo>
  <atoms>      20 </atoms>
  <types>       3 </types>
  <array name="atoms" >
   <dimension dim="1">ion</dimension>
   <field type="string">element</field>
   <field type="int">atomtype</field>
   <set>
    <rc><c>O </c><c>   1</c></rc>
    <rc><c>O </c><c>   1</c></rc>
    <rc><c>O </c><c>   1</c></rc>
    <rc><c>O </c><c>   1</c></rc>
    <rc><c>O </c><c>   1</c></rc>
    <rc><c>O </c><c>   1</c></rc>
    <rc><c>O </c><c>   1</c></rc>
    <rc><c>O </c><c>   1</c></rc>
    <rc><c>O </c><c>   1</c></rc>
    <rc><c>O </c><c>   1</c></rc>
    <rc><c>O </c><c>   1</c></rc>
    <rc><c>O </c><c>   1</c></rc>
    <rc><c>Sr</c><c>   2</c></rc>
    <rc><c>Sr</c><c>   2</c></rc>
    <rc><c>Sr</c><c>   2</c></rc>
    <rc><c>Sr</c><c>   2</c></rc>
    <rc><c>Ti</c><c>   3</c></rc>
    <rc><c>Ti</c><c>   3</c></rc>
    <rc><c>Ti</c><c>   3</c></rc>
    <rc><c>Ti</c><c>   3</c></rc>
   </set>
  </array>
  <array name="atomtypes" >
   <dimension dim="1">type</dimension>
   <field type="int">atomspertype</field>
   <field type="string">element</field>
   <field>mass</field>
   <field>valence</field>
   <field type="string">pseudopotential</field>
   <set>
    <rc><c>  12</c><c>O </c><c>     16.00000000</c><c>      6.00000000</c><c> PAW_PBE O 08Apr2002                    </c></rc>
    <rc><c>   4</c><c>Sr</c><c>     87.62000000</c><c>     10.00000000</c><c> PAW_PBE Sr_sv 07Sep2000                </c></rc>
    <rc><c>   4</c><c>Ti</c><c>     47.88000000</c><c>      4.00000000</c><c> PAW_PBE Ti 08Apr2002                   </c></rc>
   </set>
  </array>
 </atominfo>
 <structure name="initialpos" >
  <crystal>
   <varray name="basis" >
    <v>       5.52288297       0.00000000       0.00000000 </v>
    <v>       0.00000000       3.90526800       0.00000000 </v>
    <v>       0.00000000       0.00000000      21.66504520 </v>
   </varray>
   <i name="volume">    467.27902047 </i>
   <varray name="rec_basis" >
    <v>       0.18106485       0.00000000       0.00000000 </v>
    <v>       0.00000000       0.25606437       0.00000000 </v>
    <v>       0.00000000       0.00000000       0.04615730 </v>
   </varray>
  </crystal>
  <varray name="positions" >
   <v>       0.50000000       0.00000000       0.27694380 </v>
   <v>       0.25000000       0.50000000       0.34067414 </v>
   <v>       0.75000000       0.50000000       0.34067414 </v>
   <v>       0.00000000       0.00000000       0.40440449 </v>
   <v>       0.75000000       0.50000000       0.46813483 </v>
   <v>       0.25000000       0.50000000       0.46813483 </v>
   <v>       0.50000000       0.00000000       0.53186517 </v>
   <v>       0.25000000       0.50000000       0.59559551 </v>
   <v>       0.75000000       0.50000000       0.59559551 </v>
   <v>       0.00000000       0.00000000       0.65932586 </v>
   <v>       0.75000000       0.50000000       0.72305620 </v>
   <v>       0.25000000       0.50000000       0.72305620 </v>
   <v>       0.00000000       0.00000000       0.27694380 </v>
   <v>       0.50000000       0.00000000       0.40440449 </v>
   <v>       0.00000000       0.00000000       0.53186517 </v>
   <v>       0.50000000       0.00000000       0.65932586 </v>
   <v>       0.50000000       0.50000000       0.27694380 </v>
   <v>       0.00000000       0.50000000       0.40440449 </v>
   <v>       0.50000000       0.50000000       0.53186517 </v>
   <v>       0.00000000       0.50000000       0.65932586 </v>
  </varray>
 </structure>
 <calculation>
  <scstep>
   <time name="dav">    5.54    5.54</time>
   <time name="total">    5.63    5.80</time>
   <energy>
    <i name="alphaZ">    378.09908315 </i>
    <i name="ewald">  22731.27163923 </i>
    <i name="hartreedc"> -30966.93774877 </i>
    <i name="XCdc">    325.41629502 </i>
    <i name="pawpsdc">   5334.45189010 </i>
    <i name="pawaedc">  -5139.13784255 </i>
    <i name="eentropy">      0.00000000 </i>
    <i name="bandstr">   -171.56986535 </i>
    <i name="atom">   8936.14004472 </i>
    <i name="e_fr_energy">   1427.73349555 </i>
    <i name="e_wo_entrp">   1427.73349555 </i>
    <i name="e_0_energy">   1427.73349555 </i>
   </energy>
  </scstep>
  <scstep>
   <time name="dav">    6.50    6.50</time>
   <time name="total">    6.51    6.51</time>
   <energy>
    <i name="e_fr_energy">    132.25528545 </i>
    <i name="e_wo_entrp">    132.25528545 </i>
    <i name="e_0_energy">    132.25528545 </i>
   </energy>
  </scstep>
  <scstep>
   <time name="dav">    6.95    6.95</time>
   <time name="total">    6.95    6.96</time>
   <energy>
    <i name="e_fr_energy">   -177.41791798 </i>
    <i name="e_wo_entrp">   -177.41791798 </i>
    <i name="e_0_energy">   -177.41791798 </i>
   </energy>
  </scstep>
  <scstep>
   <time name="dav">    6.94    6.95</time>
   <time name="total">    6.94    6.95</time>
   <energy>
    <i name="e_fr_energy">   -197.39596747 </i>
    <i name="e_wo_entrp">   -197.39596747 </i>
    <i name="e_0_energy">   -197.39596747 </i>
   </energy>
  </scstep>
  <scstep>
   <time name="dav">    8.74    8.74</time>
   <time name="total">    8.93    8.93</time>
   <energy>
    <i name="e_fr_energy">   -198.48669727 </i>
    <i name="e_wo_entrp">   -198.48669727 </i>
    <i name="e_0_energy">   -198.48669727 </i>
   </energy>
  </scstep>
  <scstep>
   <time name="diag">    0.61    0.61</time>
   <time name="diis">    5.01    5.01</time>
   <time name="orth">    0.12    0.12</time>
   <time name="total">    6.03    6.03</time>
   <energy>
    <i name="e_fr_energy">   -205.20348271 </i>
    <i name="e_wo_entrp">   -205.20348271 </i>
    <i name="e_0_energy">   -205.20348271 </i>
   </energy>
  </scstep>
  <scstep>
   <time name="diag">    0.60    0.60</time>
   <time name="diis">    4.51    4.51</time>
   <time name="orth">    0.12    0.12</time>
   <time name="total">    5.52    5.52</time>
   <energy>
    <i name="e_fr_energy">   -171.87742541 </i>
    <i name="e_wo_entrp">   -171.87742541 </i>
    <i name="e_0_energy">   -171.87742541 </i>
   </energy>
  </scstep>
  <scstep>
   <time name="diag">    0.59    0.59</time>
   <time name="diis">    4.35    4.35</time>
   <time name="orth">    0.12    0.12</time>
   <time name="total">    5.34    5.35</time>
   <energy>
    <i name="e_fr_energy">   -160.50186872 </i>
    <i name="e_wo_entrp">   -160.50186872 </i>
    <i name="e_0_energy">   -160.50186872 </i>
   </energy>
  </scstep>
  <scstep>
   <time name="diag">    0.61    0.61</time>
   <time name="diis">    4.88    4.87</time>
   <time name="orth">    0.12    0.12</time>
   <time name="total">    5.89    5.89</time>
   <energy>
    <i name="e_fr_energy">   -156.20094345 </i>
    <i name="e_wo_entrp">   -156.20094345 </i>
    <i name="e_0_energy">   -156.20094345 </i>
   </energy>
  </scstep>
  <scstep>
   <time name="diag">    0.61    0.61</time>
   <time name="diis">    4.52    4.52</time>
   <time name="orth">    0.12    0.12</time>
   <time name="total">    5.55    5.55</time>
   <energy>
    <i name="e_fr_energy">   -158.09022601 </i>
    <i name="e_wo_entrp">   -158.09022601 </i>
    <i name="e_0_energy">   -158.09022601 </i>
   </energy>
  </scstep>
  <scstep>
   <time name="diag">    0.61    0.61</time>
   <time name="diis">    5.72    5.72</time>
   <time name="orth">    0.12    0.12</time>
   <time name="total">    6.75    6.75</time>
   <energy>
    <i name="e_fr_energy">   -156.65727249 </i>
    <i name="e_wo_entrp">   -156.65727249 </i>
    <i name="e_0_energy">   -156.65727249 </i>
   </energy>
  </scstep>
  <scstep>
   <time name="diag">    0.61    0.61</time>
   <time name="diis">    5.56    5.56</time>
   <time name="orth">    0.12    0.12</time>
   <time name="total">    6.59    6.59</time>
   <energy>
    <i name="e_fr_energy">   -159.85364635 </i>
    <i name="e_wo_entrp">   -159.85364635 </i>
    <i name="e_0_energy">   -159.85364635 </i>
   </energy>
  </scstep>
  <scstep>
   <time name="diag">    0.61    0.61</time>
   <time name="diis">    6.37    6.37</time>
   <time name="orth">    0.12    0.12</time>
   <time name="total">    7.40    7.40</time>
   <energy>
    <i name="e_fr_energy">   -159.84417026 </i>
    <i name="e_wo_entrp">   -159.84417026 </i>
    <i name="e_0_energy">   -159.84417026 </i>
   </energy>
  </scstep>
  <scstep>
   <time name="diag">    0.61    0.61</time>
   <time name="diis">    6.84    6.84</time>
   <time name="orth">    0.12    0.12</time>
   <time name="total">    7.87    7.87</time>
   <energy>
    <i name="e_fr_energy">   -159.71600894 </i>
    <i name="e_wo_entrp">   -159.71600894 </i>
    <i name="e_0_energy">   -159.71600894 </i>
   </energy>
  </scstep>
  <scstep>
   <time name="diag">    0.61    0.61</time>
   <time name="diis">    6.79    6.79</time>
   <time name="orth">    0.12    0.12</time>
   <time name="total">    7.81    7.82</time>
   <energy>
    <i name="e_fr_energy">   -159.75903673 </i>
    <i name="e_wo_entrp">   -159.75903673 </i>
    <i name="e_0_energy">   -159.75903673 </i>
   </energy>
  </scstep>
  <scstep>
   <time name="diag">    0.61    0.61</time>
   <time name="diis">    4.56    4.56</time>
   <time name="orth">    0.12    0.12</time>
   <time name="total">    5.57    5.58</time>
   <energy>
    <i name="e_fr_energy">   -157.99648037 </i>
    <i name="e_wo_entrp">   -157.99648037 </i>
    <i name="e_0_energy">   -157.99648037 </i>
   </energy>
  </scstep>
  <scstep>
   <time name="diag">    0.58    0.58</time>
   <time name="diis">    4.47    4.47</time>
   <time name="orth">    0.12    0.12</time>
   <time name="total">    5.46    5.47</time>
   <energy>
    <i name="e_fr_energy">   -153.14048988 </i>
    <i name="e_wo_entrp">   -153.14048988 </i>
    <i name="e_0_energy">   -153.14048988 </i>
   </energy>
  </scstep>
  <scstep>
   <time name="diag">    0.61    0.61</time>
   <time name="diis">    4.50    4.50</time>
   <time name="orth">    0.12    0.12</time>
   <time name="total">    5.52    5.53</time>
   <energy>
    <i name="e_fr_energy">   -150.12729233 </i>
    <i name="e_wo_entrp">   -150.12729233 </i>
    <i name="e_0_energy">   -150.12729233 </i>
   </energy>
  </scstep>
  <scstep>
   <time name="diag">    0.61    0.61</time>
   <time name="diis">    5.19    5.19</time>
   <time name="orth">    0.12    0.12</time>
   <time name="total">    6.22    6.23</time>
   <energy>
    <i name="e_fr_energy">   -150.15903886 </i>
    <i name="e_wo_entrp">   -150.15903886 </i>
    <i name="e_0_energy">   -150.15903886 </i>
   </energy>
  </scstep>
  <scstep>
   <time name="diag">    0.58    0.58</time>
   <time name="diis">    4.52    4.52</time>
   <time name="orth">    0.12    0.12</time>
   <time name="total">    5.52    5.52</time>
   <energy>
    <i name="e_fr_energy">   -149.97404235 </i>
    <i name="e_wo_entrp">   -149.97404235 </i>
    <i name="e_0_energy">   -149.97404235 </i>
   </energy>
  </scstep>
  <scstep>
   <time name="diag">    0.61    0.61</time>
   <time name="diis">    4.95    4.95</time>
   <time name="orth">    0.12    0.12</time>
   <time name="total">    5.98    5.98</time>
   <energy>
    <i name="e_fr_energy">   -149.89255410 </i>
    <i name="e_wo_entrp">   -149.89255410 </i>
    <i name="e_0_energy">   -149.89255410 </i>
   </energy>
  </scstep>
  <scstep>
   <time name="diag">    0.61    0.61</time>
   <time name="diis">    4.44    4.44</time>
   <time name="orth">    0.12    0.12</time>
   <time name="total">    5.47    5.48</time>
   <energy>
    <i name="e_fr_energy">   -149.72884818 </i>
    <i name="e_wo_entrp">   -149.72884818 </i>
    <i name="e_0_energy">   -149.72884818 </i>
   </energy>
  </scstep>
  <scstep>
   <time name="diag">    0.61    0.61</time>
   <time name="diis">    4.37    4.37</time>
   <time name="orth">    0.12    0.12</time>
   <time name="total">    5.39    5.40</time>
   <energy>
    <i name="e_fr_energy">   -149.22035377 </i>
    <i name="e_wo_entrp">   -149.22035377 </i>
    <i name="e_0_energy">   -149.22035377 </i>
   </energy>
  </scstep>
  <scstep>
   <time name="diag">    0.61    0.61</time>
   <time name="diis">    4.82    4.82</time>
   <time name="orth">    0.12    0.12</time>
   <time name="total">    5.85    5.85</time>
   <energy>
    <i name="e_fr_energy">   -149.08497165 </i>
    <i name="e_wo_entrp">   -149.08497165 </i>
    <i name="e_0_energy">   -149.08497165 </i>
   </energy>
  </scstep>
  <scstep>
   <time name="diag">    0.57    0.57</time>
   <time name="diis">    4.76    4.76</time>
   <time name="orth">    0.12    0.12</time>
   <time name="total">    5.75    5.76</time>
   <energy>
    <i name="e_fr_energy">   -148.99884296 </i>
    <i name="e_wo_entrp">   -148.99884296 </i>
    <i name="e_0_energy">   -148.99884296 </i>
   </energy>
  </scstep>
  <scstep>
   <time name="diag">    0.60    0.60</time>
   <time name="diis">    4.94    4.94</time>
   <time name="orth">    0.12    0.13</time>
   <time name="total">    5.97    5.97</time>
   <energy>
    <i name="e_fr_energy">   -149.01288446 </i>
    <i name="e_wo_entrp">   -149.01288446 </i>
    <i name="e_0_energy">   -149.01288446 </i>
   </energy>
  </scstep>
  <scstep>
   <time name="diag">    0.61    0.61</time>
   <time name="diis">    4.99    4.99</time>
   <time name="orth">    0.12    0.12</time>
   <time name="total">    6.03    6.03</time>
   <energy>
    <i name="e_fr_energy">   -148.95462266 </i>
    <i name="e_wo_entrp">   -148.95462266 </i>
    <i name="e_0_energy">   -148.95462266 </i>
   </energy>
  </scstep>
  <scstep>
   <time name="diag">    0.61    0.61</time>
   <time name="diis">    4.48    4.48</time>
   <time name="orth">    0.12    0.12</time>
   <time name="total">    5.51    5.52</time>
   <energy>
    <i name="e_fr_energy">   -149.02561680 </i>
    <i name="e_wo_entrp">   -149.02561680 </i>
    <i name="e_0_energy">   -149.02561680 </i>
   </energy>
  </scstep>
  <scstep>
   <time name="diag">    0.61    0.61</time>
   <time name="diis">    4.34    4.34</time>
   <time name="orth">    0.12    0.13</time>
   <time name="total">    5.38    5.38</time>
   <energy>
    <i name="e_fr_energy">   -148.95729834 </i>
    <i name="e_wo_entrp">   -148.95729834 </i>
    <i name="e_0_energy">   -148.95729834 </i>
   </energy>
  </scstep>
  <scstep>
   <time name="diag">    0.61    0.61</time>
   <time name="diis">    4.19    4.19</time>
   <time name="orth">    0.12    0.13</time>
   <time name="total">    5.23    5.23</time>
   <energy>
    <i name="e_fr_energy">   -148.98254631 </i>
    <i name="e_wo_entrp">   -148.98254631 </i>
    <i name="e_0_energy">   -148.98254631 </i>
   </energy>
  </scstep>
  <scstep>
   <time name="diag">    0.61    0.61</time>
   <time name="diis">    4.31    4.31</time>
   <time name="orth">    0.12    0.12</time>
   <time name="total">    5.33    5.34</time>
   <energy>
    <i name="e_fr_energy">   -148.93799283 </i>
    <i name="e_wo_entrp">   -148.93799283 </i>
    <i name="e_0_energy">   -148.93799283 </i>
   </energy>
  </scstep>
  <scstep>
   <time name="diag">    0.60    0.60</time>
   <time name="diis">    4.34    4.34</time>
   <time name="orth">    0.12    0.12</time>
   <time name="total">    5.36    5.35</time>
   <energy>
    <i name="e_fr_energy">   -148.94530993 </i>
    <i name="e_wo_entrp">   -148.94530993 </i>
    <i name="e_0_energy">   -148.94530993 </i>
   </energy>
  </scstep>
  <scstep>
   <time name="diag">    0.60    0.60</time>
   <time name="diis">    4.79    4.79</time>
   <time name="orth">    0.13    0.13</time>
   <time name="total">    5.82    5.82</time>
   <energy>
    <i name="e_fr_energy">   -148.94483795 </i>
    <i name="e_wo_entrp">   -148.94483795 </i>
    <i name="e_0_energy">   -148.94483795 </i>
   </energy>
  </scstep>
  <scstep>
   <time name="diag">    0.61    0.61</time>
   <time name="diis">    4.28    4.28</time>
   <time name="orth">    0.12    0.12</time>
   <time name="total">    5.32    5.32</time>
   <energy>
    <i name="e_fr_energy">   -148.97680932 </i>
    <i name="e_wo_entrp">   -148.97680932 </i>
    <i name="e_0_energy">   -148.97680932 </i>
   </energy>
  </scstep>
  <scstep>
   <time name="diag">    0.61    0.61</time>
   <time name="diis">    4.39    4.38</time>
   <time name="orth">    0.12    0.12</time>
   <time name="total">    5.42    5.43</time>
   <energy>
    <i name="e_fr_energy">   -148.96080813 </i>
    <i name="e_wo_entrp">   -148.96080813 </i>
    <i name="e_0_energy">   -148.96080813 </i>
   </energy>
  </scstep>
  <scstep>
   <time name="diag">    0.61    0.61</time>
   <time name="diis">    4.19    4.19</time>
   <time name="orth">    0.12    0.12</time>
   <time name="total">    5.22    5.22</time>
   <energy>
    <i name="e_fr_energy">   -148.94389199 </i>
    <i name="e_wo_entrp">   -148.94389199 </i>
    <i name="e_0_energy">   -148.94389199 </i>
   </energy>
  </scstep>
  <scstep>
   <time name="diag">    0.61    0.61</time>
   <time name="diis">    4.42    4.41</time>
   <time name="orth">    0.12    0.12</time>
   <time name="total">    5.43    5.43</time>
   <energy>
    <i name="e_fr_energy">   -148.93198776 </i>
    <i name="e_wo_entrp">   -148.93198776 </i>
    <i name="e_0_energy">   -148.93198776 </i>
   </energy>
  </scstep>
  <scstep>
   <time name="diag">    0.58    0.58</time>
   <time name="diis">    4.25    4.25</time>
   <time name="orth">    0.12    0.12</time>
   <time name="total">    5.26    5.26</time>
   <energy>
    <i name="e_fr_energy">   -148.94113308 </i>
    <i name="e_wo_entrp">   -148.94113308 </i>
    <i name="e_0_energy">   -148.94113308 </i>
   </energy>
  </scstep>
  <scstep>
   <time name="diag">    0.61    0.61</time>
   <time name="diis">    4.67    4.67</time>
   <time name="orth">    0.12    0.12</time>
   <time name="total">    5.70    5.71</time>
   <energy>
    <i name="e_fr_energy">   -148.93768062 </i>
    <i name="e_wo_entrp">   -148.93768062 </i>
    <i name="e_0_energy">   -148.93768062 </i>
   </energy>
  </scstep>
  <scstep>
   <time name="diag">    0.61    0.61</time>
   <time name="diis">    4.35    4.35</time>
   <time name="orth">    0.13    0.13</time>
   <time name="total">    5.39    5.40</time>
   <energy>
    <i name="e_fr_energy">   -148.93807634 </i>
    <i name="e_wo_entrp">   -148.93807634 </i>
    <i name="e_0_energy">   -148.93807634 </i>
   </energy>
  </scstep>
  <scstep>
   <time name="diag">    0.62    0.62</time>
   <time name="diis">    4.66    4.66</time>
   <time name="orth">    0.13    0.13</time>
   <time name="total">    5.73    5.73</time>
   <energy>
    <i name="e_fr_energy">   -148.93947441 </i>
    <i name="e_wo_entrp">   -148.93947441 </i>
    <i name="e_0_energy">   -148.93947441 </i>
   </energy>
  </scstep>
  <scstep>
   <time name="diag">    0.62    0.62</time>
   <time name="diis">    4.51    4.51</time>
   <time name="orth">    0.13    0.13</time>
   <time name="total">    5.57    5.57</time>
   <energy>
    <i name="e_fr_energy">   -148.94036585 </i>
    <i name="e_wo_entrp">   -148.94036585 </i>
    <i name="e_0_energy">   -148.94036585 </i>
   </energy>
  </scstep>
  <scstep>
   <time name="diag">    0.62    0.63</time>
   <time name="diis">    4.31    4.31</time>
   <time name="orth">    0.12    0.12</time>
   <time name="total">    5.36    5.37</time>
   <energy>
    <i name="e_fr_energy">   -148.94045015 </i>
    <i name="e_wo_entrp">   -148.94045015 </i>
    <i name="e_0_energy">   -148.94045015 </i>
   </energy>
  </scstep>
  <scstep>
   <time name="diag">    0.59    0.59</time>
   <time name="diis">    3.79    3.79</time>
   <time name="orth">    0.13    0.13</time>
   <time name="total">    4.81    4.82</time>
   <energy>
    <i name="e_fr_energy">   -148.94028762 </i>
    <i name="e_wo_entrp">   -148.94028762 </i>
    <i name="e_0_energy">   -148.94028762 </i>
   </energy>
  </scstep>
  <scstep>
   <time name="diag">    0.62    0.62</time>
   <time name="diis">    3.67    3.67</time>
   <time name="orth">    0.13    0.13</time>
   <time name="total">    4.73    4.74</time>
   <energy>
    <i name="e_fr_energy">   -148.94023661 </i>
    <i name="e_wo_entrp">   -148.94023661 </i>
    <i name="e_0_energy">   -148.94023661 </i>
   </energy>
  </scstep>
  <scstep>
   <time name="diag">    0.62    0.62</time>
   <time name="diis">    3.00    3.00</time>
   <time name="orth">    0.12    0.12</time>
   <time name="total">    4.04    4.04</time>
   <energy>
    <i name="e_fr_energy">   -148.94019772 </i>
    <i name="e_wo_entrp">   -148.94019772 </i>
    <i name="e_0_energy">   -148.94019772 </i>
   </energy>
  </scstep>
  <scstep>
   <time name="diag">    0.60    0.60</time>
   <time name="diis">    4.11    4.11</time>
   <time name="orth">    0.12    0.12</time>
   <time name="total">    5.14    5.14</time>
   <energy>
    <i name="e_fr_energy">   -148.94014565 </i>
    <i name="e_wo_entrp">   -148.94014565 </i>
    <i name="e_0_energy">   -148.94014565 </i>
   </energy>
  </scstep>
  <scstep>
   <time name="diag">    0.58    0.58</time>
   <time name="diis">    4.20    4.20</time>
   <time name="orth">    0.13    0.13</time>
   <time name="total">    5.22    5.22</time>
   <energy>
    <i name="e_fr_energy">   -148.94017695 </i>
    <i name="e_wo_entrp">   -148.94017695 </i>
    <i name="e_0_energy">   -148.94017695 </i>
   </energy>
  </scstep>
  <scstep>
   <time name="diag">    0.61    0.61</time>
   <time name="diis">    3.76    3.76</time>
   <time name="orth">    0.12    0.12</time>
   <time name="total">    4.80    4.80</time>
   <energy>
    <i name="e_fr_energy">   -148.94036172 </i>
    <i name="e_wo_entrp">   -148.94036172 </i>
    <i name="e_0_energy">   -148.94036172 </i>
   </energy>
  </scstep>
  <scstep>
   <time name="diag">    0.61    0.61</time>
   <time name="diis">    3.04    3.04</time>
   <time name="orth">    0.12    0.12</time>
   <time name="total">    4.07    4.08</time>
   <energy>
    <i name="e_fr_energy">   -148.94030809 </i>
    <i name="e_wo_entrp">   -148.94030809 </i>
    <i name="e_0_energy">   -148.94030809 </i>
   </energy>
  </scstep>
  <scstep>
   <time name="diag">    0.58    0.58</time>
   <time name="diis">    2.74    2.74</time>
   <time name="orth">    0.12    0.12</time>
   <time name="total">    3.74    3.75</time>
   <energy>
    <i name="e_fr_energy">   -148.94032604 </i>
    <i name="e_wo_entrp">   -148.94032604 </i>
    <i name="e_0_energy">   -148.94032604 </i>
   </energy>
  </scstep>
  <scstep>
   <time name="diag">    0.61    0.61</time>
   <time name="diis">    2.51    2.50</time>
   <time name="orth">    0.12    0.12</time>
   <time name="total">    3.54    3.54</time>
   <energy>
    <i name="e_fr_energy">   -148.94035332 </i>
    <i name="e_wo_entrp">   -148.94035332 </i>
    <i name="e_0_energy">   -148.94035332 </i>
   </energy>
  </scstep>
  <scstep>
   <time name="diag">    0.60    0.60</time>
   <time name="diis">    2.62    2.62</time>
   <time name="orth">    0.12    0.12</time>
   <time name="total">    3.44    3.44</time>
   <energy>
    <i name="alphaZ">    378.09908315 </i>
    <i name="ewald">  22731.27163923 </i>
    <i name="hartreedc"> -31287.72389148 </i>
    <i name="XCdc">    340.09386663 </i>
    <i name="pawpsdc">   6201.13208630 </i>
    <i name="pawaedc">  -6030.19580465 </i>
    <i name="eentropy">      0.00000000 </i>
    <i name="bandstr">  -1417.75737632 </i>
    <i name="atom">   8936.14004472 </i>
    <i name="e_fr_energy">   -148.94035242 </i>
    <i name="e_wo_entrp">   -148.94035242 </i>
    <i name="e_0_energy">   -148.94035242 </i>
   </energy>
  </scstep>
  <structure>
   <crystal>
    <varray name="basis" >
     <v>       5.52288297       0.00000000       0.00000000 </v>
     <v>       0.00000000       3.90526800       0.00000000 </v>
     <v>       0.00000000       0.00000000      21.66504520 </v>
    </varray>
    <i name="volume">    467.27902047 </i>
    <varray name="rec_basis" >
     <v>       0.18106485       0.00000000       0.00000000 </v>
     <v>       0.00000000       0.25606437       0.00000000 </v>
     <v>       0.00000000       0.00000000       0.04615730 </v>
    </varray>
   </crystal>
   <varray name="positions" >
    <v>       0.50000000       0.00000000       0.27694380 </v>
    <v>       0.25000000       0.50000000       0.34067414 </v>
    <v>       0.75000000       0.50000000       0.34067414 </v>
    <v>       0.00000000       0.00000000       0.40440449 </v>
    <v>       0.75000000       0.50000000       0.46813483 </v>
    <v>       0.25000000       0.50000000       0.46813483 </v>
    <v>       0.50000000       0.00000000       0.53186517 </v>
    <v>       0.25000000       0.50000000       0.59559551 </v>
    <v>       0.75000000       0.50000000       0.59559551 </v>
    <v>       0.00000000       0.00000000       0.65932586 </v>
    <v>       0.75000000       0.50000000       0.72305620 </v>
    <v>       0.25000000       0.50000000       0.72305620 </v>
    <v>       0.00000000       0.00000000       0.27694380 </v>
    <v>       0.50000000       0.00000000       0.40440449 </v>
    <v>       0.00000000       0.00000000       0.53186517 </v>
    <v>       0.50000000       0.00000000       0.65932586 </v>
    <v>       0.50000000       0.50000000       0.27694380 </v>
    <v>       0.00000000       0.50000000       0.40440449 </v>
    <v>       0.50000000       0.50000000       0.53186517 </v>
    <v>       0.00000000       0.50000000       0.65932586 </v>
   </varray>
  </structure>
  <varray name="forces" >
   <v>       0.00000000       0.00000000      -1.50943745 </v>
   <v>       0.70321327      -0.00000000      -2.07947144 </v>
   <v>      -0.70321327       0.00000000      -2.07947144 </v>
   <v>       0.00000000       0.00000000      -0.77384405 </v>
   <v>       0.55343581       0.00000000      -1.28006957 </v>
   <v>      -0.55343581       0.00000000      -1.28006957 </v>
   <v>       0.00000000       0.00000000      -0.57489752 </v>
   <v>       0.80858069      -0.00000000      -1.45169209 </v>
   <v>      -0.80858069       0.00000000      -1.45169209 </v>
   <v>       0.00000000       0.00000000      -1.12465969 </v>
   <v>       0.19702940       0.00000000      -0.99844139 </v>
   <v>      -0.19702940      -0.00000000      -0.99844139 </v>
   <v>       0.00000000       0.00000000       0.99306115 </v>
   <v>       0.00000000       0.00000000       0.96455767 </v>
   <v>       0.00000000       0.00000000       0.75156350 </v>
   <v>       0.00000000       0.00000000       1.59852536 </v>
   <v>       0.00000000       0.00000000       2.28852263 </v>
   <v>       0.00000000       0.00000000       2.59826405 </v>
   <v>       0.00000000       0.00000000       2.35337464 </v>
   <v>       0.00000000       0.00000000       4.05431867 </v>
  </varray>
  <varray name="stress" >
   <v>     -10.90499707       0.00000000       0.00000000 </v>
   <v>       0.00000000       5.88510768       0.00000000 </v>
   <v>       0.00000000       0.00000000     -15.93302628 </v>
  </varray>
  <energy>
   <i name="e_fr_energy">   -148.94035242 </i>
   <i name="e_wo_entrp">   -148.94035242 </i>
   <i name="e_0_energy">      0.00000000 </i>
  </energy>
  <time name="totalsc">  306.63  307.14</time>
  <eigenvalues>
   <array>
    <dimension dim="1">band</dimension>
    <dimension dim="2">kpoint</dimension>
    <dimension dim="3">spin</dimension>
    <field>eigene</field>
    <field>occ</field>
    <set>
     <set comment="spin 1">
      <set comment="kpoint 1">
       <r>  -36.5979    1.0000 </r>
       <r>  -35.2716    1.0000 </r>
       <r>  -34.3096    1.0000 </r>
       <r>  -33.4165    1.0000 </r>
       <r>  -20.5159    1.0000 </r>
       <r>  -20.0449    1.0000 </r>
       <r>  -19.8577    1.0000 </r>
       <r>  -19.3674    1.0000 </r>
       <r>  -19.0550    1.0000 </r>
       <r>  -18.6870    1.0000 </r>
       <r>  -18.5949    1.0000 </r>
       <r>  -18.5406    1.0000 </r>
       <r>  -18.5241    1.0000 </r>
       <r>  -18.3522    1.0000 </r>
       <r>  -18.0998    1.0000 </r>
       <r>  -17.8319    1.0000 </r>
       <r>  -17.3126    1.0000 </r>
       <r>  -17.2962    1.0000 </r>
       <r>  -17.1368    1.0000 </r>
       <r>  -17.0559    1.0000 </r>
       <r>  -16.5243    1.0000 </r>
       <r>  -16.3459    1.0000 </r>
       <r>  -16.2946    1.0000 </r>
       <r>  -16.1622    1.0000 </r>
       <r>  -16.0940    1.0000 </r>
       <r>  -15.4337    1.0000 </r>
       <r>  -15.1685    1.0000 </r>
       <r>  -15.1185    1.0000 </r>
       <r>   -7.1163    1.0000 </r>
       <r>   -6.8075    1.0000 </r>
       <r>   -6.6451    1.0000 </r>
       <r>   -6.0182    1.0000 </r>
       <r>   -5.8972    1.0000 </r>
       <r>   -5.5478    1.0000 </r>
       <r>   -5.4536    1.0000 </r>
       <r>   -5.3056    1.0000 </r>
       <r>   -5.1523    1.0000 </r>
       <r>   -5.0695    1.0000 </r>
       <r>   -5.0098    1.0000 </r>
       <r>   -4.8637    1.0000 </r>
       <r>   -4.7764    1.0000 </r>
       <r>   -4.5896    1.0000 </r>
       <r>   -4.2548    1.0000 </r>
       <r>   -4.1297    1.0000 </r>
       <r>   -4.0912    1.0000 </r>
       <r>   -4.0047    1.0000 </r>
       <r>   -3.8146    1.0000 </r>
       <r>   -3.7785    1.0000 </r>
       <r>   -3.5558    1.0000 </r>
       <r>   -3.2553    1.0000 </r>
       <r>   -3.0239    1.0000 </r>
       <r>   -2.9323    1.0000 </r>
       <r>   -2.9132    1.0000 </r>
       <r>   -2.7077    1.0000 </r>
       <r>   -2.6746    1.0000 </r>
       <r>   -2.3954    1.0000 </r>
       <r>   -2.3027    1.0000 </r>
       <r>   -1.9595    1.0000 </r>
       <r>   -1.9218    1.0000 </r>
       <r>   -1.3764    1.0000 </r>
       <r>   -1.3460    1.0000 </r>
       <r>   -1.0937    1.0000 </r>
       <r>   -1.0865    1.0000 </r>
       <r>   -1.0429    1.0000 </r>
       <r>   -0.8731    1.1176 </r>
       <r>   -0.7832    0.1910 </r>
       <r>   -0.7577    0.0000 </r>
       <r>   -0.5205    0.0000 </r>
       <r>    0.0643    0.0000 </r>
       <r>    0.2836    0.0000 </r>
       <r>    0.3808    0.0000 </r>
       <r>    0.6448    0.0000 </r>
       <r>    1.3205    0.0000 </r>
       <r>    2.6124    0.0000 </r>
       <r>    2.6567    0.0000 </r>
       <r>    4.0415    0.0000 </r>
      </set>
      <set comment="kpoint 2">
       <r>  -36.5976    1.0000 </r>
       <r>  -35.2713    1.0000 </r>
       <r>  -34.3093    1.0000 </r>
       <r>  -33.4162    1.0000 </r>
       <r>  -20.5760    1.0000 </r>
       <r>  -20.2014    1.0000 </r>
       <r>  -19.7313    1.0000 </r>
       <r>  -19.3565    1.0000 </r>
       <r>  -19.1341    1.0000 </r>
       <r>  -18.7230    1.0000 </r>
       <r>  -18.5952    1.0000 </r>
       <r>  -18.4746    1.0000 </r>
       <r>  -18.4083    1.0000 </r>
       <r>  -18.3596    1.0000 </r>
       <r>  -18.1701    1.0000 </r>
       <r>  -17.7996    1.0000 </r>
       <r>  -17.3132    1.0000 </r>
       <r>  -17.2825    1.0000 </r>
       <r>  -17.0967    1.0000 </r>
       <r>  -17.0634    1.0000 </r>
       <r>  -16.4968    1.0000 </r>
       <r>  -16.3466    1.0000 </r>
       <r>  -16.2961    1.0000 </r>
       <r>  -16.1378    1.0000 </r>
       <r>  -16.0354    1.0000 </r>
       <r>  -15.4346    1.0000 </r>
       <r>  -15.1743    1.0000 </r>
       <r>  -15.0994    1.0000 </r>
       <r>   -6.9482    1.0000 </r>
       <r>   -6.7641    1.0000 </r>
       <r>   -6.6749    1.0000 </r>
       <r>   -5.9913    1.0000 </r>
       <r>   -5.7586    1.0000 </r>
       <r>   -5.6203    1.0000 </r>
       <r>   -5.5489    1.0000 </r>
       <r>   -5.3482    1.0000 </r>
       <r>   -5.1864    1.0000 </r>
       <r>   -5.1403    1.0000 </r>
       <r>   -4.9355    1.0000 </r>
       <r>   -4.7812    1.0000 </r>
       <r>   -4.7050    1.0000 </r>
       <r>   -4.6485    1.0000 </r>
       <r>   -4.3783    1.0000 </r>
       <r>   -4.3568    1.0000 </r>
       <r>   -4.0901    1.0000 </r>
       <r>   -4.0433    1.0000 </r>
       <r>   -3.9682    1.0000 </r>
       <r>   -3.7489    1.0000 </r>
       <r>   -3.5170    1.0000 </r>
       <r>   -3.3702    1.0000 </r>
       <r>   -3.1979    1.0000 </r>
       <r>   -3.0380    1.0000 </r>
       <r>   -2.9449    1.0000 </r>
       <r>   -2.7986    1.0000 </r>
       <r>   -2.6221    1.0000 </r>
       <r>   -2.5281    1.0000 </r>
       <r>   -2.3095    1.0000 </r>
       <r>   -2.2106    1.0000 </r>
       <r>   -1.8983    1.0000 </r>
       <r>   -1.4191    1.0000 </r>
       <r>   -1.3934    1.0000 </r>
       <r>   -1.1086    1.0000 </r>
       <r>   -1.0810    1.0000 </r>
       <r>   -0.9682    1.0000 </r>
       <r>   -0.8758    1.0816 </r>
       <r>   -0.7468    0.0410 </r>
       <r>   -0.7306    0.0000 </r>
       <r>   -0.6244    0.0000 </r>
       <r>    0.0830    0.0000 </r>
       <r>    0.3215    0.0000 </r>
       <r>    0.3580    0.0000 </r>
       <r>    0.8090    0.0000 </r>
       <r>    1.3009    0.0000 </r>
       <r>    2.6317    0.0000 </r>
       <r>    2.6748    0.0000 </r>
       <r>    4.2217    0.0000 </r>
      </set>
      <set comment="kpoint 3">
       <r>  -36.5971    1.0000 </r>
       <r>  -35.2708    1.0000 </r>
       <r>  -34.3087    1.0000 </r>
       <r>  -33.4158    1.0000 </r>
       <r>  -20.6765    1.0000 </r>
       <r>  -20.3139    1.0000 </r>
       <r>  -19.6818    1.0000 </r>
       <r>  -19.3141    1.0000 </r>
       <r>  -19.2395    1.0000 </r>
       <r>  -18.7340    1.0000 </r>
       <r>  -18.5957    1.0000 </r>
       <r>  -18.3893    1.0000 </r>
       <r>  -18.3538    1.0000 </r>
       <r>  -18.3034    1.0000 </r>
       <r>  -18.2358    1.0000 </r>
       <r>  -17.7764    1.0000 </r>
       <r>  -17.3143    1.0000 </r>
       <r>  -17.2689    1.0000 </r>
       <r>  -17.0678    1.0000 </r>
       <r>  -17.0299    1.0000 </r>
       <r>  -16.4266    1.0000 </r>
       <r>  -16.3477    1.0000 </r>
       <r>  -16.3166    1.0000 </r>
       <r>  -16.0651    1.0000 </r>
       <r>  -15.9907    1.0000 </r>
       <r>  -15.4361    1.0000 </r>
       <r>  -15.1753    1.0000 </r>
       <r>  -15.0620    1.0000 </r>
       <r>   -6.8377    1.0000 </r>
       <r>   -6.7208    1.0000 </r>
       <r>   -6.3119    1.0000 </r>
       <r>   -5.9309    1.0000 </r>
       <r>   -5.8315    1.0000 </r>
       <r>   -5.6812    1.0000 </r>
       <r>   -5.6215    1.0000 </r>
       <r>   -5.5024    1.0000 </r>
       <r>   -5.3186    1.0000 </r>
       <r>   -5.1165    1.0000 </r>
       <r>   -4.8110    1.0000 </r>
       <r>   -4.7924    1.0000 </r>
       <r>   -4.6959    1.0000 </r>
       <r>   -4.6472    1.0000 </r>
       <r>   -4.5781    1.0000 </r>
       <r>   -4.5110    1.0000 </r>
       <r>   -4.1416    1.0000 </r>
       <r>   -4.1236    1.0000 </r>
       <r>   -3.9067    1.0000 </r>
       <r>   -3.8968    1.0000 </r>
       <r>   -3.6809    1.0000 </r>
       <r>   -3.5225    1.0000 </r>
       <r>   -3.3625    1.0000 </r>
       <r>   -3.1177    1.0000 </r>
       <r>   -3.0780    1.0000 </r>
       <r>   -3.0132    1.0000 </r>
       <r>   -2.7689    1.0000 </r>
       <r>   -2.5170    1.0000 </r>
       <r>   -2.3712    1.0000 </r>
       <r>   -2.3235    1.0000 </r>
       <r>   -1.7536    1.0000 </r>
       <r>   -1.5557    1.0000 </r>
       <r>   -1.4644    1.0000 </r>
       <r>   -1.2045    1.0000 </r>
       <r>   -1.0688    1.0000 </r>
       <r>   -1.0338    1.0000 </r>
       <r>   -0.8544    1.0126 </r>
       <r>   -0.8173    0.5936 </r>
       <r>   -0.7459    0.0000 </r>
       <r>   -0.4025    0.0000 </r>
       <r>    0.0431    0.0000 </r>
       <r>    0.3105    0.0000 </r>
       <r>    0.3897    0.0000 </r>
       <r>    0.9629    0.0000 </r>
       <r>    1.2907    0.0000 </r>
       <r>    1.3262    0.0000 </r>
       <r>    2.6095    0.0000 </r>
       <r>    2.7455    0.0000 </r>
      </set>
      <set comment="kpoint 4">
       <r>  -36.5945    1.0000 </r>
       <r>  -35.2677    1.0000 </r>
       <r>  -34.3057    1.0000 </r>
       <r>  -33.4126    1.0000 </r>
       <r>  -20.4618    1.0000 </r>
       <r>  -20.0046    1.0000 </r>
       <r>  -19.8113    1.0000 </r>
       <r>  -19.3235    1.0000 </r>
       <r>  -19.0724    1.0000 </r>
       <r>  -18.6426    1.0000 </r>
       <r>  -18.6104    1.0000 </r>
       <r>  -18.5546    1.0000 </r>
       <r>  -18.5029    1.0000 </r>
       <r>  -18.3136    1.0000 </r>
       <r>  -18.1148    1.0000 </r>
       <r>  -17.7916    1.0000 </r>
       <r>  -17.2860    1.0000 </r>
       <r>  -17.2426    1.0000 </r>
       <r>  -17.1859    1.0000 </r>
       <r>  -17.0715    1.0000 </r>
       <r>  -16.5710    1.0000 </r>
       <r>  -16.3053    1.0000 </r>
       <r>  -16.2669    1.0000 </r>
       <r>  -16.2064    1.0000 </r>
       <r>  -16.1118    1.0000 </r>
       <r>  -15.3836    1.0000 </r>
       <r>  -15.1996    1.0000 </r>
       <r>  -15.1831    1.0000 </r>
       <r>   -7.0589    1.0000 </r>
       <r>   -6.7375    1.0000 </r>
       <r>   -6.6397    1.0000 </r>
       <r>   -6.3439    1.0000 </r>
       <r>   -5.8662    1.0000 </r>
       <r>   -5.8427    1.0000 </r>
       <r>   -5.5522    1.0000 </r>
       <r>   -5.5093    1.0000 </r>
       <r>   -5.2940    1.0000 </r>
       <r>   -5.2281    1.0000 </r>
       <r>   -5.0648    1.0000 </r>
       <r>   -4.9911    1.0000 </r>
       <r>   -4.8741    1.0000 </r>
       <r>   -4.6313    1.0000 </r>
       <r>   -4.4341    1.0000 </r>
       <r>   -4.4295    1.0000 </r>
       <r>   -4.0893    1.0000 </r>
       <r>   -4.0766    1.0000 </r>
       <r>   -4.0334    1.0000 </r>
       <r>   -3.7363    1.0000 </r>
       <r>   -3.7148    1.0000 </r>
       <r>   -3.3639    1.0000 </r>
       <r>   -3.1780    1.0000 </r>
       <r>   -3.0756    1.0000 </r>
       <r>   -2.9433    1.0000 </r>
       <r>   -2.8306    1.0000 </r>
       <r>   -2.7124    1.0000 </r>
       <r>   -2.5639    1.0000 </r>
       <r>   -2.3457    1.0000 </r>
       <r>   -2.0107    1.0000 </r>
       <r>   -1.9818    1.0000 </r>
       <r>   -1.5082    1.0000 </r>
       <r>   -1.3178    1.0000 </r>
       <r>   -1.1012    1.0000 </r>
       <r>   -0.9786    1.0000 </r>
       <r>   -0.9717    1.0381 </r>
       <r>   -0.7524    0.2627 </r>
       <r>   -0.6598   -0.0306 </r>
       <r>   -0.5281    0.0000 </r>
       <r>   -0.4707    0.0000 </r>
       <r>    0.1229    0.0000 </r>
       <r>    0.4814    0.0000 </r>
       <r>    0.5618    0.0000 </r>
       <r>    0.6751    0.0000 </r>
       <r>    1.4231    0.0000 </r>
       <r>    2.7748    0.0000 </r>
       <r>    2.8382    0.0000 </r>
       <r>    4.3386    0.0000 </r>
      </set>
      <set comment="kpoint 5">
       <r>  -36.5942    1.0000 </r>
       <r>  -35.2674    1.0000 </r>
       <r>  -34.3054    1.0000 </r>
       <r>  -33.4124    1.0000 </r>
       <r>  -20.5021    1.0000 </r>
       <r>  -20.1579    1.0000 </r>
       <r>  -19.7074    1.0000 </r>
       <r>  -19.3215    1.0000 </r>
       <r>  -19.1206    1.0000 </r>
       <r>  -18.7140    1.0000 </r>
       <r>  -18.5938    1.0000 </r>
       <r>  -18.4914    1.0000 </r>
       <r>  -18.3900    1.0000 </r>
       <r>  -18.3269    1.0000 </r>
       <r>  -18.1680    1.0000 </r>
       <r>  -17.7805    1.0000 </r>
       <r>  -17.2814    1.0000 </r>
       <r>  -17.2426    1.0000 </r>
       <r>  -17.1294    1.0000 </r>
       <r>  -17.0870    1.0000 </r>
       <r>  -16.5429    1.0000 </r>
       <r>  -16.3164    1.0000 </r>
       <r>  -16.2633    1.0000 </r>
       <r>  -16.1760    1.0000 </r>
       <r>  -16.0480    1.0000 </r>
       <r>  -15.3787    1.0000 </r>
       <r>  -15.2116    1.0000 </r>
       <r>  -15.1413    1.0000 </r>
       <r>   -6.9246    1.0000 </r>
       <r>   -6.7158    1.0000 </r>
       <r>   -6.6638    1.0000 </r>
       <r>   -6.3257    1.0000 </r>
       <r>   -5.9631    1.0000 </r>
       <r>   -5.7711    1.0000 </r>
       <r>   -5.6140    1.0000 </r>
       <r>   -5.5162    1.0000 </r>
       <r>   -5.3441    1.0000 </r>
       <r>   -5.1824    1.0000 </r>
       <r>   -5.0622    1.0000 </r>
       <r>   -4.9815    1.0000 </r>
       <r>   -4.8283    1.0000 </r>
       <r>   -4.6599    1.0000 </r>
       <r>   -4.5873    1.0000 </r>
       <r>   -4.4233    1.0000 </r>
       <r>   -4.3611    1.0000 </r>
       <r>   -4.0670    1.0000 </r>
       <r>   -3.9398    1.0000 </r>
       <r>   -3.8305    1.0000 </r>
       <r>   -3.6984    1.0000 </r>
       <r>   -3.4883    1.0000 </r>
       <r>   -3.1742    1.0000 </r>
       <r>   -3.0975    1.0000 </r>
       <r>   -3.0315    1.0000 </r>
       <r>   -2.9677    1.0000 </r>
       <r>   -2.8518    1.0000 </r>
       <r>   -2.5441    1.0000 </r>
       <r>   -2.3712    1.0000 </r>
       <r>   -2.1918    1.0000 </r>
       <r>   -1.9452    1.0000 </r>
       <r>   -1.6281    1.0000 </r>
       <r>   -1.3127    1.0000 </r>
       <r>   -1.1052    1.0000 </r>
       <r>   -0.9774    1.0000 </r>
       <r>   -0.9416    1.0177 </r>
       <r>   -0.7355    0.3107 </r>
       <r>   -0.7170   -0.0135 </r>
       <r>   -0.5351    0.0000 </r>
       <r>   -0.4230    0.0000 </r>
       <r>    0.1644    0.0000 </r>
       <r>    0.5124    0.0000 </r>
       <r>    0.5474    0.0000 </r>
       <r>    0.8302    0.0000 </r>
       <r>    1.4490    0.0000 </r>
       <r>    2.7596    0.0000 </r>
       <r>    2.8238    0.0000 </r>
       <r>    4.5023    0.0000 </r>
      </set>
      <set comment="kpoint 6">
       <r>  -36.5938    1.0000 </r>
       <r>  -35.2670    1.0000 </r>
       <r>  -34.3049    1.0000 </r>
       <r>  -33.4120    1.0000 </r>
       <r>  -20.5848    1.0000 </r>
       <r>  -20.2625    1.0000 </r>
       <r>  -19.6785    1.0000 </r>
       <r>  -19.3093    1.0000 </r>
       <r>  -19.1893    1.0000 </r>
       <r>  -18.7422    1.0000 </r>
       <r>  -18.5839    1.0000 </r>
       <r>  -18.3789    1.0000 </r>
       <r>  -18.3407    1.0000 </r>
       <r>  -18.3163    1.0000 </r>
       <r>  -18.2207    1.0000 </r>
       <r>  -17.7814    1.0000 </r>
       <r>  -17.2636    1.0000 </r>
       <r>  -17.2477    1.0000 </r>
       <r>  -17.1009    1.0000 </r>
       <r>  -17.0506    1.0000 </r>
       <r>  -16.4777    1.0000 </r>
       <r>  -16.3364    1.0000 </r>
       <r>  -16.2586    1.0000 </r>
       <r>  -16.1021    1.0000 </r>
       <r>  -16.0043    1.0000 </r>
       <r>  -15.3613    1.0000 </r>
       <r>  -15.2030    1.0000 </r>
       <r>  -15.0913    1.0000 </r>
       <r>   -6.8543    1.0000 </r>
       <r>   -6.7280    1.0000 </r>
       <r>   -6.4273    1.0000 </r>
       <r>   -6.3057    1.0000 </r>
       <r>   -6.0330    1.0000 </r>
       <r>   -5.7914    1.0000 </r>
       <r>   -5.6063    1.0000 </r>
       <r>   -5.5407    1.0000 </r>
       <r>   -5.4560    1.0000 </r>
       <r>   -5.2942    1.0000 </r>
       <r>   -5.0785    1.0000 </r>
       <r>   -4.9571    1.0000 </r>
       <r>   -4.8279    1.0000 </r>
       <r>   -4.7296    1.0000 </r>
       <r>   -4.6886    1.0000 </r>
       <r>   -4.5277    1.0000 </r>
       <r>   -4.3548    1.0000 </r>
       <r>   -4.1481    1.0000 </r>
       <r>   -3.9718    1.0000 </r>
       <r>   -3.8276    1.0000 </r>
       <r>   -3.7892    1.0000 </r>
       <r>   -3.5531    1.0000 </r>
       <r>   -3.4859    1.0000 </r>
       <r>   -3.2312    1.0000 </r>
       <r>   -3.1170    1.0000 </r>
       <r>   -2.9962    1.0000 </r>
       <r>   -2.8946    1.0000 </r>
       <r>   -2.8229    1.0000 </r>
       <r>   -2.4340    1.0000 </r>
       <r>   -2.1544    1.0000 </r>
       <r>   -1.8696    1.0000 </r>
       <r>   -1.7051    1.0000 </r>
       <r>   -1.3047    1.0000 </r>
       <r>   -1.2527    1.0000 </r>
       <r>   -1.1105    1.0000 </r>
       <r>   -0.9365    1.0000 </r>
       <r>   -0.8811    1.0627 </r>
       <r>   -0.6232   -0.0579 </r>
       <r>   -0.3752    0.0000 </r>
       <r>   -0.3366    0.0000 </r>
       <r>    0.1586    0.0000 </r>
       <r>    0.5209    0.0000 </r>
       <r>    0.5777    0.0000 </r>
       <r>    1.3004    0.0000 </r>
       <r>    1.4326    0.0000 </r>
       <r>    1.7958    0.0000 </r>
       <r>    2.7212    0.0000 </r>
       <r>    2.8079    0.0000 </r>
      </set>
      <set comment="kpoint 7">
       <r>  -36.5867    1.0000 </r>
       <r>  -35.2589    1.0000 </r>
       <r>  -34.2969    1.0000 </r>
       <r>  -33.4040    1.0000 </r>
       <r>  -20.3958    1.0000 </r>
       <r>  -19.8805    1.0000 </r>
       <r>  -19.6924    1.0000 </r>
       <r>  -19.2289    1.0000 </r>
       <r>  -19.0987    1.0000 </r>
       <r>  -18.6400    1.0000 </r>
       <r>  -18.5879    1.0000 </r>
       <r>  -18.5261    1.0000 </r>
       <r>  -18.4533    1.0000 </r>
       <r>  -18.2272    1.0000 </r>
       <r>  -18.1230    1.0000 </r>
       <r>  -17.6875    1.0000 </r>
       <r>  -17.3111    1.0000 </r>
       <r>  -17.2259    1.0000 </r>
       <r>  -17.1755    1.0000 </r>
       <r>  -17.0516    1.0000 </r>
       <r>  -16.6370    1.0000 </r>
       <r>  -16.3607    1.0000 </r>
       <r>  -16.2184    1.0000 </r>
       <r>  -16.1412    1.0000 </r>
       <r>  -16.1388    1.0000 </r>
       <r>  -15.3719    1.0000 </r>
       <r>  -15.3475    1.0000 </r>
       <r>  -15.1969    1.0000 </r>
       <r>   -7.0028    1.0000 </r>
       <r>   -6.9412    1.0000 </r>
       <r>   -6.6245    1.0000 </r>
       <r>   -6.5397    1.0000 </r>
       <r>   -6.3822    1.0000 </r>
       <r>   -6.2863    1.0000 </r>
       <r>   -6.0179    1.0000 </r>
       <r>   -5.8050    1.0000 </r>
       <r>   -5.5731    1.0000 </r>
       <r>   -5.4694    1.0000 </r>
       <r>   -5.3125    1.0000 </r>
       <r>   -5.1826    1.0000 </r>
       <r>   -5.0560    1.0000 </r>
       <r>   -4.9918    1.0000 </r>
       <r>   -4.7489    1.0000 </r>
       <r>   -4.5377    1.0000 </r>
       <r>   -4.5245    1.0000 </r>
       <r>   -4.2574    1.0000 </r>
       <r>   -4.1935    1.0000 </r>
       <r>   -3.9987    1.0000 </r>
       <r>   -3.9147    1.0000 </r>
       <r>   -3.7175    1.0000 </r>
       <r>   -3.4207    1.0000 </r>
       <r>   -3.3785    1.0000 </r>
       <r>   -2.9819    1.0000 </r>
       <r>   -2.8247    1.0000 </r>
       <r>   -2.7781    1.0000 </r>
       <r>   -2.6992    1.0000 </r>
       <r>   -2.2721    1.0000 </r>
       <r>   -2.1487    1.0000 </r>
       <r>   -1.9915    1.0000 </r>
       <r>   -1.5063    1.0000 </r>
       <r>   -1.3018    1.0000 </r>
       <r>   -0.9913    1.0000 </r>
       <r>   -0.8196    1.0382 </r>
       <r>   -0.7471    0.3928 </r>
       <r>   -0.6989    0.0000 </r>
       <r>   -0.5435    0.0000 </r>
       <r>   -0.3121    0.0000 </r>
       <r>    0.1574    0.0000 </r>
       <r>    0.3656    0.0000 </r>
       <r>    0.7282    0.0000 </r>
       <r>    0.9719    0.0000 </r>
       <r>    1.0126    0.0000 </r>
       <r>    1.8533    0.0000 </r>
       <r>    1.8812    0.0000 </r>
       <r>    3.0855    0.0000 </r>
       <r>    3.1395    0.0000 </r>
      </set>
      <set comment="kpoint 8">
       <r>  -36.5865    1.0000 </r>
       <r>  -35.2587    1.0000 </r>
       <r>  -34.2967    1.0000 </r>
       <r>  -33.4038    1.0000 </r>
       <r>  -20.3744    1.0000 </r>
       <r>  -20.0401    1.0000 </r>
       <r>  -19.6596    1.0000 </r>
       <r>  -19.2453    1.0000 </r>
       <r>  -19.0984    1.0000 </r>
       <r>  -18.6343    1.0000 </r>
       <r>  -18.5921    1.0000 </r>
       <r>  -18.5136    1.0000 </r>
       <r>  -18.3887    1.0000 </r>
       <r>  -18.2425    1.0000 </r>
       <r>  -18.1515    1.0000 </r>
       <r>  -17.7234    1.0000 </r>
       <r>  -17.2699    1.0000 </r>
       <r>  -17.1802    1.0000 </r>
       <r>  -17.1638    1.0000 </r>
       <r>  -17.0931    1.0000 </r>
       <r>  -16.6129    1.0000 </r>
       <r>  -16.2978    1.0000 </r>
       <r>  -16.2356    1.0000 </r>
       <r>  -16.1782    1.0000 </r>
       <r>  -16.0469    1.0000 </r>
       <r>  -15.3741    1.0000 </r>
       <r>  -15.2974    1.0000 </r>
       <r>  -15.1562    1.0000 </r>
       <r>   -6.9841    1.0000 </r>
       <r>   -6.9067    1.0000 </r>
       <r>   -6.7050    1.0000 </r>
       <r>   -6.5646    1.0000 </r>
       <r>   -6.4281    1.0000 </r>
       <r>   -6.2893    1.0000 </r>
       <r>   -6.0311    1.0000 </r>
       <r>   -5.8096    1.0000 </r>
       <r>   -5.6454    1.0000 </r>
       <r>   -5.4206    1.0000 </r>
       <r>   -5.3651    1.0000 </r>
       <r>   -5.1940    1.0000 </r>
       <r>   -5.0519    1.0000 </r>
       <r>   -4.9724    1.0000 </r>
       <r>   -4.8446    1.0000 </r>
       <r>   -4.7097    1.0000 </r>
       <r>   -4.3940    1.0000 </r>
       <r>   -4.2931    1.0000 </r>
       <r>   -4.1531    1.0000 </r>
       <r>   -4.0716    1.0000 </r>
       <r>   -3.8866    1.0000 </r>
       <r>   -3.7714    1.0000 </r>
       <r>   -3.5513    1.0000 </r>
       <r>   -3.3588    1.0000 </r>
       <r>   -3.1656    1.0000 </r>
       <r>   -2.9031    1.0000 </r>
       <r>   -2.8942    1.0000 </r>
       <r>   -2.5580    1.0000 </r>
       <r>   -2.3314    1.0000 </r>
       <r>   -2.0923    1.0000 </r>
       <r>   -2.0402    1.0000 </r>
       <r>   -1.6654    1.0000 </r>
       <r>   -1.2658    1.0000 </r>
       <r>   -0.9712    1.0000 </r>
       <r>   -0.8367    1.0331 </r>
       <r>   -0.7994    0.8814 </r>
       <r>   -0.7205    0.0225 </r>
       <r>   -0.5560    0.0000 </r>
       <r>   -0.2305    0.0000 </r>
       <r>    0.1907    0.0000 </r>
       <r>    0.4089    0.0000 </r>
       <r>    0.8663    0.0000 </r>
       <r>    0.9851    0.0000 </r>
       <r>    1.0094    0.0000 </r>
       <r>    1.8444    0.0000 </r>
       <r>    1.8609    0.0000 </r>
       <r>    3.1036    0.0000 </r>
       <r>    3.1281    0.0000 </r>
      </set>
      <set comment="kpoint 9">
       <r>  -36.5862    1.0000 </r>
       <r>  -35.2584    1.0000 </r>
       <r>  -34.2964    1.0000 </r>
       <r>  -33.4036    1.0000 </r>
       <r>  -20.3608    1.0000 </r>
       <r>  -20.1628    1.0000 </r>
       <r>  -19.7124    1.0000 </r>
       <r>  -19.2926    1.0000 </r>
       <r>  -19.0612    1.0000 </r>
       <r>  -18.7317    1.0000 </r>
       <r>  -18.5576    1.0000 </r>
       <r>  -18.3924    1.0000 </r>
       <r>  -18.3516    1.0000 </r>
       <r>  -18.2861    1.0000 </r>
       <r>  -18.1383    1.0000 </r>
       <r>  -17.8088    1.0000 </r>
       <r>  -17.2311    1.0000 </r>
       <r>  -17.1872    1.0000 </r>
       <r>  -17.1158    1.0000 </r>
       <r>  -17.0692    1.0000 </r>
       <r>  -16.5572    1.0000 </r>
       <r>  -16.3145    1.0000 </r>
       <r>  -16.1753    1.0000 </r>
       <r>  -16.1361    1.0000 </r>
       <r>  -16.0138    1.0000 </r>
       <r>  -15.3772    1.0000 </r>
       <r>  -15.1732    1.0000 </r>
       <r>  -15.1173    1.0000 </r>
       <r>   -7.0464    1.0000 </r>
       <r>   -6.9529    1.0000 </r>
       <r>   -6.7060    1.0000 </r>
       <r>   -6.6337    1.0000 </r>
       <r>   -6.5087    1.0000 </r>
       <r>   -6.0812    1.0000 </r>
       <r>   -6.0308    1.0000 </r>
       <r>   -5.8656    1.0000 </r>
       <r>   -5.7423    1.0000 </r>
       <r>   -5.4805    1.0000 </r>
       <r>   -5.3438    1.0000 </r>
       <r>   -5.2254    1.0000 </r>
       <r>   -5.2036    1.0000 </r>
       <r>   -5.0788    1.0000 </r>
       <r>   -4.9137    1.0000 </r>
       <r>   -4.7465    1.0000 </r>
       <r>   -4.2500    1.0000 </r>
       <r>   -4.2425    1.0000 </r>
       <r>   -4.1572    1.0000 </r>
       <r>   -4.0983    1.0000 </r>
       <r>   -3.9553    1.0000 </r>
       <r>   -3.8215    1.0000 </r>
       <r>   -3.6918    1.0000 </r>
       <r>   -3.4880    1.0000 </r>
       <r>   -3.4478    1.0000 </r>
       <r>   -2.9257    1.0000 </r>
       <r>   -2.8871    1.0000 </r>
       <r>   -2.8487    1.0000 </r>
       <r>   -2.1586    1.0000 </r>
       <r>   -2.0549    1.0000 </r>
       <r>   -2.0014    1.0000 </r>
       <r>   -1.7422    1.0000 </r>
       <r>   -1.2496    1.0000 </r>
       <r>   -1.2086    1.0000 </r>
       <r>   -0.9495    1.0058 </r>
       <r>   -0.8060    0.9923 </r>
       <r>   -0.7850    0.5292 </r>
       <r>   -0.3437    0.0000 </r>
       <r>   -0.1801    0.0000 </r>
       <r>    0.2506    0.0000 </r>
       <r>    0.4567    0.0000 </r>
       <r>    0.9927    0.0000 </r>
       <r>    1.0175    0.0000 </r>
       <r>    1.0449    0.0000 </r>
       <r>    1.8299    0.0000 </r>
       <r>    1.8799    0.0000 </r>
       <r>    3.0796    0.0000 </r>
       <r>    3.1269    0.0000 </r>
      </set>
      <set comment="kpoint 10">
       <r>  -36.5805    1.0000 </r>
       <r>  -35.2519    1.0000 </r>
       <r>  -34.2898    1.0000 </r>
       <r>  -33.3970    1.0000 </r>
       <r>  -20.4036    1.0000 </r>
       <r>  -19.7307    1.0000 </r>
       <r>  -19.5759    1.0000 </r>
       <r>  -19.2001    1.0000 </r>
       <r>  -19.0809    1.0000 </r>
       <r>  -18.7290    1.0000 </r>
       <r>  -18.5504    1.0000 </r>
       <r>  -18.4140    1.0000 </r>
       <r>  -18.4058    1.0000 </r>
       <r>  -18.1944    1.0000 </r>
       <r>  -18.0701    1.0000 </r>
       <r>  -17.5836    1.0000 </r>
       <r>  -17.4363    1.0000 </r>
       <r>  -17.2057    1.0000 </r>
       <r>  -17.1614    1.0000 </r>
       <r>  -16.9850    1.0000 </r>
       <r>  -16.6408    1.0000 </r>
       <r>  -16.4836    1.0000 </r>
       <r>  -16.1832    1.0000 </r>
       <r>  -16.1129    1.0000 </r>
       <r>  -16.0091    1.0000 </r>
       <r>  -15.5229    1.0000 </r>
       <r>  -15.4537    1.0000 </r>
       <r>  -15.1316    1.0000 </r>
       <r>   -7.5870    1.0000 </r>
       <r>   -6.9890    1.0000 </r>
       <r>   -6.7212    1.0000 </r>
       <r>   -6.6108    1.0000 </r>
       <r>   -6.6048    1.0000 </r>
       <r>   -6.5376    1.0000 </r>
       <r>   -6.3709    1.0000 </r>
       <r>   -5.9799    1.0000 </r>
       <r>   -5.8403    1.0000 </r>
       <r>   -5.6513    1.0000 </r>
       <r>   -5.5753    1.0000 </r>
       <r>   -5.4879    1.0000 </r>
       <r>   -5.1500    1.0000 </r>
       <r>   -4.9805    1.0000 </r>
       <r>   -4.9199    1.0000 </r>
       <r>   -4.7378    1.0000 </r>
       <r>   -4.6217    1.0000 </r>
       <r>   -4.5869    1.0000 </r>
       <r>   -4.4474    1.0000 </r>
       <r>   -4.1739    1.0000 </r>
       <r>   -4.0805    1.0000 </r>
       <r>   -3.7252    1.0000 </r>
       <r>   -3.5585    1.0000 </r>
       <r>   -3.5015    1.0000 </r>
       <r>   -3.0145    1.0000 </r>
       <r>   -2.8716    1.0000 </r>
       <r>   -2.7668    1.0000 </r>
       <r>   -2.7459    1.0000 </r>
       <r>   -2.3123    1.0000 </r>
       <r>   -2.1517    1.0000 </r>
       <r>   -1.8953    1.0000 </r>
       <r>   -1.4411    1.0000 </r>
       <r>   -1.2913    1.0000 </r>
       <r>   -0.8795    1.0000 </r>
       <r>   -0.7445    0.1386 </r>
       <r>   -0.7188   -0.0359 </r>
       <r>   -0.5613    0.0000 </r>
       <r>   -0.4186    0.0000 </r>
       <r>   -0.1920    0.0000 </r>
       <r>    0.6436    0.0000 </r>
       <r>    0.7108    0.0000 </r>
       <r>    0.7637    0.0000 </r>
       <r>    1.3871    0.0000 </r>
       <r>    1.4302    0.0000 </r>
       <r>    1.8039    0.0000 </r>
       <r>    2.2658    0.0000 </r>
       <r>    3.4327    0.0000 </r>
       <r>    3.5235    0.0000 </r>
      </set>
      <set comment="kpoint 11">
       <r>  -36.5804    1.0000 </r>
       <r>  -35.2517    1.0000 </r>
       <r>  -34.2897    1.0000 </r>
       <r>  -33.3969    1.0000 </r>
       <r>  -20.3417    1.0000 </r>
       <r>  -19.8711    1.0000 </r>
       <r>  -19.6453    1.0000 </r>
       <r>  -19.1655    1.0000 </r>
       <r>  -19.1122    1.0000 </r>
       <r>  -18.5758    1.0000 </r>
[...]
      </set>
      <set comment="kpoint 12">
       <r>  -36.5802    1.0000 </r>
       <r>  -35.2515    1.0000 </r>
       <r>  -34.2895    1.0000 </r>
       <r>  -33.3968    1.0000 </r>
       <r>  -20.1866    1.0000 </r>
       <r>  -20.0439    1.0000 </r>
       <r>  -19.8171    1.0000 </r>
       <r>  -19.2322    1.0000 </r>
       <r>  -18.9770    1.0000 </r>
       <r>  -18.7161    1.0000 </r>
       <r>  -18.5001    1.0000 </r>
       <r>  -18.4224    1.0000 </r>
       <r>  -18.3599    1.0000 </r>
       <r>  -18.2438    1.0000 </r>
       <r>  -18.0669    1.0000 </r>
       <r>  -17.8440    1.0000 </r>
       <r>  -17.2368    1.0000 </r>
       <r>  -17.1895    1.0000 </r>
       <r>  -17.0893    1.0000 </r>
       <r>  -17.0283    1.0000 </r>
       <r>  -16.5814    1.0000 </r>
       <r>  -16.2700    1.0000 </r>
       <r>  -16.1647    1.0000 </r>
       <r>  -16.1591    1.0000 </r>
       <r>  -15.9921    1.0000 </r>
       <r>  -15.4583    1.0000 </r>
       <r>  -15.1973    1.0000 </r>
       <r>  -15.0399    1.0000 </r>
       <r>   -7.6173    1.0000 </r>
       <r>   -7.1187    1.0000 </r>
       <r>   -6.9788    1.0000 </r>
       <r>   -6.8571    1.0000 </r>
       <r>   -6.6777    1.0000 </r>
       <r>   -6.5721    1.0000 </r>
       <r>   -6.0987    1.0000 </r>
       <r>   -6.0282    1.0000 </r>
       <r>   -5.9288    1.0000 </r>
       <r>   -5.8542    1.0000 </r>
       <r>   -5.6132    1.0000 </r>
       <r>   -5.3784    1.0000 </r>
       <r>   -5.3028    1.0000 </r>
       <r>   -5.2900    1.0000 </r>
       <r>   -5.1563    1.0000 </r>
       <r>   -4.7578    1.0000 </r>
       <r>   -4.6996    1.0000 </r>
       <r>   -4.3055    1.0000 </r>
       <r>   -4.2082    1.0000 </r>
       <r>   -4.1493    1.0000 </r>
       <r>   -4.0584    1.0000 </r>
       <r>   -3.8638    1.0000 </r>
       <r>   -3.7724    1.0000 </r>
       <r>   -3.6755    1.0000 </r>
       <r>   -3.5722    1.0000 </r>
       <r>   -2.8436    1.0000 </r>
       <r>   -2.8322    1.0000 </r>
       <r>   -2.7634    1.0000 </r>
       <r>   -2.0900    1.0000 </r>
       <r>   -2.0008    1.0000 </r>
       <r>   -1.9005    1.0000 </r>
       <r>   -1.7339    1.0000 </r>
       <r>   -1.2260    1.0000 </r>
       <r>   -1.1601    1.0000 </r>
       <r>   -0.8979    1.0426 </r>
       <r>   -0.7460    0.0679 </r>
       <r>   -0.6485   -0.0486 </r>
       <r>   -0.2645    0.0000 </r>
       <r>    0.0764    0.0000 </r>
       <r>    0.7052    0.0000 </r>
       <r>    0.7271    0.0000 </r>
       <r>    1.0783    0.0000 </r>
       <r>    1.4139    0.0000 </r>
       <r>    1.9131    0.0000 </r>
       <r>    2.1820    0.0000 </r>
       <r>    3.1588    0.0000 </r>
       <r>    3.4360    0.0000 </r>
       <r>    3.4916    0.0000 </r>
      </set>
     </set>
    </set>
   </array>
  </eigenvalues>
  <separator name="orbital magnetization" >
   <v name="MAGDIPOLOUT">      0.00000000      0.00000000      0.00000000</v>
  </separator>
  <dos>
   <i name="efermi">     -0.77188049 </i>
   <total>
    <array>
     <dimension dim="1">gridpoints</dimension>
     <dimension dim="2">spin</dimension>
     <field>energy</field>
     <field>total</field>
     <field>integrated</field>
     <set>
      <set comment="spin 1">
       <r>   -38.6529     0.0000     0.0000 </r>
       <r>   -38.5022     0.0000     0.0000 </r>
       <r>   -38.3515     0.0000     0.0000 </r>
       <r>   -38.2008     0.0000     0.0000 </r>
       <r>   -38.0501     0.0000     0.0000 </r>
       <r>   -37.8994     0.0000     0.0000 </r>
       <r>   -37.7487     0.0000     0.0000 </r>
       <r>   -37.5980     0.0000     0.0000 </r>
       <r>   -37.4473     0.0000     0.0000 </r>
       <r>   -37.2966     0.0000     0.0000 </r>
       <r>   -37.1459     0.0000     0.0000 </r>
       <r>   -36.9952     0.0000     0.0000 </r>
       <r>   -36.8445     0.0000     0.0000 </r>
       <r>   -36.6938     0.0000     0.0000 </r>
       <r>   -36.5431     0.0000     2.0000 </r>
       <r>   -36.3924     0.0000     2.0000 </r>
       <r>   -36.2417     0.0000     2.0000 </r>
       <r>   -36.0910     0.0000     2.0000 </r>
       <r>   -35.9403     0.0000     2.0000 </r>
       <r>   -35.7896     0.0000     2.0000 </r>
       <r>   -35.6389     0.0000     2.0000 </r>
       <r>   -35.4882     0.0000     2.0000 </r>
       <r>   -35.3375     0.0000     2.0000 </r>
       <r>   -35.1868     0.0000     4.0000 </r>
       <r>   -35.0361     0.0000     4.0000 </r>
       <r>   -34.8854     0.0000     4.0000 </r>
       <r>   -34.7347     0.0000     4.0000 </r>
       <r>   -34.5840     0.0000     4.0000 </r>
       <r>   -34.4333     0.0000     4.0000 </r>
       <r>   -34.2826     0.0000     6.0000 </r>
       <r>   -34.1319     0.0000     6.0000 </r>
       <r>   -33.9812     0.0000     6.0000 </r>
       <r>   -33.8305     0.0000     6.0000 </r>
       <r>   -33.6798     0.0000     6.0000 </r>
       <r>   -33.5291     0.0000     6.0000 </r>
       <r>   -33.3784     0.0000     8.0000 </r>
       <r>   -33.2277     0.0000     8.0000 </r>
       <r>   -33.0770     0.0000     8.0000 </r>
       <r>   -32.9263     0.0000     8.0000 </r>
       <r>   -32.7756     0.0000     8.0000 </r>
       <r>   -32.6249     0.0000     8.0000 </r>
       <r>   -32.4742     0.0000     8.0000 </r>
       <r>   -32.3235     0.0000     8.0000 </r>
       <r>   -32.1728     0.0000     8.0000 </r>
       <r>   -32.0221     0.0000     8.0000 </r>
       <r>   -31.8714     0.0000     8.0000 </r>
       <r>   -31.7207     0.0000     8.0000 </r>
       <r>   -31.5700     0.0000     8.0000 </r>
       <r>   -31.4193     0.0000     8.0000 </r>
       <r>   -31.2686     0.0000     8.0000 </r>
       <r>   -31.1179     0.0000     8.0000 </r>
       <r>   -30.9672     0.0000     8.0000 </r>
       <r>   -30.8165     0.0000     8.0000 </r>
       <r>   -30.6658     0.0000     8.0000 </r>
       <r>   -30.5151     0.0000     8.0000 </r>
       <r>   -30.3644     0.0000     8.0000 </r>
       <r>   -30.2137     0.0000     8.0000 </r>
       <r>   -30.0630     0.0000     8.0000 </r>
       <r>   -29.9123     0.0000     8.0000 </r>
       <r>   -29.7616     0.0000     8.0000 </r>
       <r>   -29.6109     0.0000     8.0000 </r>
       <r>   -29.4602     0.0000     8.0000 </r>
       <r>   -29.3095     0.0000     8.0000 </r>
       <r>   -29.1587     0.0000     8.0000 </r>
       <r>   -29.0080     0.0000     8.0000 </r>
       <r>   -28.8573     0.0000     8.0000 </r>
       <r>   -28.7066     0.0000     8.0000 </r>
       <r>   -28.5559     0.0000     8.0000 </r>
       <r>   -28.4052     0.0000     8.0000 </r>
       <r>   -28.2545     0.0000     8.0000 </r>
       <r>   -28.1038     0.0000     8.0000 </r>
       <r>   -27.9531     0.0000     8.0000 </r>
       <r>   -27.8024     0.0000     8.0000 </r>
       <r>   -27.6517     0.0000     8.0000 </r>
       <r>   -27.5010     0.0000     8.0000 </r>
       <r>   -27.3503     0.0000     8.0000 </r>
       <r>   -27.1996     0.0000     8.0000 </r>
       <r>   -27.0489     0.0000     8.0000 </r>
       <r>   -26.8982     0.0000     8.0000 </r>
       <r>   -26.7475     0.0000     8.0000 </r>
       <r>   -26.5968     0.0000     8.0000 </r>
       <r>   -26.4461     0.0000     8.0000 </r>
       <r>   -26.2954     0.0000     8.0000 </r>
       <r>   -26.1447     0.0000     8.0000 </r>
       <r>   -25.9940     0.0000     8.0000 </r>
       <r>   -25.8433     0.0000     8.0000 </r>
       <r>   -25.6926     0.0000     8.0000 </r>
       <r>   -25.5419     0.0000     8.0000 </r>
       <r>   -25.3912     0.0000     8.0000 </r>
       <r>   -25.2405     0.0000     8.0000 </r>
       <r>   -25.0898     0.0000     8.0000 </r>
       <r>   -24.9391     0.0000     8.0000 </r>
       <r>   -24.7884     0.0000     8.0000 </r>
       <r>   -24.6377     0.0000     8.0000 </r>
       <r>   -24.4870     0.0000     8.0000 </r>
       <r>   -24.3363     0.0000     8.0000 </r>
       <r>   -24.1856     0.0000     8.0000 </r>
       <r>   -24.0349     0.0000     8.0000 </r>
       <r>   -23.8842     0.0000     8.0000 </r>
       <r>   -23.7335     0.0000     8.0000 </r>
       <r>   -23.5828     0.0000     8.0000 </r>
       <r>   -23.4321     0.0000     8.0000 </r>
       <r>   -23.2814     0.0000     8.0000 </r>
       <r>   -23.1307     0.0000     8.0000 </r>
       <r>   -22.9800     0.0000     8.0000 </r>
       <r>   -22.8293     0.0000     8.0000 </r>
       <r>   -22.6786     0.0000     8.0000 </r>
       <r>   -22.5279     0.0000     8.0000 </r>
       <r>   -22.3772     0.0000     8.0000 </r>
       <r>   -22.2265     0.0000     8.0000 </r>
       <r>   -22.0758     0.0000     8.0000 </r>
       <r>   -21.9251     0.0000     8.0000 </r>
       <r>   -21.7744     0.0000     8.0000 </r>
       <r>   -21.6237     0.0000     8.0000 </r>
       <r>   -21.4730     0.0000     8.0000 </r>
       <r>   -21.3223     0.0000     8.0000 </r>
       <r>   -21.1716     0.0000     8.0000 </r>
       <r>   -21.0209     0.0000     8.0000 </r>
       <r>   -20.8702     0.0000     8.0000 </r>
       <r>   -20.7195     0.0000     8.0000 </r>
       <r>   -20.5688     3.5236     8.2755 </r>
       <r>   -20.4181     4.2235     8.9660 </r>
       <r>   -20.2674     6.4405     9.9394 </r>
       <r>   -20.1167     4.8731    10.8002 </r>
       <r>   -19.9660     3.1136    11.5374 </r>
       <r>   -19.8153     5.2686    11.9915 </r>
       <r>   -19.6646     8.5664    13.6571 </r>
       <r>   -19.5139     0.0000    14.0000 </r>
       <r>   -19.3632     2.1862    14.0046 </r>
       <r>   -19.2125    11.7291    15.7133 </r>
       <r>   -19.0618     5.5778    17.6502 </r>
       <r>   -18.9111     0.0000    18.0000 </r>
       <r>   -18.7604     0.0000    18.0000 </r>
       <r>   -18.6097     6.0247    19.8980 </r>
       <r>   -18.4590    14.8287    23.1836 </r>
       <r>   -18.3083    22.6870    26.6417 </r>
       <r>   -18.1576    13.7783    28.6473 </r>
       <r>   -18.0069     0.0000    30.0000 </r>
       <r>   -17.8562     0.0000    30.0000 </r>
       <r>   -17.7055     4.8825    31.6133 </r>
       <r>   -17.5548     0.0000    32.0000 </r>
       <r>   -17.4041     1.4560    32.0377 </r>
       <r>   -17.2534    32.3357    34.0040 </r>
       <r>   -17.1027    28.7388    37.5244 </r>
       <r>   -16.9520     0.0000    40.0000 </r>
       <r>   -16.8013     0.0000    40.0000 </r>
       <r>   -16.6506     0.0000    40.0000 </r>
       <r>   -16.4999     6.2014    41.6822 </r>
       <r>   -16.3492     5.9567    42.2853 </r>
       <r>   -16.1985    18.2263    45.5437 </r>
       <r>   -16.0478    10.0134    48.5485 </r>
       <r>   -15.8971     0.0000    50.0000 </r>
       <r>   -15.7464     0.0000    50.0000 </r>
       <r>   -15.5957     0.0000    50.0000 </r>
       <r>   -15.4450     8.2706    50.4383 </r>
       <r>   -15.2943     3.9731    52.5221 </r>
       <r>   -15.1436    13.8539    54.4551 </r>
       <r>   -14.9929     0.0000    56.0000 </r>
       <r>   -14.8422     0.0000    56.0000 </r>
       <r>   -14.6915     0.0000    56.0000 </r>
       <r>   -14.5408     0.0000    56.0000 </r>
       <r>   -14.3901     0.0000    56.0000 </r>
       <r>   -14.2394     0.0000    56.0000 </r>
       <r>   -14.0887     0.0000    56.0000 </r>
       <r>   -13.9380     0.0000    56.0000 </r>
       <r>   -13.7873     0.0000    56.0000 </r>
       <r>   -13.6366     0.0000    56.0000 </r>
       <r>   -13.4859     0.0000    56.0000 </r>
       <r>   -13.3352     0.0000    56.0000 </r>
       <r>   -13.1845     0.0000    56.0000 </r>
       <r>   -13.0338     0.0000    56.0000 </r>
       <r>   -12.8831     0.0000    56.0000 </r>
       <r>   -12.7324     0.0000    56.0000 </r>
       <r>   -12.5817     0.0000    56.0000 </r>
       <r>   -12.4310     0.0000    56.0000 </r>
       <r>   -12.2803     0.0000    56.0000 </r>
       <r>   -12.1296     0.0000    56.0000 </r>
       <r>   -11.9789     0.0000    56.0000 </r>
       <r>   -11.8282     0.0000    56.0000 </r>
       <r>   -11.6775     0.0000    56.0000 </r>
       <r>   -11.5268     0.0000    56.0000 </r>
       <r>   -11.3761     0.0000    56.0000 </r>
       <r>   -11.2254     0.0000    56.0000 </r>
       <r>   -11.0747     0.0000    56.0000 </r>
       <r>   -10.9240     0.0000    56.0000 </r>
       <r>   -10.7733     0.0000    56.0000 </r>
       <r>   -10.6226     0.0000    56.0000 </r>
       <r>   -10.4719     0.0000    56.0000 </r>
       <r>   -10.3212     0.0000    56.0000 </r>
       <r>   -10.1705     0.0000    56.0000 </r>
       <r>   -10.0198     0.0000    56.0000 </r>
       <r>    -9.8691     0.0000    56.0000 </r>
       <r>    -9.7184     0.0000    56.0000 </r>
       <r>    -9.5677     0.0000    56.0000 </r>
       <r>    -9.4170     0.0000    56.0000 </r>
       <r>    -9.2663     0.0000    56.0000 </r>
       <r>    -9.1156     0.0000    56.0000 </r>
       <r>    -8.9649     0.0000    56.0000 </r>
       <r>    -8.8142     0.0000    56.0000 </r>
       <r>    -8.6635     0.0000    56.0000 </r>
       <r>    -8.5128     0.0000    56.0000 </r>
       <r>    -8.3621     0.0000    56.0000 </r>
       <r>    -8.2114     0.0000    56.0000 </r>
       <r>    -8.0607     0.0000    56.0000 </r>
       <r>    -7.9100     0.0000    56.0000 </r>
       <r>    -7.7593     0.0000    56.0000 </r>
       <r>    -7.6086     6.0164    56.1091 </r>
       <r>    -7.4579     0.9687    56.4266 </r>
       <r>    -7.3072     0.9682    56.5726 </r>
       <r>    -7.1564     0.9676    56.7184 </r>
       <r>    -7.0057     9.3093    57.3818 </r>
       <r>    -6.8550     9.5649    59.2307 </r>
       <r>    -6.7043     8.7935    61.1947 </r>
       <r>    -6.5536    11.1203    63.4281 </r>
       <r>    -6.4029     6.8771    64.6130 </r>
       <r>    -6.2522     5.6729    65.6283 </r>
       <r>    -6.1015     6.6849    66.5595 </r>
       <r>    -5.9508     9.0862    68.1293 </r>
       <r>    -5.8001    11.4045    70.1640 </r>
       <r>    -5.6494     8.9065    71.8761 </r>
       <r>    -5.4987    10.4534    74.0758 </r>
       <r>    -5.3480    11.9384    76.0283 </r>
       <r>    -5.1973    14.9169    78.1365 </r>
       <r>    -5.0466    14.5385    80.5537 </r>
       <r>    -4.8959    11.8760    82.6817 </r>
       <r>    -4.7452    15.1493    84.8991 </r>
       <r>    -4.5945     8.8069    87.0605 </r>
       <r>    -4.4438     9.2030    88.3978 </r>
       <r>    -4.2931    14.6077    90.2063 </r>
       <r>    -4.1424    19.7942    92.5496 </r>
       <r>    -3.9917     9.4889    95.0360 </r>
       <r>    -3.8410    15.6765    96.7986 </r>
       <r>    -3.6903     9.9845    99.0578 </r>
       <r>    -3.5396    14.0666   100.7100 </r>
       <r>    -3.3889     9.5449   102.4226 </r>
       <r>    -3.2382     6.0569   103.5122 </r>
       <r>    -3.0875    12.8483   104.8692 </r>
       <r>    -2.9368    11.9976   106.4714 </r>
       <r>    -2.7861    14.9599   109.7341 </r>
       <r>    -2.6354     6.3521   111.1964 </r>
       <r>    -2.4847     1.3814   111.9383 </r>
       <r>    -2.3340    11.3800   112.6948 </r>
       <r>    -2.1833     7.3796   114.0112 </r>
       <r>    -2.0326    10.0050   115.7236 </r>
       <r>    -1.8819     3.3080   117.7404 </r>
       <r>    -1.7312     7.7598   118.2313 </r>
       <r>    -1.5805     6.0627   119.3104 </r>
       <r>    -1.4298     3.1322   119.9925 </r>
       <r>    -1.2791    15.2788   121.0787 </r>
       <r>    -1.1284     4.3317   122.7750 </r>
       <r>    -0.9777    14.5334   124.5863 </r>
       <r>    -0.8270    14.3886   127.0166 </r>
       <r>    -0.6763    13.1954   130.3378 </r>
       <r>    -0.5256     7.2457   131.6230 </r>
       <r>    -0.3749     8.6133   132.9011 </r>
       <r>    -0.2242     4.1453   133.9108 </r>
       <r>    -0.0735     3.4480   134.5199 </r>
       <r>     0.0772     6.2403   135.1006 </r>
       <r>     0.2279     3.2858   135.9013 </r>
       <r>     0.3786     8.0572   136.6255 </r>
       <r>     0.5293     7.7858   137.9584 </r>
       <r>     0.6800     9.7702   139.0940 </r>
       <r>     0.8307     6.6619   140.4752 </r>
       <r>     0.9814     6.4308   141.4398 </r>
       <r>     1.1321     4.1455   142.3915 </r>
       <r>     1.2828     3.3239   142.9543 </r>
       <r>     1.4335     4.0908   144.2731 </r>
       <r>     1.5842     2.3523   144.6436 </r>
       <r>     1.7349     2.3147   144.9952 </r>
       <r>     1.8856     3.7846   145.9331 </r>
       <r>     2.0363     2.8440   146.4712 </r>
       <r>     2.1870     1.6372   146.9115 </r>
       <r>     2.3377     1.0651   147.2282 </r>
       <r>     2.4884     0.9657   147.3812 </r>
       <r>     2.6391     4.2959   147.5888 </r>
       <r>     2.7898     4.9732   148.4718 </r>
       <r>     2.9405     2.8836   148.9440 </r>
       <r>     3.0912     3.8062   149.3976 </r>
       <r>     3.2419     4.6143   150.1731 </r>
       <r>     3.3926     3.5244   150.7864 </r>
       <r>     3.5433     0.4742   151.4253 </r>
       <r>     3.6940     0.4499   151.4949 </r>
       <r>     3.8447     0.4256   151.5609 </r>
       <r>     3.9954     0.4014   151.6232 </r>
       <r>     4.1461     0.8316   151.7056 </r>
       <r>     4.2968     1.1086   151.8652 </r>
       <r>     4.4475     0.3638   151.9900 </r>
       <r>     4.5982     0.0000   152.0000 </r>
       <r>     4.7489     0.0000   152.0000 </r>
       <r>     4.8996     0.0000   152.0000 </r>
       <r>     5.0503     0.0000   152.0000 </r>
       <r>     5.2010     0.0000   152.0000 </r>
       <r>     5.3517     0.0000   152.0000 </r>
       <r>     5.5024     0.0000   152.0000 </r>
       <r>     5.6531     0.0000   152.0000 </r>
       <r>     5.8038     0.0000   152.0000 </r>
       <r>     5.9545     0.0000   152.0000 </r>
       <r>     6.1052     0.0000   152.0000 </r>
       <r>     6.2559     0.0000   152.0000 </r>
       <r>     6.4066     0.0000   152.0000 </r>
       <r>     6.5573     0.0000   152.0000 </r>
      </set>
     </set>
    </array>
   </total>
  </dos>
 </calculation>
 <structure name="finalpos" >
  <crystal>
   <varray name="basis" >
    <v>       5.52288297       0.00000000       0.00000000 </v>
    <v>       0.00000000       3.90526800       0.00000000 </v>
    <v>       0.00000000       0.00000000      21.66504520 </v>
   </varray>
   <i name="volume">    467.27902047 </i>
   <varray name="rec_basis" >
    <v>       0.18106485       0.00000000       0.00000000 </v>
    <v>       0.00000000       0.25606437       0.00000000 </v>
    <v>       0.00000000       0.00000000       0.04615730 </v>
   </varray>
  </crystal>
  <varray name="positions" >
   <v>       0.50000000       0.00000000       0.27694380 </v>
   <v>       0.25000000       0.50000000       0.34067414 </v>
   <v>       0.75000000       0.50000000       0.34067414 </v>
   <v>       0.00000000       0.00000000       0.40440449 </v>
   <v>       0.75000000       0.50000000       0.46813483 </v>
   <v>       0.25000000       0.50000000       0.46813483 </v>
   <v>       0.50000000       0.00000000       0.53186517 </v>
   <v>       0.25000000       0.50000000       0.59559551 </v>
   <v>       0.75000000       0.50000000       0.59559551 </v>
   <v>       0.00000000       0.00000000       0.65932586 </v>
   <v>       0.75000000       0.50000000       0.72305620 </v>
   <v>       0.25000000       0.50000000       0.72305620 </v>
   <v>       0.00000000       0.00000000       0.27694380 </v>
   <v>       0.50000000       0.00000000       0.40440449 </v>
   <v>       0.00000000       0.00000000       0.53186517 </v>
   <v>       0.50000000       0.00000000       0.65932586 </v>
   <v>       0.50000000       0.50000000       0.27694380 </v>
   <v>       0.00000000       0.50000000       0.40440449 </v>
   <v>       0.50000000       0.50000000       0.53186517 </v>
   <v>       0.00000000       0.50000000       0.65932586 </v>
  </varray>
 </structure>
</modeling>
