unknown system                          
   1.00000000000000     
     4.913700    0.000000    0.000000
    -2.456850    4.255389    0.000000
     0.000000    0.000000    5.405130
   Si   O 
     3     6
Direct
  0.469800  0.000000  0.666670
  0.000000  0.469800  0.333330
  0.530200  0.530200  0.000000
  0.414500  0.266200  0.785600
  0.733800  0.148300  0.452270
  0.851700  0.585500  0.118930
  0.148300  0.733800  0.547730
  0.266200  0.414500  0.214400
  0.585500  0.851700  0.881070
 
   60   60   64
  1.4688      1.4191      1.4082      1.4252      1.4647      1.5248      1.6047      1.7031      1.8179      1.9461    
  2.0838      2.2275      2.3733      2.5178      2.6573      2.7885      2.9087      3.0180      3.1212      3.2298    
  3.3623      3.5416      3.7922      4.1407      4.6194      5.2732      6.1639      7.3683      8.9680      11.037    
  13.628      16.769      20.457      24.644      29.221      33.983      38.614      42.701      45.791      47.484    
  47.536      45.925      42.858      38.713      33.948      28.996      24.202      19.797      15.911      12.599    
  9.8641      7.6729      5.9651      4.6635      3.6856      2.9564      2.4170      2.0252      1.7516      1.5731    
  1.4191      1.3669      1.3574      1.3804      1.4309      1.5071      1.6086      1.7343      1.8820      2.0481    
  2.2280      2.4167      2.6085      2.7976      2.9779      3.1441      3.2911      3.4159      3.5185      3.6050    
  3.6885      3.7885      3.9285      4.1334      4.4295      4.8484      5.4321      6.2357      7.3238      8.7611    
  10.600      12.868      15.564      18.649      22.045      25.614      29.154      32.399      35.041      36.783    
  37.401      36.803      35.052      32.353      28.996      25.297      21.541      17.949      14.673      11.799    
  9.3686      7.3787      5.7971      4.5693      3.6308      2.9199      2.3862      1.9929      1.7139      1.5289    
  1.4082      1.3574      1.3516      1.3816      1.4429      1.5342      1.6557      1.8067      1.9853      2.1879    
  2.4099      2.6454      2.8876      3.1285      3.3594      3.5720      3.7582      3.9116      4.0284      4.1095    
  4.1623      4.2020      4.2499      4.3309      4.4705      4.6953      5.0353      5.5280      6.2202      7.1635    
  8.4058      9.9797      11.893      14.123      16.612      19.263      21.939      24.462      26.626      28.219    
  29.061      29.047      28.165      26.506      24.239      21.578      18.738      15.908      13.235      10.822    
  8.7282      6.9747      5.5514      4.4245      3.5476      2.8727      2.3590      1.9758      1.7012      1.5175    
  1.4252      1.3804      1.3816      1.4205      1.4935      1.5999      1.7405      1.9155      2.1235      2.3616    
  2.6255      2.9096      3.2065      3.5068      3.7994      4.0721      4.3128      4.5109      4.6582      4.7508    
  4.7910      4.7890      4.7628      4.7369      4.7383      4.7941      4.9307      5.1757      5.5614      6.1249    
  6.9049      7.9337      9.2281      10.781      12.557      14.490      16.482      18.412      20.134      21.500    
  22.373      22.656      22.308      21.357      19.890      18.042      15.964      13.804      11.693      9.7298    
  7.9815      6.4826      5.2384      4.2322      3.4338      2.8090      2.3271      1.9644      1.7030      1.5281    
  1.4647      1.4309      1.4429      1.4935      1.5797      1.7019      1.8616      2.0599      2.2963      2.5689    
  2.8745      3.2084      3.5636      3.9305      4.2956      4.6432      4.9562      5.2183      5.4156      5.5391    
  5.5857      5.5607      5.4784      5.3619      5.2396      5.1417      5.0971      5.1315      5.2697      5.5376    
  5.9627      6.5715      7.3830      8.4017      9.6108      10.969      12.411      13.850      15.182      16.301    
  17.103      17.507      17.464      16.971      16.066      14.826      13.353      11.756      10.139      8.5900    
  7.1741      5.9303      4.8738      4.0001      3.2924      2.7287      2.2885      1.9549      1.7145      1.5551    
  1.5248      1.5071      1.5342      1.5999      1.7019      1.8415      2.0209      2.2424      2.5065      2.8128    
  3.1595      3.5437      3.9599      4.3988      4.8463      5.2832      5.6871      6.0350      6.3057      6.4831    
  6.5580      6.5306      6.4113      6.2209      5.9885      5.7480      5.5333      5.3745      5.2965      5.3203    
  5.4655      5.7502      6.1901      6.7934      7.5553      8.4538      9.4474      10.477      11.468      12.343    
  13.023      13.442      13.555      13.341      12.814      12.013      11.001      9.8551      8.6535      7.4673    
  6.3531      5.3497      4.4770      3.7389      3.1285      2.6341      2.2435      1.9465      1.7340      1.5968    
  1.6047      1.6086      1.6557      1.7405      1.8616      2.0209      2.2217      2.4669      2.7587      3.0980    
  3.4851      3.9194      4.3978      4.9125      5.4496      5.9879      6.5004      6.9567      7.3268      7.5855    
  7.7154      7.7102      7.5756      7.3298      7.0021      6.6294      6.2514      5.9053      5.6224      5.4259    
  5.3329      5.3560      5.5053      5.7871      6.2011      6.7362      7.3680      8.0575      8.7542      9.4001    
  9.9363      10.310      10.481      10.424      10.138      9.6402      8.9667      8.1677      7.2991      6.4148    
  5.5611      4.7723      4.0695      3.4617      2.9494      2.5284      2.1933      1.9392      1.7610      1.6523    
  1.7031      1.7343      1.8067      1.9155      2.0599      2.2424      2.4669      2.7377      3.0578      3.4299    
  3.8566      4.3400      4.8801      5.4719      6.1031      6.7519      7.3877      7.9733      8.4694      8.8397    
  9.0561      9.1031      8.9797      8.7009      8.2954      7.8026      7.2679      6.7369      6.2498      5.8377    
  5.5216      5.3139      5.2210      5.2454      5.3861      5.6362      5.9805      6.3939      6.8416      7.2820    
  7.6711      7.9672      8.1359      8.1537      8.0106      7.7112      7.2742      6.7300      6.1159      5.4711    
  4.8313      4.2248      3.6715      3.1828      2.7639      2.4162      2.1396      1.9333      1.7950      1.7206    
  1.8179      1.8820      1.9853      2.1235      2.2963      2.5065      2.7587      3.0578      3.4080      3.8135    
  4.2790      4.8097      5.4093      6.0769      6.8032      7.5674      8.3372      9.0698      9.7167      10.230    
  10.567      10.702      10.623      10.339      9.8775      9.2800      8.5975      7.8841      7.1905      6.5586    
  6.0183      5.5870      5.2720      5.0737      4.9882      5.0084      5.1228      5.3135      5.5558      5.8192    
  6.0704      6.2765      6.4092      6.4470      6.3776      6.1987      5.9179      5.5516      5.1231      4.6594    
  4.1867      3.7276      3.2997      2.9148      2.5809      2.3033      2.0855      1.9295      1.8353      1.8000    
  1.9461      2.0481      2.1879      2.3616      2.5689      2.8128      3.0980      3.4299      3.8135      4.2540    
  4.7580      5.3337      5.9891      6.7282      7.5464      8.4264      9.3358      10.228      11.047      11.732    
  12.227      12.488      12.493      12.239      11.749      11.068      10.250      9.3588      8.4571      7.5990    
  6.8261      6.1653      5.6293      5.2193      4.9300      4.7521      4.6739      4.6804      4.7522      4.8654    
  4.9933      5.1092      5.1890      5.2140      5.1717      5.0567      4.8705      4.6208      4.3210      3.9880    
  3.6401      3.2948      2.9671      2.6690      2.4096      2.1964      2.0350      1.9295      1.8811      1.8882    
  2.0838      2.2280      2.4099      2.6255      2.8745      3.1595      3.4851      3.8566      4.2790      4.7580    
  5.3014      5.9200      6.6261      7.4297      8.3327      9.3231      10.372      11.430      12.437      13.319    
  14.006      14.436      14.567      14.385      13.904      13.165      12.229      11.169      10.059      8.9692    
  7.9543      7.0533      6.2874      5.6626      5.1741      4.8107      4.5588      4.4033      4.3268      4.3088    
  4.3264      4.3561      4.3763      4.3696      4.3240      4.2332      4.0958      3.9150      3.6978      3.4539    
  3.1953      2.9346      2.6844      2.4560      2.2593      2.1026      1.9929      1.9354      1.9325      1.9833    
  2.2275      2.4167      2.6454      2.9096      3.2084      3.5437      3.9194      4.3400      4.8097      5.3337    
  5.9200      6.5811      7.3332      8.1926      9.1691      10.259      11.438      12.662      13.864      14.963    
  15.872      16.511      16.816      16.754      16.325      15.564      14.535      13.319      12.005      10.679    
  9.4131      8.2599      7.2522      6.4028      5.7097      5.1612      4.7413      4.4330      4.2186      4.0790    
  3.9932      3.9392      3.8961      3.8466      3.7782      3.6841      3.5620      3.4130      3.2410      3.0515    
  2.8520      2.6512      2.4587      2.2845      2.1382      2.0289      1.9643      1.9502      1.9899      2.0834    
  2.3733      2.6085      2.8876      3.2065      3.5636      3.9599      4.3978      4.8801      5.4093      5.9891    
  6.6261      7.3332      8.1293      9.0365      10.073      11.246      12.541      13.918      15.313      16.637    
  17.791      18.673      19.199      19.309      18.984      18.248      17.161      15.811      14.304      12.741    
  11.215      9.7966      8.5332      7.4467      6.5393      5.8000      5.2103      4.7502      4.4003      4.1413    
  3.9530      3.8142      3.7035      3.6026      3.4979      3.3813      3.2498      3.1040      2.9466      2.7816    
  2.6140      2.4499      2.2961      2.1609      2.0531      1.9813      1.9538      1.9769      2.0543      2.1871    
  2.5178      2.7976      3.1285      3.5068      3.9305      4.3988      4.9125      5.4719      6.0769      6.7282    
  7.4297      8.1926      9.0365      9.9877      11.073      12.310      13.696      15.204      16.774      18.317    
  19.724      20.875      21.661      21.995      21.834      21.179      20.084      18.638      16.958      15.165    
  13.375      11.680      10.145      8.8052      7.6707      6.7312      5.9663      5.3521      4.8655      4.4855    
  4.1919      3.9635      3.7791      3.6189      3.4670      3.3135      3.1542      2.9894      2.8218      2.6552    
  2.4938      2.3424      2.2067      2.0933      2.0099      1.9646      1.9650      2.0173      2.1260      2.2930    
  2.6573      2.9779      3.3594      3.7994      4.2956      4.8463      5.4496      6.1031      6.8032      7.5464    
  8.3327      9.1691      10.073      11.073      12.200      13.484      14.936      16.541      18.253      19.989    
  21.635      23.061      24.133      24.737      24.797      24.290      23.250      21.763      19.952      17.954    
  15.907      13.929      12.107      10.496      9.1167      7.9636      7.0151      6.2424      5.6172      5.1144    
  4.7118      4.3884      4.1229      3.8945      3.6853      3.4827      3.2809      3.0793      2.8809      2.6899    
  2.5107      2.3481      2.2074      2.0951      2.0184      1.9847      2.0010      2.0729      2.2048      2.3993    
  2.7885      3.1441      3.5720      4.0721      4.6432      5.2832      5.9879      6.7519      7.5674      8.4264    
  9.3231      10.259      11.246      12.310      13.484      14.805      16.296      17.961      19.768      21.648    
  23.496      25.174      26.534      27.434      27.765      27.472      26.563      25.109      23.230      21.077    
  18.804      16.555      14.442      12.544      10.900      9.5152      8.3700      7.4320      6.6658      6.0395    
  5.5266      5.1041      4.7504      4.4443      4.1668      3.9030      3.6447      3.3901      3.1421      2.9058    
  2.6865      2.4896      2.3205      2.1861      2.0941      2.0524      2.0679      2.1461      2.2908      2.5044    
  2.9087      3.2911      3.7582      4.3128      4.9562      5.6871      6.5004      7.3877      8.3372      9.3358    
  10.372      11.438      12.541      13.696      14.936      16.296      17.811      19.498      21.346      23.306    
  25.289      27.166      28.782      29.976      30.608      30.585      29.881      28.545      26.685      24.452    
  22.015      19.536      17.153      14.970      13.050      11.417      10.059      8.9456      8.0347      7.2858    
  6.6644      6.1424      5.6958      5.3030      4.9445      4.6045      4.2732      3.9475      3.6300      3.3268    
  3.0448      2.7903      2.5693      2.3889      2.2575      2.1843      2.1777      2.2441      2.3869      2.6080    
  3.0180      3.4159      3.9116      4.5109      5.2183      6.0350      6.9567      7.9733      9.0698      10.228    
  11.430      12.662      13.918      15.204      16.541      17.961      19.498      21.181      23.017      24.984    
  27.017      29.009      30.814      32.264      33.192      33.471      33.036      31.901      30.155      27.941    
  25.430      22.798      20.202      17.769      15.588      13.705      12.126      10.829      9.7690      8.8992    
  8.1742      7.5569      7.0175      6.5316      6.0792      5.6448      5.2184      4.7972      4.3845      3.9879    
  3.6162      3.2773      2.9786      2.7272      2.5316      2.4021      2.3491      2.3808      2.5018      2.7140    
  3.1212      3.5185      4.0284      4.6582      5.4156      6.3057      7.3268      8.4694      9.7167      11.047    
  12.437      13.864      15.313      16.774      18.253      19.768      21.346      23.017      24.804      26.709    
  28.701      30.705      32.601      34.229      35.412      35.990      35.860      34.994      33.452      31.360    
  28.884      26.205      23.492      20.886      18.500      16.401      14.618      13.142      11.937      10.951    
  10.131      9.4273      8.8013      8.2220      7.6661      7.1180      6.5694      6.0199      5.4760      4.9483    
  4.4494      3.9906      3.5811      3.2288      2.9420      2.7304      2.6051      2.5763      2.6510      2.8324    
  3.2298      3.6050      4.1095      4.7508      5.5391      6.4831      7.5855      8.8397      10.230      11.732    
  13.319      14.963      16.637      18.317      19.989      21.648      23.306      24.984      26.709      28.505    
  30.373      32.282      34.145      35.825      37.158      37.979      38.154      37.613      36.367      34.506    
  32.181      29.576      26.868      24.210      21.721      19.489      17.559      15.943      14.616      13.531    
  12.630      11.856      11.158      10.493      9.8313      9.1550      8.4567      7.7401      7.0174      6.3065    
  5.6270      4.9967      4.4293      3.9348      3.5213      3.1969      2.9713      2.8548      2.8561      2.9805    
  3.3623      3.6885      4.1623      4.7910      5.5857      6.5580      7.7154      9.0561      10.567      12.227    
  14.006      15.872      17.791      19.724      21.635      23.496      25.289      27.017      28.701      30.373    
  32.065      33.764      35.418      36.949      38.244      39.165      39.572      39.363      38.503      37.029    
  35.044      32.691      30.141      27.574      25.128      22.895      20.932      19.260      17.871      16.728    
  15.778      14.959      14.210      13.478      12.721      11.912      11.043      10.121      9.1662      8.2078    
  7.2771      6.4032      5.6094      4.9113      4.3189      3.8389      3.4779      3.2431      3.1421      3.1808    
  3.5416      3.7885      4.2020      4.7890      5.5607      6.5306      7.7102      9.1031      10.702      12.488    
  14.436      16.511      18.673      20.875      23.061      25.174      27.166      29.009      30.705      32.282    
  33.764      35.136      36.398      37.546      38.550      39.336      39.799      39.833      39.366      38.386    
  36.937      35.106      33.008      30.774      28.554      26.491      24.654      23.066      21.724      20.605    
  19.665      18.847      18.086      17.319      16.489      15.557      14.509      13.351      12.113      10.837    
  9.5721      8.3639      7.2512      6.2621      5.4135      4.7137      4.1661      3.7728      3.5359      3.4581    
  3.7922      3.9285      4.2499      4.7628      5.4784      6.4113      7.5756      8.9797      10.623      12.493    
  14.567      16.816      19.199      21.661      24.133      26.534      28.782      30.814      32.601      34.145    
  35.418      36.398      37.120      37.657      38.078      38.418      38.655      38.723      38.546      38.072    
  37.288      36.214      34.890      33.375      31.745      30.107      28.591      27.269      26.136      25.172    
  24.345      23.608      22.900      22.152      21.294      20.270      19.049      17.637      16.070      14.406    
  12.716      11.069      9.5257      8.1333      6.9227      5.9102      5.0998      4.4883      4.0698      3.8390    
  4.1407      4.1334      4.3309      4.7369      5.3619      6.2209      7.3298      8.7009      10.339      12.239    
  14.385      16.754      19.309      21.995      24.737      27.434      29.976      32.264      34.229      35.825    
  36.949      37.546      37.657      37.405      36.967      36.511      36.150      35.922      35.795      35.714    
  35.618      35.458      35.188      34.769      34.175      33.417      32.560      31.721      30.994      30.365    
  29.807      29.283      28.741      28.108      27.303      26.246      24.887      23.219      21.281      19.155    
  16.939      14.735      12.633      10.704      9.0012      7.5540      6.3738      5.4569      4.7899      4.3562    
  4.6194      4.4295      4.4705      4.7383      5.2396      5.9885      7.0021      8.2954      9.8775      11.749    
  13.904      16.325      18.984      21.834      24.797      27.765      30.608      33.192      35.412      37.158    
  38.244      38.550      38.078      36.967      35.468      33.892      32.527      31.575      31.124      31.169    
  31.639      32.427      33.399      34.396      35.261      35.872      36.177      36.220      36.131      36.044    
  35.957      35.839      35.641      35.287      34.677      33.704      32.285      30.389      28.054      25.384    
  22.521      19.614      16.798      14.177      11.828      9.7992      8.1144      6.7749      5.7645      5.0559    
  5.2732      4.8484      4.6953      4.7941      5.1417      5.7480      6.6294      7.8026      9.2800      11.068    
  13.165      15.564      18.248      21.179      24.290      27.472      30.585      33.471      35.990      37.979    
  39.165      39.336      38.418      36.511      33.892      30.983      28.256      26.129      24.881      24.634    
  25.371      26.969      29.218      31.837      34.509      36.938      38.909      40.345      41.315      42.009    
  42.614      43.139      43.534      43.708      43.530      42.850      41.530      39.498      36.775      33.486    
  29.830      26.031      22.295      18.780      15.599      12.816      10.468      8.5637      7.0868      6.0046    
  6.1639      5.4321      5.0353      4.9307      5.0971      5.5333      6.2514      7.2679      8.5975      10.250    
  12.229      14.535      17.161      20.084      23.250      26.563      29.881      33.036      35.860      38.154    
  39.572      39.799      38.655      36.150      32.527      28.256      23.963      20.290      17.764      16.714    
  17.254      19.315      22.662      26.916      31.595      36.189      40.271      43.587      46.102      47.982    
  49.515      50.930      52.211      53.242      53.841      53.784      52.851      50.889      47.875      43.938    
  39.342      34.418      29.487      24.805      20.541      16.790      13.592      10.957      8.8684      7.2887    
  7.3683      6.2357      5.5280      5.1757      5.1315      5.3745      5.9053      6.7369      7.8841      9.3588    
  11.169      13.319      15.811      18.638      21.763      25.109      28.545      31.901      34.994      37.613    
  39.363      39.833      38.723      35.922      31.575      26.129      20.290      14.895      10.729      8.3774    
  8.1650      10.158      14.179      19.820      26.464      33.385      39.893      45.494      49.991      53.491    
  56.311      58.840      61.287      63.537      65.340      66.363      66.260      64.746      61.697      57.207    
  51.590      45.306      38.848      32.633      26.945      21.934      17.650      14.091      11.226      9.0060    
  8.9680      7.3238      6.2202      5.5614      5.2697      5.2965      5.6224      6.2498      7.1905      8.4571    
  10.059      12.005      14.304      16.958      19.952      23.230      26.685      30.155      33.452      36.367    
  38.503      39.366      38.546      35.795      31.124      24.881      17.764      10.729      4.7804     0.77429    
 -.71128     0.59579      4.6668      11.161      19.423      28.550      37.578      45.716      52.530      58.006    
  62.466      66.392      70.210      73.990      77.426      80.058      81.362      80.863      78.258      73.529    
  66.984      59.206      50.902      42.731      35.178      28.513      22.827      18.100      14.268      11.252    
  11.037      8.7611      7.1635      6.1249      5.5376      5.3203      5.4259      5.8377      6.5586      7.5990    
  8.9692      10.679      12.741      15.165      17.954      21.077      24.452      27.941      31.360      34.506    
  37.029      38.386      38.072      35.714      31.169      24.634      16.714      8.3774     0.77429     -5.0067    
 -8.1267     -8.0708     -4.6553      1.9489      11.167      22.037      33.371      44.057      53.353      61.040    
  67.389      72.952      78.305      83.783      89.172      93.894      97.225      98.441      96.981      92.611    
  85.530      76.371      66.052      55.545      45.643      36.842      29.341      23.129      18.097      14.109    
  13.628      10.600      8.4058      6.9049      5.9627      5.4655      5.3329      5.5216      6.0183      6.8261    
  7.9543      9.4131      11.215      13.375      15.907      18.804      22.015      25.430      28.884      32.181    
  35.044      36.937      37.288      35.618      31.639      25.371      17.254      8.1650     -.71128     -8.1267    
 -13.012     -14.605     -12.484     -6.5847      2.7160      14.542      27.610      40.538      52.236      62.195    
  70.541      77.846      84.823      92.006      99.447      106.55      112.41      116.03      116.54      113.38    
  106.50      96.459      84.293      71.291      58.647      47.214      37.418      29.328      22.806      17.640    
  16.769      12.868      9.9797      7.9337      6.5715      5.7502      5.3560      5.3139      5.5870      6.1653    
  7.0533      8.2599      9.7966      11.680      13.929      16.555      19.536      22.798      26.205      29.576    
  32.691      35.106      36.214      35.458      32.427      26.969      19.315      10.158     0.59579     -8.0708    
 -14.605     -18.023     -17.661     -13.201     -4.7512      7.0324      20.942      35.456      49.171      61.231    
  71.512      80.513      89.037      97.802      107.12      116.59      125.20      131.71      134.94      133.94    
  128.28      118.27      104.89      89.651      74.165      59.754      47.216      36.821      28.469      21.885    
  20.457      15.564      11.893      9.2281      7.3830      6.1901      5.5053      5.2210      5.2720      5.6293    
  6.2874      7.2522      8.5332      10.145      12.107      14.442      17.153      20.202      23.492      26.868    
  30.141      33.008      34.890      35.188      33.399      29.218      22.662      14.179      4.6668     -4.6553    
 -12.484     -17.661     -19.299     -16.829     -10.072     0.62391      14.280      29.415      44.436      58.149    
  70.101      80.600      90.442      100.50      111.32      122.79      133.98      143.52      149.99      152.05    
  148.70      139.80      126.22      109.53      91.590      74.204      58.675      45.627      35.114      26.854    
  24.644      18.649      14.123      10.781      8.4017      6.7934      5.7871      5.2454      5.0737      5.2193    
  5.6626      6.4028      7.4467      8.8052      10.496      12.544      14.970      17.769      20.886      24.210    
  27.574      30.774      33.375      34.769      34.396      31.837      26.916      19.820      11.161      1.9489    
 -6.5847     -13.201     -16.829     -16.664     -12.240     -3.5723      8.6975      23.302      38.640      53.276    
  66.407      78.046      88.859      99.780      111.56      124.40      137.62      149.86      159.62      165.27    
  165.25      158.73      146.14      129.06      109.58      89.740      71.355      55.537      42.641      32.488    
  29.221      22.045      16.612      12.557      9.6108      7.5553      6.2011      5.3861      4.9882      4.9300    
  5.1741      5.7097      6.5393      7.6707      9.1167      10.900      13.050      15.588      18.500      21.721    
  25.128      28.554      31.745      34.175      35.261      34.509      31.595      26.464      19.423      11.167    
  2.7160     -4.7512     -10.072     -12.240     -10.523     -4.5978      5.2773      18.181      32.685      47.280    
  60.876      73.138      84.480      95.772      107.89      121.31      135.72      149.91      162.40      171.51    
  175.29      172.26      162.11      146.01      126.18      104.93      84.329      66.007      50.752      38.616    
  33.983      25.614      19.263      14.490      10.969      8.4538      6.7362      5.6362      5.0084      4.7521    
  4.8107      5.1612      5.8000      6.7312      7.9636      9.5152      11.417      13.705      16.401      19.489    
  22.895      26.491      30.107      33.417      35.872      36.938      36.189      33.385      28.550      22.037    
  14.542      7.0324     0.62391     -3.5723     -4.5978     -1.8121      4.9223      15.104      27.632      41.103    
  54.278      66.501      77.857      89.017      100.86      114.06      128.67      143.80      158.03      169.81    
  177.12      178.05      171.52      157.96      139.26      117.93      96.235      76.128      58.883      44.906    
  38.614      29.154      21.939      16.482      12.411      9.4474      7.3680      5.9805      5.1228      4.6739    
  4.5588      4.7413      5.2103      5.9663      7.0151      8.3700      10.059      12.126      14.618      17.559    
  20.932      24.654      28.591      32.560      36.177      38.909      40.271      39.893      37.578      33.371    
  27.610      20.942      14.280      8.6975      5.2773      4.9223      8.1454      14.890      24.480      35.783    
  47.586      59.014      69.814      80.361      91.407      103.70      117.57      132.54      147.40      160.66    
  170.57      175.09      172.62      162.80      146.80      126.90      105.51      84.732      66.240      50.848    
  42.701      32.399      24.462      18.412      13.850      10.477      8.0575      6.3939      5.3135      4.6804    
  4.4033      4.4330      4.7502      5.3521      6.2424      7.4320      8.9456      10.829      13.142      15.943    
  19.260      23.066      27.269      31.721      36.220      40.345      43.587      45.494      45.716      44.057    
  40.538      35.456      29.415      23.302      18.181      15.104      14.890      17.904      23.933      32.234    
  41.783      51.643      61.298      70.792      80.633      91.507      103.92      117.75      132.15      145.74    
  156.99      164.11      165.33      159.66      147.47      130.43      110.77      90.627      71.915      55.813    
  45.791      35.041      26.626      20.134      15.182      11.468      8.7542      6.8416      5.5558      4.7522    
  4.3268      4.2186      4.4003      4.8655      5.6172      6.6658      8.0347      9.7690      11.937      14.616    
  17.871      21.724      26.136      30.994      36.131      41.315      46.102      49.991      52.530      53.353    
  52.236      49.171      44.436      38.640      32.685      27.632      24.480      23.933      26.216      31.025    
  37.655      45.269      53.219      61.264      69.618      78.790      89.301      101.29      114.27      127.21    
  138.70      147.20      151.12      149.21      141.17      127.92      111.16      92.900      75.097      59.166    
  47.484      36.783      28.219      21.500      16.301      12.343      9.4001      7.2820      5.8192      4.8654    
  4.3088      4.0790      4.1413      4.4855      5.1144      6.0395      7.2858      8.8992      10.951      13.531    
  16.728      20.605      25.172      30.365      36.044      42.009      47.982      53.491      58.006      61.040    
  62.195      61.231      58.149      53.276      47.280      41.103      35.783      32.234      31.025      32.269    
  35.637      40.524      46.302      52.560      59.238      66.602      75.069      84.880      95.820      107.24    
  118.07      126.94      132.45      133.39      129.09      119.80      106.62      91.174      75.283      60.421    
  47.536      37.401      29.061      22.373      17.103      13.023      9.9363      7.6711      6.0704      4.9933    
  4.3264      3.9932      3.9530      4.1919      4.7118      5.5266      6.6644      8.1742      10.131      12.630    
  15.778      19.665      24.345      29.807      35.957      42.614      49.515      56.311      62.466      67.389    