   9   9   0   0
  0.1255774E+02  0.4913700E-09  0.4913700E-09  0.5405130E-09  0.5000000E-15
  1.000000000000000E-004
  CAR 
 unknown system                          
     13.72822102    -20.37273412  301      1.13928508      1.00000000
    -20.373  0.0000E+00  0.0000E+00
    -20.259  0.0000E+00  0.0000E+00
    -20.145  0.0000E+00  0.0000E+00
    -20.032  0.0000E+00  0.0000E+00
    -19.918  0.0000E+00  0.0000E+00
    -19.804  0.0000E+00  0.0000E+00
    -19.691  0.0000E+00  0.0000E+00
    -19.577  0.0000E+00  0.0000E+00
    -19.463  0.0000E+00  0.0000E+00
    -19.350  0.0000E+00  0.0000E+00
    -19.236  0.0000E+00  0.0000E+00
    -19.122  0.0000E+00  0.0000E+00
    -19.009  0.0000E+00  0.0000E+00
    -18.895  0.0000E+00  0.0000E+00
    -18.781  0.0000E+00  0.0000E+00
    -18.668  0.0000E+00  0.0000E+00
    -18.554  0.0000E+00  0.0000E+00
    -18.440  0.0000E+00  0.0000E+00
    -18.327  0.2780E+00  0.4268E-02
    -18.213  0.1328E+01  0.1155E+00
    -18.099  0.2261E+01  0.3184E+00
    -17.986  0.4062E+01  0.6795E+00
    -17.872  0.9152E+01  0.1295E+01
    -17.758  0.6864E+00  0.1979E+01
    -17.645  0.1094E+01  0.2064E+01
    -17.531  0.2120E+01  0.2243E+01
    -17.417  0.6419E+01  0.2658E+01
    -17.304  0.3193E+01  0.3592E+01
    -17.190  0.1329E+01  0.3832E+01
    -17.076  0.6403E+00  0.3938E+01
    -16.963  0.9559E+00  0.4012E+01
    -16.849  0.6089E+01  0.4344E+01
    -16.735  0.4228E+01  0.5280E+01
    -16.622  0.2141E+01  0.5609E+01
    -16.508  0.1333E+01  0.5799E+01
    -16.394  0.8151E+00  0.5922E+01
    -16.281  0.3001E+00  0.5992E+01
    -16.167  0.3719E+02  0.1140E+02
    -16.053  0.0000E+00  0.1200E+02
    -15.940  0.0000E+00  0.1200E+02
    -15.826  0.0000E+00  0.1200E+02
    -15.712  0.0000E+00  0.1200E+02
    -15.599  0.0000E+00  0.1200E+02
    -15.485  0.0000E+00  0.1200E+02
    -15.371  0.0000E+00  0.1200E+02
    -15.258  0.0000E+00  0.1200E+02
    -15.144  0.0000E+00  0.1200E+02
    -15.030  0.0000E+00  0.1200E+02
    -14.917  0.0000E+00  0.1200E+02
    -14.803  0.0000E+00  0.1200E+02
    -14.689  0.0000E+00  0.1200E+02
    -14.576  0.0000E+00  0.1200E+02
    -14.462  0.0000E+00  0.1200E+02
    -14.348  0.0000E+00  0.1200E+02
    -14.235  0.0000E+00  0.1200E+02
    -14.121  0.0000E+00  0.1200E+02
    -14.007  0.0000E+00  0.1200E+02
    -13.894  0.0000E+00  0.1200E+02
    -13.780  0.0000E+00  0.1200E+02
    -13.666  0.0000E+00  0.1200E+02
    -13.553  0.0000E+00  0.1200E+02
    -13.439  0.0000E+00  0.1200E+02
    -13.325  0.0000E+00  0.1200E+02
    -13.212  0.0000E+00  0.1200E+02
    -13.098  0.0000E+00  0.1200E+02
    -12.984  0.0000E+00  0.1200E+02
    -12.871  0.0000E+00  0.1200E+02
    -12.757  0.0000E+00  0.1200E+02
    -12.643  0.0000E+00  0.1200E+02
    -12.530  0.0000E+00  0.1200E+02
    -12.416  0.0000E+00  0.1200E+02
    -12.302  0.0000E+00  0.1200E+02
    -12.189  0.0000E+00  0.1200E+02
    -12.075  0.0000E+00  0.1200E+02
    -11.961  0.0000E+00  0.1200E+02
    -11.847  0.0000E+00  0.1200E+02
    -11.734  0.0000E+00  0.1200E+02
    -11.620  0.0000E+00  0.1200E+02
    -11.506  0.0000E+00  0.1200E+02
    -11.393  0.0000E+00  0.1200E+02
    -11.279  0.0000E+00  0.1200E+02
    -11.165  0.0000E+00  0.1200E+02
    -11.052  0.0000E+00  0.1200E+02
    -10.938  0.0000E+00  0.1200E+02
    -10.824  0.0000E+00  0.1200E+02
    -10.711  0.0000E+00  0.1200E+02
    -10.597  0.0000E+00  0.1200E+02
    -10.483  0.0000E+00  0.1200E+02
    -10.370  0.0000E+00  0.1200E+02
    -10.256  0.0000E+00  0.1200E+02
    -10.142  0.0000E+00  0.1200E+02
    -10.029  0.0000E+00  0.1200E+02
     -9.915  0.0000E+00  0.1200E+02
     -9.801  0.0000E+00  0.1200E+02
     -9.688  0.0000E+00  0.1200E+02
     -9.574  0.0000E+00  0.1200E+02
     -9.460  0.0000E+00  0.1200E+02
     -9.347  0.0000E+00  0.1200E+02
     -9.233  0.0000E+00  0.1200E+02
     -9.119  0.0000E+00  0.1200E+02
     -9.006  0.0000E+00  0.1200E+02
     -8.892  0.0000E+00  0.1200E+02
     -8.778  0.0000E+00  0.1200E+02
     -8.665  0.0000E+00  0.1200E+02
     -8.551  0.0000E+00  0.1200E+02
     -8.437  0.0000E+00  0.1200E+02
     -8.324  0.0000E+00  0.1200E+02
     -8.210  0.2954E-01  0.1200E+02
     -8.096  0.2998E+00  0.1202E+02
     -7.983  0.4532E+00  0.1206E+02
     -7.869  0.6580E+00  0.1213E+02
     -7.755  0.8620E+00  0.1221E+02
     -7.642  0.1162E+01  0.1233E+02
     -7.528  0.1600E+01  0.1248E+02
     -7.414  0.2665E+01  0.1271E+02
     -7.301  0.9426E+01  0.1334E+02
     -7.187  0.1902E+01  0.1383E+02
     -7.073  0.5566E+00  0.1395E+02
     -6.960  0.2968E+00  0.1400E+02
     -6.846  0.2253E+00  0.1403E+02
     -6.732  0.3592E+00  0.1406E+02
     -6.619  0.5363E+00  0.1411E+02
     -6.505  0.8920E+00  0.1419E+02
     -6.391  0.1471E+01  0.1432E+02
     -6.278  0.3631E+01  0.1457E+02
     -6.164  0.5998E+01  0.1518E+02
     -6.050  0.2243E+01  0.1553E+02
     -5.937  0.1271E+01  0.1573E+02
     -5.823  0.8582E+00  0.1584E+02
     -5.709  0.5761E+00  0.1593E+02
     -5.596  0.4547E+00  0.1599E+02
     -5.482  0.2333E+00  0.1601E+02
     -5.368  0.2260E+01  0.1615E+02
     -5.255  0.3573E+01  0.1651E+02
     -5.141  0.2896E+01  0.1685E+02
     -5.027  0.2801E+01  0.1718E+02
     -4.914  0.2039E+01  0.1746E+02
     -4.800  0.1451E+01  0.1766E+02
     -4.686  0.1069E+01  0.1780E+02
     -4.573  0.7335E+00  0.1790E+02
     -4.459  0.1419E+01  0.1799E+02
     -4.345  0.2062E+02  0.1879E+02
     -4.232  0.8630E+01  0.2024E+02
     -4.118  0.6070E+01  0.2101E+02
     -4.004  0.4830E+01  0.2172E+02
     -3.891  0.3753E+01  0.2217E+02
     -3.777  0.7763E+01  0.2305E+02
     -3.663  0.4146E+01  0.2368E+02
     -3.550  0.9919E+00  0.2397E+02
     -3.436  0.0000E+00  0.2400E+02
     -3.322  0.0000E+00  0.2400E+02
     -3.209  0.0000E+00  0.2400E+02
     -3.095  0.0000E+00  0.2400E+02
     -2.981  0.0000E+00  0.2400E+02
     -2.868  0.0000E+00  0.2400E+02
     -2.754  0.0000E+00  0.2400E+02
     -2.640  0.0000E+00  0.2400E+02
     -2.527  0.0000E+00  0.2400E+02
     -2.413  0.0000E+00  0.2400E+02
     -2.299  0.0000E+00  0.2400E+02
     -2.186  0.0000E+00  0.2400E+02
     -2.072  0.1465E+02  0.2486E+02
     -1.958  0.5667E+01  0.2599E+02
     -1.845  0.5463E+01  0.2663E+02
     -1.731  0.6751E+01  0.2751E+02
     -1.617  0.4996E+01  0.2820E+02
     -1.504  0.1072E+02  0.2917E+02
     -1.390  0.4187E+01  0.2987E+02
     -1.276  0.1975E+01  0.3007E+02
     -1.163  0.1280E+02  0.3115E+02
     -1.049  0.2405E+01  0.3188E+02
     -0.935  0.2011E+02  0.3275E+02
     -0.822  0.1384E+01  0.3388E+02
     -0.708  0.4907E+01  0.3416E+02
     -0.594  0.6630E+01  0.3487E+02
     -0.481  0.1086E+02  0.3596E+02
     -0.367  0.7682E+01  0.3722E+02
     -0.253  0.4736E+01  0.3782E+02
     -0.140  0.1183E+02  0.3868E+02
     -0.026  0.6720E+01  0.3985E+02
      0.088  0.1035E+02  0.4056E+02
      0.202  0.0000E+00  0.4200E+02
      0.315  0.6765E+01  0.4220E+02
      0.429  0.7114E+01  0.4348E+02
      0.543  0.5335E+01  0.4399E+02
      0.656  0.6340E+01  0.4452E+02
      0.770  0.1027E+02  0.4543E+02
      0.884  0.5625E+01  0.4631E+02
      0.997  0.1387E+02  0.4729E+02
      1.111  0.0000E+00  0.4800E+02
      1.225  0.0000E+00  0.4800E+02
      1.338  0.0000E+00  0.4800E+02
      1.452  0.0000E+00  0.4800E+02
      1.566  0.0000E+00  0.4800E+02
      1.679  0.0000E+00  0.4800E+02
      1.793  0.0000E+00  0.4800E+02
      1.907  0.0000E+00  0.4800E+02
      2.020  0.0000E+00  0.4800E+02
      2.134  0.0000E+00  0.4800E+02
      2.248  0.0000E+00  0.4800E+02
      2.361  0.0000E+00  0.4800E+02
      2.475  0.0000E+00  0.4800E+02
      2.589  0.0000E+00  0.4800E+02
      2.702  0.0000E+00  0.4800E+02
      2.816  0.0000E+00  0.4800E+02
      2.930  0.0000E+00  0.4800E+02
      3.043  0.0000E+00  0.4800E+02
      3.157  0.0000E+00  0.4800E+02
      3.271  0.0000E+00  0.4800E+02
      3.384  0.0000E+00  0.4800E+02
      3.498  0.0000E+00  0.4800E+02
      3.612  0.0000E+00  0.4800E+02
      3.725  0.0000E+00  0.4800E+02
      3.839  0.0000E+00  0.4800E+02
      3.953  0.0000E+00  0.4800E+02
      4.066  0.0000E+00  0.4800E+02
      4.180  0.0000E+00  0.4800E+02
      4.294  0.0000E+00  0.4800E+02
      4.407  0.0000E+00  0.4800E+02
      4.521  0.0000E+00  0.4800E+02
      4.635  0.0000E+00  0.4800E+02
      4.748  0.0000E+00  0.4800E+02
      4.862  0.0000E+00  0.4800E+02
      4.976  0.0000E+00  0.4800E+02
      5.089  0.0000E+00  0.4800E+02
      5.203  0.0000E+00  0.4800E+02
      5.317  0.0000E+00  0.4800E+02
      5.430  0.0000E+00  0.4800E+02
      5.544  0.0000E+00  0.4800E+02
      5.658  0.0000E+00  0.4800E+02
      5.771  0.0000E+00  0.4800E+02
      5.885  0.0000E+00  0.4800E+02
      5.999  0.0000E+00  0.4800E+02
      6.112  0.0000E+00  0.4800E+02
      6.226  0.0000E+00  0.4800E+02
      6.340  0.0000E+00  0.4800E+02
      6.453  0.0000E+00  0.4800E+02
      6.567  0.0000E+00  0.4800E+02
      6.681  0.0000E+00  0.4800E+02
      6.794  0.0000E+00  0.4800E+02
      6.908  0.0000E+00  0.4800E+02
      7.022  0.0000E+00  0.4800E+02
      7.135  0.1992E-03  0.4800E+02
      7.249  0.1639E-01  0.4800E+02
      7.363  0.5853E-01  0.4800E+02
      7.476  0.1266E+00  0.4801E+02
      7.590  0.2098E+00  0.4803E+02
      7.704  0.2545E+00  0.4806E+02
      7.817  0.2816E+00  0.4809E+02
      7.931  0.3068E+00  0.4812E+02
      8.045  0.3524E+00  0.4816E+02
      8.158  0.4005E+00  0.4820E+02
      8.272  0.4511E+00  0.4825E+02
      8.386  0.5040E+00  0.4831E+02
      8.499  0.5614E+00  0.4837E+02
      8.613  0.7156E+00  0.4844E+02
      8.727  0.8660E+00  0.4853E+02
      8.840  0.8334E+00  0.4863E+02
      8.954  0.8939E+00  0.4872E+02
      9.068  0.9564E+00  0.4883E+02
      9.181  0.1021E+01  0.4894E+02
      9.295  0.1269E+01  0.4906E+02
      9.409  0.1524E+01  0.4923E+02
      9.522  0.1310E+01  0.4939E+02
      9.636  0.1232E+01  0.4954E+02
      9.750  0.1450E+01  0.4969E+02
      9.863  0.1493E+01  0.4986E+02
      9.977  0.1555E+01  0.5007E+02
     10.091  0.1081E+01  0.5021E+02
     10.204  0.2258E+01  0.5038E+02
     10.318  0.6843E+01  0.5083E+02
     10.432  0.5116E+01  0.5191E+02
     10.545  0.4506E+01  0.5239E+02
     10.659  0.8420E+01  0.5314E+02
     10.773  0.6349E+01  0.5400E+02
     10.886  0.2493E+01  0.5446E+02
     11.000  0.3932E+01  0.5478E+02
     11.114  0.7523E+01  0.5546E+02
     11.227  0.2514E+01  0.5602E+02
     11.341  0.4505E+01  0.5641E+02
     11.455  0.5762E+01  0.5700E+02
     11.568  0.5267E+01  0.5781E+02
     11.682  0.1342E+00  0.5800E+02
     11.796  0.0000E+00  0.5800E+02
     11.910  0.0000E+00  0.5800E+02
     12.023  0.0000E+00  0.5800E+02
     12.137  0.0000E+00  0.5800E+02
     12.251  0.0000E+00  0.5800E+02
     12.364  0.0000E+00  0.5800E+02
     12.478  0.0000E+00  0.5800E+02
     12.592  0.0000E+00  0.5800E+02
     12.705  0.0000E+00  0.5800E+02
     12.819  0.0000E+00  0.5800E+02
     12.933  0.0000E+00  0.5800E+02
     13.046  0.0000E+00  0.5800E+02
     13.160  0.0000E+00  0.5800E+02
     13.274  0.0000E+00  0.5800E+02
     13.387  0.0000E+00  0.5800E+02
     13.501  0.0000E+00  0.5800E+02
     13.615  0.0000E+00  0.5800E+02
     13.728  0.0000E+00  0.5800E+02
