       N       E                     dE             d eps       ncg     rms          rms(c)
DAV:   1     0.338937257214E+03    0.33894E+03   -0.27906E+04  3198   0.172E+03
DAV:   2    -0.588048179858E+02   -0.39774E+03   -0.38802E+03  4247   0.359E+02
DAV:   3    -0.803475392519E+02   -0.21543E+02   -0.21476E+02  3735   0.939E+01
DAV:   4    -0.806317691465E+02   -0.28423E+00   -0.28375E+00  3764   0.117E+01
DAV:   5    -0.806371798430E+02   -0.54107E-02   -0.54084E-02  3685   0.159E+00    0.188E+01
RMM:   6    -0.710163848701E+02    0.96208E+01   -0.42189E+01  3391   0.347E+01    0.513E+00
RMM:   7    -0.710052219986E+02    0.11163E-01   -0.16934E+00  3672   0.600E+00    0.340E+00
RMM:   8    -0.710230565807E+02   -0.17835E-01   -0.27845E-01  3613   0.434E+00    0.649E-01
RMM:   9    -0.710150258690E+02    0.80307E-02   -0.57775E-02  3733   0.128E+00    0.137E-01
RMM:  10    -0.710184489595E+02   -0.34231E-02   -0.18709E-02  3677   0.728E-01    0.249E-01
RMM:  11    -0.710169030212E+02    0.15459E-02   -0.32539E-03  3729   0.333E-01    0.711E-02
RMM:  12    -0.710168431317E+02    0.59889E-04   -0.10374E-03  3719   0.171E-01    0.814E-03
RMM:  13    -0.710168461274E+02   -0.29957E-05   -0.30189E-05  2777   0.322E-02
   1 F= -.71016846E+02 E0= -.71016846E+02  d E =0.000000E+00
