   5   5   0   0
  0.4353447E+02  0.3946846E-09  0.3946846E-09  0.1397342E-08  0.5000000E-15
  1.000000000000000E-004
  CAR 
 unknown system                          
      4.70798527    -38.11865875  301     -1.53756698      1.00000000
    -38.119  0.0000E+00  0.0000E+00
    -37.976  0.0000E+00  0.0000E+00
    -37.833  0.0000E+00  0.0000E+00
    -37.690  0.0000E+00  0.0000E+00
    -37.548  0.0000E+00  0.0000E+00
    -37.405  0.0000E+00  0.0000E+00
    -37.262  0.0000E+00  0.0000E+00
    -37.119  0.0000E+00  0.0000E+00
    -36.977  0.0000E+00  0.0000E+00
    -36.834  0.0000E+00  0.0000E+00
    -36.691  0.0000E+00  0.0000E+00
    -36.548  0.0000E+00  0.0000E+00
    -36.406  0.0000E+00  0.0000E+00
    -36.263  0.0000E+00  0.0000E+00
    -36.120  0.0000E+00  0.0000E+00
    -35.977  0.0000E+00  0.2000E+01
    -35.835  0.0000E+00  0.2000E+01
    -35.692  0.0000E+00  0.2000E+01
    -35.549  0.0000E+00  0.2000E+01
    -35.406  0.0000E+00  0.2000E+01
    -35.264  0.0000E+00  0.2000E+01
    -35.121  0.0000E+00  0.2000E+01
    -34.978  0.0000E+00  0.2000E+01
    -34.835  0.0000E+00  0.2000E+01
    -34.693  0.0000E+00  0.2000E+01
    -34.550  0.0000E+00  0.2000E+01
    -34.407  0.0000E+00  0.2000E+01
    -34.264  0.0000E+00  0.2000E+01
    -34.122  0.0000E+00  0.2000E+01
    -33.979  0.0000E+00  0.2000E+01
    -33.836  0.0000E+00  0.2000E+01
    -33.693  0.0000E+00  0.2000E+01
    -33.550  0.0000E+00  0.2000E+01
    -33.408  0.0000E+00  0.2000E+01
    -33.265  0.0000E+00  0.2000E+01
    -33.122  0.0000E+00  0.2000E+01
    -32.979  0.0000E+00  0.2000E+01
    -32.837  0.0000E+00  0.2000E+01
    -32.694  0.0000E+00  0.2000E+01
    -32.551  0.0000E+00  0.2000E+01
    -32.408  0.0000E+00  0.2000E+01
    -32.266  0.0000E+00  0.2000E+01
    -32.123  0.0000E+00  0.2000E+01
    -31.980  0.0000E+00  0.2000E+01
    -31.837  0.0000E+00  0.2000E+01
    -31.695  0.0000E+00  0.2000E+01
    -31.552  0.0000E+00  0.2000E+01
    -31.409  0.0000E+00  0.2000E+01
    -31.266  0.0000E+00  0.2000E+01
    -31.124  0.0000E+00  0.2000E+01
    -30.981  0.0000E+00  0.2000E+01
    -30.838  0.0000E+00  0.2000E+01
    -30.695  0.0000E+00  0.2000E+01
    -30.553  0.0000E+00  0.2000E+01
    -30.410  0.0000E+00  0.2000E+01
    -30.267  0.0000E+00  0.2000E+01
    -30.124  0.0000E+00  0.2000E+01
    -29.982  0.0000E+00  0.2000E+01
    -29.839  0.0000E+00  0.2000E+01
    -29.696  0.0000E+00  0.2000E+01
    -29.553  0.0000E+00  0.2000E+01
    -29.411  0.0000E+00  0.2000E+01
    -29.268  0.0000E+00  0.2000E+01
    -29.125  0.0000E+00  0.2000E+01
    -28.982  0.0000E+00  0.2000E+01
    -28.840  0.0000E+00  0.2000E+01
    -28.697  0.0000E+00  0.2000E+01
    -28.554  0.0000E+00  0.2000E+01
    -28.411  0.0000E+00  0.2000E+01
    -28.269  0.0000E+00  0.2000E+01
    -28.126  0.0000E+00  0.2000E+01
    -27.983  0.0000E+00  0.2000E+01
    -27.840  0.0000E+00  0.2000E+01
    -27.698  0.0000E+00  0.2000E+01
    -27.555  0.0000E+00  0.2000E+01
    -27.412  0.0000E+00  0.2000E+01
    -27.269  0.0000E+00  0.2000E+01
    -27.126  0.0000E+00  0.2000E+01
    -26.984  0.0000E+00  0.2000E+01
    -26.841  0.0000E+00  0.2000E+01
    -26.698  0.0000E+00  0.2000E+01
    -26.555  0.0000E+00  0.2000E+01
    -26.413  0.0000E+00  0.2000E+01
    -26.270  0.0000E+00  0.2000E+01
    -26.127  0.0000E+00  0.2000E+01
    -25.984  0.0000E+00  0.2000E+01
    -25.842  0.0000E+00  0.2000E+01
    -25.699  0.0000E+00  0.2000E+01
    -25.556  0.0000E+00  0.2000E+01
    -25.413  0.0000E+00  0.2000E+01
    -25.271  0.0000E+00  0.2000E+01
    -25.128  0.0000E+00  0.2000E+01
    -24.985  0.0000E+00  0.2000E+01
    -24.842  0.0000E+00  0.2000E+01
    -24.700  0.0000E+00  0.2000E+01
    -24.557  0.0000E+00  0.2000E+01
    -24.414  0.0000E+00  0.2000E+01
    -24.271  0.0000E+00  0.2000E+01
    -24.129  0.0000E+00  0.2000E+01
    -23.986  0.0000E+00  0.2000E+01
    -23.843  0.0000E+00  0.2000E+01
    -23.700  0.0000E+00  0.2000E+01
    -23.558  0.0000E+00  0.2000E+01
    -23.415  0.0000E+00  0.2000E+01
    -23.272  0.0000E+00  0.2000E+01
    -23.129  0.0000E+00  0.2000E+01
    -22.987  0.0000E+00  0.2000E+01
    -22.844  0.0000E+00  0.2000E+01
    -22.701  0.0000E+00  0.2000E+01
    -22.558  0.0000E+00  0.2000E+01
    -22.416  0.0000E+00  0.2000E+01
    -22.273  0.0000E+00  0.2000E+01
    -22.130  0.0000E+00  0.2000E+01
    -21.987  0.0000E+00  0.2000E+01
    -21.845  0.0000E+00  0.2000E+01
    -21.702  0.0000E+00  0.2000E+01
    -21.559  0.0000E+00  0.2000E+01
    -21.416  0.0000E+00  0.2000E+01
    -21.274  0.0000E+00  0.2000E+01
    -21.131  0.0000E+00  0.2000E+01
    -20.988  0.0000E+00  0.2000E+01
    -20.845  0.0000E+00  0.2000E+01
    -20.702  0.0000E+00  0.2000E+01
    -20.560  0.0000E+00  0.2000E+01
    -20.417  0.0000E+00  0.2000E+01
    -20.274  0.0000E+00  0.2000E+01
    -20.131  0.0000E+00  0.2000E+01
    -19.989  0.0000E+00  0.2000E+01
    -19.846  0.0000E+00  0.2000E+01
    -19.703  0.0000E+00  0.2000E+01
    -19.560  0.0000E+00  0.2000E+01
    -19.418  0.0000E+00  0.2000E+01
    -19.275  0.0000E+00  0.2000E+01
    -19.132  0.5241E+01  0.2284E+01
    -18.989  0.3715E+01  0.3436E+01
    -18.847  0.1284E+01  0.3775E+01
    -18.704  0.8021E+00  0.3924E+01
    -18.561  0.1084E+02  0.4434E+01
    -18.418  0.5956E+00  0.5931E+01
    -18.276  0.2183E+02  0.6351E+01
    -18.133  0.1403E+02  0.7433E+01
    -17.990  0.9888E+01  0.8595E+01
    -17.847  0.6312E+01  0.9883E+01
    -17.705  0.5670E+01  0.1052E+02
    -17.562  0.1473E+02  0.1159E+02
    -17.419  0.5175E+01  0.1327E+02
    -17.276  0.3100E+01  0.1390E+02
    -17.134  0.0000E+00  0.1400E+02
    -16.991  0.0000E+00  0.1400E+02
    -16.848  0.0000E+00  0.1400E+02
    -16.705  0.0000E+00  0.1400E+02
    -16.563  0.0000E+00  0.1400E+02
    -16.420  0.0000E+00  0.1400E+02
    -16.277  0.0000E+00  0.1400E+02
    -16.134  0.0000E+00  0.1400E+02
    -15.992  0.0000E+00  0.1400E+02
    -15.849  0.0000E+00  0.1400E+02
    -15.706  0.0000E+00  0.1400E+02
    -15.563  0.0000E+00  0.1400E+02
    -15.421  0.0000E+00  0.1400E+02
    -15.278  0.0000E+00  0.1400E+02
    -15.135  0.0000E+00  0.1400E+02
    -14.992  0.0000E+00  0.1400E+02
    -14.850  0.0000E+00  0.1400E+02
    -14.707  0.0000E+00  0.1400E+02
    -14.564  0.0000E+00  0.1400E+02
    -14.421  0.0000E+00  0.1400E+02
    -14.278  0.0000E+00  0.1400E+02
    -14.136  0.0000E+00  0.1400E+02
    -13.993  0.0000E+00  0.1400E+02
    -13.850  0.0000E+00  0.1400E+02
    -13.707  0.0000E+00  0.1400E+02
    -13.565  0.0000E+00  0.1400E+02
    -13.422  0.0000E+00  0.1400E+02
    -13.279  0.0000E+00  0.1400E+02
    -13.136  0.0000E+00  0.1400E+02
    -12.994  0.0000E+00  0.1400E+02
    -12.851  0.0000E+00  0.1400E+02
    -12.708  0.0000E+00  0.1400E+02
    -12.565  0.0000E+00  0.1400E+02
    -12.423  0.0000E+00  0.1400E+02
    -12.280  0.0000E+00  0.1400E+02
    -12.137  0.0000E+00  0.1400E+02
    -11.994  0.0000E+00  0.1400E+02
    -11.852  0.0000E+00  0.1400E+02
    -11.709  0.0000E+00  0.1400E+02
    -11.566  0.0000E+00  0.1400E+02
    -11.423  0.0000E+00  0.1400E+02
    -11.281  0.0000E+00  0.1400E+02
    -11.138  0.0000E+00  0.1400E+02
    -10.995  0.0000E+00  0.1400E+02
    -10.852  0.0000E+00  0.1400E+02
    -10.710  0.0000E+00  0.1400E+02
    -10.567  0.0000E+00  0.1400E+02
    -10.424  0.0000E+00  0.1400E+02
    -10.281  0.0000E+00  0.1400E+02
    -10.139  0.0000E+00  0.1400E+02
     -9.996  0.0000E+00  0.1400E+02
     -9.853  0.0000E+00  0.1400E+02
     -9.710  0.0000E+00  0.1400E+02
     -9.568  0.0000E+00  0.1400E+02
     -9.425  0.0000E+00  0.1400E+02
     -9.282  0.0000E+00  0.1400E+02
     -9.139  0.0000E+00  0.1400E+02
     -8.997  0.0000E+00  0.1400E+02
     -8.854  0.0000E+00  0.1400E+02
     -8.711  0.0000E+00  0.1400E+02
     -8.568  0.0000E+00  0.1400E+02
     -8.426  0.0000E+00  0.1400E+02
     -8.283  0.0000E+00  0.1400E+02
     -8.140  0.0000E+00  0.1400E+02
     -7.997  0.0000E+00  0.1400E+02
     -7.854  0.0000E+00  0.1400E+02
     -7.712  0.0000E+00  0.1400E+02
     -7.569  0.0000E+00  0.1400E+02
     -7.426  0.0000E+00  0.1400E+02
     -7.283  0.0000E+00  0.1400E+02
     -7.141  0.0000E+00  0.1400E+02
     -6.998  0.0000E+00  0.1400E+02
     -6.855  0.0000E+00  0.1400E+02
     -6.712  0.0000E+00  0.1400E+02
     -6.570  0.0000E+00  0.1400E+02
     -6.427  0.0000E+00  0.1400E+02
     -6.284  0.0000E+00  0.1400E+02
     -6.141  0.0000E+00  0.1400E+02
     -5.999  0.2389E+01  0.1417E+02
     -5.856  0.1573E+01  0.1476E+02
     -5.713  0.1849E+01  0.1506E+02
     -5.570  0.1834E+01  0.1532E+02
     -5.428  0.3099E+01  0.1569E+02
     -5.285  0.1474E+02  0.1642E+02
     -5.142  0.3809E+01  0.1704E+02
     -4.999  0.5933E+01  0.1771E+02
     -4.857  0.5819E+01  0.1856E+02
     -4.714  0.7042E+01  0.1951E+02
     -4.571  0.8130E+01  0.2107E+02
     -4.428  0.7582E+01  0.2216E+02
     -4.286  0.3646E+01  0.2313E+02
     -4.143  0.3277E+01  0.2365E+02
     -4.000  0.3167E+01  0.2411E+02
     -3.857  0.2362E+01  0.2450E+02
     -3.715  0.2558E+01  0.2485E+02
     -3.572  0.2702E+01  0.2523E+02
     -3.429  0.4956E+01  0.2569E+02
     -3.286  0.1467E+01  0.2603E+02
     -3.144  0.1266E+02  0.2664E+02
     -3.001  0.6663E+01  0.2788E+02
     -2.858  0.7532E+01  0.2922E+02
     -2.715  0.3520E+01  0.3010E+02
     -2.573  0.2674E+01  0.3056E+02
     -2.430  0.2493E+01  0.3109E+02
     -2.287  0.1499E+01  0.3137E+02
     -2.144  0.8846E+00  0.3153E+02
     -2.002  0.1019E+01  0.3167E+02
     -1.859  0.8483E+00  0.3180E+02
     -1.716  0.6210E+00  0.3191E+02
     -1.573  0.0000E+00  0.3200E+02
     -1.431  0.0000E+00  0.3200E+02
     -1.288  0.0000E+00  0.3200E+02
     -1.145  0.0000E+00  0.3200E+02
     -1.002  0.0000E+00  0.3200E+02
     -0.859  0.0000E+00  0.3200E+02
     -0.717  0.0000E+00  0.3200E+02
     -0.574  0.0000E+00  0.3200E+02
     -0.431  0.0000E+00  0.3200E+02
     -0.288  0.1850E+00  0.3200E+02
     -0.146  0.9220E+00  0.3208E+02
     -0.003  0.1410E+01  0.3225E+02
      0.140  0.2379E+01  0.3249E+02
      0.283  0.6617E+01  0.3322E+02
      0.425  0.3627E+01  0.3390E+02
      0.568  0.3267E+01  0.3439E+02
      0.711  0.3512E+01  0.3487E+02
      0.854  0.4186E+01  0.3542E+02
      0.996  0.4077E+01  0.3599E+02
      1.139  0.5822E+01  0.3676E+02
      1.282  0.5090E+01  0.3767E+02
      1.425  0.2891E+01  0.3847E+02
      1.567  0.3230E+01  0.3905E+02
      1.710  0.2401E+01  0.3945E+02
      1.853  0.8739E+00  0.3966E+02
      1.996  0.7262E+00  0.3978E+02
      2.138  0.5786E+00  0.3987E+02
      2.281  0.1330E+00  0.3996E+02
      2.424  0.1116E+00  0.3997E+02
      2.567  0.9023E-01  0.3999E+02
      2.709  0.0000E+00  0.4000E+02
      2.852  0.0000E+00  0.4000E+02
      2.995  0.0000E+00  0.4000E+02
      3.138  0.0000E+00  0.4000E+02
      3.280  0.0000E+00  0.4000E+02
      3.423  0.0000E+00  0.4000E+02
      3.566  0.0000E+00  0.4000E+02
      3.709  0.0000E+00  0.4000E+02
      3.851  0.0000E+00  0.4000E+02
      3.994  0.0000E+00  0.4000E+02
      4.137  0.0000E+00  0.4000E+02
      4.280  0.0000E+00  0.4000E+02
      4.422  0.0000E+00  0.4000E+02
      4.565  0.0000E+00  0.4000E+02
      4.708  0.0000E+00  0.4000E+02
