    5    5    1    1
  0.4353447E+02  0.3946846E-09  0.3946846E-09  0.1397342E-08  0.5000000E-15
  1.000000000000000E-004
  CAR 
 unknown system                          
     32     10     20
 
  0.0000000E+00  0.0000000E+00  0.0000000E+00  0.2040816E-01
    1      -36.118659   1.000000
    2      -19.126628   1.000000
    3      -18.186213   1.000000
    4      -18.051538   1.000000
    5      -18.051538   1.000000
    6      -18.008414   1.000000
    7      -17.770299   1.000000
    8       -4.635824   1.000000
    9       -4.385064   1.000000
   10       -4.385064   1.000000
   11       -3.868839   1.000000
   12       -3.393660   1.000000
   13       -3.393660   1.000000
   14       -3.059337   1.000000
   15       -2.220473   1.000000
   16       -2.220473   1.000000
   17       -0.324285   0.000000
   18       -0.136219   0.000000
   19        0.125010   0.000000
   20        0.125010   0.000000
 
  0.1428571E+00  0.0000000E+00  0.0000000E+00  0.8163265E-01
    1      -36.115696   1.000000
    2      -19.091068   1.000000
    3      -18.483488   1.000000
    4      -18.044501   1.000000
    5      -18.003613   1.000000
    6      -17.800780   1.000000
    7      -17.679855   1.000000
    8       -4.748728   1.000000
    9       -4.646475   1.000000
   10       -4.392613   1.000000
   11       -4.165767   1.000000
   12       -3.501433   1.000000
   13       -3.454521   1.000000
   14       -2.859115   1.000000
   15       -2.607631   1.000000
   16       -2.505793   1.000000
   17       -0.143333   0.000000
   18        0.136080   0.000000
   19        0.274991   0.000000
   20        2.707985   0.000000
 
  0.2857143E+00  0.0000000E+00  0.0000000E+00  0.8163265E-01
    1      -36.109032   1.000000
    2      -19.103513   1.000000
    3      -18.636941   1.000000
    4      -18.028579   1.000000
    5      -18.024277   1.000000
    6      -17.700180   1.000000
    7      -17.393740   1.000000
    8       -5.413001   1.000000
    9       -4.956694   1.000000
   10       -4.585439   1.000000
   11       -4.410802   1.000000
   12       -3.749131   1.000000
   13       -3.396418   1.000000
   14       -3.091600   1.000000
   15       -2.921004   1.000000
   16       -2.827771   1.000000
   17        0.153087   0.000000
   18        0.370768   0.000000
   19        0.730279   0.000000
   20        1.000550   0.000000
 
  0.4285714E+00  0.0000000E+00  0.0000000E+00  0.8163265E-01
    1      -36.103675   1.000000
    2      -19.210563   1.000000
    3      -18.551580   1.000000
    4      -18.120891   1.000000
    5      -18.015730   1.000000
    6      -17.566358   1.000000
    7      -17.237321   1.000000
    8       -5.967126   1.000000
    9       -5.379192   1.000000
   10       -4.615675   1.000000
   11       -4.424315   1.000000
   12       -3.954690   1.000000
   13       -3.354713   1.000000
   14       -3.311688   1.000000
   15       -3.143781   1.000000
   16       -2.914784   1.000000
   17        0.171519   0.000000
   18        1.025961   0.000000
   19        1.170681   0.000000
   20        1.499428   0.000000
 
  0.1428571E+00  0.1428571E+00  0.0000000E+00  0.8163265E-01
    1      -36.112786   1.000000
    2      -19.056640   1.000000
    3      -18.520770   1.000000
    4      -18.233789   1.000000
    5      -17.824466   1.000000
    6      -17.779062   1.000000
    7      -17.608515   1.000000
    8       -4.871282   1.000000
    9       -4.667169   1.000000
   10       -4.605990   1.000000
   11       -4.240494   1.000000
   12       -3.895003   1.000000
   13       -3.335267   1.000000
   14       -3.102132   1.000000
   15       -2.784994   1.000000
   16       -2.432585   1.000000
   17        0.013693   0.000000
   18        0.273707   0.000000
   19        0.331295   0.000000
   20        0.529540   0.000000
 
  0.2857143E+00  0.1428571E+00  0.0000000E+00  0.1632653E+00
    1      -36.106236   1.000000
    2      -19.051979   1.000000
    3      -18.586632   1.000000
    4      -18.226423   1.000000
    5      -17.880639   1.000000
    6      -17.665387   1.000000
    7      -17.423194   1.000000
    8       -5.414332   1.000000
    9       -4.955706   1.000000
   10       -4.673646   1.000000
   11       -4.564199   1.000000
   12       -4.146452   1.000000
   13       -3.759970   1.000000
   14       -3.183302   1.000000
   15       -2.810555   1.000000
   16       -2.528299   1.000000
   17        0.331770   0.000000
   18        0.522727   0.000000
   19        0.781768   0.000000
   20        1.101435   0.000000
 
  0.4285714E+00  0.1428571E+00  0.0000000E+00  0.1632653E+00
    1      -36.100971   1.000000
    2      -19.129552   1.000000
    3      -18.525248   1.000000
    4      -18.139840   1.000000
    5      -18.015720   1.000000
    6      -17.541251   1.000000
    7      -17.320051   1.000000
    8       -5.964729   1.000000
    9       -5.282603   1.000000
   10       -4.708314   1.000000
   11       -4.604214   1.000000
   12       -4.427262   1.000000
   13       -3.827127   1.000000
   14       -3.149321   1.000000
   15       -2.967508   1.000000
   16       -2.620390   1.000000
   17        0.378699   0.000000
   18        1.155189   0.000000
   19        1.251404   0.000000
   20        1.556739   0.000000
 
  0.2857143E+00  0.2857143E+00  0.0000000E+00  0.8163265E-01
    1      -36.099945   1.000000
    2      -18.951722   1.000000
    3      -18.458609   1.000000
    4      -18.404827   1.000000
    5      -17.778193   1.000000
    6      -17.644686   1.000000
    7      -17.467159   1.000000
    8       -5.483228   1.000000
    9       -5.248630   1.000000
   10       -4.958055   1.000000
   11       -4.691154   1.000000
   12       -4.542487   1.000000
   13       -4.431142   1.000000
   14       -3.115807   1.000000
   15       -2.793103   1.000000
   16       -2.135463   1.000000
   17        0.742856   0.000000
   18        0.931679   0.000000
   19        0.959327   0.000000
   20        1.423902   0.000000
 
  0.4285714E+00  0.2857143E+00  0.0000000E+00  0.1632653E+00
    1      -36.094885   1.000000
    2      -18.911443   1.000000
    3      -18.483676   1.000000
    4      -18.266764   1.000000
    5      -17.905268   1.000000
    6      -17.531997   1.000000
    7      -17.490755   1.000000
    8       -5.965616   1.000000
    9       -5.307885   1.000000
   10       -5.144761   1.000000
   11       -5.057405   1.000000
   12       -4.670237   1.000000
   13       -4.362556   1.000000
   14       -3.040240   1.000000
   15       -2.897224   1.000000
   16       -1.968501   1.000000
   17        0.881994   0.000000
   18        1.319667   0.000000
   19        1.502230   0.000000
   20        1.758276   0.000000
 
  0.4285714E+00  0.4285714E+00  0.0000000E+00  0.8163265E-01
    1      -36.089993   1.000000
    2      -18.654457   1.000000
    3      -18.505649   1.000000
    4      -18.276891   1.000000
    5      -18.021856   1.000000
    6      -17.531213   1.000000
    7      -17.520251   1.000000
    8       -6.064432   1.000000
    9       -5.828271   1.000000
   10       -5.512169   1.000000
   11       -4.928784   1.000000
   12       -4.860255   1.000000
   13       -4.367921   1.000000
   14       -2.939959   1.000000
   15       -2.876181   1.000000
   16       -1.621323   1.000000
   17        1.339886   0.000000
   18        1.405490   0.000000
   19        1.724481   0.000000
   20        2.202778   0.000000
