Starting job 28500490 ("jobname") on c15-32 at Mon Nov 4 15:05:39 CET 2019
 running on    4 total cores
 distrk:  each k-point on    4 cores,    1 groups
 distr:  one band on    2 cores,    2 groups
 using from now: INCAR     
 vasp.5.4.4.18Apr17-6-g9f103f2a35 (build Jun 30 2017 11:15:00) complex          
  
 POSCAR found type information on POSCAR  O  Sr Ti
 POSCAR found :  3 types and       5 ions
 scaLAPACK will be used
 LDA part: xc-table for Pade appr. of Perdew
 POSCAR, INCAR and KPOINTS ok, starting setup
 FFT: planning ...
 WAVECAR not read
 entering main loop
       N       E                     dE             d eps       ncg     rms          rms(c)
DAV:   1     0.361955599444E+03    0.36196E+03   -0.12777E+04   400   0.126E+03
DAV:   2     0.239852816912E+02   -0.33797E+03   -0.33095E+03   584   0.311E+02
DAV:   3    -0.472388371877E+02   -0.71224E+02   -0.70650E+02   564   0.154E+02
DAV:   4    -0.509317561871E+02   -0.36929E+01   -0.36878E+01   648   0.336E+01
DAV:   5    -0.510134447924E+02   -0.81689E-01   -0.81653E-01   588   0.459E+00    0.193E+01
  WARNING: DENTET: can't reach specified precision
  Number of Electrons is NELECT =   32.0033236804826     
RMM:   6    -0.403359957005E+02    0.10677E+02   -0.91187E+01   474   0.499E+01BRMIX: very serious problems
 the old and the new charge density differ
 old charge density:    31.99999 new   32.00332
    0.103E+01
RMM:   7    -0.384052955948E+02    0.19307E+01   -0.11357E+01   442   0.221E+01BRMIX: very serious problems
 the old and the new charge density differ
 old charge density:    32.00332 new   31.99999
    0.419E+00
RMM:   8    -0.380259160654E+02    0.37938E+00   -0.98660E-01   505   0.663E+00    0.253E+00
RMM:   9    -0.378158064990E+02    0.21011E+00   -0.15511E+00   470   0.771E+00    0.203E+00
RMM:  10    -0.376963770768E+02    0.11943E+00   -0.20058E-01   546   0.275E+00    0.117E+00
RMM:  11    -0.376552867281E+02    0.41090E-01   -0.37436E-01   490   0.332E+00    0.762E-01
RMM:  12    -0.376236159523E+02    0.31671E-01   -0.82637E-02   550   0.137E+00    0.588E-01
RMM:  13    -0.376120025386E+02    0.11613E-01   -0.25044E-02   565   0.777E-01    0.357E-01
RMM:  14    -0.376120232741E+02   -0.20735E-04   -0.69331E-02   462   0.150E+00    0.425E-01
RMM:  15    -0.376090563364E+02    0.29669E-02   -0.94535E-03   472   0.606E-01    0.167E-01
RMM:  16    -0.376119457672E+02   -0.28894E-02   -0.61004E-03   468   0.450E-01    0.582E-02
RMM:  17    -0.376136760130E+02   -0.17302E-02   -0.23328E-03   557   0.210E-01    0.102E-01
RMM:  18    -0.376147799666E+02   -0.11040E-02   -0.21303E-03   456   0.230E-01    0.304E-02
RMM:  19    -0.376150572740E+02   -0.27731E-03   -0.40702E-04   516   0.901E-02    0.366E-02
RMM:  20    -0.376151667284E+02   -0.10945E-03   -0.14921E-04   440   0.614E-02    0.107E-02
RMM:  21    -0.376151983774E+02   -0.31649E-04   -0.71062E-05   403   0.395E-02    0.628E-03
RMM:  22    -0.376152173668E+02   -0.18989E-04   -0.14137E-05   326   0.213E-02    0.424E-03
RMM:  23    -0.376152226000E+02   -0.52332E-05   -0.81865E-06   305   0.168E-02
   1 F= -.37615223E+02 E0= -.37615223E+02  d E =0.000000E+00

Currently Loaded Modulefiles:
  1) intel/2017.4         2) perf-reports/7.0.6

Job script resource usage:
       JobID  MaxVMSize     MaxRSS 
------------ ---------- ---------- 
28500490.ba+    216884K      2303K 

Job step resource usage:
       JobID    JobName  AllocCPUS  MaxVMSize     MaxRSS    Elapsed ExitCode 
------------ ---------- ---------- ---------- ---------- ---------- -------- 
28500490        jobname          4                         00:00:20      0:0 
28500490.0    pmi_proxy          1    279832K       510K   00:00:18      0:0 

Job 28500490 ("jobname") completed on c15-32 at Mon Nov 4 15:05:57 CET 2019
