unknown system                          
           1
     3.946846    0.000000    0.000000
     0.000000    3.946846    0.000000
     0.000000    0.000000   13.973423
   O    Sr   Ti
   3   1   1
Direct configuration=     1
   0.50000000  0.50000000  0.42938655
   0.50000000  0.00000000  0.57061345
   0.00000000  0.50000000  0.57061345
   0.00000000  0.00000000  0.42938655
   0.50000000  0.50000000  0.57061345
