   9   9   0   0
  0.1255774E+02  0.4913700E-09  0.4913700E-09  0.5405130E-09  0.5000000E-15
  1.000000000000000E-004
  CAR 
 unknown system                          
     13.77152978    -20.37223344  301      1.16679052      1.00000000
    -20.372  0.0000E+00  0.0000E+00
    -20.258  0.0000E+00  0.0000E+00
    -20.145  0.0000E+00  0.0000E+00
    -20.031  0.0000E+00  0.0000E+00
    -19.917  0.0000E+00  0.0000E+00
    -19.803  0.0000E+00  0.0000E+00
    -19.689  0.0000E+00  0.0000E+00
    -19.576  0.0000E+00  0.0000E+00
    -19.462  0.0000E+00  0.0000E+00
    -19.348  0.0000E+00  0.0000E+00
    -19.234  0.0000E+00  0.0000E+00
    -19.120  0.0000E+00  0.0000E+00
    -19.006  0.0000E+00  0.0000E+00
    -18.893  0.0000E+00  0.0000E+00
    -18.779  0.0000E+00  0.0000E+00
    -18.665  0.0000E+00  0.0000E+00
    -18.551  0.0000E+00  0.0000E+00
    -18.437  0.0000E+00  0.0000E+00
    -18.324  0.3098E+00  0.5021E-02
    -18.210  0.1348E+01  0.1191E+00
    -18.096  0.2284E+01  0.3249E+00
    -17.982  0.4105E+01  0.6918E+00
    -17.868  0.9288E+01  0.1324E+01
    -17.755  0.6032E+00  0.1981E+01
    -17.641  0.1117E+01  0.2068E+01
    -17.527  0.2178E+01  0.2250E+01
    -17.413  0.6728E+01  0.2683E+01
    -17.299  0.3079E+01  0.3604E+01
    -17.185  0.1292E+01  0.3837E+01
    -17.072  0.6241E+00  0.3940E+01
    -16.958  0.9977E+00  0.4016E+01
    -16.844  0.6390E+01  0.4372E+01
    -16.730  0.4041E+01  0.5299E+01
    -16.616  0.2095E+01  0.5619E+01
    -16.503  0.1314E+01  0.5805E+01
    -16.389  0.7928E+00  0.5926E+01
    -16.275  0.3283E+01  0.5996E+01
    -16.161  0.2852E+02  0.1157E+02
    -16.047  0.0000E+00  0.1200E+02
    -15.934  0.0000E+00  0.1200E+02
    -15.820  0.0000E+00  0.1200E+02
    -15.706  0.0000E+00  0.1200E+02
    -15.592  0.0000E+00  0.1200E+02
    -15.478  0.0000E+00  0.1200E+02
    -15.364  0.0000E+00  0.1200E+02
    -15.251  0.0000E+00  0.1200E+02
    -15.137  0.0000E+00  0.1200E+02
    -15.023  0.0000E+00  0.1200E+02
    -14.909  0.0000E+00  0.1200E+02
    -14.795  0.0000E+00  0.1200E+02
    -14.682  0.0000E+00  0.1200E+02
    -14.568  0.0000E+00  0.1200E+02
    -14.454  0.0000E+00  0.1200E+02
    -14.340  0.0000E+00  0.1200E+02
    -14.226  0.0000E+00  0.1200E+02
    -14.113  0.0000E+00  0.1200E+02
    -13.999  0.0000E+00  0.1200E+02
    -13.885  0.0000E+00  0.1200E+02
    -13.771  0.0000E+00  0.1200E+02
    -13.657  0.0000E+00  0.1200E+02
    -13.543  0.0000E+00  0.1200E+02
    -13.430  0.0000E+00  0.1200E+02
    -13.316  0.0000E+00  0.1200E+02
    -13.202  0.0000E+00  0.1200E+02
    -13.088  0.0000E+00  0.1200E+02
    -12.974  0.0000E+00  0.1200E+02
    -12.861  0.0000E+00  0.1200E+02
    -12.747  0.0000E+00  0.1200E+02
    -12.633  0.0000E+00  0.1200E+02
    -12.519  0.0000E+00  0.1200E+02
    -12.405  0.0000E+00  0.1200E+02
    -12.292  0.0000E+00  0.1200E+02
    -12.178  0.0000E+00  0.1200E+02
    -12.064  0.0000E+00  0.1200E+02
    -11.950  0.0000E+00  0.1200E+02
    -11.836  0.0000E+00  0.1200E+02
    -11.722  0.0000E+00  0.1200E+02
    -11.609  0.0000E+00  0.1200E+02
    -11.495  0.0000E+00  0.1200E+02
    -11.381  0.0000E+00  0.1200E+02
    -11.267  0.0000E+00  0.1200E+02
    -11.153  0.0000E+00  0.1200E+02
    -11.040  0.0000E+00  0.1200E+02
    -10.926  0.0000E+00  0.1200E+02
    -10.812  0.0000E+00  0.1200E+02
    -10.698  0.0000E+00  0.1200E+02
    -10.584  0.0000E+00  0.1200E+02
    -10.471  0.0000E+00  0.1200E+02
    -10.357  0.0000E+00  0.1200E+02
    -10.243  0.0000E+00  0.1200E+02
    -10.129  0.0000E+00  0.1200E+02
    -10.015  0.0000E+00  0.1200E+02
     -9.901  0.0000E+00  0.1200E+02
     -9.788  0.0000E+00  0.1200E+02
     -9.674  0.0000E+00  0.1200E+02
     -9.560  0.0000E+00  0.1200E+02
     -9.446  0.0000E+00  0.1200E+02
     -9.332  0.0000E+00  0.1200E+02
     -9.219  0.0000E+00  0.1200E+02
     -9.105  0.0000E+00  0.1200E+02
     -8.991  0.0000E+00  0.1200E+02
     -8.877  0.0000E+00  0.1200E+02
     -8.763  0.0000E+00  0.1200E+02
     -8.650  0.0000E+00  0.1200E+02
     -8.536  0.0000E+00  0.1200E+02
     -8.422  0.0000E+00  0.1200E+02
     -8.308  0.0000E+00  0.1200E+02
     -8.194  0.6499E-01  0.1200E+02
     -8.080  0.3560E+00  0.1202E+02
     -7.967  0.4850E+00  0.1207E+02
     -7.853  0.6950E+00  0.1214E+02
     -7.739  0.8903E+00  0.1223E+02
     -7.625  0.1229E+01  0.1235E+02
     -7.511  0.1697E+01  0.1251E+02
     -7.398  0.3077E+01  0.1277E+02
     -7.284  0.7286E+01  0.1352E+02
     -7.170  0.9294E+00  0.1389E+02
     -7.056  0.4968E+00  0.1397E+02
     -6.942  0.2669E+00  0.1401E+02
     -6.829  0.2472E+00  0.1403E+02
     -6.715  0.3863E+00  0.1407E+02
     -6.601  0.5851E+00  0.1412E+02
     -6.487  0.9813E+00  0.1421E+02
     -6.373  0.1635E+01  0.1436E+02
     -6.259  0.4346E+01  0.1465E+02
     -6.146  0.3528E+01  0.1527E+02
     -6.032  0.2008E+01  0.1558E+02
     -5.918  0.1173E+01  0.1575E+02
     -5.804  0.7972E+00  0.1586E+02
     -5.690  0.5326E+00  0.1594E+02
     -5.577  0.3144E+00  0.1599E+02
     -5.463  0.6374E+00  0.1602E+02
     -5.349  0.2617E+01  0.1621E+02
     -5.235  0.3377E+01  0.1658E+02
     -5.121  0.2903E+01  0.1692E+02
     -5.008  0.2671E+01  0.1725E+02
     -4.894  0.1863E+01  0.1751E+02
     -4.780  0.1363E+01  0.1769E+02
     -4.666  0.1001E+01  0.1782E+02
     -4.552  0.6680E+00  0.1792E+02
     -4.438  0.1922E+01  0.1803E+02
     -4.325  0.1848E+02  0.1924E+02
     -4.211  0.8079E+01  0.2045E+02
     -4.097  0.6738E+01  0.2116E+02
     -3.983  0.4424E+01  0.2183E+02
     -3.869  0.6894E+01  0.2234E+02
     -3.756  0.6686E+01  0.2323E+02
     -3.642  0.3169E+01  0.2377E+02
     -3.528  0.4540E+00  0.2399E+02
     -3.414  0.0000E+00  0.2400E+02
     -3.300  0.0000E+00  0.2400E+02
     -3.187  0.0000E+00  0.2400E+02
     -3.073  0.0000E+00  0.2400E+02
     -2.959  0.0000E+00  0.2400E+02
     -2.845  0.0000E+00  0.2400E+02
     -2.731  0.0000E+00  0.2400E+02
     -2.617  0.0000E+00  0.2400E+02
     -2.504  0.0000E+00  0.2400E+02
     -2.390  0.0000E+00  0.2400E+02
     -2.276  0.0000E+00  0.2400E+02
     -2.162  0.3224E+01  0.2404E+02
     -2.048  0.1267E+02  0.2523E+02
     -1.935  0.5971E+01  0.2615E+02
     -1.821  0.8204E+01  0.2681E+02
     -1.707  0.6409E+01  0.2768E+02
     -1.593  0.6443E+01  0.2835E+02
     -1.479  0.5995E+01  0.2939E+02
     -1.366  0.2528E+01  0.2996E+02
     -1.252  0.3765E+01  0.3014E+02
     -1.138  0.8866E+01  0.3145E+02
     -1.024  0.2547E+01  0.3195E+02
     -0.910  0.2036E+02  0.3332E+02
     -0.796  0.1858E+01  0.3393E+02
     -0.683  0.6875E+01  0.3435E+02
     -0.569  0.8012E+01  0.3507E+02
     -0.455  0.1101E+02  0.3628E+02
     -0.341  0.5528E+01  0.3741E+02
     -0.227  0.4723E+01  0.3796E+02
     -0.114  0.1143E+02  0.3901E+02
      0.000  0.5155E+01  0.4002E+02
      0.114  0.1407E+02  0.4092E+02
      0.228  0.1323E-03  0.4200E+02
      0.342  0.1152E+02  0.4247E+02
      0.455  0.3708E+01  0.4363E+02
      0.569  0.4295E+01  0.4412E+02
      0.683  0.6674E+01  0.4472E+02
      0.797  0.9923E+01  0.4574E+02
      0.911  0.7071E+01  0.4650E+02
      1.025  0.1170E+02  0.4771E+02
      1.138  0.0000E+00  0.4800E+02
      1.252  0.0000E+00  0.4800E+02
      1.366  0.0000E+00  0.4800E+02
      1.480  0.0000E+00  0.4800E+02
      1.594  0.0000E+00  0.4800E+02
      1.707  0.0000E+00  0.4800E+02
      1.821  0.0000E+00  0.4800E+02
      1.935  0.0000E+00  0.4800E+02
      2.049  0.0000E+00  0.4800E+02
      2.163  0.0000E+00  0.4800E+02
      2.276  0.0000E+00  0.4800E+02
      2.390  0.0000E+00  0.4800E+02
      2.504  0.0000E+00  0.4800E+02
      2.618  0.0000E+00  0.4800E+02
      2.732  0.0000E+00  0.4800E+02
      2.846  0.0000E+00  0.4800E+02
      2.959  0.0000E+00  0.4800E+02
      3.073  0.0000E+00  0.4800E+02
      3.187  0.0000E+00  0.4800E+02
      3.301  0.0000E+00  0.4800E+02
      3.415  0.0000E+00  0.4800E+02
      3.528  0.0000E+00  0.4800E+02
      3.642  0.0000E+00  0.4800E+02
      3.756  0.0000E+00  0.4800E+02
      3.870  0.0000E+00  0.4800E+02
      3.984  0.0000E+00  0.4800E+02
      4.097  0.0000E+00  0.4800E+02
      4.211  0.0000E+00  0.4800E+02
      4.325  0.0000E+00  0.4800E+02
      4.439  0.0000E+00  0.4800E+02
      4.553  0.0000E+00  0.4800E+02
      4.667  0.0000E+00  0.4800E+02
      4.780  0.0000E+00  0.4800E+02
      4.894  0.0000E+00  0.4800E+02
      5.008  0.0000E+00  0.4800E+02
      5.122  0.0000E+00  0.4800E+02
      5.236  0.0000E+00  0.4800E+02
      5.349  0.0000E+00  0.4800E+02
      5.463  0.0000E+00  0.4800E+02
      5.577  0.0000E+00  0.4800E+02
      5.691  0.0000E+00  0.4800E+02
      5.805  0.0000E+00  0.4800E+02
      5.918  0.0000E+00  0.4800E+02
      6.032  0.0000E+00  0.4800E+02
      6.146  0.0000E+00  0.4800E+02
      6.260  0.0000E+00  0.4800E+02
      6.374  0.0000E+00  0.4800E+02
      6.488  0.0000E+00  0.4800E+02
      6.601  0.0000E+00  0.4800E+02
      6.715  0.0000E+00  0.4800E+02
      6.829  0.0000E+00  0.4800E+02
      6.943  0.0000E+00  0.4800E+02
      7.057  0.0000E+00  0.4800E+02
      7.170  0.2485E-02  0.4800E+02
      7.284  0.2688E-01  0.4800E+02
      7.398  0.7731E-01  0.4801E+02
      7.512  0.1538E+00  0.4802E+02
      7.626  0.2261E+00  0.4804E+02
      7.739  0.2651E+00  0.4807E+02
      7.853  0.2868E+00  0.4810E+02
      7.967  0.3214E+00  0.4814E+02
      8.081  0.3678E+00  0.4818E+02
      8.195  0.4168E+00  0.4822E+02
      8.309  0.4683E+00  0.4827E+02
      8.422  0.5219E+00  0.4833E+02
      8.536  0.6134E+00  0.4839E+02
      8.650  0.7661E+00  0.4847E+02
      8.764  0.8292E+00  0.4856E+02
      8.878  0.8533E+00  0.4866E+02
      8.991  0.9145E+00  0.4876E+02
      9.105  0.9777E+00  0.4887E+02
      9.219  0.1043E+01  0.4898E+02
      9.333  0.1452E+01  0.4912E+02
      9.447  0.1515E+01  0.4929E+02
      9.560  0.1264E+01  0.4944E+02
      9.674  0.1288E+01  0.4959E+02
      9.788  0.1522E+01  0.4975E+02
      9.902  0.2034E+01  0.4993E+02
     10.016  0.1243E+01  0.5012E+02
     10.130  0.1207E+01  0.5025E+02
     10.243  0.3195E+01  0.5048E+02
     10.357  0.1183E+02  0.5119E+02
     10.471  0.4152E+01  0.5209E+02
     10.585  0.5702E+01  0.5258E+02
     10.699  0.7384E+01  0.5342E+02
     10.812  0.4526E+01  0.5416E+02
     10.926  0.2570E+01  0.5451E+02
     11.040  0.5347E+01  0.5496E+02
     11.154  0.5809E+01  0.5576E+02
     11.268  0.2553E+01  0.5612E+02
     11.381  0.4314E+01  0.5652E+02
     11.495  0.8490E+01  0.5722E+02
     11.609  0.2379E+01  0.5791E+02
     11.723  0.7298E-01  0.5800E+02
     11.837  0.0000E+00  0.5800E+02
     11.951  0.0000E+00  0.5800E+02
     12.064  0.0000E+00  0.5800E+02
     12.178  0.0000E+00  0.5800E+02
     12.292  0.0000E+00  0.5800E+02
     12.406  0.0000E+00  0.5800E+02
     12.520  0.0000E+00  0.5800E+02
     12.633  0.0000E+00  0.5800E+02
     12.747  0.0000E+00  0.5800E+02
     12.861  0.0000E+00  0.5800E+02
     12.975  0.0000E+00  0.5800E+02
     13.089  0.0000E+00  0.5800E+02
     13.202  0.0000E+00  0.5800E+02
     13.316  0.0000E+00  0.5800E+02
     13.430  0.0000E+00  0.5800E+02
     13.544  0.0000E+00  0.5800E+02
     13.658  0.0000E+00  0.5800E+02
     13.772  0.0000E+00  0.5800E+02
