       N       E                     dE             d eps       ncg     rms          rms(c)
DAV:   1     0.378530009387E+03    0.37853E+03   -0.31227E+04  3190   0.205E+03
DAV:   2    -0.559211908752E+02   -0.43445E+03   -0.42454E+03  4295   0.384E+02
DAV:   3    -0.803250461988E+02   -0.24404E+02   -0.24325E+02  3720   0.101E+02
DAV:   4    -0.806590471469E+02   -0.33400E+00   -0.33344E+00  3756   0.127E+01
DAV:   5    -0.806653432761E+02   -0.62961E-02   -0.62934E-02  3675   0.173E+00    0.188E+01
RMM:   6    -0.710608508119E+02    0.96045E+01   -0.41990E+01  3407   0.346E+01    0.514E+00
RMM:   7    -0.710418915415E+02    0.18959E-01   -0.16881E+00  3668   0.599E+00    0.340E+00
RMM:   8    -0.710576275690E+02   -0.15736E-01   -0.27857E-01  3609   0.438E+00    0.646E-01
RMM:   9    -0.710497306435E+02    0.78969E-02   -0.57825E-02  3733   0.128E+00    0.138E-01
RMM:  10    -0.710531186995E+02   -0.33881E-02   -0.18319E-02  3675   0.727E-01    0.247E-01
RMM:  11    -0.710515982883E+02    0.15204E-02   -0.32153E-03  3728   0.332E-01    0.699E-02
RMM:  12    -0.710515400207E+02    0.58268E-04   -0.10121E-03  3718   0.170E-01    0.817E-03
RMM:  13    -0.710515424407E+02   -0.24200E-05   -0.29024E-05  2736   0.317E-02
   1 F= -.71051542E+02 E0= -.71051542E+02  d E =0.000000E+00
