 vasp.5.4.1 05Feb16 (build Mar 02 2016 14:09:44) complex                        
  
 executed on   Abel-impi-ifc-cuda date 2019.09.13  10:17:07
 running on    1 total cores
 distrk:  each k-point on    1 cores,    1 groups
 distr:  one band on NCORES_PER_BAND=   1 cores,    1 groups


--------------------------------------------------------------------------------------------------------


 INCAR:
 POTCAR:   PAW_PBE Si 05Jan2001                   
 POTCAR:   PAW_PBE O 08Apr2002                    
 POTCAR:   PAW_PBE Si 05Jan2001                   
   VRHFIN =Si: s2p2                                                             
   LEXCH  = PE                                                                  
   EATOM  =   103.0669 eV,    7.5752 Ry                                         
                                                                                
   TITEL  = PAW_PBE Si 05Jan2001                                                
   LULTRA =        F    use ultrasoft PP ?                                      
   IUNSCR =        1    unscreen: 0-lin 1-nonlin 2-no                           
   RPACOR =    1.500    partial core radius                                     
   POMASS =   28.085; ZVAL   =    4.000    mass and valenz                      
   RCORE  =    1.900    outmost cutoff radius                                   
   RWIGS  =    2.480; RWIGS  =    1.312    wigner-seitz radius (au A)           
   ENMAX  =  245.345; ENMIN  =  184.009 eV                                      
   ICORE  =        2    local potential                                         
   LCOR   =        T    correct aug charges                                     
   LPAW   =        T    paw PP                                                  
   EAUG   =  322.069                                                            
   DEXC   =    -.007                                                            
   RMAX   =    2.944    core radius for proj-oper                               
   RAUG   =    1.300    factor for augmentation sphere                          
   RDEP   =    1.993    radius for radial grids                                 
   QCUT   =   -4.246; QGAM   =    8.493    optimization parameters              
                                                                                
   Description                                                                  
     l     E      TYP  RCUT    TYP  RCUT                                        
     0   .000     23  1.900                                                     
     0   .000     23  1.900                                                     
     1   .000     23  1.900                                                     
     1   .000     23  1.900                                                     
     2   .000      7  1.900                                                     
  local pseudopotential read in
  partial core-charges read in
  atomic valenz-charges read in
  non local Contribution for L=           0  read in
    real space projection operators read in
  non local Contribution for L=           0  read in
    real space projection operators read in
  non local Contribution for L=           1  read in
    real space projection operators read in
  non local Contribution for L=           1  read in
    real space projection operators read in
    PAW grid and wavefunctions read in
 
   number of l-projection  operators is LMAX  =           4
   number of lm-projection operators is LMMAX =           8
 
 POTCAR:   PAW_PBE O 08Apr2002                    
   VRHFIN =O: s2p4                                                              
   LEXCH  = PE                                                                  
   EATOM  =   432.3788 eV,   31.7789 Ry                                         
                                                                                
   TITEL  = PAW_PBE O 08Apr2002                                                 
   LULTRA =        F    use ultrasoft PP ?                                      
   IUNSCR =        0    unscreen: 0-lin 1-nonlin 2-no                           
   RPACOR =     .000    partial core radius                                     
   POMASS =   16.000; ZVAL   =    6.000    mass and valenz                      
   RCORE  =    1.520    outmost cutoff radius                                   
   RWIGS  =    1.550; RWIGS  =     .820    wigner-seitz radius (au A)           
   ENMAX  =  400.000; ENMIN  =  300.000 eV                                      
   ICORE  =        2    local potential                                         
   LCOR   =        T    correct aug charges                                     
   LPAW   =        T    paw PP                                                  
   EAUG   =  605.392                                                            
   DEXC   =     .000                                                            
   RMAX   =    2.264    core radius for proj-oper                               
   RAUG   =    1.300    factor for augmentation sphere                          
   RDEP   =    1.550    radius for radial grids                                 
   QCUT   =   -5.520; QGAM   =   11.041    optimization parameters              
                                                                                
   Description                                                                  
     l     E      TYP  RCUT    TYP  RCUT                                        
     0   .000     23  1.200                                                     
     0  -.700     23  1.200                                                     
     1   .000     23  1.520                                                     
     1   .600     23  1.520                                                     
     2   .000      7  1.500                                                     
  local pseudopotential read in
  atomic valenz-charges read in
  non local Contribution for L=           0  read in
    real space projection operators read in
  non local Contribution for L=           0  read in
    real space projection operators read in
  non local Contribution for L=           1  read in
    real space projection operators read in
  non local Contribution for L=           1  read in
    real space projection operators read in
    PAW grid and wavefunctions read in
 
   number of l-projection  operators is LMAX  =           4
   number of lm-projection operators is LMMAX =           8
 
 Optimization of the real space projectors (new method)

 maximal supplied QI-value         = 19.84
 optimisation between [QCUT,QGAM] = [ 13.89, 27.98] = [ 54.02,219.19] Ry 
 Optimized for a Real-space Cutoff    1.07 Angstroem

   l    n(q)    QCUT    max X(q) W(low)/X(q) W(high)/X(q)  e(spline) 
   0      9    13.889     8.708    0.12E-04    0.11E-04    0.53E-08
   0      9    13.889   106.241    0.83E-04    0.17E-03    0.79E-07
   1      8    13.889     5.901    0.23E-04    0.83E-05    0.14E-07
   1      8    13.889    73.241    0.20E-03    0.44E-04    0.12E-06
 Optimization of the real space projectors (new method)

 maximal supplied QI-value         = 24.76
 optimisation between [QCUT,QGAM] = [ 13.86, 27.97] = [ 53.82,219.13] Ry 
 Optimized for a Real-space Cutoff    0.95 Angstroem

   l    n(q)    QCUT    max X(q) W(low)/X(q) W(high)/X(q)  e(spline) 
   0      8    13.863     4.192    0.68E-04    0.93E-04    0.19E-07
   0      8    13.863     8.473    0.39E-03    0.65E-03    0.65E-07
   1      7    13.863     2.474    0.18E-04    0.10E-03    0.17E-07
   1      7    13.863     3.912    0.13E-03    0.50E-03    0.10E-06
 PAW_PBE Si 05Jan2001                   :
 energy of atom  1       EATOM= -103.0669
 kinetic energy error for atom=    0.0002 (will be added to EATOM!!)
 PAW_PBE O 08Apr2002                    :
 energy of atom  2       EATOM= -432.3788
 kinetic energy error for atom=    0.0059 (will be added to EATOM!!)
 
 
 POSCAR: SiO2_P3221_icsd_34644                   
  positions in direct lattice
  No initial velocities read in
 exchange correlation table for  LEXCH =        8
   RHO(1)=    0.500       N(1)  =     2000
   RHO(2)=  100.500       N(2)  =     4000
 


--------------------------------------------------------------------------------------------------------


 ion  position               nearest neighbor table
   1  0.470  0.000  0.667-   4 1.60   7 1.60   9 1.62   5 1.62   3 3.06   3 3.06   2 3.06   2 3.06

   2  0.000  0.470  0.333-   8 1.60   5 1.60   6 1.62   7 1.62   3 3.06   3 3.06   1 3.06   1 3.06

   3  0.530  0.530  0.000-   6 1.60   9 1.60   8 1.62   4 1.62   2 3.06   2 3.06   1 3.06   1 3.06

   4  0.414  0.266  0.786-   1 1.60   3 1.62
   5  0.734  0.148  0.452-   2 1.60   1 1.62
   6  0.852  0.586  0.119-   3 1.60   2 1.62
   7  0.148  0.734  0.548-   1 1.60   2 1.62
   8  0.266  0.414  0.214-   2 1.60   3 1.62
   9  0.586  0.852  0.881-   3 1.60   1 1.62
 
  LATTYP: Found a hexagonal cell.
 ALAT       =     4.9137000030
 C/A-ratio  =     1.1000122101
  
  Lattice vectors:
  
 A1 = (   4.9137000000,   0.0000000000,   0.0000000000)
 A2 = (  -2.4568500000,   4.2553890300,   0.0000000000)
 A3 = (   0.0000000000,   0.0000000000,   5.4051300000)


Analysis of symmetry for initial positions (statically):
=====================================================================
 Subroutine PRICEL returns:
 Original cell was already a primitive cell.
 

 Routine SETGRP: Setting up the symmetry group for a 
 hexagonal supercell.


 Subroutine GETGRP returns: Found  2 space group operations
 (whereof  2 operations were pure point group operations)
 out of a pool of 24 trial point group operations.


The static configuration has the point symmetry C_2 .


Analysis of symmetry for dynamics (positions and initial velocities):
=====================================================================
 Subroutine PRICEL returns:
 Original cell was already a primitive cell.
 

 Routine SETGRP: Setting up the symmetry group for a 
 hexagonal supercell.


 Subroutine GETGRP returns: Found  2 space group operations
 (whereof  2 operations were pure point group operations)
 out of a pool of 24 trial point group operations.


The dynamic configuration has the point symmetry C_2 .


 Subroutine INISYM returns: Found  2 space group operations
 (whereof  2 operations are pure point group operations),
 and found     1 'primitive' translations

 
 
 KPOINTS: k-density: 4.0                          

Automatic generation of k-mesh.
Space group operators:
 irot       det(A)        alpha          n_x          n_y          n_z        tau_x        tau_y        tau_z
    1     1.000000     0.000001     1.000000     0.000000     0.000000     0.000000     0.000000     0.000000
    2     1.000000   180.000000    -0.500000    -0.866025     0.000000     0.000000     0.000000     0.000000
 
 Subroutine IBZKPT returns following result:
 ===========================================
 
 Found     55 irreducible k-points:
 
 Following reciprocal coordinates:
            Coordinates               Weight
  0.000000  0.000000  0.000000      1.000000
  0.166667  0.000000  0.000000      4.000000
  0.333333  0.000000  0.000000      4.000000
  0.500000  0.000000  0.000000      2.000000
  0.166667  0.166667  0.000000      2.000000
  0.333333  0.166667  0.000000      4.000000
  0.500000  0.166667  0.000000      4.000000
 -0.333333  0.166667  0.000000      4.000000
 -0.166667  0.166667  0.000000      2.000000
  0.333333  0.333333  0.000000      2.000000
  0.500000  0.333333  0.000000      4.000000
 -0.333333  0.333333  0.000000      2.000000
  0.500000  0.500000  0.000000      1.000000
  0.000000  0.000000  0.200000      2.000000
  0.166667  0.000000  0.200000      4.000000
  0.333333  0.000000  0.200000      4.000000
  0.500000  0.000000  0.200000      4.000000
 -0.333333  0.000000  0.200000      4.000000
 -0.166667  0.000000  0.200000      4.000000
  0.166667  0.166667  0.200000      4.000000
  0.333333  0.166667  0.200000      4.000000
  0.500000  0.166667  0.200000      4.000000
 -0.333333  0.166667  0.200000      4.000000
 -0.166667  0.166667  0.200000      2.000000
  0.166667  0.333333  0.200000      4.000000
  0.333333  0.333333  0.200000      4.000000
  0.500000  0.333333  0.200000      4.000000
 -0.333333  0.333333  0.200000      2.000000
  0.166667  0.500000  0.200000      4.000000
  0.333333  0.500000  0.200000      4.000000
  0.500000  0.500000  0.200000      2.000000
  0.166667 -0.333333  0.200000      4.000000
  0.333333 -0.333333  0.200000      2.000000
  0.166667 -0.166667  0.200000      2.000000
  0.000000  0.000000  0.400000      2.000000
  0.166667  0.000000  0.400000      4.000000
  0.333333  0.000000  0.400000      4.000000
  0.500000  0.000000  0.400000      4.000000
 -0.333333  0.000000  0.400000      4.000000
 -0.166667  0.000000  0.400000      4.000000
  0.166667  0.166667  0.400000      4.000000
  0.333333  0.166667  0.400000      4.000000
  0.500000  0.166667  0.400000      4.000000
 -0.333333  0.166667  0.400000      4.000000
 -0.166667  0.166667  0.400000      2.000000
  0.166667  0.333333  0.400000      4.000000
  0.333333  0.333333  0.400000      4.000000
  0.500000  0.333333  0.400000      4.000000
 -0.333333  0.333333  0.400000      2.000000
  0.166667  0.500000  0.400000      4.000000
  0.333333  0.500000  0.400000      4.000000
  0.500000  0.500000  0.400000      2.000000
  0.166667 -0.333333  0.400000      4.000000
  0.333333 -0.333333  0.400000      2.000000
  0.166667 -0.166667  0.400000      2.000000
 
 Following cartesian coordinates:
            Coordinates               Weight
  0.000000  0.000000  0.000000      1.000000
  0.033919  0.019583  0.000000      4.000000
  0.067838  0.039166  0.000000      4.000000
  0.101756  0.058749  0.000000      2.000000
  0.033919  0.058749  0.000000      2.000000
  0.067838  0.078332  0.000000      4.000000
  0.101756  0.097915  0.000000      4.000000
 -0.067838  0.000000  0.000000      4.000000
 -0.033919  0.019583  0.000000      2.000000
  0.067838  0.117498  0.000000      2.000000
  0.101756  0.137081  0.000000      4.000000
 -0.067838  0.039166  0.000000      2.000000
  0.101756  0.176247  0.000000      1.000000
  0.000000  0.000000  0.037002      2.000000
  0.033919  0.019583  0.037002      4.000000
  0.067838  0.039166  0.037002      4.000000
  0.101756  0.058749  0.037002      4.000000
 -0.067838 -0.039166  0.037002      4.000000
 -0.033919 -0.019583  0.037002      4.000000
  0.033919  0.058749  0.037002      4.000000
  0.067838  0.078332  0.037002      4.000000
  0.101756  0.097915  0.037002      4.000000
 -0.067838  0.000000  0.037002      4.000000
 -0.033919  0.019583  0.037002      2.000000
  0.033919  0.097915  0.037002      4.000000
  0.067838  0.117498  0.037002      4.000000
  0.101756  0.137081  0.037002      4.000000
 -0.067838  0.039166  0.037002      2.000000
  0.033919  0.137081  0.037002      4.000000
  0.067838  0.156664  0.037002      4.000000
  0.101756  0.176247  0.037002      2.000000
  0.033919 -0.058749  0.037002      4.000000
  0.067838 -0.039166  0.037002      2.000000
  0.033919 -0.019583  0.037002      2.000000
  0.000000  0.000000  0.074004      2.000000
  0.033919  0.019583  0.074004      4.000000
  0.067838  0.039166  0.074004      4.000000
  0.101756  0.058749  0.074004      4.000000
 -0.067838 -0.039166  0.074004      4.000000
 -0.033919 -0.019583  0.074004      4.000000
  0.033919  0.058749  0.074004      4.000000
  0.067838  0.078332  0.074004      4.000000
  0.101756  0.097915  0.074004      4.000000
 -0.067838  0.000000  0.074004      4.000000
 -0.033919  0.019583  0.074004      2.000000
  0.033919  0.097915  0.074004      4.000000
  0.067838  0.117498  0.074004      4.000000
  0.101756  0.137081  0.074004      4.000000
 -0.067838  0.039166  0.074004      2.000000
  0.033919  0.137081  0.074004      4.000000
  0.067838  0.156664  0.074004      4.000000
  0.101756  0.176247  0.074004      2.000000
  0.033919 -0.058749  0.074004      4.000000
  0.067838 -0.039166  0.074004      2.000000
  0.033919 -0.019583  0.074004      2.000000
 
 TETIRR: Found    273 inequivalent tetrahedra from     1080


--------------------------------------------------------------------------------------------------------




 Dimension of arrays:
   k-points           NKPTS =     55   k-points in BZ     NKDIM =     55   number of bands    NBANDS=     29
   number of dos      NEDOS =    301   number of ions     NIONS =      9
   non local maximal  LDIM  =      4   non local SUM 2l+1 LMDIM =      8
   total plane-waves  NPLWV =  46656
   max r-space proj   IRMAX =   2165   max aug-charges    IRDMAX=  14000
   dimension x,y,z NGX =    36 NGY =   36 NGZ =   36
   dimension x,y,z NGXF=    72 NGYF=   72 NGZF=   72
   support grid    NGXF=    72 NGYF=   72 NGZF=   72
   ions per type =               3   6
 NGX,Y,Z   is equivalent  to a cutoff of  12.18, 12.18, 11.07 a.u.
 NGXF,Y,Z  is equivalent  to a cutoff of  24.36, 24.36, 22.15 a.u.


 I would recommend the setting:
   dimension x,y,z NGX =    33 NGY =   33 NGZ =   36
 SYSTEM =  unknown system                          
 POSCAR =  SiO2_P3221_icsd_34644                   

 Startparameter for this run:
   NWRITE =      2    write-flag & timer
   PREC   = normal    normal or accurate (medium, high low for compatibility)
   ISTART =      0    job   : 0-new  1-cont  2-samecut
   ICHARG =      2    charge: 1-file 2-atom 10-const
   ISPIN  =      1    spin polarized calculation?
   LNONCOLLINEAR =      F non collinear calculations
   LSORBIT =      F    spin-orbit coupling
   INIWAV =      1    electr: 0-lowe 1-rand  2-diag
   LASPH  =      F    aspherical Exc in radial PAW
   METAGGA=      F    non-selfconsistent MetaGGA calc.

 Electronic Relaxation 1
   ENCUT  =  750.0 eV  55.12 Ry    7.42 a.u.  10.97 10.97 12.07*2*pi/ulx,y,z
   ENINI  =  750.0     initial cutoff
   ENAUG  =  605.4 eV  augmentation charge cutoff
   NELM   =     60;   NELMIN=  4; NELMDL= -5     # of ELM steps 
   EDIFF  = 0.1E-04   stopping-criterion for ELM
   LREAL  =      T    real-space projection
   NLSPLINE    = F    spline interpolate recip. space projectors
   LCOMPAT=      F    compatible to vasp.4.4
   GGA_COMPAT  = T    GGA compatible to vasp.4.4-vasp.4.6
   LMAXPAW     = -100 max onsite density
   LMAXMIX     =    2 max onsite mixed and CHGCAR
   VOSKOWN=      0    Vosko Wilk Nusair interpolation
   ROPT   =   -0.00050  -0.00050
 Ionic relaxation
   EDIFFG = 0.1E-03   stopping-criterion for IOM
   NSW    =      0    number of steps for IOM
   NBLOCK =      1;   KBLOCK =      1    inner block; outer block 
   IBRION =     -1    ionic relax: 0-MD 1-quasi-New 2-CG
   NFREE  =      0    steps in history (QN), initial steepest desc. (CG)
   ISIF   =      2    stress and relaxation
   IWAVPR =     10    prediction:  0-non 1-charg 2-wave 3-comb
   ISYM   =      2    0-nonsym 1-usesym 2-fastsym
   LCORR  =      T    Harris-Foulkes like correction to forces

   POTIM  = 0.5000    time-step for ionic-motion
   TEIN   =    0.0    initial temperature
   TEBEG  =    0.0;   TEEND  =   0.0 temperature during run
   SMASS  =  -3.00    Nose mass-parameter (am)
   estimated Nose-frequenzy (Omega)   =  0.10E-29 period in steps =****** mass=  -0.552E-27a.u.
   SCALEE = 1.0000    scale energy and forces
   NPACO  =    256;   APACO  = 16.0  distance and # of slots for P.C.
   PSTRESS=    0.0 pullay stress

  Mass of Ions in am
   POMASS =  28.09 16.00
  Ionic Valenz
   ZVAL   =   4.00  6.00
  Atomic Wigner-Seitz radii
   RWIGS  =  -1.00 -1.00
  virtual crystal weights 
   VCA    =   1.00  1.00
   NELECT =      48.0000    total number of electrons
   NUPDOWN=      -1.0000    fix difference up-down

 DOS related values:
   EMIN   =  10.00;   EMAX   =-10.00  energy-range for DOS
   EFERMI =   0.00
   ISMEAR =    -5;   SIGMA  =   0.20  broadening in eV -4-tet -1-fermi 0-gaus

 Electronic relaxation 2 (details)
   IALGO  =     68    algorithm
   LDIAG  =      T    sub-space diagonalisation (order eigenvalues)
   LSUBROT=      F    optimize rotation matrix (better conditioning)
   TURBO    =      0    0=normal 1=particle mesh
   IRESTART =      0    0=no restart 2=restart with 2 vectors
   NREBOOT  =      0    no. of reboots
   NMIN     =      0    reboot dimension
   EREF     =   0.00    reference energy to select bands
   IMIX   =      4    mixing-type and parameters
     AMIX     =   0.40;   BMIX     =  1.00
     AMIX_MAG =   1.60;   BMIX_MAG =  1.00
     AMIN     =   0.10
     WC   =   100.;   INIMIX=   1;  MIXPRE=   1;  MAXMIX= -45

 Intra band minimization:
   WEIMIN = 0.0000     energy-eigenvalue tresh-hold
   EBREAK =  0.86E-07  absolut break condition
   DEPER  =   0.30     relativ break condition  

   TIME   =   0.40     timestep for ELM

  volume/ion in A,a.u.               =      12.56        84.74
  Fermi-wavevector in a.u.,A,eV,Ry     =   1.230563  2.325427 20.603106  1.514286
  Thomas-Fermi vector in A             =   2.365407
 
 Write flags
   LWAVE  =      F    write WAVECAR
   LCHARG =      T    write CHGCAR
   LVTOT  =      F    write LOCPOT, total local potential
   LVHAR  =      F    write LOCPOT, Hartree potential only
   LELF   =      F    write electronic localiz. function (ELF)
   LORBIT =      0    0 simple, 1 ext, 2 COOP (PROOUT)


 Dipole corrections
   LMONO  =      F    monopole corrections only (constant potential shift)
   LDIPOL =      F    correct potential (dipole corrections)
   IDIPOL =      0    1-x, 2-y, 3-z, 4-all directions 
   EPSILON=  1.0000000 bulk dielectric constant

 Exchange correlation treatment:
   GGA     =    --    GGA type
   LEXCH   =     8    internal setting for exchange type
   VOSKOWN=      0    Vosko Wilk Nusair interpolation
   LHFCALC =     F    Hartree Fock is set to
   LHFONE  =     F    Hartree Fock one center treatment
   AEXX    =    0.0000 exact exchange contribution

 Linear response parameters
   LEPSILON=     F    determine dielectric tensor
   LRPA    =     F    only Hartree local field effects (RPA)
   LNABLA  =     F    use nabla operator in PAW spheres
   LVEL    =     F    velocity operator in full k-point grid
   LINTERFAST=   F  fast interpolation
   KINTER  =     0    interpolate to denser k-point grid
   CSHIFT  =0.1000    complex shift for real part using Kramers Kronig
   OMEGAMAX=  -1.0    maximum frequency
   DEG_THRESHOLD= 0.2000000E-02 threshold for treating states as degnerate
   RTIME   =    0.100 relaxation time in fs

 Orbital magnetization related:
   ORBITALMAG=     F  switch on orbital magnetization
   LCHIMAG   =     F  perturbation theory with respect to B field
   DQ        =  0.001000  dq finite difference perturbation B field



--------------------------------------------------------------------------------------------------------


 Static calculation
 charge density and potential will be updated during run
 non-spin polarized calculation
 RMM-DIIS sequential band-by-band and
  variant of blocked Davidson during initial phase
 perform sub-space diagonalisation
    before iterative eigenvector-optimisation
 modified Broyden-mixing scheme, WC =      100.0
 initial mixing is a Kerker type mixing with AMIX =  0.4000 and BMIX =      1.0000
 Hartree-type preconditioning will be used
 using additional bands            5
 real space projection scheme for non local part
 use partial core corrections
 calculate Harris-corrections to forces 
   (improved forces if not selfconsistent)
 use gradient corrections 
 use of overlap-Matrix (Vanderbilt PP)
 Fermi weights with tetrahedron method with Bloechl corrections


--------------------------------------------------------------------------------------------------------


  energy-cutoff  :      750.00
  volume of cell :      113.02
      direct lattice vectors                 reciprocal lattice vectors
     4.913700000  0.000000000  0.000000000     0.203512628  0.117498070  0.000000000
    -2.456850000  4.255389030  0.000000000     0.000000000  0.234996141  0.000000000
     0.000000000  0.000000000  5.405130000     0.000000000  0.000000000  0.185009426

  length of vectors
     4.913700000  4.913700003  5.405130000     0.234996141  0.234996141  0.185009426


 
 k-points in units of 2pi/SCALE and weight: k-density: 4.0                          
   0.00000000  0.00000000  0.00000000       0.006
   0.03391877  0.01958301  0.00000000       0.022
   0.06783754  0.03916602  0.00000000       0.022
   0.10175631  0.05874904  0.00000000       0.011
   0.03391877  0.05874904  0.00000000       0.011
   0.06783754  0.07833205  0.00000000       0.022
   0.10175631  0.09791506  0.00000000       0.022
  -0.06783754  0.00000000  0.00000000       0.022
  -0.03391877  0.01958301  0.00000000       0.011
   0.06783754  0.11749807  0.00000000       0.011
   0.10175631  0.13708108  0.00000000       0.022
  -0.06783754  0.03916602  0.00000000       0.011
   0.10175631  0.17624711  0.00000000       0.006
   0.00000000  0.00000000  0.03700189       0.011
   0.03391877  0.01958301  0.03700189       0.022
   0.06783754  0.03916602  0.03700189       0.022
   0.10175631  0.05874904  0.03700189       0.022
  -0.06783754 -0.03916602  0.03700189       0.022
  -0.03391877 -0.01958301  0.03700189       0.022
   0.03391877  0.05874904  0.03700189       0.022
   0.06783754  0.07833205  0.03700189       0.022
   0.10175631  0.09791506  0.03700189       0.022
  -0.06783754  0.00000000  0.03700189       0.022
  -0.03391877  0.01958301  0.03700189       0.011
   0.03391877  0.09791506  0.03700189       0.022
   0.06783754  0.11749807  0.03700189       0.022
   0.10175631  0.13708108  0.03700189       0.022
  -0.06783754  0.03916602  0.03700189       0.011
   0.03391877  0.13708108  0.03700189       0.022
   0.06783754  0.15666409  0.03700189       0.022
   0.10175631  0.17624711  0.03700189       0.011
   0.03391877 -0.05874904  0.03700189       0.022
   0.06783754 -0.03916602  0.03700189       0.011
   0.03391877 -0.01958301  0.03700189       0.011
   0.00000000  0.00000000  0.07400377       0.011
   0.03391877  0.01958301  0.07400377       0.022
   0.06783754  0.03916602  0.07400377       0.022
   0.10175631  0.05874904  0.07400377       0.022
  -0.06783754 -0.03916602  0.07400377       0.022
  -0.03391877 -0.01958301  0.07400377       0.022
   0.03391877  0.05874904  0.07400377       0.022
   0.06783754  0.07833205  0.07400377       0.022
   0.10175631  0.09791506  0.07400377       0.022
  -0.06783754  0.00000000  0.07400377       0.022
  -0.03391877  0.01958301  0.07400377       0.011
   0.03391877  0.09791506  0.07400377       0.022
   0.06783754  0.11749807  0.07400377       0.022
   0.10175631  0.13708108  0.07400377       0.022
  -0.06783754  0.03916602  0.07400377       0.011
   0.03391877  0.13708108  0.07400377       0.022
   0.06783754  0.15666409  0.07400377       0.022
   0.10175631  0.17624711  0.07400377       0.011
   0.03391877 -0.05874904  0.07400377       0.022
   0.06783754 -0.03916602  0.07400377       0.011
   0.03391877 -0.01958301  0.07400377       0.011
 
 k-points in reciprocal lattice and weights: k-density: 4.0                          
   0.00000000  0.00000000  0.00000000       0.006
   0.16666667  0.00000000  0.00000000       0.022
   0.33333333  0.00000000  0.00000000       0.022
   0.50000000  0.00000000  0.00000000       0.011
   0.16666667  0.16666667  0.00000000       0.011
   0.33333333  0.16666667  0.00000000       0.022
   0.50000000  0.16666667  0.00000000       0.022
  -0.33333333  0.16666667  0.00000000       0.022
  -0.16666667  0.16666667  0.00000000       0.011
   0.33333333  0.33333333  0.00000000       0.011
   0.50000000  0.33333333  0.00000000       0.022
  -0.33333333  0.33333333  0.00000000       0.011
   0.50000000  0.50000000  0.00000000       0.006
   0.00000000  0.00000000  0.20000000       0.011
   0.16666667  0.00000000  0.20000000       0.022
   0.33333333  0.00000000  0.20000000       0.022
   0.50000000  0.00000000  0.20000000       0.022
  -0.33333333  0.00000000  0.20000000       0.022
  -0.16666667  0.00000000  0.20000000       0.022
   0.16666667  0.16666667  0.20000000       0.022
   0.33333333  0.16666667  0.20000000       0.022
   0.50000000  0.16666667  0.20000000       0.022
  -0.33333333  0.16666667  0.20000000       0.022
  -0.16666667  0.16666667  0.20000000       0.011
   0.16666667  0.33333333  0.20000000       0.022
   0.33333333  0.33333333  0.20000000       0.022
   0.50000000  0.33333333  0.20000000       0.022
  -0.33333333  0.33333333  0.20000000       0.011
   0.16666667  0.50000000  0.20000000       0.022
   0.33333333  0.50000000  0.20000000       0.022
   0.50000000  0.50000000  0.20000000       0.011
   0.16666667 -0.33333333  0.20000000       0.022
   0.33333333 -0.33333333  0.20000000       0.011
   0.16666667 -0.16666667  0.20000000       0.011
   0.00000000  0.00000000  0.40000000       0.011
   0.16666667  0.00000000  0.40000000       0.022
   0.33333333  0.00000000  0.40000000       0.022
   0.50000000  0.00000000  0.40000000       0.022
  -0.33333333  0.00000000  0.40000000       0.022
  -0.16666667  0.00000000  0.40000000       0.022
   0.16666667  0.16666667  0.40000000       0.022
   0.33333333  0.16666667  0.40000000       0.022
   0.50000000  0.16666667  0.40000000       0.022
  -0.33333333  0.16666667  0.40000000       0.022
  -0.16666667  0.16666667  0.40000000       0.011
   0.16666667  0.33333333  0.40000000       0.022
   0.33333333  0.33333333  0.40000000       0.022
   0.50000000  0.33333333  0.40000000       0.022
  -0.33333333  0.33333333  0.40000000       0.011
   0.16666667  0.50000000  0.40000000       0.022
   0.33333333  0.50000000  0.40000000       0.022
   0.50000000  0.50000000  0.40000000       0.011
   0.16666667 -0.33333333  0.40000000       0.022
   0.33333333 -0.33333333  0.40000000       0.011
   0.16666667 -0.16666667  0.40000000       0.011
 
 position of ions in fractional coordinates (direct lattice) 
   0.46980000  0.00000000  0.66667000
   0.00000000  0.46980000  0.33333000
   0.53020000  0.53020000  0.00000000
   0.41450000  0.26620000  0.78560000
   0.73380000  0.14830000  0.45227000
   0.85170000  0.58550000  0.11893000
   0.14830000  0.73380000  0.54773000
   0.26620000  0.41450000  0.21440000
   0.58550000  0.85170000  0.88107000
 
 position of ions in cartesian coordinates  (Angst):
   2.30845626  0.00000000  3.60343802
  -1.15422813  1.99918177  1.80169198
   1.30262187  2.25620726  0.00000000
   1.38271518  1.13278456  4.24627013
   3.24132221  0.63107419  2.44457815
   2.74651261  2.49153028  0.64283211
  -1.07413482  3.12260447  2.96055185
   0.28966261  1.76385875  1.15885987
   0.78447221  3.62431484  4.76229789
 


--------------------------------------------------------------------------------------------------------


 k-point  1 :   0.0000 0.0000 0.0000  plane waves:    5257
 k-point  2 :   0.1667 0.0000 0.0000  plane waves:    5249
 k-point  3 :   0.3333 0.0000 0.0000  plane waves:    5241
 k-point  4 :   0.5000 0.0000 0.0000  plane waves:    5258
 k-point  5 :   0.1667 0.1667 0.0000  plane waves:    5265
 k-point  6 :   0.3333 0.1667 0.0000  plane waves:    5275
 k-point  7 :   0.5000 0.1667 0.0000  plane waves:    5275
 k-point  8 :  -0.3333 0.1667 0.0000  plane waves:    5265
 k-point  9 :  -0.1667 0.1667 0.0000  plane waves:    5249
 k-point 10 :   0.3333 0.3333 0.0000  plane waves:    5265
 k-point 11 :   0.5000 0.3333 0.0000  plane waves:    5275
 k-point 12 :  -0.3333 0.3333 0.0000  plane waves:    5241
 k-point 13 :   0.5000 0.5000 0.0000  plane waves:    5258
 k-point 14 :   0.0000 0.0000 0.2000  plane waves:    5226
 k-point 15 :   0.1667 0.0000 0.2000  plane waves:    5261
 k-point 16 :   0.3333 0.0000 0.2000  plane waves:    5268
 k-point 17 :   0.5000 0.0000 0.2000  plane waves:    5274
 k-point 18 :  -0.3333 0.0000 0.2000  plane waves:    5268
 k-point 19 :  -0.1667 0.0000 0.2000  plane waves:    5261
 k-point 20 :   0.1667 0.1667 0.2000  plane waves:    5265
 k-point 21 :   0.3333 0.1667 0.2000  plane waves:    5280
 k-point 22 :   0.5000 0.1667 0.2000  plane waves:    5280
 k-point 23 :  -0.3333 0.1667 0.2000  plane waves:    5265
 k-point 24 :  -0.1667 0.1667 0.2000  plane waves:    5261
 k-point 25 :   0.1667 0.3333 0.2000  plane waves:    5280
 k-point 26 :   0.3333 0.3333 0.2000  plane waves:    5292
 k-point 27 :   0.5000 0.3333 0.2000  plane waves:    5280
 k-point 28 :  -0.3333 0.3333 0.2000  plane waves:    5268
 k-point 29 :   0.1667 0.5000 0.2000  plane waves:    5280
 k-point 30 :   0.3333 0.5000 0.2000  plane waves:    5280
 k-point 31 :   0.5000 0.5000 0.2000  plane waves:    5274
 k-point 32 :   0.1667-0.3333 0.2000  plane waves:    5265
 k-point 33 :   0.3333-0.3333 0.2000  plane waves:    5268
 k-point 34 :   0.1667-0.1667 0.2000  plane waves:    5261
 k-point 35 :   0.0000 0.0000 0.4000  plane waves:    5208
 k-point 36 :   0.1667 0.0000 0.4000  plane waves:    5267
 k-point 37 :   0.3333 0.0000 0.4000  plane waves:    5278
 k-point 38 :   0.5000 0.0000 0.4000  plane waves:    5294
 k-point 39 :  -0.3333 0.0000 0.4000  plane waves:    5278
 k-point 40 :  -0.1667 0.0000 0.4000  plane waves:    5267
 k-point 41 :   0.1667 0.1667 0.4000  plane waves:    5274
 k-point 42 :   0.3333 0.1667 0.4000  plane waves:    5279
 k-point 43 :   0.5000 0.1667 0.4000  plane waves:    5279
 k-point 44 :  -0.3333 0.1667 0.4000  plane waves:    5274
 k-point 45 :  -0.1667 0.1667 0.4000  plane waves:    5267
 k-point 46 :   0.1667 0.3333 0.4000  plane waves:    5279
 k-point 47 :   0.3333 0.3333 0.4000  plane waves:    5280
 k-point 48 :   0.5000 0.3333 0.4000  plane waves:    5279
 k-point 49 :  -0.3333 0.3333 0.4000  plane waves:    5278
 k-point 50 :   0.1667 0.5000 0.4000  plane waves:    5279
 k-point 51 :   0.3333 0.5000 0.4000  plane waves:    5279
 k-point 52 :   0.5000 0.5000 0.4000  plane waves:    5294
 k-point 53 :   0.1667-0.3333 0.4000  plane waves:    5274
 k-point 54 :   0.3333-0.3333 0.4000  plane waves:    5278
 k-point 55 :   0.1667-0.1667 0.4000  plane waves:    5267

 maximum and minimum number of plane-waves per node :      5294     5208

 maximum number of plane-waves:      5294
 maximum index in each direction: 
   IXMAX=   11   IYMAX=   11   IZMAX=   12
   IXMIN=  -11   IYMIN=  -11   IZMIN=  -12

 WARNING: aliasing errors must be expected set NGX to  46 to avoid them
 WARNING: aliasing errors must be expected set NGY to  46 to avoid them
 WARNING: aliasing errors must be expected set NGZ to  50 to avoid them
 aliasing errors are usually negligible using standard VASP settings
 and one can safely disregard these warnings

 serial   3D FFT for wavefunctions
 parallel 3D FFT for charge:
    minimum data exchange during FFTs selected (reduces bandwidth)


 total amount of memory used by VASP on root node   204590. kBytes
========================================================================

   base      :      30000. kBytes
   nonlr-proj:       1360. kBytes
   fftplans  :      13060. kBytes
   grid      :      23203. kBytes
   one-center:         27. kBytes
   wavefun   :     136940. kBytes
 
     INWAV:  cpu time    0.0000: real time    0.0002
 Broyden mixing: mesh for mixing (old mesh)
   NGX = 21   NGY = 21   NGZ = 25
  (NGX  = 72   NGY  = 72   NGZ  = 72)
  gives a total of  11025 points

 initial charge density was supplied:
 charge density of overlapping atoms calculated
 number of electron      48.0000000 magnetization 
 keeping initial charge density in first step


--------------------------------------------------------------------------------------------------------


 Maximum index for non-local projection operator         2039
 Maximum index for augmentation-charges        13381 (set IRDMAX)


--------------------------------------------------------------------------------------------------------


 First call to EWALD:  gamma=   0.367
 Maximum number of real-space cells 3x 3x 3
 Maximum number of reciprocal cells 3x 3x 3

 FEWALD executed in parallel
    FEWALD:  cpu time    0.0020: real time    0.0018


----------------------------------------- Iteration    1(   1)  ---------------------------------------


    POTLOK:  cpu time    0.2160: real time    0.2159
    SETDIJ:  cpu time    0.0160: real time    0.0162
     EDDAV:  cpu time   12.5441: real time   12.5417
 BZINTS: Fermi energy: 18.665526; 48.000000 electrons
         Band energy:  46.021027;  BLOECHL correction: -0.099837
       DOS:  cpu time    0.0180: real time    0.0181
    --------------------------------------------
      LOOP:  cpu time   12.7971: real time   12.8067

 eigenvalue-minimisations  :  3190
 total energy-change (2. order) : 0.3785300E+03  (-0.3122660E+04)
 number of electron      48.0000000 magnetization 
 augmentation part       48.0000000 magnetization 

 Free energy of the ion-electron system (eV)
  ---------------------------------------------------
  alpha Z        PSCENC =        69.72802778
  Ewald energy   TEWEN  =     -1887.20590689
  -Hartree energ DENC   =      -937.14514243
  -exchange      EXHF   =         0.00000000
  -V(xc)+E(xc)   XCENC  =       142.01294253
  PAW double counting   =      1574.92322788    -1533.24131965
  entropy T*S    EENTRO =         0.00000000
  eigenvalues    EBANDS =        46.02102719
  atomic energy  EATOM  =      2903.43715298
  Solvation  Ediel_sol  =         0.00000000
  ---------------------------------------------------
  free energy    TOTEN  =       378.53000939 eV

  energy without entropy =      378.53000939  energy(sigma->0) =      378.53000939


--------------------------------------------------------------------------------------------------------




----------------------------------------- Iteration    1(   2)  ---------------------------------------


     EDDAV:  cpu time   16.4115: real time   16.4126
 BZINTS: Fermi energy:  0.224216; 48.000000 electrons
         Band energy:-388.430173;  BLOECHL correction:  0.000000
       DOS:  cpu time    0.0060: real time    0.0057
    --------------------------------------------
      LOOP:  cpu time   16.4195: real time   16.4331

 eigenvalue-minimisations  :  4295
 total energy-change (2. order) :-0.4344512E+03  (-0.4245394E+03)
 number of electron      48.0000000 magnetization 
 augmentation part       48.0000000 magnetization 

 Free energy of the ion-electron system (eV)
  ---------------------------------------------------
  alpha Z        PSCENC =        69.72802778
  Ewald energy   TEWEN  =     -1887.20590689
  -Hartree energ DENC   =      -937.14514243
  -exchange      EXHF   =         0.00000000
  -V(xc)+E(xc)   XCENC  =       142.01294253
  PAW double counting   =      1574.92322788    -1533.24131965
  entropy T*S    EENTRO =         0.00000000
  eigenvalues    EBANDS =      -388.43017307
  atomic energy  EATOM  =      2903.43715298
  Solvation  Ediel_sol  =         0.00000000
  ---------------------------------------------------
  free energy    TOTEN  =       -55.92119088 eV

  energy without entropy =      -55.92119088  energy(sigma->0) =      -55.92119088


--------------------------------------------------------------------------------------------------------




----------------------------------------- Iteration    1(   3)  ---------------------------------------


     EDDAV:  cpu time   14.4898: real time   14.4877
 BZINTS: Fermi energy: -2.144726; 48.000000 electrons
         Band energy:-412.834028;  BLOECHL correction:  0.000000
       DOS:  cpu time    0.0030: real time    0.0029
    --------------------------------------------
      LOOP:  cpu time   14.4948: real time   14.4972

 eigenvalue-minimisations  :  3720
 total energy-change (2. order) :-0.2440386E+02  (-0.2432501E+02)
 number of electron      48.0000000 magnetization 
 augmentation part       48.0000000 magnetization 

 Free energy of the ion-electron system (eV)
  ---------------------------------------------------
  alpha Z        PSCENC =        69.72802778
  Ewald energy   TEWEN  =     -1887.20590689
  -Hartree energ DENC   =      -937.14514243
  -exchange      EXHF   =         0.00000000
  -V(xc)+E(xc)   XCENC  =       142.01294253
  PAW double counting   =      1574.92322788    -1533.24131965
  entropy T*S    EENTRO =         0.00000000
  eigenvalues    EBANDS =      -412.83402840
  atomic energy  EATOM  =      2903.43715298
  Solvation  Ediel_sol  =         0.00000000
  ---------------------------------------------------
  free energy    TOTEN  =       -80.32504620 eV

  energy without entropy =      -80.32504620  energy(sigma->0) =      -80.32504620


--------------------------------------------------------------------------------------------------------




----------------------------------------- Iteration    1(   4)  ---------------------------------------


     EDDAV:  cpu time   14.6128: real time   14.6132
 BZINTS: Fermi energy: -2.164061; 48.000000 electrons
         Band energy:-413.168029;  BLOECHL correction:  0.000000
       DOS:  cpu time    0.0030: real time    0.0030
    --------------------------------------------
      LOOP:  cpu time   14.6178: real time   14.6366

 eigenvalue-minimisations  :  3756
 total energy-change (2. order) :-0.3340009E+00  (-0.3334374E+00)
 number of electron      48.0000000 magnetization 
 augmentation part       48.0000000 magnetization 

 Free energy of the ion-electron system (eV)
  ---------------------------------------------------
  alpha Z        PSCENC =        69.72802778
  Ewald energy   TEWEN  =     -1887.20590689
  -Hartree energ DENC   =      -937.14514243
  -exchange      EXHF   =         0.00000000
  -V(xc)+E(xc)   XCENC  =       142.01294253
  PAW double counting   =      1574.92322788    -1533.24131965
  entropy T*S    EENTRO =         0.00000000
  eigenvalues    EBANDS =      -413.16802935
  atomic energy  EATOM  =      2903.43715298
  Solvation  Ediel_sol  =         0.00000000
  ---------------------------------------------------
  free energy    TOTEN  =       -80.65904715 eV

  energy without entropy =      -80.65904715  energy(sigma->0) =      -80.65904715


--------------------------------------------------------------------------------------------------------




----------------------------------------- Iteration    1(   5)  ---------------------------------------


     EDDAV:  cpu time   13.6609: real time   13.6589
 BZINTS: Fermi energy: -2.168045; 48.000000 electrons
         Band energy:-413.174325;  BLOECHL correction:  0.000000
       DOS:  cpu time    0.0020: real time    0.0023
    CHARGE:  cpu time    0.8709: real time    0.8697
    MIXING:  cpu time    0.0060: real time    0.0057
    --------------------------------------------
      LOOP:  cpu time   14.5408: real time   14.5531

 eigenvalue-minimisations  :  3675
 total energy-change (2. order) :-0.6296129E-02  (-0.6293409E-02)
 number of electron      48.0000040 magnetization 
 augmentation part        4.4728531 magnetization 

 Broyden mixing:
  rms(total) = 0.18752E+01    rms(broyden)= 0.18751E+01
  rms(prec ) = 0.34967E+01
  weight for this iteration     100.00

 Free energy of the ion-electron system (eV)
  ---------------------------------------------------
  alpha Z        PSCENC =        69.72802778
  Ewald energy   TEWEN  =     -1887.20590689
  -Hartree energ DENC   =      -937.14514243
  -exchange      EXHF   =         0.00000000
  -V(xc)+E(xc)   XCENC  =       142.01294253
  PAW double counting   =      1574.92322788    -1533.24131965
  entropy T*S    EENTRO =         0.00000000
  eigenvalues    EBANDS =      -413.17432548
  atomic energy  EATOM  =      2903.43715298
  Solvation  Ediel_sol  =         0.00000000
  ---------------------------------------------------
  free energy    TOTEN  =       -80.66534328 eV

  energy without entropy =      -80.66534328  energy(sigma->0) =      -80.66534328


--------------------------------------------------------------------------------------------------------




----------------------------------------- Iteration    1(   6)  ---------------------------------------


    POTLOK:  cpu time    0.2050: real time    0.2049
    SETDIJ:  cpu time    0.0170: real time    0.0176
    EDDIAG:  cpu time    2.2097: real time    2.2088
  RMM-DIIS:  cpu time    8.4397: real time    8.4374
    ORTHCH:  cpu time    0.2080: real time    0.2079
 BZINTS: Fermi energy:  0.732472; 48.000000 electrons
         Band energy:-299.843472;  BLOECHL correction:  0.000000
       DOS:  cpu time    0.0020: real time    0.0029
    CHARGE:  cpu time    0.8839: real time    0.8835
    MIXING:  cpu time    0.0060: real time    0.0061
    --------------------------------------------
      LOOP:  cpu time   11.9722: real time   12.0013

 eigenvalue-minimisations  :  3407
 total energy-change (2. order) : 0.9604492E+01  (-0.4199007E+01)
 number of electron      48.0000034 magnetization 
 augmentation part        3.6571066 magnetization 

 Broyden mixing:
  rms(total) = 0.51408E+00    rms(broyden)= 0.51397E+00
  rms(prec ) = 0.82264E+00
  weight for this iteration     100.00

 eigenvalues of (default mixing * dielectric matrix)
  average eigenvalue GAMMA=   0.9990
  0.9990

 Free energy of the ion-electron system (eV)
  ---------------------------------------------------
  alpha Z        PSCENC =        69.72802778
  Ewald energy   TEWEN  =     -1887.20590689
  -Hartree energ DENC   =     -1045.95960982
  -exchange      EXHF   =         0.00000000
  -V(xc)+E(xc)   XCENC  =       149.31425560
  PAW double counting   =      1883.89777153    -1844.42907010
  entropy T*S    EENTRO =         0.00000000
  eigenvalues    EBANDS =      -299.84347190
  atomic energy  EATOM  =      2903.43715298
  Solvation  Ediel_sol  =         0.00000000
  ---------------------------------------------------
  free energy    TOTEN  =       -71.06085081 eV

  energy without entropy =      -71.06085081  energy(sigma->0) =      -71.06085081


--------------------------------------------------------------------------------------------------------




----------------------------------------- Iteration    1(   7)  ---------------------------------------


    POTLOK:  cpu time    0.2130: real time    0.2155
    SETDIJ:  cpu time    0.0180: real time    0.0205
    EDDIAG:  cpu time    2.2957: real time    2.2959
  RMM-DIIS:  cpu time    9.6185: real time    9.6158
    ORTHCH:  cpu time    0.2100: real time    0.2099
 BZINTS: Fermi energy:  1.087472; 48.000000 electrons
         Band energy:-283.475572;  BLOECHL correction:  0.000000
       DOS:  cpu time    0.0030: real time    0.0029
    CHARGE:  cpu time    0.8939: real time    0.8944
    MIXING:  cpu time    0.0070: real time    0.0065
    --------------------------------------------
      LOOP:  cpu time   13.2610: real time   13.7808

 eigenvalue-minimisations  :  3668
 total energy-change (2. order) : 0.1895927E-01  (-0.1688060E+00)
 number of electron      48.0000033 magnetization 
 augmentation part        3.5456620 magnetization 

 Broyden mixing:
  rms(total) = 0.33997E+00    rms(broyden)= 0.33996E+00
  rms(prec ) = 0.48284E+00
  weight for this iteration     100.00

 eigenvalues of (default mixing * dielectric matrix)
  average eigenvalue GAMMA=   1.7433
  1.1561  2.3306

 Free energy of the ion-electron system (eV)
  ---------------------------------------------------
  alpha Z        PSCENC =        69.72802778
  Ewald energy   TEWEN  =     -1887.20590689
  -Hartree energ DENC   =     -1063.30857513
  -exchange      EXHF   =         0.00000000
  -V(xc)+E(xc)   XCENC  =       150.49131829
  PAW double counting   =      1976.41519536    -1937.12353168
  entropy T*S    EENTRO =         0.00000000
  eigenvalues    EBANDS =      -283.47557224
  atomic energy  EATOM  =      2903.43715298
  Solvation  Ediel_sol  =         0.00000000
  ---------------------------------------------------
  free energy    TOTEN  =       -71.04189154 eV

  energy without entropy =      -71.04189154  energy(sigma->0) =      -71.04189154


--------------------------------------------------------------------------------------------------------




----------------------------------------- Iteration    1(   8)  ---------------------------------------


    POTLOK:  cpu time    0.2060: real time    0.2061
    SETDIJ:  cpu time    0.0180: real time    0.0182
    EDDIAG:  cpu time    2.2807: real time    2.2805
  RMM-DIIS:  cpu time    9.3766: real time    9.3746
    ORTHCH:  cpu time    0.2070: real time    0.2059
 BZINTS: Fermi energy:  1.002803; 48.000000 electrons
         Band energy:-280.785807;  BLOECHL correction:  0.000000
       DOS:  cpu time    0.0030: real time    0.0028
    CHARGE:  cpu time    0.8719: real time    0.8719
    MIXING:  cpu time    0.0060: real time    0.0064
    --------------------------------------------
      LOOP:  cpu time   12.9710: real time   13.3501

 eigenvalue-minimisations  :  3609
 total energy-change (2. order) :-0.1573603E-01  (-0.2785728E-01)
 number of electron      48.0000033 magnetization 
 augmentation part        3.5874153 magnetization 

 Broyden mixing:
  rms(total) = 0.64589E-01    rms(broyden)= 0.64587E-01
  rms(prec ) = 0.12032E+00
  weight for this iteration     100.00

 eigenvalues of (default mixing * dielectric matrix)
  average eigenvalue GAMMA=   1.5819
  2.5603  1.0927  1.0927

 Free energy of the ion-electron system (eV)
  ---------------------------------------------------
  alpha Z        PSCENC =        69.72802778
  Ewald energy   TEWEN  =     -1887.20590689
  -Hartree energ DENC   =     -1066.43391217
  -exchange      EXHF   =         0.00000000
  -V(xc)+E(xc)   XCENC  =       150.78729715
  PAW double counting   =      2047.63676023    -2008.22123953
  entropy T*S    EENTRO =         0.00000000
  eigenvalues    EBANDS =      -280.78580712
  atomic energy  EATOM  =      2903.43715298
  Solvation  Ediel_sol  =         0.00000000
  ---------------------------------------------------
  free energy    TOTEN  =       -71.05762757 eV

  energy without entropy =      -71.05762757  energy(sigma->0) =      -71.05762757


--------------------------------------------------------------------------------------------------------




----------------------------------------- Iteration    1(   9)  ---------------------------------------


    POTLOK:  cpu time    0.2090: real time    0.2097
    SETDIJ:  cpu time    0.0180: real time    0.0173
    EDDIAG:  cpu time    2.2417: real time    2.2419
  RMM-DIIS:  cpu time    9.4216: real time    9.4230
    ORTHCH:  cpu time    0.2100: real time    0.2101
 BZINTS: Fermi energy:  1.177095; 48.000000 electrons
         Band energy:-275.868757;  BLOECHL correction:  0.000000
       DOS:  cpu time    0.0030: real time    0.0029
    CHARGE:  cpu time    0.8739: real time    0.8731
    MIXING:  cpu time    0.0060: real time    0.0066
    --------------------------------------------
      LOOP:  cpu time   12.9850: real time   12.9904

 eigenvalue-minimisations  :  3733
 total energy-change (2. order) : 0.7896926E-02  (-0.5782509E-02)
 number of electron      48.0000033 magnetization 
 augmentation part        3.5624567 magnetization 

 Broyden mixing:
  rms(total) = 0.13785E-01    rms(broyden)= 0.13783E-01
  rms(prec ) = 0.20322E-01
  weight for this iteration     100.00

 eigenvalues of (default mixing * dielectric matrix)
  average eigenvalue GAMMA=   1.8835
  2.9740  2.4860  1.0371  1.0371

 Free energy of the ion-electron system (eV)
  ---------------------------------------------------
  alpha Z        PSCENC =        69.72802778
  Ewald energy   TEWEN  =     -1887.20590689
  -Hartree energ DENC   =     -1071.61241060
  -exchange      EXHF   =         0.00000000
  -V(xc)+E(xc)   XCENC  =       151.14369371
  PAW double counting   =      2060.20709853    -2020.87862908
  entropy T*S    EENTRO =         0.00000000
  eigenvalues    EBANDS =      -275.86875707
  atomic energy  EATOM  =      2903.43715298
  Solvation  Ediel_sol  =         0.00000000
  ---------------------------------------------------
  free energy    TOTEN  =       -71.04973064 eV

  energy without entropy =      -71.04973064  energy(sigma->0) =      -71.04973064


--------------------------------------------------------------------------------------------------------




----------------------------------------- Iteration    1(  10)  ---------------------------------------


    POTLOK:  cpu time    0.2100: real time    0.2091
    SETDIJ:  cpu time    0.0170: real time    0.0178
    EDDIAG:  cpu time    2.2327: real time    2.2328
  RMM-DIIS:  cpu time    9.5076: real time    9.5077
    ORTHCH:  cpu time    0.2120: real time    0.2121
 BZINTS: Fermi energy:  1.191666; 48.000000 electrons
         Band energy:-274.587762;  BLOECHL correction:  0.000000
       DOS:  cpu time    0.0030: real time    0.0029
    CHARGE:  cpu time    0.8769: real time    0.8766
    MIXING:  cpu time    0.0070: real time    0.0070
    --------------------------------------------
      LOOP:  cpu time   13.0670: real time   13.0713

 eigenvalue-minimisations  :  3675
 total energy-change (2. order) :-0.3388056E-02  (-0.1831909E-02)
 number of electron      48.0000033 magnetization 
 augmentation part        3.5493673 magnetization 

 Broyden mixing:
  rms(total) = 0.24748E-01    rms(broyden)= 0.24747E-01
  rms(prec ) = 0.42065E-01
  weight for this iteration     100.00

 eigenvalues of (default mixing * dielectric matrix)
  average eigenvalue GAMMA=   1.6717
  2.7812  2.4534  1.0672  1.0672  0.9896

 Free energy of the ion-electron system (eV)
  ---------------------------------------------------
  alpha Z        PSCENC =        69.72802778
  Ewald energy   TEWEN  =     -1887.20590689
  -Hartree energ DENC   =     -1072.95741980
  -exchange      EXHF   =         0.00000000
  -V(xc)+E(xc)   XCENC  =       151.23049937
  PAW double counting   =      2054.53856611    -2015.23627660
  entropy T*S    EENTRO =         0.00000000
  eigenvalues    EBANDS =      -274.58776165
  atomic energy  EATOM  =      2903.43715298
  Solvation  Ediel_sol  =         0.00000000
  ---------------------------------------------------
  free energy    TOTEN  =       -71.05311870 eV

  energy without entropy =      -71.05311870  energy(sigma->0) =      -71.05311870


--------------------------------------------------------------------------------------------------------




----------------------------------------- Iteration    1(  11)  ---------------------------------------


    POTLOK:  cpu time    0.2150: real time    0.2159
    SETDIJ:  cpu time    0.0180: real time    0.0175
    EDDIAG:  cpu time    2.2367: real time    2.2360
  RMM-DIIS:  cpu time    9.7275: real time    9.7297
    ORTHCH:  cpu time    0.2110: real time    0.2109
 BZINTS: Fermi energy:  1.176396; 48.000000 electrons
         Band energy:-275.643714;  BLOECHL correction:  0.000000
       DOS:  cpu time    0.0030: real time    0.0029
    CHARGE:  cpu time    0.8739: real time    0.8725
    MIXING:  cpu time    0.0070: real time    0.0072
    --------------------------------------------
      LOOP:  cpu time   13.2940: real time   13.3133

 eigenvalue-minimisations  :  3728
 total energy-change (2. order) : 0.1520411E-02  (-0.3215324E-03)
 number of electron      48.0000033 magnetization 
 augmentation part        3.5555851 magnetization 

 Broyden mixing:
  rms(total) = 0.69945E-02    rms(broyden)= 0.69943E-02
  rms(prec ) = 0.12232E-01
  weight for this iteration     100.00

 eigenvalues of (default mixing * dielectric matrix)
  average eigenvalue GAMMA=   1.7146
  2.9316  2.4623  1.6091  0.9489  1.1678  1.1678

 Free energy of the ion-electron system (eV)
  ---------------------------------------------------
  alpha Z        PSCENC =        69.72802778
  Ewald energy   TEWEN  =     -1887.20590689
  -Hartree energ DENC   =     -1071.84722778
  -exchange      EXHF   =         0.00000000
  -V(xc)+E(xc)   XCENC  =       151.15541223
  PAW double counting   =      2052.36000097    -2013.03534392
  entropy T*S    EENTRO =         0.00000000
  eigenvalues    EBANDS =      -275.64371366
  atomic energy  EATOM  =      2903.43715298
  Solvation  Ediel_sol  =         0.00000000
  ---------------------------------------------------
  free energy    TOTEN  =       -71.05159829 eV

  energy without entropy =      -71.05159829  energy(sigma->0) =      -71.05159829


--------------------------------------------------------------------------------------------------------




----------------------------------------- Iteration    1(  12)  ---------------------------------------


    POTLOK:  cpu time    0.2120: real time    0.2124
    SETDIJ:  cpu time    0.0180: real time    0.0179
    EDDIAG:  cpu time    2.2507: real time    2.2496
  RMM-DIIS:  cpu time    9.5146: real time    9.5121
    ORTHCH:  cpu time    0.2070: real time    0.2073
 BZINTS: Fermi energy:  1.169437; 48.000000 electrons
         Band energy:-275.990830;  BLOECHL correction:  0.000000
       DOS:  cpu time    0.0030: real time    0.0029
    CHARGE:  cpu time    0.8919: real time    0.8921
    MIXING:  cpu time    0.0080: real time    0.0076
    --------------------------------------------
      LOOP:  cpu time   13.1060: real time   13.1081

 eigenvalue-minimisations  :  3718
 total energy-change (2. order) : 0.5826760E-04  (-0.1012142E-03)
 number of electron      48.0000033 magnetization 
 augmentation part        3.5591726 magnetization 

 Broyden mixing:
  rms(total) = 0.81689E-03    rms(broyden)= 0.81456E-03
  rms(prec ) = 0.13039E-02
  weight for this iteration     100.00

 eigenvalues of (default mixing * dielectric matrix)
  average eigenvalue GAMMA=   1.6957
  2.8706  2.2777  2.2777  1.0001  1.0975  1.1730  1.1730

 Free energy of the ion-electron system (eV)
  ---------------------------------------------------
  alpha Z        PSCENC =        69.72802778
  Ewald energy   TEWEN  =     -1887.20590689
  -Hartree energ DENC   =     -1071.48064293
  -exchange      EXHF   =         0.00000000
  -V(xc)+E(xc)   XCENC  =       151.12888309
  PAW double counting   =      2051.57246245    -2012.24068688
  entropy T*S    EENTRO =         0.00000000
  eigenvalues    EBANDS =      -275.99082962
  atomic energy  EATOM  =      2903.43715298
  Solvation  Ediel_sol  =         0.00000000
  ---------------------------------------------------
  free energy    TOTEN  =       -71.05154002 eV

  energy without entropy =      -71.05154002  energy(sigma->0) =      -71.05154002


--------------------------------------------------------------------------------------------------------




----------------------------------------- Iteration    1(  13)  ---------------------------------------


    POTLOK:  cpu time    0.2150: real time    0.2151
    SETDIJ:  cpu time    0.0180: real time    0.0179
    EDDIAG:  cpu time    2.2127: real time    2.2118
  RMM-DIIS:  cpu time    7.2069: real time    7.2049
    ORTHCH:  cpu time    0.2040: real time    0.2041
 BZINTS: Fermi energy:  1.166791; 48.000000 electrons
         Band energy:-275.946485;  BLOECHL correction:  0.000000
       DOS:  cpu time    0.0030: real time    0.0028
    --------------------------------------------
      LOOP:  cpu time    9.8605: real time    9.8725

 eigenvalue-minimisations  :  2736
 total energy-change (2. order) :-0.2420027E-05  (-0.2902374E-05)
 number of electron      48.0000033 magnetization 
 augmentation part        3.5591726 magnetization 

 Free energy of the ion-electron system (eV)
  ---------------------------------------------------
  alpha Z        PSCENC =        69.72802778
  Ewald energy   TEWEN  =     -1887.20590689
  -Hartree energ DENC   =     -1071.52717769
  -exchange      EXHF   =         0.00000000
  -V(xc)+E(xc)   XCENC  =       151.13180152
  PAW double counting   =      2051.76412188    -2012.43307663
  entropy T*S    EENTRO =         0.00000000
  eigenvalues    EBANDS =      -275.94648539
  atomic energy  EATOM  =      2903.43715298
  Solvation  Ediel_sol  =         0.00000000
  ---------------------------------------------------
  free energy    TOTEN  =       -71.05154244 eV

  energy without entropy =      -71.05154244  energy(sigma->0) =      -71.05154244


--------------------------------------------------------------------------------------------------------




 average (electrostatic) potential at core
  the test charge radii are     0.9892  0.7215
  (the norm of the test charge is              1.0000)
       1 -86.3828       2 -86.3828       3 -86.3828       4 -72.3966       5 -72.3965
       6 -72.3966       7 -72.3965       8 -72.3966       9 -72.3966
 
 
 
 E-fermi :   1.1668     XC(G=0):  -9.2017     alpha+bet :-10.3421


 k-point     1 :       0.0000    0.0000    0.0000
  band No.  band energies     occupation 
      1     -18.3722      2.00000
      2     -16.8355      2.00000
      3     -16.8354      2.00000
      4     -16.2008      2.00000
      5     -16.1528      2.00000
      6     -16.1527      2.00000
      7      -7.1763      2.00000
      8      -7.1762      2.00000
      9      -4.3362      2.00000
     10      -4.3303      2.00000
     11      -4.1781      2.00000
     12      -4.1780      2.00000
     13      -1.8598      2.00000
     14      -1.8597      2.00000
     15      -1.6226      2.00000
     16      -1.3623      2.00000
     17      -0.4117      2.00000
     18      -0.4117      2.00000
     19      -0.3938      2.00000
     20       0.1094      2.00000
     21       0.1095      2.00000
     22       0.4188      2.00000
     23       0.7590      2.00000
     24       0.7591      2.00000
     25       7.1207      0.00000
     26      10.3984      0.00000
     27      10.3984      0.00000
     28      10.9001      0.00000
     29      10.9001      0.00000

 k-point     2 :       0.1667    0.0000    0.0000
  band No.  band energies     occupation 
      1     -18.2907      2.00000
      2     -16.9297      2.00000
      3     -16.8235      2.00000
      4     -16.2204      2.00000
      5     -16.1699      2.00000
      6     -16.1592      2.00000
      7      -7.2138      2.00000
      8      -6.9947      2.00000
      9      -4.3762      2.00000
     10      -4.3503      2.00000
     11      -4.2788      2.00000
     12      -4.0174      2.00000
     13      -1.9849      2.00000
     14      -1.8000      2.00000
     15      -1.5924      2.00000
     16      -1.1959      2.00000
     17      -0.6852      2.00000
     18      -0.4506      2.00000
     19      -0.4052      2.00000
     20       0.0467      2.00000
     21       0.0994      2.00000
     22       0.3165      2.00000
     23       0.8225      2.00000
     24       0.8561      2.00000
     25       7.5427      0.00000
     26      10.3850      0.00000
     27      10.4453      0.00000
     28      10.9355      0.00000
     29      11.0436      0.00000

 k-point     3 :       0.3333    0.0000    0.0000
  band No.  band energies     occupation 
      1     -18.0718      2.00000
      2     -17.1890      2.00000
      3     -16.7980      2.00000
      4     -16.2435      2.00000
      5     -16.1982      2.00000
      6     -16.1783      2.00000
      7      -7.2855      2.00000
      8      -6.5751      2.00000
      9      -4.6321      2.00000
     10      -4.3840      2.00000
     11      -4.3021      2.00000
     12      -3.7152      2.00000
     13      -2.0674      2.00000
     14      -1.6917      2.00000
     15      -1.5670      2.00000
     16      -1.1999      2.00000
     17      -1.0010      2.00000
     18      -0.5816      2.00000
     19      -0.4899      2.00000
     20      -0.0046      2.00000
     21       0.0646      2.00000
     22       0.2676      2.00000
     23       0.8504      2.00000
     24       0.9996      2.00000
     25       8.5415      0.00000
     26      10.4284      0.00000
     27      10.5564      0.00000
     28      11.0640      0.00000
     29      11.5276      0.00000

 k-point     4 :       0.5000    0.0000    0.0000
  band No.  band energies     occupation 
      1     -17.8824      2.00000
      2     -17.4035      2.00000
      3     -16.7843      2.00000
      4     -16.2494      2.00000
      5     -16.2109      2.00000
      6     -16.1899      2.00000
      7      -7.3199      2.00000
      8      -6.3129      2.00000
      9      -4.8204      2.00000
     10      -4.3614      2.00000
     11      -4.3302      2.00000
     12      -3.5495      2.00000
     13      -1.9954      2.00000
     14      -1.8287      2.00000
     15      -1.5983      2.00000
     16      -1.2172      2.00000
     17      -1.0089      2.00000
     18      -0.6646      2.00000
     19      -0.5973      2.00000
     20      -0.0076      2.00000
     21       0.0576      2.00000
     22       0.2981      2.00000
     23       0.8334      2.00000
     24       1.0572      2.00000
     25       9.3793      0.00000
     26      10.1159      0.00000
     27      10.8435      0.00000
     28      10.8455      0.00000
     29      11.6376      0.00000

 k-point     5 :       0.1667    0.1667    0.0000
  band No.  band energies     occupation 
      1     -18.1380      2.00000
      2     -17.1056      2.00000
      3     -16.8120      2.00000
      4     -16.2383      2.00000
      5     -16.1952      2.00000
      6     -16.1688      2.00000
      7      -7.2780      2.00000
      8      -6.6689      2.00000
      9      -4.6400      2.00000
     10      -4.3690      2.00000
     11      -4.2270      2.00000
     12      -3.8047      2.00000
     13      -2.0344      2.00000
     14      -1.7870      2.00000
     15      -1.4874      2.00000
     16      -1.0874      2.00000
     17      -1.0797      2.00000
     18      -0.5605      2.00000
     19      -0.3626      2.00000
     20      -0.1309      2.00000
     21       0.1822      2.00000
     22       0.2274      2.00000
     23       0.8413      2.00000
     24       0.9771      2.00000
     25       8.2502      0.00000
     26      10.4277      0.00000
     27      10.5696      0.00000
     28      11.0522      0.00000
     29      11.2242      0.00000

 k-point     6 :       0.3333    0.1667    0.0000
  band No.  band energies     occupation 
      1     -17.8891      2.00000
      2     -17.3841      2.00000
      3     -16.8042      2.00000
      4     -16.2467      2.00000
      5     -16.2092      2.00000
      6     -16.1871      2.00000
      7      -7.3431      2.00000
      8      -6.2129      2.00000
      9      -5.0395      2.00000
     10      -4.3212      2.00000
     11      -4.2295      2.00000
     12      -3.5572      2.00000
     13      -1.9837      2.00000
     14      -1.7847      2.00000
     15      -1.6583      2.00000
     16      -1.1644      2.00000
     17      -1.0020      2.00000
     18      -0.6957      2.00000
     19      -0.5074      2.00000
     20      -0.1892      2.00000
     21       0.0301      2.00000
     22       0.4225      2.00000
     23       0.7998      2.00000
     24       1.0685      2.00000
     25       9.2669      0.00000
     26      10.3663      0.00000
     27      10.6836      0.00000
     28      11.0877      0.00000
     29      11.5362      0.00000

 k-point     7 :       0.5000    0.1667    0.0000
  band No.  band energies     occupation 
      1     -17.8891      2.00000
      2     -17.3841      2.00000
      3     -16.8042      2.00000
      4     -16.2468      2.00000
      5     -16.2092      2.00000
      6     -16.1871      2.00000
      7      -7.3431      2.00000
      8      -6.2129      2.00000
      9      -5.0394      2.00000
     10      -4.3212      2.00000
     11      -4.2295      2.00000
     12      -3.5572      2.00000
     13      -1.9837      2.00000
     14      -1.7847      2.00000
     15      -1.6583      2.00000
     16      -1.1644      2.00000
     17      -1.0020      2.00000
     18      -0.6957      2.00000
     19      -0.5074      2.00000
     20      -0.1892      2.00000
     21       0.0301      2.00000
     22       0.4225      2.00000
     23       0.7998      2.00000
     24       1.0686      2.00000
     25       9.2669      0.00000
     26      10.3662      0.00000
     27      10.6835      0.00000
     28      11.0899      0.00000
     29      11.5127      0.00000

 k-point     8 :      -0.3333    0.1667    0.0000
  band No.  band energies     occupation 
      1     -18.1380      2.00000
      2     -17.1056      2.00000
      3     -16.8120      2.00000
      4     -16.2383      2.00000
      5     -16.1951      2.00000
      6     -16.1687      2.00000
      7      -7.2779      2.00000
      8      -6.6689      2.00000
      9      -4.6400      2.00000
     10      -4.3690      2.00000
     11      -4.2271      2.00000
     12      -3.8047      2.00000
     13      -2.0344      2.00000
     14      -1.7870      2.00000
     15      -1.4874      2.00000
     16      -1.0874      2.00000
     17      -1.0798      2.00000
     18      -0.5604      2.00000
     19      -0.3626      2.00000
     20      -0.1309      2.00000
     21       0.1822      2.00000
     22       0.2275      2.00000
     23       0.8413      2.00000
     24       0.9771      2.00000
     25       8.2502      0.00000
     26      10.4278      0.00000
     27      10.5698      0.00000
     28      11.0544      0.00000
     29      11.2346      0.00000

 k-point     9 :      -0.1667    0.1667    0.0000
  band No.  band energies     occupation 
      1     -18.2907      2.00000
      2     -16.9297      2.00000
      3     -16.8236      2.00000
      4     -16.2204      2.00000
      5     -16.1698      2.00000
      6     -16.1592      2.00000
      7      -7.2138      2.00000
      8      -6.9947      2.00000
      9      -4.3762      2.00000
     10      -4.3503      2.00000
     11      -4.2788      2.00000
     12      -4.0174      2.00000
     13      -1.9850      2.00000
     14      -1.7999      2.00000
     15      -1.5924      2.00000
     16      -1.1959      2.00000
     17      -0.6852      2.00000
     18      -0.4506      2.00000
     19      -0.4052      2.00000
     20       0.0466      2.00000
     21       0.0995      2.00000
     22       0.3165      2.00000
     23       0.8224      2.00000
     24       0.8562      2.00000
     25       7.5427      0.00000
     26      10.3850      0.00000
     27      10.4453      0.00000
     28      10.9353      0.00000
     29      11.0436      0.00000

 k-point    10 :       0.3333    0.3333    0.0000
  band No.  band energies     occupation 
      1     -17.6372      2.00000
      2     -17.6371      2.00000
      3     -16.8183      2.00000
      4     -16.2457      2.00000
      5     -16.2015      2.00000
      6     -16.2014      2.00000
      7      -7.3808      2.00000
      8      -5.6423      2.00000
      9      -5.6422      2.00000
     10      -4.2386      2.00000
     11      -4.2386      2.00000
     12      -3.4629      2.00000
     13      -1.8541      2.00000
     14      -1.8540      2.00000
     15      -1.8033      2.00000
     16      -0.9772      2.00000
     17      -0.9772      2.00000
     18      -0.8212      2.00000
     19      -0.6247      2.00000
     20      -0.1467      2.00000
     21      -0.1467      2.00000
     22       0.6582      2.00000
     23       0.6582      2.00000
     24       1.0998      2.00000
     25      10.0506      0.00000
     26      10.0507      0.00000
     27      10.5383      0.00000
     28      11.4789      0.00000
     29      11.6417      0.00000

 k-point    11 :       0.5000    0.3333    0.0000
  band No.  band energies     occupation 
      1     -17.8890      2.00000
      2     -17.3842      2.00000
      3     -16.8043      2.00000
      4     -16.2468      2.00000
      5     -16.2093      2.00000
      6     -16.1870      2.00000
      7      -7.3431      2.00000
      8      -6.2129      2.00000
      9      -5.0395      2.00000
     10      -4.3212      2.00000
     11      -4.2295      2.00000
     12      -3.5572      2.00000
     13      -1.9837      2.00000
     14      -1.7848      2.00000
     15      -1.6583      2.00000
     16      -1.1644      2.00000
     17      -1.0020      2.00000
     18      -0.6957      2.00000
     19      -0.5074      2.00000
     20      -0.1893      2.00000
     21       0.0302      2.00000
     22       0.4225      2.00000
     23       0.7998      2.00000
     24       1.0686      2.00000
     25       9.2669      0.00000
     26      10.3663      0.00000
     27      10.6835      0.00000
     28      11.0905      0.00000
     29      11.5294      0.00000

 k-point    12 :      -0.3333    0.3333    0.0000
  band No.  band energies     occupation 
      1     -18.0717      2.00000
      2     -17.1890      2.00000
      3     -16.7981      2.00000
      4     -16.2436      2.00000
      5     -16.1983      2.00000
      6     -16.1782      2.00000
      7      -7.2854      2.00000
      8      -6.5752      2.00000
      9      -4.6322      2.00000
     10      -4.3839      2.00000
     11      -4.3021      2.00000
     12      -3.7152      2.00000
     13      -2.0674      2.00000
     14      -1.6918      2.00000
     15      -1.5670      2.00000
     16      -1.2000      2.00000
     17      -1.0009      2.00000
     18      -0.5816      2.00000
     19      -0.4899      2.00000
     20      -0.0046      2.00000
     21       0.0647      2.00000
     22       0.2676      2.00000
     23       0.8503      2.00000
     24       0.9997      2.00000
     25       8.5415      0.00000
     26      10.4285      0.00000
     27      10.5556      0.00000
     28      11.0572      0.00000
     29      11.3943      0.00000

 k-point    13 :       0.5000    0.5000    0.0000
  band No.  band energies     occupation 
      1     -17.8823      2.00000
      2     -17.4036      2.00000
      3     -16.7844      2.00000
      4     -16.2495      2.00000
      5     -16.2110      2.00000
      6     -16.1897      2.00000
      7      -7.3198      2.00000
      8      -6.3130      2.00000
      9      -4.8205      2.00000
     10      -4.3613      2.00000
     11      -4.3302      2.00000
     12      -3.5495      2.00000
     13      -1.9953      2.00000
     14      -1.8288      2.00000
     15      -1.5984      2.00000
     16      -1.2172      2.00000
     17      -1.0089      2.00000
     18      -0.6646      2.00000
     19      -0.5973      2.00000
     20      -0.0077      2.00000
     21       0.0576      2.00000
     22       0.2981      2.00000
     23       0.8334      2.00000
     24       1.0573      2.00000
     25       9.3793      0.00000
     26      10.1159      0.00000
     27      10.8435      0.00000
     28      10.8453      0.00000
     29      11.6254      0.00000

 k-point    14 :       0.0000    0.0000    0.2000
  band No.  band energies     occupation 
      1     -18.2937      2.00000
      2     -17.2845      2.00000
      3     -16.4509      2.00000
      4     -16.1985      2.00000
      5     -16.1685      2.00000
      6     -16.1376      2.00000
      7      -7.8492      2.00000
      8      -6.3490      2.00000
      9      -4.4958      2.00000
     10      -4.4194      2.00000
     11      -4.3707      2.00000
     12      -3.8727      2.00000
     13      -1.9437      2.00000
     14      -1.6652      2.00000
     15      -1.5645      2.00000
     16      -1.2324      2.00000
     17      -0.6048      2.00000
     18      -0.4839      2.00000
     19      -0.4237      2.00000
     20      -0.2839      2.00000
     21       0.0777      2.00000
     22       0.5192      2.00000
     23       0.8096      2.00000
     24       0.9691      2.00000
     25       7.5147      0.00000
     26      10.2555      0.00000
     27      10.4195      0.00000
     28      10.5209      0.00000
     29      11.2240      0.00000

 k-point    15 :       0.1667    0.0000    0.2000
  band No.  band energies     occupation 
      1     -18.2165      2.00000
      2     -17.2837      2.00000
      3     -16.5341      2.00000
      4     -16.2134      2.00000
      5     -16.1876      2.00000
      6     -16.1489      2.00000
      7      -7.7043      2.00000
      8      -6.3573      2.00000
      9      -4.6741      2.00000
     10      -4.3777      2.00000
     11      -4.1814      2.00000
     12      -3.9223      2.00000
     13      -2.0439      2.00000
     14      -1.6493      2.00000
     15      -1.5285      2.00000
     16      -1.1548      2.00000
     17      -0.8344      2.00000
     18      -0.4980      2.00000
     19      -0.3948      2.00000
     20      -0.2399      2.00000
     21       0.1605      2.00000
     22       0.4153      2.00000
     23       0.7509      2.00000
     24       1.0107      2.00000
     25       7.8906      0.00000
     26      10.2692      0.00000
     27      10.5112      0.00000
     28      10.6059      0.00000
     29      11.3059      0.00000

 k-point    16 :       0.3333    0.0000    0.2000
  band No.  band energies     occupation 
      1     -18.0148      2.00000
      2     -17.3238      2.00000
      3     -16.7204      2.00000
      4     -16.2409      2.00000
      5     -16.2138      2.00000
      6     -16.1687      2.00000
      7      -7.4112      2.00000
      8      -6.3291      2.00000
      9      -4.9092      2.00000
     10      -4.3364      2.00000
     11      -4.1003      2.00000
     12      -3.8262      2.00000
     13      -2.1390      2.00000
     14      -1.7118      2.00000
     15      -1.4747      2.00000
     16      -1.2121      2.00000
     17      -0.8962      2.00000
     18      -0.6029      2.00000
     19      -0.4921      2.00000
     20      -0.0548      2.00000
     21       0.1601      2.00000
     22       0.2797      2.00000
     23       0.7935      2.00000
     24       0.9660      2.00000
     25       8.8064      0.00000
     26      10.3211      0.00000
     27      10.5733      0.00000
     28      11.0423      0.00000
     29      11.4564      0.00000

 k-point    17 :       0.5000    0.0000    0.2000
  band No.  band energies     occupation 
      1     -17.8599      2.00000
      2     -17.3924      2.00000
      3     -16.8309      2.00000
      4     -16.2498      2.00000
      5     -16.2155      2.00000
      6     -16.1811      2.00000
      7      -7.2723      2.00000
      8      -6.2738      2.00000
      9      -5.0448      2.00000
     10      -4.3579      2.00000
     11      -4.1058      2.00000
     12      -3.6728      2.00000
     13      -2.0474      2.00000
     14      -1.9464      2.00000
     15      -1.4713      2.00000
     16      -1.2620      2.00000
     17      -0.8458      2.00000
     18      -0.7258      2.00000
     19      -0.4216      2.00000
     20      -0.0736      2.00000
     21       0.1392      2.00000
     22       0.3319      2.00000
     23       0.7205      2.00000
     24       0.9965      2.00000
     25       9.5726      0.00000
     26      10.1818      0.00000
     27      10.6873      0.00000
     28      11.1559      0.00000
     29      11.5978      0.00000

 k-point    18 :      -0.3333    0.0000    0.2000
  band No.  band energies     occupation 
      1     -18.0185      2.00000
      2     -17.3036      2.00000
      3     -16.7538      2.00000
      4     -16.2331      2.00000
      5     -16.1928      2.00000
      6     -16.1800      2.00000
      7      -7.4148      2.00000
      8      -6.3305      2.00000
      9      -4.9109      2.00000
     10      -4.3756      2.00000
     11      -4.0772      2.00000
     12      -3.7767      2.00000
     13      -2.0747      2.00000
     14      -1.7033      2.00000
     15      -1.5279      2.00000
     16      -1.3904      2.00000
     17      -0.9258      2.00000
     18      -0.5013      2.00000
     19      -0.3480      2.00000
     20      -0.0908      2.00000
     21       0.0620      2.00000
     22       0.3936      2.00000
     23       0.6357      2.00000
     24       1.0594      2.00000
     25       8.7727      0.00000
     26      10.3807      0.00000
     27      10.7670      0.00000
[...]
      8      -5.6353      2.00000
      9      -5.0494      2.00000
     10      -4.4342      2.00000
     11      -4.3367      2.00000
     12      -3.6900      2.00000
     13      -1.9259      2.00000
     14      -1.6441      2.00000
     15      -1.4949      2.00000
     16      -1.1213      2.00000
     17      -0.9442      2.00000
     18      -0.5713      2.00000
     19      -0.5241      2.00000
     20      -0.3227      2.00000
     21      -0.0193      2.00000
     22       0.6519      2.00000
     23       0.9048      2.00000
     24       0.9346      2.00000
     25       8.7743      0.00000
     26       9.7834      0.00000
     27      10.3732      0.00000
     28      10.5689      0.00000
     29      11.4987      0.00000

 k-point    46 :       0.1667    0.3333    0.4000
  band No.  band energies     occupation 
      1     -17.8160      2.00000
      2     -17.3920      2.00000
      3     -16.8823      2.00000
      4     -16.2660      2.00000
      5     -16.2059      2.00000
      6     -16.1830      2.00000
      7      -7.1836      2.00000
      8      -6.1641      2.00000
      9      -5.3714      2.00000
     10      -4.2416      2.00000
     11      -3.9691      2.00000
     12      -3.8676      2.00000
     13      -2.1480      2.00000
     14      -1.9625      2.00000
     15      -1.4695      2.00000
     16      -1.0942      2.00000
     17      -0.9282      2.00000
     18      -0.5898      2.00000
     19      -0.1608      2.00000
     20       0.0223      2.00000
     21       0.1855      2.00000
     22       0.2947      2.00000
     23       0.5356      2.00000
     24       0.8297      2.00000
     25       9.8650      0.00000
     26      10.5301      0.00000
     27      10.7985      0.00000
     28      11.1286      0.00000
     29      11.6427      0.00000

 k-point    47 :       0.3333    0.3333    0.4000
  band No.  band energies     occupation 
      1     -17.7802      2.00000
      2     -17.2632      2.00000
      3     -17.0436      2.00000
      4     -16.2766      2.00000
      5     -16.2192      2.00000
      6     -16.1915      2.00000
      7      -6.8686      2.00000
      8      -6.3840      2.00000
      9      -5.4820      2.00000
     10      -4.1828      2.00000
     11      -3.9262      2.00000
     12      -3.9253      2.00000
     13      -2.1863      2.00000
     14      -1.7462      2.00000
     15      -1.7307      2.00000
     16      -0.8881      2.00000
     17      -0.8644      2.00000
     18      -0.8578      2.00000
     19       0.0142      2.00000
     20       0.0308      2.00000
     21       0.1963      2.00000
     22       0.4194      2.00000
     23       0.4411      2.00000
     24       0.6480      2.00000
     25      10.1476      0.00000
     26      10.7008      0.00000
     27      10.9253      0.00000
     28      11.2415      0.00000
     29      11.3789      0.00000

 k-point    48 :       0.5000    0.3333    0.4000
  band No.  band energies     occupation 
      1     -17.8137      2.00000
      2     -17.3991      2.00000
      3     -16.8746      2.00000
      4     -16.2688      2.00000
      5     -16.2069      2.00000
      6     -16.1822      2.00000
      7      -7.1828      2.00000
      8      -6.1626      2.00000
      9      -5.3736      2.00000
     10      -4.2326      2.00000
     11      -3.9663      2.00000
     12      -3.8848      2.00000
     13      -2.1540      2.00000
     14      -1.9569      2.00000
     15      -1.4624      2.00000
     16      -1.0962      2.00000
     17      -0.8809      2.00000
     18      -0.6386      2.00000
     19      -0.1552      2.00000
     20      -0.0364      2.00000
     21       0.1909      2.00000
     22       0.3671      2.00000
     23       0.5568      2.00000
     24       0.7860      2.00000
     25       9.9219      0.00000
     26      10.4295      0.00000
     27      10.7301      0.00000
     28      11.1585      0.00000
     29      11.5924      0.00000

 k-point    49 :      -0.3333    0.3333    0.4000
  band No.  band energies     occupation 
      1     -17.8763      2.00000
      2     -17.5380      2.00000
      3     -16.6580      2.00000
      4     -16.2539      2.00000
      5     -16.1962      2.00000
      6     -16.1650      2.00000
      7      -7.5438      2.00000
      8      -5.9349      2.00000
      9      -5.2328      2.00000
     10      -4.3149      2.00000
     11      -4.0614      2.00000
     12      -3.8255      2.00000
     13      -2.1060      2.00000
     14      -1.9230      2.00000
     15      -1.3508      2.00000
     16      -1.1854      2.00000
     17      -0.9446      2.00000
     18      -0.4859      2.00000
     19      -0.3529      2.00000
     20      -0.1436      2.00000
     21       0.1202      2.00000
     22       0.4560      2.00000
     23       0.6815      2.00000
     24       0.8795      2.00000
     25       9.4996      0.00000
     26      10.0814      0.00000
     27      10.6271      0.00000
     28      10.8044      0.00000
     29      11.6885      0.00000

 k-point    50 :       0.1667    0.5000    0.4000
  band No.  band energies     occupation 
      1     -17.8137      2.00000
      2     -17.3990      2.00000
      3     -16.8746      2.00000
      4     -16.2688      2.00000
      5     -16.2069      2.00000
      6     -16.1823      2.00000
      7      -7.1828      2.00000
      8      -6.1626      2.00000
      9      -5.3736      2.00000
     10      -4.2327      2.00000
     11      -3.9663      2.00000
     12      -3.8848      2.00000
     13      -2.1540      2.00000
     14      -1.9569      2.00000
     15      -1.4624      2.00000
     16      -1.0962      2.00000
     17      -0.8809      2.00000
     18      -0.6385      2.00000
     19      -0.1552      2.00000
     20      -0.0364      2.00000
     21       0.1910      2.00000
     22       0.3671      2.00000
     23       0.5568      2.00000
     24       0.7859      2.00000
     25       9.9219      0.00000
     26      10.4295      0.00000
     27      10.7281      0.00000
     28      11.1347      0.00000
     29      11.5127      0.00000

 k-point    51 :       0.3333    0.5000    0.4000
  band No.  band energies     occupation 
      1     -17.8159      2.00000
      2     -17.3921      2.00000
      3     -16.8824      2.00000
      4     -16.2660      2.00000
      5     -16.2059      2.00000
      6     -16.1829      2.00000
      7      -7.1836      2.00000
      8      -6.1641      2.00000
      9      -5.3714      2.00000
     10      -4.2415      2.00000
     11      -3.9691      2.00000
     12      -3.8676      2.00000
     13      -2.1480      2.00000
     14      -1.9625      2.00000
     15      -1.4695      2.00000
     16      -1.0942      2.00000
     17      -0.9282      2.00000
     18      -0.5898      2.00000
     19      -0.1608      2.00000
     20       0.0223      2.00000
     21       0.1855      2.00000
     22       0.2948      2.00000
     23       0.5356      2.00000
     24       0.8298      2.00000
     25       9.8650      0.00000
     26      10.5299      0.00000
     27      10.8010      0.00000
     28      11.1334      0.00000
     29      11.3214      0.00000

 k-point    52 :       0.5000    0.5000    0.4000
  band No.  band energies     occupation 
      1     -17.8201      2.00000
      2     -17.3738      2.00000
      3     -16.9061      2.00000
      4     -16.2712      2.00000
      5     -16.1984      2.00000
      6     -16.1749      2.00000
      7      -7.1891      2.00000
      8      -6.2081      2.00000
      9      -5.2840      2.00000
     10      -4.2862      2.00000
     11      -3.9221      2.00000
     12      -3.8889      2.00000
     13      -2.1157      2.00000
     14      -2.0867      2.00000
     15      -1.3621      2.00000
     16      -1.1063      2.00000
     17      -0.9529      2.00000
     18      -0.5141      2.00000
     19      -0.2113      2.00000
     20      -0.0657      2.00000
     21       0.1279      2.00000
     22       0.4109      2.00000
     23       0.4673      2.00000
     24       0.9079      2.00000
     25       9.9982      0.00000
     26      10.3852      0.00000
     27      10.7497      0.00000
     28      11.0616      0.00000
     29      11.4962      0.00000

 k-point    53 :       0.1667   -0.3333    0.4000
  band No.  band energies     occupation 
      1     -17.9093      2.00000
      2     -17.5814      2.00000
      3     -16.5715      2.00000
      4     -16.2381      2.00000
      5     -16.1919      2.00000
      6     -16.1662      2.00000
      7      -7.6813      2.00000
      8      -5.8265      2.00000
      9      -5.2291      2.00000
     10      -4.3136      2.00000
     11      -4.1532      2.00000
     12      -3.7712      2.00000
     13      -2.0619      2.00000
     14      -1.8414      2.00000
     15      -1.3887      2.00000
     16      -1.2460      2.00000
     17      -0.9373      2.00000
     18      -0.4986      2.00000
     19      -0.3570      2.00000
     20      -0.1479      2.00000
     21       0.0865      2.00000
     22       0.4553      2.00000
     23       0.7415      2.00000
     24       0.9065      2.00000
     25       9.2309      0.00000
     26      10.0932      0.00000
     27      10.5332      0.00000
     28      10.9551      0.00000
     29      11.5997      0.00000

 k-point    54 :       0.3333   -0.3333    0.4000
  band No.  band energies     occupation 
      1     -17.8819      2.00000
      2     -17.5257      2.00000
      3     -16.6756      2.00000
      4     -16.2468      2.00000
      5     -16.1880      2.00000
      6     -16.1691      2.00000
      7      -7.5456      2.00000
      8      -5.9395      2.00000
      9      -5.2269      2.00000
     10      -4.3358      2.00000
     11      -4.0621      2.00000
     12      -3.7866      2.00000
     13      -2.0830      2.00000
     14      -1.9462      2.00000
     15      -1.3206      2.00000
     16      -1.2565      2.00000
     17      -1.0055      2.00000
     18      -0.4124      2.00000
     19      -0.3018      2.00000
     20      -0.1122      2.00000
     21       0.1317      2.00000
     22       0.3261      2.00000
     23       0.6303      2.00000
     24       0.9787      2.00000
     25       9.3820      0.00000
     26      10.3567      0.00000
     27      10.5574      0.00000
     28      11.0790      0.00000
     29      11.2381      0.00000

 k-point    55 :       0.1667   -0.1667    0.4000
  band No.  band energies     occupation 
      1     -18.0058      2.00000
      2     -17.6718      2.00000
      3     -16.3552      2.00000
      4     -16.2104      2.00000
      5     -16.1817      2.00000
      6     -16.1442      2.00000
      7      -8.0303      2.00000
      8      -5.6366      2.00000
      9      -5.0488      2.00000
     10      -4.4306      2.00000
     11      -4.3453      2.00000
     12      -3.6787      2.00000
     13      -1.9191      2.00000
     14      -1.6412      2.00000
     15      -1.4925      2.00000
     16      -1.1503      2.00000
     17      -0.9764      2.00000
     18      -0.5687      2.00000
     19      -0.4520      2.00000
     20      -0.3473      2.00000
     21      -0.0189      2.00000
     22       0.6501      2.00000
     23       0.8148      2.00000
     24       1.0201      2.00000
     25       8.7484      0.00000
     26       9.8386      0.00000
     27      10.3317      0.00000
     28      10.6883      0.00000
     29      11.2494      0.00000


--------------------------------------------------------------------------------------------------------


 soft charge-density along one line, spin component           1
         0         1         2         3         4         5         6         7         8         9
 total charge-density along one line
 
 pseudopotential strength for first ion, spin component:           1
 18.756   0.002  -0.000   0.000  -0.000  -0.000  -0.000   0.000
  0.002   0.006  -0.000  -0.000   0.000   0.000   0.000  -0.000
 -0.000  -0.000   4.218   0.001  -0.000  -0.003  -0.000   0.000
  0.000  -0.000   0.001   4.218  -0.000  -0.000  -0.003   0.000
 -0.000   0.000  -0.000  -0.000   4.218   0.000   0.000  -0.003
 -0.000   0.000  -0.003  -0.000   0.000   0.005   0.000  -0.000
 -0.000   0.000  -0.000  -0.003   0.000   0.000   0.005  -0.000
  0.000  -0.000   0.000   0.000  -0.003  -0.000  -0.000   0.005
 total augmentation occupancy for first ion, spin component:           1
  1.167  -1.629   0.000   0.000  -0.005  -0.000  -0.000   0.025
 -1.629   3.556  -0.000  -0.000   0.040   0.000   0.000  -0.082
  0.000  -0.000   1.030   0.016  -0.000  -1.185  -0.026   0.000
  0.000  -0.000   0.016   1.001  -0.000  -0.025  -1.174   0.000
 -0.005   0.040  -0.000  -0.000   0.973   0.000   0.000  -1.172
 -0.000   0.000  -1.185  -0.025   0.000   1.687   0.052  -0.000
 -0.000   0.000  -0.026  -1.174   0.000   0.052   1.676  -0.000
  0.025  -0.082   0.000   0.000  -1.172  -0.000  -0.000   1.681


------------------------ aborting loop because EDIFF is reached ----------------------------------------


    CHARGE:  cpu time    0.8989: real time    0.8996
    FORLOC:  cpu time    0.0280: real time    0.0273
    FORNL :  cpu time    3.8024: real time    3.8116
    STRESS:  cpu time   11.9342: real time   11.9317
    FORCOR:  cpu time    0.2280: real time    0.2273
    FORHAR:  cpu time    0.0590: real time    0.0595
    MIXING:  cpu time    0.0090: real time    0.0084
    OFIELD:  cpu time    0.0000: real time    0.0000

  FORCE on cell =-STRESS in cart. coord.  units (eV):
  Direction    XX          YY          ZZ          XY          YZ          ZX
  --------------------------------------------------------------------------------------
  Alpha Z    69.72803    69.72803    69.72803
  Ewald    -646.24789  -646.25516  -594.70673    -0.00630     0.00069    -0.00119
  Hartree   347.20387   347.20345   377.17179    -0.00036     0.00077    -0.00134
  E(xc)    -225.66116  -225.66114  -225.59905     0.00002    -0.00000     0.00000
  Local    -418.58385  -418.57744  -499.40884     0.00556    -0.00161     0.00279
  n-local   -50.85129   -50.96299   -50.84275     0.03121    -0.04247    -0.02500
  augment    27.13708    27.13731    27.03970     0.00020     0.00002    -0.00003
  Kinetic   903.06408   903.60325   901.52951    -0.15495     0.03045     0.01704
  Fock        0.00000     0.00000     0.00000     0.00000     0.00000     0.00000
  -------------------------------------------------------------------------------------
  Total       6.00262     6.00153     4.91164    -0.00094     0.00008    -0.00014
  in kB      85.09363    85.07831    69.62790    -0.01327     0.00111    -0.00193
  external pressure =       79.93 kB  Pullay stress =        0.00 kB


 VOLUME and BASIS-vectors are now :
 -----------------------------------------------------------------------------
  energy-cutoff  :      750.00
  volume of cell :      113.02
      direct lattice vectors                 reciprocal lattice vectors
     4.913700000  0.000000000  0.000000000     0.203512628  0.117498070  0.000000000
    -2.456850000  4.255389030  0.000000000     0.000000000  0.234996141  0.000000000
     0.000000000  0.000000000  5.405130000     0.000000000  0.000000000  0.185009426

  length of vectors
     4.913700000  4.913700003  5.405130000     0.234996141  0.234996141  0.185009426


 FORCES acting on ions
    electron-ion (+dipol)            ewald-force                    non-local-force                 convergence-correction
 -----------------------------------------------------------------------------------------------
   -.120E+01 0.448E-02 -.553E-03   0.812E+00 -.379E-02 0.176E-03   0.783E+00 -.109E-02 -.164E-03   0.275E-03 -.151E-04 0.240E-04
   0.602E+00 -.103E+01 0.553E-03   -.410E+00 0.702E+00 -.176E-03   -.392E+00 0.677E+00 0.164E-03   -.151E-03 0.231E-03 -.240E-04
   0.600E+00 0.104E+01 0.251E-06   -.408E+00 -.706E+00 -.197E-06   -.392E+00 -.679E+00 0.000E+00   -.961E-04 -.167E-03 0.174E-11
   0.723E+02 0.723E+01 0.302E+02   -.907E+02 -.616E+01 -.401E+02   0.179E+02 -.781E+00 0.993E+01   0.335E-02 0.750E-03 0.135E-02
   -.424E+02 0.590E+02 0.302E+02   0.507E+02 -.755E+02 -.401E+02   -.826E+01 0.159E+02 0.993E+01   -.234E-02 0.247E-02 0.139E-02
   -.299E+02 -.662E+02 0.302E+02   0.400E+02 0.816E+02 -.401E+02   -.961E+01 -.151E+02 0.993E+01   -.913E-03 -.325E-02 0.138E-02
   0.723E+02 -.723E+01 -.302E+02   -.907E+02 0.616E+01 0.401E+02   0.179E+02 0.781E+00 -.993E+01   0.331E-02 -.793E-03 -.139E-02
   -.299E+02 0.662E+02 -.302E+02   0.400E+02 -.816E+02 0.401E+02   -.961E+01 0.151E+02 -.993E+01   -.103E-02 0.328E-02 -.135E-02
   -.424E+02 -.590E+02 -.302E+02   0.507E+02 0.755E+02 0.401E+02   -.826E+01 -.159E+02 -.993E+01   -.236E-02 -.242E-02 -.138E-02
 -----------------------------------------------------------------------------------------------
   0.259E-02 0.449E-02 0.168E-06   -.711E-14 -.142E-13 0.000E+00   -.266E-02 -.461E-02 0.000E+00   0.527E-04 0.912E-04 0.365E-13
 
 
 POSITION                                       TOTAL-FORCE (eV/Angst)
 -----------------------------------------------------------------------------------
      2.30846      0.00000      3.60344         0.399396     -0.000413     -0.000517
     -1.15423      1.99918      1.80169        -0.200055      0.345680      0.000517
      1.30262      2.25621      0.00000        -0.199904     -0.346244      0.000000
      1.38272      1.13278      4.24627        -0.523628      0.293723      0.066188
      3.24132      0.63107      2.44458         0.007628     -0.599699      0.065845
      2.74651      2.49153      0.64283         0.516256      0.306479      0.066098
     -1.07413      3.12260      2.96055        -0.523169     -0.293243     -0.065845
      0.28966      1.76386      1.15886         0.516186     -0.306614     -0.066188
      0.78447      3.62431      4.76230         0.007290      0.600330     -0.066098
 -----------------------------------------------------------------------------------
    total drift:                               -0.000015     -0.000027      0.000000


--------------------------------------------------------------------------------------------------------



  FREE ENERGIE OF THE ION-ELECTRON SYSTEM (eV)
  ---------------------------------------------------
  free  energy   TOTEN  =       -71.05154244 eV

  energy  without entropy=      -71.05154244  energy(sigma->0) =      -71.05154244
 


--------------------------------------------------------------------------------------------------------


    POTLOK:  cpu time    0.2440: real time    0.2440


--------------------------------------------------------------------------------------------------------


     LOOP+:  cpu time  190.9990: real time  192.1340
    4ORBIT:  cpu time    0.0000: real time    0.0003
 BZINTS: Fermi energy:  1.166791; 48.000000 electrons
         Band energy:-275.946485;  BLOECHL correction:  0.000000

 total amount of memory used by VASP on root node   204590. kBytes
========================================================================

   base      :      30000. kBytes
   nonlr-proj:       1360. kBytes
   fftplans  :      13060. kBytes
   grid      :      23203. kBytes
   one-center:         27. kBytes
   wavefun   :     136940. kBytes
 
  
  
 General timing and accounting informations for this job:
 ========================================================
  
                  Total CPU time used (sec):      194.145
                            User time (sec):      193.854
                          System time (sec):        0.292
                         Elapsed time (sec):      196.662
  
                   Maximum memory used (kb):      225724.
                   Average memory used (kb):           0.
  
                          Minor page faults:       106294
                          Major page faults:           77
                 Voluntary context switches:         1798
