<?xml version="1.0" encoding="ISO-8859-1"?>
<modeling>
 <generator>
  <i name="program" type="string">vasp </i>
  <i name="version" type="string">5.4.1  </i>
  <i name="subversion" type="string">05Feb16 (build Mar 02 2016 14:09:44) complex                          parallel </i>
  <i name="platform" type="string">Abel-impi-ifc-cuda </i>
  <i name="date" type="string">2019 09 13 </i>
  <i name="time" type="string">10:17:07 </i>
 </generator>
 <incar>
  <i type="string" name="PREC">normal    ! low/normal/accurate</i>
  <i type="string" name="ALGO"> Fast      ! Algorithm for electronic re</i>
  <i type="int" name="ISPIN">     1</i>
  <i type="int" name="NELMIN">     4</i>
  <i name="EDIFF">      0.00001000</i>
  <i type="int" name="NSW">     0</i>
  <i name="ENCUT">    750.00000000</i>
  <i type="string" name="LREAL"> Auto      ! Projection in reciprocal sp</i>
  <i type="int" name="ISMEAR">    -5</i>
  <i name="SIGMA">      0.20000000</i>
  <i type="logical" name="LWAVE"> F  </i>
  <v type="int" name="KPOINT_BSE">    -1     0     0     0</v>
 </incar>
 <kpoints>
  <generation param="Gamma">
   <v type="int" name="divisions">       6        6        5 </v>
   <v name="usershift">      0.00000000       0.00000000       0.00000000 </v>
   <v name="genvec1">      0.16666667       0.00000000       0.00000000 </v>
   <v name="genvec2">      0.00000000       0.16666667       0.00000000 </v>
   <v name="genvec3">      0.00000000       0.00000000       0.20000000 </v>
   <v name="shift">      0.00000000       0.00000000       0.00000000 </v>
  </generation>
  <varray name="kpointlist" >
   <v>       0.00000000       0.00000000       0.00000000 </v>
   <v>       0.16666667       0.00000000       0.00000000 </v>
   <v>       0.33333333       0.00000000       0.00000000 </v>
   <v>       0.50000000       0.00000000       0.00000000 </v>
   <v>       0.16666667       0.16666667       0.00000000 </v>
   <v>       0.33333333       0.16666667       0.00000000 </v>
   <v>       0.50000000       0.16666667       0.00000000 </v>
   <v>      -0.33333333       0.16666667       0.00000000 </v>
   <v>      -0.16666667       0.16666667       0.00000000 </v>
   <v>       0.33333333       0.33333333       0.00000000 </v>
   <v>       0.50000000       0.33333333       0.00000000 </v>
   <v>      -0.33333333       0.33333333       0.00000000 </v>
   <v>       0.50000000       0.50000000       0.00000000 </v>
   <v>       0.00000000       0.00000000       0.20000000 </v>
   <v>       0.16666667       0.00000000       0.20000000 </v>
   <v>       0.33333333       0.00000000       0.20000000 </v>
   <v>       0.50000000       0.00000000       0.20000000 </v>
   <v>      -0.33333333       0.00000000       0.20000000 </v>
   <v>      -0.16666667       0.00000000       0.20000000 </v>
   <v>       0.16666667       0.16666667       0.20000000 </v>
   <v>       0.33333333       0.16666667       0.20000000 </v>
   <v>       0.50000000       0.16666667       0.20000000 </v>
   <v>      -0.33333333       0.16666667       0.20000000 </v>
   <v>      -0.16666667       0.16666667       0.20000000 </v>
   <v>       0.16666667       0.33333333       0.20000000 </v>
   <v>       0.33333333       0.33333333       0.20000000 </v>
   <v>       0.50000000       0.33333333       0.20000000 </v>
   <v>      -0.33333333       0.33333333       0.20000000 </v>
   <v>       0.16666667       0.50000000       0.20000000 </v>
   <v>       0.33333333       0.50000000       0.20000000 </v>
   <v>       0.50000000       0.50000000       0.20000000 </v>
   <v>       0.16666667      -0.33333333       0.20000000 </v>
   <v>       0.33333333      -0.33333333       0.20000000 </v>
   <v>       0.16666667      -0.16666667       0.20000000 </v>
   <v>       0.00000000       0.00000000       0.40000000 </v>
   <v>       0.16666667       0.00000000       0.40000000 </v>
   <v>       0.33333333       0.00000000       0.40000000 </v>
   <v>       0.50000000       0.00000000       0.40000000 </v>
   <v>      -0.33333333       0.00000000       0.40000000 </v>
   <v>      -0.16666667       0.00000000       0.40000000 </v>
   <v>       0.16666667       0.16666667       0.40000000 </v>
   <v>       0.33333333       0.16666667       0.40000000 </v>
   <v>       0.50000000       0.16666667       0.40000000 </v>
   <v>      -0.33333333       0.16666667       0.40000000 </v>
   <v>      -0.16666667       0.16666667       0.40000000 </v>
   <v>       0.16666667       0.33333333       0.40000000 </v>
   <v>       0.33333333       0.33333333       0.40000000 </v>
   <v>       0.50000000       0.33333333       0.40000000 </v>
   <v>      -0.33333333       0.33333333       0.40000000 </v>
   <v>       0.16666667       0.50000000       0.40000000 </v>
   <v>       0.33333333       0.50000000       0.40000000 </v>
   <v>       0.50000000       0.50000000       0.40000000 </v>
   <v>       0.16666667      -0.33333333       0.40000000 </v>
   <v>       0.33333333      -0.33333333       0.40000000 </v>
   <v>       0.16666667      -0.16666667       0.40000000 </v>
  </varray>
  <varray name="weights" >
   <v>       0.00555556 </v>
   <v>       0.02222222 </v>
   <v>       0.02222222 </v>
   <v>       0.01111111 </v>
   <v>       0.01111111 </v>
   <v>       0.02222222 </v>
   <v>       0.02222222 </v>
   <v>       0.02222222 </v>
   <v>       0.01111111 </v>
   <v>       0.01111111 </v>
   <v>       0.02222222 </v>
   <v>       0.01111111 </v>
   <v>       0.00555556 </v>
   <v>       0.01111111 </v>
   <v>       0.02222222 </v>
   <v>       0.02222222 </v>
   <v>       0.02222222 </v>
   <v>       0.02222222 </v>
   <v>       0.02222222 </v>
   <v>       0.02222222 </v>
   <v>       0.02222222 </v>
   <v>       0.02222222 </v>
   <v>       0.02222222 </v>
   <v>       0.01111111 </v>
   <v>       0.02222222 </v>
   <v>       0.02222222 </v>
   <v>       0.02222222 </v>
   <v>       0.01111111 </v>
   <v>       0.02222222 </v>
   <v>       0.02222222 </v>
   <v>       0.01111111 </v>
   <v>       0.02222222 </v>
   <v>       0.01111111 </v>
   <v>       0.01111111 </v>
   <v>       0.01111111 </v>
   <v>       0.02222222 </v>
   <v>       0.02222222 </v>
   <v>       0.02222222 </v>
   <v>       0.02222222 </v>
   <v>       0.02222222 </v>
   <v>       0.02222222 </v>
   <v>       0.02222222 </v>
   <v>       0.02222222 </v>
   <v>       0.02222222 </v>
   <v>       0.01111111 </v>
   <v>       0.02222222 </v>
   <v>       0.02222222 </v>
   <v>       0.02222222 </v>
   <v>       0.01111111 </v>
   <v>       0.02222222 </v>
   <v>       0.02222222 </v>
   <v>       0.01111111 </v>
   <v>       0.02222222 </v>
   <v>       0.01111111 </v>
   <v>       0.01111111 </v>
  </varray>
  <varray name="tetrahedronlist"  type="int" >
   <v type="int" >        4        2        2        5       19 </v>
   <v type="int" >        4        1        2        2       19 </v>
   <v type="int" >        4        1        2       14       19 </v>
   <v type="int" >        4        2        5       19       20 </v>
   <v type="int" >        4        2       15       19       20 </v>
   <v type="int" >        4        2       14       15       19 </v>
   <v type="int" >        4        3        5        6       20 </v>
   <v type="int" >        4        2        3        5       20 </v>
   <v type="int" >        4        2        3       15       20 </v>
   <v type="int" >        4        3        6       20       21 </v>
   <v type="int" >        4        3       16       20       21 </v>
   <v type="int" >        4        3       15       16       20 </v>
   <v type="int" >        4        4        6        7       21 </v>
   <v type="int" >        4        3        4        6       21 </v>
   <v type="int" >        4        3        4       16       21 </v>
   <v type="int" >        4        4        7       21       22 </v>
   <v type="int" >        4        4       17       21       22 </v>
   <v type="int" >        4        4       16       17       21 </v>
   <v type="int" >        4        3        7        8       22 </v>
   <v type="int" >        4        3        4        7       22 </v>
   <v type="int" >        4        3        4       17       22 </v>
   <v type="int" >        4        3        8       22       23 </v>
   <v type="int" >        4        3       18       22       23 </v>
   <v type="int" >        4        3       17       18       22 </v>
   <v type="int" >        4        2        8        9       23 </v>
   <v type="int" >        4        2        3        8       23 </v>
   <v type="int" >        4        2        3       18       23 </v>
   <v type="int" >        4        2        9       23       24 </v>
   <v type="int" >        4        2       19       23       24 </v>
   <v type="int" >        4        2       18       19       23 </v>
   <v type="int" >        4        1        2        9       24 </v>
   <v type="int" >        4        1        2       19       24 </v>
   <v type="int" >        4        1       14       19       24 </v>
   <v type="int" >        4        3        5        6       18 </v>
   <v type="int" >        4        2        3        5       18 </v>
   <v type="int" >        4        2        5       18       19 </v>
   <v type="int" >        4        5        6       18       25 </v>
   <v type="int" >        4        5       18       20       25 </v>
   <v type="int" >        4        5       18       19       20 </v>
   <v type="int" >        4        6        6       10       25 </v>
   <v type="int" >        4        5        6        6       25 </v>
   <v type="int" >        4        5        6       20       25 </v>
   <v type="int" >        4        6       10       25       26 </v>
   <v type="int" >        4        6       21       25       26 </v>
   <v type="int" >        4        6       20       21       25 </v>
   <v type="int" >        4        7       10       11       26 </v>
   <v type="int" >        4        6        7       10       26 </v>
   <v type="int" >        4        6        7       21       26 </v>
   <v type="int" >        4        7       11       26       27 </v>
   <v type="int" >        4        7       22       26       27 </v>
   <v type="int" >        4        7       21       22       26 </v>
   <v type="int" >        4        8       11       12       27 </v>
   <v type="int" >        4        7        8       11       27 </v>
   <v type="int" >        4        7        8       22       27 </v>
   <v type="int" >        4        8       12       27       28 </v>
   <v type="int" >        4        8       23       27       28 </v>
   <v type="int" >        4        8       22       23       27 </v>
   <v type="int" >        4        8        9       12       28 </v>
   <v type="int" >        4        8        9       23       28 </v>
   <v type="int" >        4        9       23       24       28 </v>
   <v type="int" >        4        4        6        7       17 </v>
   <v type="int" >        4        3        4        6       17 </v>
   <v type="int" >        4        3        6       17       18 </v>
   <v type="int" >        4        6        7       17       29 </v>
   <v type="int" >        4        6       17       25       29 </v>
   <v type="int" >        4        6       17       18       25 </v>
   <v type="int" >        4        7       10       11       29 </v>
   <v type="int" >        4        6        7       10       29 </v>
   <v type="int" >        4        6       10       25       29 </v>
   <v type="int" >        4       10       11       29       30 </v>
   <v type="int" >        4       10       26       29       30 </v>
   <v type="int" >        4       10       25       26       29 </v>
   <v type="int" >        4       11       11       13       30 </v>
   <v type="int" >        4       10       11       11       30 </v>
   <v type="int" >        4       10       11       26       30 </v>
   <v type="int" >        4       11       13       30       31 </v>
   <v type="int" >        4       11       27       30       31 </v>
   <v type="int" >        4       11       26       27       30 </v>
   <v type="int" >        4       11       12       13       31 </v>
   <v type="int" >        4       11       12       27       31 </v>
   <v type="int" >        4       12       27       28       31 </v>
   <v type="int" >        4        3        7        8       16 </v>
   <v type="int" >        4        3        4        7       16 </v>
   <v type="int" >        4        4        7       16       17 </v>
   <v type="int" >        4        7        8       16       32 </v>
   <v type="int" >        4        7       16       29       32 </v>
   <v type="int" >        4        7       16       17       29 </v>
   <v type="int" >        4        8       11       12       32 </v>
   <v type="int" >        4        7        8       11       32 </v>
   <v type="int" >        4        7       11       29       32 </v>
   <v type="int" >        4       11       12       32       33 </v>
   <v type="int" >        4       11       30       32       33 </v>
   <v type="int" >        4       11       29       30       32 </v>
   <v type="int" >        4       11       12       13       33 </v>
   <v type="int" >        4       11       13       30       33 </v>
   <v type="int" >        4       13       30       31       33 </v>
   <v type="int" >        4        2        8        9       15 </v>
   <v type="int" >        4        2        3        8       15 </v>
   <v type="int" >        4        3        8       15       16 </v>
   <v type="int" >        4        8        9       15       34 </v>
   <v type="int" >        4        8       15       32       34 </v>
   <v type="int" >        4        8       15       16       32 </v>
   <v type="int" >        4        8        9       12       34 </v>
   <v type="int" >        4        8       12       32       34 </v>
   <v type="int" >        4       12       32       33       34 </v>
   <v type="int" >        4        1        2        9       14 </v>
   <v type="int" >        4        2        9       14       15 </v>
   <v type="int" >        4        9       14       15       34 </v>
   <v type="int" >        4       15       19       20       40 </v>
   <v type="int" >        4       14       15       19       40 </v>
   <v type="int" >        4       14       15       35       40 </v>
   <v type="int" >        4       15       20       40       41 </v>
   <v type="int" >        4       15       36       40       41 </v>
   <v type="int" >        4       15       35       36       40 </v>
   <v type="int" >        4       16       20       21       41 </v>
   <v type="int" >        4       15       16       20       41 </v>
   <v type="int" >        4       15       16       36       41 </v>
   <v type="int" >        4       16       21       41       42 </v>
   <v type="int" >        4       16       37       41       42 </v>
   <v type="int" >        4       16       36       37       41 </v>
   <v type="int" >        4       17       21       22       42 </v>
   <v type="int" >        4       16       17       21       42 </v>
   <v type="int" >        4       16       17       37       42 </v>
   <v type="int" >        4       17       22       42       43 </v>
   <v type="int" >        4       17       38       42       43 </v>
   <v type="int" >        4       17       37       38       42 </v>
   <v type="int" >        4       18       22       23       43 </v>
   <v type="int" >        4       17       18       22       43 </v>
   <v type="int" >        4       17       18       38       43 </v>
   <v type="int" >        4       18       23       43       44 </v>
   <v type="int" >        4       18       39       43       44 </v>
   <v type="int" >        4       18       38       39       43 </v>
   <v type="int" >        4       19       23       24       44 </v>
   <v type="int" >        4       18       19       23       44 </v>
   <v type="int" >        4       18       19       39       44 </v>
   <v type="int" >        4       19       24       44       45 </v>
   <v type="int" >        4       19       40       44       45 </v>
   <v type="int" >        4       19       39       40       44 </v>
   <v type="int" >        4       14       19       24       45 </v>
   <v type="int" >        4       14       19       40       45 </v>
   <v type="int" >        4       14       35       40       45 </v>
   <v type="int" >        4       18       20       25       39 </v>
   <v type="int" >        4       18       19       20       39 </v>
   <v type="int" >        4       19       20       39       40 </v>
   <v type="int" >        4       20       25       39       46 </v>
   <v type="int" >        4       20       39       41       46 </v>
   <v type="int" >        4       20       39       40       41 </v>
   <v type="int" >        4       21       25       26       46 </v>
   <v type="int" >        4       20       21       25       46 </v>
   <v type="int" >        4       20       21       41       46 </v>
   <v type="int" >        4       21       26       46       47 </v>
   <v type="int" >        4       21       42       46       47 </v>
   <v type="int" >        4       21       41       42       46 </v>
   <v type="int" >        4       22       26       27       47 </v>
   <v type="int" >        4       21       22       26       47 </v>
   <v type="int" >        4       21       22       42       47 </v>
   <v type="int" >        4       22       27       47       48 </v>
   <v type="int" >        4       22       43       47       48 </v>
   <v type="int" >        4       22       42       43       47 </v>
   <v type="int" >        4       23       27       28       48 </v>
   <v type="int" >        4       22       23       27       48 </v>
   <v type="int" >        4       22       23       43       48 </v>
   <v type="int" >        4       23       28       48       49 </v>
   <v type="int" >        4       23       44       48       49 </v>
   <v type="int" >        4       23       43       44       48 </v>
   <v type="int" >        4       23       24       28       49 </v>
   <v type="int" >        4       23       24       44       49 </v>
   <v type="int" >        4       24       44       45       49 </v>
   <v type="int" >        4       17       25       29       38 </v>
   <v type="int" >        4       17       18       25       38 </v>
   <v type="int" >        4       18       25       38       39 </v>
   <v type="int" >        4       25       29       38       50 </v>
   <v type="int" >        4       25       38       46       50 </v>
   <v type="int" >        4       25       38       39       46 </v>
   <v type="int" >        4       26       29       30       50 </v>
   <v type="int" >        4       25       26       29       50 </v>
   <v type="int" >        4       25       26       46       50 </v>
   <v type="int" >        4       26       30       50       51 </v>
   <v type="int" >        4       26       47       50       51 </v>
   <v type="int" >        4       26       46       47       50 </v>
   <v type="int" >        4       27       30       31       51 </v>
   <v type="int" >        4       26       27       30       51 </v>
   <v type="int" >        4       26       27       47       51 </v>
   <v type="int" >        4       27       31       51       52 </v>
   <v type="int" >        4       27       48       51       52 </v>
   <v type="int" >        4       27       47       48       51 </v>
   <v type="int" >        4       27       28       31       52 </v>
   <v type="int" >        4       27       28       48       52 </v>
   <v type="int" >        4       28       48       49       52 </v>
   <v type="int" >        4       16       29       32       37 </v>
   <v type="int" >        4       16       17       29       37 </v>
   <v type="int" >        4       17       29       37       38 </v>
   <v type="int" >        4       29       32       37       53 </v>
   <v type="int" >        4       29       37       50       53 </v>
   <v type="int" >        4       29       37       38       50 </v>
   <v type="int" >        4       30       32       33       53 </v>
   <v type="int" >        4       29       30       32       53 </v>
   <v type="int" >        4       29       30       50       53 </v>
   <v type="int" >        4       30       33       53       54 </v>
   <v type="int" >        4       30       51       53       54 </v>
   <v type="int" >        4       30       50       51       53 </v>
   <v type="int" >        4       30       31       33       54 </v>
   <v type="int" >        4       30       31       51       54 </v>
   <v type="int" >        4       31       51       52       54 </v>
   <v type="int" >        4       15       32       34       36 </v>
   <v type="int" >        4       15       16       32       36 </v>
   <v type="int" >        4       16       32       36       37 </v>
   <v type="int" >        4       32       34       36       55 </v>
   <v type="int" >        4       32       36       53       55 </v>
   <v type="int" >        4       32       36       37       53 </v>
   <v type="int" >        4       32       33       34       55 </v>
   <v type="int" >        4       32       33       53       55 </v>
   <v type="int" >        4       33       53       54       55 </v>
   <v type="int" >        4       14       15       34       35 </v>
   <v type="int" >        4       15       34       35       36 </v>
   <v type="int" >        4       34       35       36       55 </v>
   <v type="int" >        4       36       36       40       41 </v>
   <v type="int" >        4       35       36       36       40 </v>
   <v type="int" >        2       35       35       36       36 </v>
   <v type="int" >        2       36       36       41       41 </v>
   <v type="int" >        4       37       41       41       42 </v>
   <v type="int" >        4       36       37       41       41 </v>
   <v type="int" >        4       36       37       40       41 </v>
   <v type="int" >        4       37       41       42       46 </v>
   <v type="int" >        4       37       39       41       46 </v>
   <v type="int" >        4       37       39       40       41 </v>
   <v type="int" >        4       38       42       43       46 </v>
   <v type="int" >        4       37       38       42       46 </v>
   <v type="int" >        4       37       38       39       46 </v>
   <v type="int" >        4       38       43       46       50 </v>
   <v type="int" >        4       38       38       46       50 </v>
   <v type="int" >        4       38       38       39       46 </v>
   <v type="int" >        4       39       43       44       50 </v>
   <v type="int" >        4       38       39       43       50 </v>
   <v type="int" >        4       38       38       39       50 </v>
   <v type="int" >        4       39       44       50       53 </v>
   <v type="int" >        4       37       39       50       53 </v>
   <v type="int" >        4       37       38       39       50 </v>
   <v type="int" >        4       40       44       45       53 </v>
   <v type="int" >        4       39       40       44       53 </v>
   <v type="int" >        4       37       39       40       53 </v>
   <v type="int" >        4       40       45       53       55 </v>
   <v type="int" >        4       36       40       53       55 </v>
   <v type="int" >        4       36       37       40       53 </v>
   <v type="int" >        4       35       40       45       55 </v>
   <v type="int" >        4       35       36       40       55 </v>
   <v type="int" >        4       35       35       36       55 </v>
   <v type="int" >        4       42       42       46       47 </v>
   <v type="int" >        4       41       42       42       46 </v>
   <v type="int" >        2       41       41       42       42 </v>
   <v type="int" >        2       42       42       47       47 </v>
   <v type="int" >        4       43       47       47       48 </v>
   <v type="int" >        4       42       43       47       47 </v>
   <v type="int" >        4       42       43       46       47 </v>
   <v type="int" >        4       43       47       48       51 </v>
   <v type="int" >        4       43       47       50       51 </v>
   <v type="int" >        4       43       46       47       50 </v>
   <v type="int" >        4       44       48       49       51 </v>
   <v type="int" >        4       43       44       48       51 </v>
   <v type="int" >        4       43       44       50       51 </v>
   <v type="int" >        4       44       49       51       54 </v>
   <v type="int" >        4       44       51       53       54 </v>
   <v type="int" >        4       44       50       51       53 </v>
   <v type="int" >        4       44       45       49       54 </v>
   <v type="int" >        4       44       45       53       54 </v>
   <v type="int" >        4       45       53       54       55 </v>
   <v type="int" >        4       48       48       51       52 </v>
   <v type="int" >        4       47       48       48       51 </v>
   <v type="int" >        2       47       47       48       48 </v>
   <v type="int" >        2       48       48       52       52 </v>
   <v type="int" >        4       48       49       52       52 </v>
   <v type="int" >        4       48       49       51       52 </v>
   <v type="int" >        4       49       51       52       54 </v>
  </varray>
  <i name="volumeweight">      0.00092593 </i>
 </kpoints>
 <parameters>
  <separator name="general" >
   <i type="string" name="SYSTEM">unknown system</i>
   <i type="logical" name="LCOMPAT"> F  </i>
  </separator>
  <separator name="electronic" >
   <i type="string" name="PREC">normal</i>
   <i name="ENMAX">    750.00000000</i>
   <i name="ENAUG">    605.39200000</i>
   <i name="EDIFF">      0.00001000</i>
   <i type="int" name="IALGO">    68</i>
   <i type="int" name="IWAVPR">    10</i>
   <i type="int" name="NBANDS">    29</i>
   <i name="NELECT">     48.00000000</i>
   <i type="int" name="TURBO">     0</i>
   <i type="int" name="IRESTART">     0</i>
   <i type="int" name="NREBOOT">     0</i>
   <i type="int" name="NMIN">     0</i>
   <i name="EREF">      0.00000000</i>
   <separator name="electronic smearing" >
    <i type="int" name="ISMEAR">    -5</i>
    <i name="SIGMA">      0.20000000</i>
    <i name="KSPACING">      0.50000000</i>
    <i type="logical" name="KGAMMA"> T  </i>
   </separator>
   <separator name="electronic projectors" >
    <i type="logical" name="LREAL"> T  </i>
    <v name="ROPT">     -0.00050000     -0.00050000</v>
    <i type="int" name="LMAXPAW">  -100</i>
    <i type="int" name="LMAXMIX">     2</i>
    <i type="logical" name="NLSPLINE"> F  </i>
   </separator>
   <separator name="electronic startup" >
    <i type="int" name="ISTART">     0</i>
    <i type="int" name="ICHARG">     2</i>
    <i type="int" name="INIWAV">     1</i>
   </separator>
   <separator name="electronic spin" >
    <i type="int" name="ISPIN">     1</i>
    <i type="logical" name="LNONCOLLINEAR"> F  </i>
    <v name="MAGMOM">      1.00000000      1.00000000      1.00000000      1.00000000      1.00000000      1.00000000      1.00000000      1.00000000      1.00000000</v>
    <i name="NUPDOWN">     -1.00000000</i>
    <i type="logical" name="LSORBIT"> F  </i>
    <v name="SAXIS">      0.00000000      0.00000000      1.00000000</v>
    <i type="logical" name="LSPIRAL"> F  </i>
    <v name="QSPIRAL">      0.00000000      0.00000000      0.00000000</v>
    <i type="logical" name="LZEROZ"> F  </i>
   </separator>
   <separator name="electronic exchange-correlation" >
    <i type="logical" name="LASPH"> F  </i>
    <i type="logical" name="LMETAGGA"> F  </i>
   </separator>
   <separator name="electronic convergence" >
    <i type="int" name="NELM">    60</i>
    <i type="int" name="NELMDL">    -5</i>
    <i type="int" name="NELMIN">     4</i>
    <i name="ENINI">    750.00000000</i>
    <separator name="electronic convergence detail" >
     <i type="logical" name="LDIAG"> T  </i>
     <i type="logical" name="LSUBROT"> F  </i>
     <i name="WEIMIN">      0.00000000</i>
     <i name="EBREAK">      0.00000009</i>
     <i name="DEPER">      0.30000000</i>
     <i type="int" name="NRMM">     4</i>
     <i name="TIME">      0.40000000</i>
    </separator>
   </separator>
   <separator name="electronic mixer" >
    <i name="AMIX">      0.40000000</i>
    <i name="BMIX">      1.00000000</i>
    <i name="AMIN">      0.10000000</i>
    <i name="AMIX_MAG">      1.60000000</i>
    <i name="BMIX_MAG">      1.00000000</i>
    <separator name="electronic mixer details" >
     <i type="int" name="IMIX">     4</i>
     <i type="logical" name="MIXFIRST"> F  </i>
     <i type="int" name="MAXMIX">   -45</i>
     <i name="WC">    100.00000000</i>
     <i type="int" name="INIMIX">     1</i>
     <i type="int" name="MIXPRE">     1</i>
     <i type="int" name="MREMOVE">     5</i>
    </separator>
   </separator>
   <separator name="electronic dipolcorrection" >
    <i type="logical" name="LDIPOL"> F  </i>
    <i type="logical" name="LMONO"> F  </i>
    <i type="int" name="IDIPOL">     0</i>
    <i name="EPSILON">      1.00000000</i>
    <v name="DIPOL">   -100.00000000   -100.00000000   -100.00000000</v>
    <i name="EFIELD">      0.00000000</i>
   </separator>
  </separator>
  <separator name="grids" >
   <i type="int" name="NGX">    36</i>
   <i type="int" name="NGY">    36</i>
   <i type="int" name="NGZ">    36</i>
   <i type="int" name="NGXF">    72</i>
   <i type="int" name="NGYF">    72</i>
   <i type="int" name="NGZF">    72</i>
   <i type="logical" name="ADDGRID"> F  </i>
  </separator>
  <separator name="ionic" >
   <i type="int" name="NSW">     0</i>
   <i type="int" name="IBRION">    -1</i>
   <i type="int" name="ISIF">     2</i>
   <i name="PSTRESS">      0.00000000</i>
   <i name="EDIFFG">      0.00010000</i>
   <i type="int" name="NFREE">     0</i>
   <i name="POTIM">      0.50000000</i>
   <i name="SMASS">     -3.00000000</i>
   <i name="SCALEE">      1.00000000</i>
  </separator>
  <separator name="ionic md" >
   <i name="TEBEG">      0.00010000</i>
   <i name="TEEND">      0.00010000</i>
   <i type="int" name="NBLOCK">     1</i>
   <i type="int" name="KBLOCK">     1</i>
   <i type="int" name="NPACO">   256</i>
   <i name="APACO">     16.00000000</i>
  </separator>
  <separator name="symmetry" >
   <i type="int" name="ISYM">     2</i>
   <i name="SYMPREC">      0.00001000</i>
  </separator>
  <separator name="dos" >
   <i type="logical" name="LORBIT"> F  </i>
   <v name="RWIGS">     -1.00000000     -1.00000000</v>
   <i type="int" name="NEDOS">   301</i>
   <i name="EMIN">     10.00000000</i>
   <i name="EMAX">    -10.00000000</i>
   <i name="EFERMI">      0.00000000</i>
  </separator>
  <separator name="writing" >
   <i type="int" name="NWRITE">     2</i>
   <i type="logical" name="LWAVE"> F  </i>
   <i type="logical" name="LCHARG"> T  </i>
   <i type="logical" name="LPARD"> F  </i>
   <i type="logical" name="LVTOT"> F  </i>
   <i type="logical" name="LVHAR"> F  </i>
   <i type="logical" name="LELF"> F  </i>
   <i type="logical" name="LOPTICS"> F  </i>
   <v name="STM">      0.00000000      0.00000000      0.00000000      0.00000000      0.00000000      0.00000000      0.00000000</v>
  </separator>
  <separator name="performance" >
   <i type="int" name="NPAR">     1</i>
   <i type="int" name="NSIM">     4</i>
   <i type="int" name="NBLK">    -1</i>
   <i type="logical" name="LPLANE"> T  </i>
   <i type="logical" name="LSCALAPACK"> F  </i>
   <i type="logical" name="LSCAAWARE"> F  </i>
   <i type="logical" name="LSCALU"> F  </i>
   <i type="logical" name="LASYNC"> F  </i>
   <i type="logical" name="LORBITALREAL"> F  </i>
  </separator>
  <separator name="miscellaneous" >
   <i type="int" name="IDIOT">     3</i>
   <i type="logical" name="LMUSIC"> F  </i>
   <v name="POMASS">     28.08500000     16.00000000</v>
   <v name="DARWINR">      0.00000000      0.00000000</v>
   <v name="DARWINV">      1.00000000      1.00000000</v>
   <i type="logical" name="LCORR"> T  </i>
  </separator>
  <i type="logical" name="GGA_COMPAT"> T  </i>
  <i type="logical" name="LBERRY"> F  </i>
  <i type="int" name="ICORELEVEL">     0</i>
  <i type="logical" name="LDAU"> F  </i>
  <i type="int" name="I_CONSTRAINED_M">     0</i>
  <separator name="electronic exchange-correlation" >
   <i type="string" name="GGA">--</i>
   <i type="int" name="VOSKOWN">     0</i>
   <i type="logical" name="LHFCALC"> F  </i>
   <i type="string" name="PRECFOCK"></i>
   <i type="logical" name="LSYMGRAD"> F  </i>
   <i type="logical" name="LHFONE"> F  </i>
   <i type="logical" name="LRHFCALC"> F  </i>
   <i type="logical" name="LTHOMAS"> F  </i>
   <i type="logical" name="LMODELHF"> F  </i>
   <i name="ENCUT4O">     -1.00000000</i>
   <i type="int" name="EXXOEP">     0</i>
   <i type="int" name="FOURORBIT">     0</i>
   <i name="AEXX">      0.00000000</i>
   <i name="HFALPHA">      0.00000000</i>
   <i name="MCALPHA">      0.00000000</i>
   <i name="ALDAX">      1.00000000</i>
   <i name="AGGAX">      1.00000000</i>
   <i name="ALDAC">      1.00000000</i>
   <i name="AGGAC">      1.00000000</i>
   <i type="int" name="NKREDX">     1</i>
   <i type="int" name="NKREDY">     1</i>
   <i type="int" name="NKREDZ">     1</i>
   <i type="logical" name="SHIFTRED"> F  </i>
   <i type="logical" name="ODDONLY"> F  </i>
   <i type="logical" name="EVENONLY"> F  </i>
   <i type="int" name="LMAXFOCK">     0</i>
   <i type="int" name="NMAXFOCKAE">     0</i>
   <i type="logical" name="LFOCKAEDFT"> F  </i>
   <i name="HFSCREEN">      0.00000000</i>
   <i name="HFSCREENC">      0.00000000</i>
   <i type="int" name="NBANDSGWLOW">     0</i>
  </separator>
  <separator name="vdW DFT" >
   <i type="logical" name="LUSE_VDW"> F  </i>
   <i name="Zab_VDW">     -0.84910000</i>
   <i name="PARAM1">      0.12340000</i>
   <i name="PARAM2">      1.00000000</i>
   <i name="PARAM3">      0.00000000</i>
  </separator>
  <separator name="model GW" >
   <i type="int" name="MODEL_GW">     0</i>
   <i name="MODEL_EPS0">      7.53464495</i>
   <i name="MODEL_ALPHA">      1.00000000</i>
  </separator>
  <separator name="linear response parameters" >
   <i type="logical" name="LEPSILON"> F  </i>
   <i type="logical" name="LRPA"> F  </i>
   <i type="logical" name="LNABLA"> F  </i>
   <i type="logical" name="LVEL"> F  </i>
   <i type="int" name="KINTER">     0</i>
   <i name="CSHIFT">      0.10000000</i>
   <i name="OMEGAMAX">     -1.00000000</i>
   <i name="DEG_THRESHOLD">      0.00200000</i>
  </separator>
  <separator name="orbital magnetization" >
   <i type="logical" name="NUCIND"> F  </i>
   <v name="MAGPOS">      0.00000000      0.00000000      0.00000000</v>
   <i type="logical" name="LNICSALL"> T  </i>
   <i type="logical" name="ORBITALMAG"> F  </i>
   <i type="logical" name="LMAGBLOCH"> F  </i>
   <i type="logical" name="LCHIMAG"> F  </i>
   <i type="logical" name="LGAUGE"> T  </i>
   <i type="int" name="MAGATOM">     0</i>
   <v name="MAGDIPOL">      0.00000000      0.00000000      0.00000000</v>
   <v name="AVECCONST">      0.00000000      0.00000000      0.00000000</v>
  </separator>
  <separator name="response functions" >
   <i type="logical" name="LADDER"> F  </i>
   <i type="logical" name="LFXC"> F  </i>
   <i type="logical" name="LHARTREE"> T  </i>
   <i type="int" name="IBSE">     0</i>
   <v type="int" name="KPOINT">    -1     0     0     0</v>
   <i type="logical" name="LTCTE"> F  </i>
   <i type="logical" name="LTETE"> F  </i>
   <i type="logical" name="LTRIPLET"> F  </i>
   <i type="logical" name="LFXCEPS"> F  </i>
   <i type="logical" name="LFXHEG"> F  </i>
   <i type="int" name="NATURALO">     0</i>
   <i type="logical" name="L2ORDER"> F  </i>
   <i type="logical" name="LUSEW"> F  </i>
   <i name="ENCUTGW">     -2.00000000</i>
   <i name="ENCUTGWSOFT">     -2.00000000</i>
   <i name="ENCUTLF">     -1.00000000</i>
   <i type="int" name="LMAXMP2">    -1</i>
   <i name="SCISSOR">      0.00000000</i>
   <i type="int" name="NOMEGA">     0</i>
   <i type="int" name="NOMEGAR">     0</i>
   <i type="int" name="NBANDSGW">    -1</i>
   <i type="int" name="NBANDSO">    -1</i>
   <i type="int" name="NBANDSV">    -1</i>
   <i type="int" name="NELM">     1</i>
   <i type="int" name="NELMHF">     1</i>
   <i type="int" name="DIM">     3</i>
   <i type="int" name="ANTIRES">     0</i>
   <i name="OMEGAMAX">    -30.00000000</i>
   <i name="OMEGAMIN">    -30.00000000</i>
   <i name="OMEGATL">   -200.00000000</i>
   <i type="int" name="OMEGAGRID">     0</i>
   <i name="CSHIFT">     -0.10000000</i>
   <i type="logical" name="SELFENERGY"> F  </i>
   <i type="logical" name="LSPECTRAL"> F  </i>
   <i type="logical" name="LSPECTRALGW"> F  </i>
   <i type="logical" name="LSINGLES"> F  </i>
   <i type="logical" name="LFERMIGW"> F  </i>
   <i type="logical" name="ODDONLYGW"> F  </i>
   <i type="logical" name="EVENONLYGW"> F  </i>
   <i type="int" name="NKREDLFX">     1</i>
   <i type="int" name="NKREDLFY">     1</i>
   <i type="int" name="NKREDLFZ">     1</i>
   <i type="int" name="MAXMEM">  1800</i>
   <i type="int" name="TELESCOPE">     0</i>
   <i type="int" name="TAUPAR">     1</i>
   <i type="int" name="OMEGAPAR">    -1</i>
   <i name="LAMBDA">      1.00000000</i>
  </separator>
  <separator name="External order field" >
   <i name="OFIELD_KAPPA">      0.00000000</i>
   <v name="OFIELD_K">      0.00000000      0.00000000      0.00000000</v>
   <i name="OFIELD_Q6_NEAR">      0.00000000</i>
   <i name="OFIELD_Q6_FAR">      0.00000000</i>
   <i name="OFIELD_A">      0.00000000</i>
  </separator>
 </parameters>
 <atominfo>
  <atoms>       9 </atoms>
  <types>       2 </types>
  <array name="atoms" >
   <dimension dim="1">ion</dimension>
   <field type="string">element</field>
   <field type="int">atomtype</field>
   <set>
    <rc><c>Si</c><c>   1</c></rc>
    <rc><c>Si</c><c>   1</c></rc>
    <rc><c>Si</c><c>   1</c></rc>
    <rc><c>O </c><c>   2</c></rc>
    <rc><c>O </c><c>   2</c></rc>
    <rc><c>O </c><c>   2</c></rc>
    <rc><c>O </c><c>   2</c></rc>
    <rc><c>O </c><c>   2</c></rc>
    <rc><c>O </c><c>   2</c></rc>
   </set>
  </array>
  <array name="atomtypes" >
   <dimension dim="1">type</dimension>
   <field type="int">atomspertype</field>
   <field type="string">element</field>
   <field>mass</field>
   <field>valence</field>
   <field type="string">pseudopotential</field>
   <set>
    <rc><c>   3</c><c>Si</c><c>     28.08500000</c><c>      4.00000000</c><c> PAW_PBE Si 05Jan2001                   </c></rc>
    <rc><c>   6</c><c>O </c><c>     16.00000000</c><c>      6.00000000</c><c> PAW_PBE O 08Apr2002                    </c></rc>
   </set>
  </array>
 </atominfo>
 <structure name="initialpos" >
  <crystal>
   <varray name="basis" >
    <v>       4.91370000       0.00000000       0.00000000 </v>
    <v>      -2.45685000       4.25538903       0.00000000 </v>
    <v>       0.00000000       0.00000000       5.40513000 </v>
   </varray>
   <i name="volume">    113.01967420 </i>
   <varray name="rec_basis" >
    <v>       0.20351263       0.11749807       0.00000000 </v>
    <v>       0.00000000       0.23499614       0.00000000 </v>
    <v>       0.00000000       0.00000000       0.18500943 </v>
   </varray>
  </crystal>
  <varray name="positions" >
   <v>       0.46980000       0.00000000       0.66667000 </v>
   <v>       0.00000000       0.46980000       0.33333000 </v>
   <v>       0.53020000       0.53020000       0.00000000 </v>
   <v>       0.41450000       0.26620000       0.78560000 </v>
   <v>       0.73380000       0.14830000       0.45227000 </v>
   <v>       0.85170000       0.58550000       0.11893000 </v>
   <v>       0.14830000       0.73380000       0.54773000 </v>
   <v>       0.26620000       0.41450000       0.21440000 </v>
   <v>       0.58550000       0.85170000       0.88107000 </v>
  </varray>
 </structure>
 <calculation>
  <scstep>
   <time name="dav">   12.54   12.54</time>
   <time name="total">   12.80   12.81</time>
   <energy>
    <i name="alphaZ">     69.72802778 </i>
    <i name="ewald">  -1887.20590689 </i>
    <i name="hartreedc">   -937.14514243 </i>
    <i name="XCdc">    142.01294253 </i>
    <i name="pawpsdc">   1574.92322788 </i>
    <i name="pawaedc">  -1533.24131965 </i>
    <i name="eentropy">      0.00000000 </i>
    <i name="bandstr">     46.02102719 </i>
    <i name="atom">   2903.43715298 </i>
    <i name="e_fr_energy">    378.53000939 </i>
    <i name="e_wo_entrp">    378.53000939 </i>
    <i name="e_0_energy">    378.53000939 </i>
   </energy>
  </scstep>
  <scstep>
   <time name="dav">   16.41   16.41</time>
   <time name="total">   16.42   16.43</time>
   <energy>
    <i name="e_fr_energy">    -55.92119088 </i>
    <i name="e_wo_entrp">    -55.92119088 </i>
    <i name="e_0_energy">    -55.92119088 </i>
   </energy>
  </scstep>
  <scstep>
   <time name="dav">   14.49   14.49</time>
   <time name="total">   14.49   14.50</time>
   <energy>
    <i name="e_fr_energy">    -80.32504620 </i>
    <i name="e_wo_entrp">    -80.32504620 </i>
    <i name="e_0_energy">    -80.32504620 </i>
   </energy>
  </scstep>
  <scstep>
   <time name="dav">   14.61   14.61</time>
   <time name="total">   14.62   14.64</time>
   <energy>
    <i name="e_fr_energy">    -80.65904715 </i>
    <i name="e_wo_entrp">    -80.65904715 </i>
    <i name="e_0_energy">    -80.65904715 </i>
   </energy>
  </scstep>
  <scstep>
   <time name="dav">   13.66   13.66</time>
   <time name="total">   14.54   14.55</time>
   <energy>
    <i name="e_fr_energy">    -80.66534328 </i>
    <i name="e_wo_entrp">    -80.66534328 </i>
    <i name="e_0_energy">    -80.66534328 </i>
   </energy>
  </scstep>
  <scstep>
   <time name="diag">    2.21    2.21</time>
   <time name="diis">    8.44    8.44</time>
   <time name="orth">    0.21    0.21</time>
   <time name="total">   11.97   12.00</time>
   <energy>
    <i name="e_fr_energy">    -71.06085081 </i>
    <i name="e_wo_entrp">    -71.06085081 </i>
    <i name="e_0_energy">    -71.06085081 </i>
   </energy>
  </scstep>
  <scstep>
   <time name="diag">    2.30    2.30</time>
   <time name="diis">    9.62    9.62</time>
   <time name="orth">    0.21    0.21</time>
   <time name="total">   13.26   13.78</time>
   <energy>
    <i name="e_fr_energy">    -71.04189154 </i>
    <i name="e_wo_entrp">    -71.04189154 </i>
    <i name="e_0_energy">    -71.04189154 </i>
   </energy>
  </scstep>
  <scstep>
   <time name="diag">    2.28    2.28</time>
   <time name="diis">    9.38    9.37</time>
   <time name="orth">    0.21    0.21</time>
   <time name="total">   12.97   13.35</time>
   <energy>
    <i name="e_fr_energy">    -71.05762757 </i>
    <i name="e_wo_entrp">    -71.05762757 </i>
    <i name="e_0_energy">    -71.05762757 </i>
   </energy>
  </scstep>
  <scstep>
   <time name="diag">    2.24    2.24</time>
   <time name="diis">    9.42    9.42</time>
   <time name="orth">    0.21    0.21</time>
   <time name="total">   12.99   12.99</time>
   <energy>
    <i name="e_fr_energy">    -71.04973064 </i>
    <i name="e_wo_entrp">    -71.04973064 </i>
    <i name="e_0_energy">    -71.04973064 </i>
   </energy>
  </scstep>
  <scstep>
   <time name="diag">    2.23    2.23</time>
   <time name="diis">    9.51    9.51</time>
   <time name="orth">    0.21    0.21</time>
   <time name="total">   13.07   13.07</time>
   <energy>
    <i name="e_fr_energy">    -71.05311870 </i>
    <i name="e_wo_entrp">    -71.05311870 </i>
    <i name="e_0_energy">    -71.05311870 </i>
   </energy>
  </scstep>
  <scstep>
   <time name="diag">    2.24    2.24</time>
   <time name="diis">    9.73    9.73</time>
   <time name="orth">    0.21    0.21</time>
   <time name="total">   13.29   13.31</time>
   <energy>
    <i name="e_fr_energy">    -71.05159829 </i>
    <i name="e_wo_entrp">    -71.05159829 </i>
    <i name="e_0_energy">    -71.05159829 </i>
   </energy>
  </scstep>
  <scstep>
   <time name="diag">    2.25    2.25</time>
   <time name="diis">    9.51    9.51</time>
   <time name="orth">    0.21    0.21</time>
   <time name="total">   13.11   13.11</time>
   <energy>
    <i name="e_fr_energy">    -71.05154002 </i>
    <i name="e_wo_entrp">    -71.05154002 </i>
    <i name="e_0_energy">    -71.05154002 </i>
   </energy>
  </scstep>
  <scstep>
   <time name="diag">    2.21    2.21</time>
   <time name="diis">    7.21    7.20</time>
   <time name="orth">    0.20    0.20</time>
   <time name="total">    9.86    9.87</time>
   <energy>
    <i name="alphaZ">     69.72802778 </i>
    <i name="ewald">  -1887.20590689 </i>
    <i name="hartreedc">  -1071.52717769 </i>
    <i name="XCdc">    151.13180152 </i>
    <i name="pawpsdc">   2051.76412188 </i>
    <i name="pawaedc">  -2012.43307663 </i>
    <i name="eentropy">      0.00000000 </i>
    <i name="bandstr">   -275.94648539 </i>
    <i name="atom">   2903.43715298 </i>
    <i name="e_fr_energy">    -71.05154244 </i>
    <i name="e_wo_entrp">    -71.05154244 </i>
    <i name="e_0_energy">    -71.05154244 </i>
   </energy>
  </scstep>
  <structure>
   <crystal>
    <varray name="basis" >
     <v>       4.91370000       0.00000000       0.00000000 </v>
     <v>      -2.45685000       4.25538903       0.00000000 </v>
     <v>       0.00000000       0.00000000       5.40513000 </v>
    </varray>
    <i name="volume">    113.01967420 </i>
    <varray name="rec_basis" >
     <v>       0.20351263       0.11749807       0.00000000 </v>
     <v>       0.00000000       0.23499614       0.00000000 </v>
     <v>       0.00000000       0.00000000       0.18500943 </v>
    </varray>
   </crystal>
   <varray name="positions" >
    <v>       0.46980000       0.00000000       0.66667000 </v>
    <v>       0.00000000       0.46980000       0.33333000 </v>
    <v>       0.53020000       0.53020000       0.00000000 </v>
    <v>       0.41450000       0.26620000       0.78560000 </v>
    <v>       0.73380000       0.14830000       0.45227000 </v>
    <v>       0.85170000       0.58550000       0.11893000 </v>
    <v>       0.14830000       0.73380000       0.54773000 </v>
    <v>       0.26620000       0.41450000       0.21440000 </v>
    <v>       0.58550000       0.85170000       0.88107000 </v>
   </varray>
  </structure>
  <varray name="forces" >
   <v>       0.39939571      -0.00041293      -0.00051743 </v>
   <v>      -0.20005546       0.34568037       0.00051743 </v>
   <v>      -0.19990379      -0.34624353       0.00000000 </v>
   <v>      -0.52362804       0.29372318       0.06618842 </v>
   <v>       0.00762839      -0.59969916       0.06584484 </v>
   <v>       0.51625622       0.30647857       0.06609814 </v>
   <v>      -0.52316890      -0.29324320      -0.06584484 </v>
   <v>       0.51618576      -0.30661359      -0.06618842 </v>
   <v>       0.00729011       0.60033029      -0.06609814 </v>
  </varray>
  <varray name="stress" >
   <v>      85.09363410      -0.01327462      -0.00192851 </v>
   <v>      -0.01327462      85.07830603       0.00111343 </v>
   <v>      -0.00192850       0.00111342      69.62789748 </v>
  </varray>
  <energy>
   <i name="e_fr_energy">    -71.05154244 </i>
   <i name="e_wo_entrp">    -71.05154244 </i>
   <i name="e_0_energy">      0.00000000 </i>
  </energy>
  <time name="totalsc">  191.00  192.13</time>
  <eigenvalues>
   <array>
    <dimension dim="1">band</dimension>
    <dimension dim="2">kpoint</dimension>
    <dimension dim="3">spin</dimension>
    <field>eigene</field>
    <field>occ</field>
    <set>
     <set comment="spin 1">
      <set comment="kpoint 1">
       <r>  -18.3722    1.0000 </r>
       <r>  -16.8355    1.0000 </r>
       <r>  -16.8354    1.0000 </r>
       <r>  -16.2008    1.0000 </r>
       <r>  -16.1528    1.0000 </r>
       <r>  -16.1527    1.0000 </r>
       <r>   -7.1763    1.0000 </r>
       <r>   -7.1762    1.0000 </r>
       <r>   -4.3362    1.0000 </r>
       <r>   -4.3303    1.0000 </r>
       <r>   -4.1781    1.0000 </r>
       <r>   -4.1780    1.0000 </r>
       <r>   -1.8598    1.0000 </r>
       <r>   -1.8597    1.0000 </r>
       <r>   -1.6226    1.0000 </r>
       <r>   -1.3623    1.0000 </r>
       <r>   -0.4117    1.0000 </r>
       <r>   -0.4117    1.0000 </r>
       <r>   -0.3938    1.0000 </r>
       <r>    0.1094    1.0000 </r>
       <r>    0.1095    1.0000 </r>
       <r>    0.4188    1.0000 </r>
       <r>    0.7590    1.0000 </r>
       <r>    0.7591    1.0000 </r>
       <r>    7.1207    0.0000 </r>
       <r>   10.3984    0.0000 </r>
       <r>   10.3984    0.0000 </r>
       <r>   10.9001    0.0000 </r>
       <r>   10.9001    0.0000 </r>
      </set>
      <set comment="kpoint 2">
       <r>  -18.2907    1.0000 </r>
       <r>  -16.9297    1.0000 </r>
       <r>  -16.8235    1.0000 </r>
       <r>  -16.2204    1.0000 </r>
       <r>  -16.1699    1.0000 </r>
       <r>  -16.1592    1.0000 </r>
       <r>   -7.2138    1.0000 </r>
       <r>   -6.9947    1.0000 </r>
       <r>   -4.3762    1.0000 </r>
       <r>   -4.3503    1.0000 </r>
       <r>   -4.2788    1.0000 </r>
       <r>   -4.0174    1.0000 </r>
       <r>   -1.9849    1.0000 </r>
       <r>   -1.8000    1.0000 </r>
       <r>   -1.5924    1.0000 </r>
       <r>   -1.1959    1.0000 </r>
       <r>   -0.6852    1.0000 </r>
       <r>   -0.4506    1.0000 </r>
       <r>   -0.4052    1.0000 </r>
       <r>    0.0467    1.0000 </r>
       <r>    0.0994    1.0000 </r>
       <r>    0.3165    1.0000 </r>
       <r>    0.8225    1.0000 </r>
       <r>    0.8561    1.0000 </r>
       <r>    7.5427    0.0000 </r>
       <r>   10.3850    0.0000 </r>
       <r>   10.4453    0.0000 </r>
       <r>   10.9355    0.0000 </r>
       <r>   11.0436    0.0000 </r>
      </set>
      <set comment="kpoint 3">
       <r>  -18.0718    1.0000 </r>
       <r>  -17.1890    1.0000 </r>
       <r>  -16.7980    1.0000 </r>
       <r>  -16.2435    1.0000 </r>
       <r>  -16.1982    1.0000 </r>
       <r>  -16.1783    1.0000 </r>
       <r>   -7.2855    1.0000 </r>
       <r>   -6.5751    1.0000 </r>
       <r>   -4.6321    1.0000 </r>
       <r>   -4.3840    1.0000 </r>
       <r>   -4.3021    1.0000 </r>
       <r>   -3.7152    1.0000 </r>
       <r>   -2.0674    1.0000 </r>
       <r>   -1.6917    1.0000 </r>
       <r>   -1.5670    1.0000 </r>
       <r>   -1.1999    1.0000 </r>
       <r>   -1.0010    1.0000 </r>
       <r>   -0.5816    1.0000 </r>
       <r>   -0.4899    1.0000 </r>
       <r>   -0.0046    1.0000 </r>
       <r>    0.0646    1.0000 </r>
       <r>    0.2676    1.0000 </r>
       <r>    0.8504    1.0000 </r>
       <r>    0.9996    1.0000 </r>
       <r>    8.5415    0.0000 </r>
       <r>   10.4284    0.0000 </r>
       <r>   10.5564    0.0000 </r>
       <r>   11.0640    0.0000 </r>
       <r>   11.5276    0.0000 </r>
      </set>
      <set comment="kpoint 4">
       <r>  -17.8824    1.0000 </r>
       <r>  -17.4035    1.0000 </r>
       <r>  -16.7843    1.0000 </r>
       <r>  -16.2494    1.0000 </r>
       <r>  -16.2109    1.0000 </r>
       <r>  -16.1899    1.0000 </r>
       <r>   -7.3199    1.0000 </r>
       <r>   -6.3129    1.0000 </r>
       <r>   -4.8204    1.0000 </r>
       <r>   -4.3614    1.0000 </r>
       <r>   -4.3302    1.0000 </r>
       <r>   -3.5495    1.0000 </r>
       <r>   -1.9954    1.0000 </r>
       <r>   -1.8287    1.0000 </r>
       <r>   -1.5983    1.0000 </r>
       <r>   -1.2172    1.0000 </r>
       <r>   -1.0089    1.0000 </r>
       <r>   -0.6646    1.0000 </r>
       <r>   -0.5973    1.0000 </r>
       <r>   -0.0076    1.0000 </r>
       <r>    0.0576    1.0000 </r>
       <r>    0.2981    1.0000 </r>
       <r>    0.8334    1.0000 </r>
       <r>    1.0572    1.0000 </r>
       <r>    9.3793    0.0000 </r>
       <r>   10.1159    0.0000 </r>
       <r>   10.8435    0.0000 </r>
       <r>   10.8455    0.0000 </r>
       <r>   11.6376    0.0000 </r>
      </set>
      <set comment="kpoint 5">
       <r>  -18.1380    1.0000 </r>
       <r>  -17.1056    1.0000 </r>
       <r>  -16.8120    1.0000 </r>
       <r>  -16.2383    1.0000 </r>
       <r>  -16.1952    1.0000 </r>
       <r>  -16.1688    1.0000 </r>
       <r>   -7.2780    1.0000 </r>
       <r>   -6.6689    1.0000 </r>
       <r>   -4.6400    1.0000 </r>
       <r>   -4.3690    1.0000 </r>
       <r>   -4.2270    1.0000 </r>
       <r>   -3.8047    1.0000 </r>
       <r>   -2.0344    1.0000 </r>
       <r>   -1.7870    1.0000 </r>
       <r>   -1.4874    1.0000 </r>
       <r>   -1.0874    1.0000 </r>
       <r>   -1.0797    1.0000 </r>
       <r>   -0.5605    1.0000 </r>
       <r>   -0.3626    1.0000 </r>
       <r>   -0.1309    1.0000 </r>
       <r>    0.1822    1.0000 </r>
       <r>    0.2274    1.0000 </r>
       <r>    0.8413    1.0000 </r>
       <r>    0.9771    1.0000 </r>
       <r>    8.2502    0.0000 </r>
       <r>   10.4277    0.0000 </r>
       <r>   10.5696    0.0000 </r>
       <r>   11.0522    0.0000 </r>
       <r>   11.2242    0.0000 </r>
      </set>
      <set comment="kpoint 6">
       <r>  -17.8891    1.0000 </r>
       <r>  -17.3841    1.0000 </r>
       <r>  -16.8042    1.0000 </r>
       <r>  -16.2467    1.0000 </r>
       <r>  -16.2092    1.0000 </r>
       <r>  -16.1871    1.0000 </r>
       <r>   -7.3431    1.0000 </r>
       <r>   -6.2129    1.0000 </r>
       <r>   -5.0395    1.0000 </r>
       <r>   -4.3212    1.0000 </r>
       <r>   -4.2295    1.0000 </r>
       <r>   -3.5572    1.0000 </r>
       <r>   -1.9837    1.0000 </r>
       <r>   -1.7847    1.0000 </r>
       <r>   -1.6583    1.0000 </r>
       <r>   -1.1644    1.0000 </r>
       <r>   -1.0020    1.0000 </r>
       <r>   -0.6957    1.0000 </r>
       <r>   -0.5074    1.0000 </r>
       <r>   -0.1892    1.0000 </r>
       <r>    0.0301    1.0000 </r>
       <r>    0.4225    1.0000 </r>
       <r>    0.7998    1.0000 </r>
       <r>    1.0685    1.0000 </r>
       <r>    9.2669    0.0000 </r>
       <r>   10.3663    0.0000 </r>
       <r>   10.6836    0.0000 </r>
       <r>   11.0877    0.0000 </r>
       <r>   11.5362    0.0000 </r>
      </set>
      <set comment="kpoint 7">
       <r>  -17.8891    1.0000 </r>
       <r>  -17.3841    1.0000 </r>
       <r>  -16.8042    1.0000 </r>
       <r>  -16.2468    1.0000 </r>
       <r>  -16.2092    1.0000 </r>
       <r>  -16.1871    1.0000 </r>
       <r>   -7.3431    1.0000 </r>
       <r>   -6.2129    1.0000 </r>
       <r>   -5.0394    1.0000 </r>
       <r>   -4.3212    1.0000 </r>
       <r>   -4.2295    1.0000 </r>
       <r>   -3.5572    1.0000 </r>
       <r>   -1.9837    1.0000 </r>
       <r>   -1.7847    1.0000 </r>
       <r>   -1.6583    1.0000 </r>
       <r>   -1.1644    1.0000 </r>
       <r>   -1.0020    1.0000 </r>
       <r>   -0.6957    1.0000 </r>
       <r>   -0.5074    1.0000 </r>
       <r>   -0.1892    1.0000 </r>
       <r>    0.0301    1.0000 </r>
       <r>    0.4225    1.0000 </r>
       <r>    0.7998    1.0000 </r>
       <r>    1.0686    1.0000 </r>
       <r>    9.2669    0.0000 </r>
       <r>   10.3662    0.0000 </r>
       <r>   10.6835    0.0000 </r>
       <r>   11.0899    0.0000 </r>
       <r>   11.5127    0.0000 </r>
      </set>
      <set comment="kpoint 8">
       <r>  -18.1380    1.0000 </r>
       <r>  -17.1056    1.0000 </r>
       <r>  -16.8120    1.0000 </r>
       <r>  -16.2383    1.0000 </r>
       <r>  -16.1951    1.0000 </r>
       <r>  -16.1687    1.0000 </r>
       <r>   -7.2779    1.0000 </r>
       <r>   -6.6689    1.0000 </r>
       <r>   -4.6400    1.0000 </r>
       <r>   -4.3690    1.0000 </r>
       <r>   -4.2271    1.0000 </r>
       <r>   -3.8047    1.0000 </r>
       <r>   -2.0344    1.0000 </r>
       <r>   -1.7870    1.0000 </r>
       <r>   -1.4874    1.0000 </r>
       <r>   -1.0874    1.0000 </r>
       <r>   -1.0798    1.0000 </r>
       <r>   -0.5604    1.0000 </r>
       <r>   -0.3626    1.0000 </r>
       <r>   -0.1309    1.0000 </r>
       <r>    0.1822    1.0000 </r>
       <r>    0.2275    1.0000 </r>
       <r>    0.8413    1.0000 </r>
       <r>    0.9771    1.0000 </r>
       <r>    8.2502    0.0000 </r>
       <r>   10.4278    0.0000 </r>
       <r>   10.5698    0.0000 </r>
       <r>   11.0544    0.0000 </r>
       <r>   11.2346    0.0000 </r>
      </set>
      <set comment="kpoint 9">
       <r>  -18.2907    1.0000 </r>
       <r>  -16.9297    1.0000 </r>
       <r>  -16.8236    1.0000 </r>
       <r>  -16.2204    1.0000 </r>
       <r>  -16.1698    1.0000 </r>
       <r>  -16.1592    1.0000 </r>
       <r>   -7.2138    1.0000 </r>
       <r>   -6.9947    1.0000 </r>
       <r>   -4.3762    1.0000 </r>
       <r>   -4.3503    1.0000 </r>
       <r>   -4.2788    1.0000 </r>
       <r>   -4.0174    1.0000 </r>
       <r>   -1.9850    1.0000 </r>
       <r>   -1.7999    1.0000 </r>
       <r>   -1.5924    1.0000 </r>
       <r>   -1.1959    1.0000 </r>
       <r>   -0.6852    1.0000 </r>
       <r>   -0.4506    1.0000 </r>
       <r>   -0.4052    1.0000 </r>
       <r>    0.0466    1.0000 </r>
       <r>    0.0995    1.0000 </r>
       <r>    0.3165    1.0000 </r>
       <r>    0.8224    1.0000 </r>
       <r>    0.8562    1.0000 </r>
       <r>    7.5427    0.0000 </r>
       <r>   10.3850    0.0000 </r>
       <r>   10.4453    0.0000 </r>
       <r>   10.9353    0.0000 </r>
       <r>   11.0436    0.0000 </r>
      </set>
      <set comment="kpoint 10">
       <r>  -17.6372    1.0000 </r>
       <r>  -17.6371    1.0000 </r>
       <r>  -16.8183    1.0000 </r>
       <r>  -16.2457    1.0000 </r>
       <r>  -16.2015    1.0000 </r>
       <r>  -16.2014    1.0000 </r>
       <r>   -7.3808    1.0000 </r>
       <r>   -5.6423    1.0000 </r>
       <r>   -5.6422    1.0000 </r>
       <r>   -4.2386    1.0000 </r>
       <r>   -4.2386    1.0000 </r>
       <r>   -3.4629    1.0000 </r>
       <r>   -1.8541    1.0000 </r>
       <r>   -1.8540    1.0000 </r>
       <r>   -1.8033    1.0000 </r>
       <r>   -0.9772    1.0000 </r>
       <r>   -0.9772    1.0000 </r>
       <r>   -0.8212    1.0000 </r>
       <r>   -0.6247    1.0000 </r>
       <r>   -0.1467    1.0000 </r>
       <r>   -0.1467    1.0000 </r>
       <r>    0.6582    1.0000 </r>
       <r>    0.6582    1.0000 </r>
       <r>    1.0998    1.0000 </r>
       <r>   10.0506    0.0000 </r>
       <r>   10.0507    0.0000 </r>
       <r>   10.5383    0.0000 </r>
       <r>   11.4789    0.0000 </r>
       <r>   11.6417    0.0000 </r>
      </set>
      <set comment="kpoint 11">
       <r>  -17.8890    1.0000 </r>
       <r>  -17.3842    1.0000 </r>
       <r>  -16.8043    1.0000 </r>
       <r>  -16.2468    1.0000 </r>
       <r>  -16.2093    1.0000 </r>
       <r>  -16.1870    1.0000 </r>
       <r>   -7.3431    1.0000 </r>
       <r>   -6.2129    1.0000 </r>
       <r>   -5.0395    1.0000 </r>
       <r>   -4.3212    1.0000 </r>
       <r>   -4.2295    1.0000 </r>
       <r>   -3.5572    1.0000 </r>
       <r>   -1.9837    1.0000 </r>
       <r>   -1.7848    1.0000 </r>
       <r>   -1.6583    1.0000 </r>
       <r>   -1.1644    1.0000 </r>
       <r>   -1.0020    1.0000 </r>
       <r>   -0.6957    1.0000 </r>
       <r>   -0.5074    1.0000 </r>
       <r>   -0.1893    1.0000 </r>
       <r>    0.0302    1.0000 </r>
       <r>    0.4225    1.0000 </r>
       <r>    0.7998    1.0000 </r>
       <r>    1.0686    1.0000 </r>
       <r>    9.2669    0.0000 </r>
       <r>   10.3663    0.0000 </r>
       <r>   10.6835    0.0000 </r>
       <r>   11.0905    0.0000 </r>
       <r>   11.5294    0.0000 </r>
      </set>
      <set comment="kpoint 12">
       <r>  -18.0717    1.0000 </r>
       <r>  -17.1890    1.0000 </r>
       <r>  -16.7981    1.0000 </r>
       <r>  -16.2436    1.0000 </r>
       <r>  -16.1983    1.0000 </r>
       <r>  -16.1782    1.0000 </r>
       <r>   -7.2854    1.0000 </r>
       <r>   -6.5752    1.0000 </r>
       <r>   -4.6322    1.0000 </r>
       <r>   -4.3839    1.0000 </r>
       <r>   -4.3021    1.0000 </r>
       <r>   -3.7152    1.0000 </r>
       <r>   -2.0674    1.0000 </r>
       <r>   -1.6918    1.0000 </r>
       <r>   -1.5670    1.0000 </r>
       <r>   -1.2000    1.0000 </r>
       <r>   -1.0009    1.0000 </r>
       <r>   -0.5816    1.0000 </r>
       <r>   -0.4899    1.0000 </r>
       <r>   -0.0046    1.0000 </r>
       <r>    0.0647    1.0000 </r>
       <r>    0.2676    1.0000 </r>
       <r>    0.8503    1.0000 </r>
       <r>    0.9997    1.0000 </r>
       <r>    8.5415    0.0000 </r>
       <r>   10.4285    0.0000 </r>
       <r>   10.5556    0.0000 </r>
       <r>   11.0572    0.0000 </r>
       <r>   11.3943    0.0000 </r>
      </set>
      <set comment="kpoint 13">
       <r>  -17.8823    1.0000 </r>
       <r>  -17.4036    1.0000 </r>
       <r>  -16.7844    1.0000 </r>
       <r>  -16.2495    1.0000 </r>
       <r>  -16.2110    1.0000 </r>
       <r>  -16.1897    1.0000 </r>
       <r>   -7.3198    1.0000 </r>
       <r>   -6.3130    1.0000 </r>
       <r>   -4.8205    1.0000 </r>
       <r>   -4.3613    1.0000 </r>
       <r>   -4.3302    1.0000 </r>
       <r>   -3.5495    1.0000 </r>
       <r>   -1.9953    1.0000 </r>
       <r>   -1.8288    1.0000 </r>
       <r>   -1.5984    1.0000 </r>
       <r>   -1.2172    1.0000 </r>
       <r>   -1.0089    1.0000 </r>
       <r>   -0.6646    1.0000 </r>
       <r>   -0.5973    1.0000 </r>
       <r>   -0.0077    1.0000 </r>
       <r>    0.0576    1.0000 </r>
       <r>    0.2981    1.0000 </r>
       <r>    0.8334    1.0000 </r>
       <r>    1.0573    1.0000 </r>
       <r>    9.3793    0.0000 </r>
       <r>   10.1159    0.0000 </r>
       <r>   10.8435    0.0000 </r>
       <r>   10.8453    0.0000 </r>
       <r>   11.6254    0.0000 </r>
      </set>
      <set comment="kpoint 14">
       <r>  -18.2937    1.0000 </r>
       <r>  -17.2845    1.0000 </r>
       <r>  -16.4509    1.0000 </r>
       <r>  -16.1985    1.0000 </r>
       <r>  -16.1685    1.0000 </r>
       <r>  -16.1376    1.0000 </r>
       <r>   -7.8492    1.0000 </r>
       <r>   -6.3490    1.0000 </r>
       <r>   -4.4958    1.0000 </r>
       <r>   -4.4194    1.0000 </r>
       <r>   -4.3707    1.0000 </r>
       <r>   -3.8727    1.0000 </r>
       <r>   -1.9437    1.0000 </r>
       <r>   -1.6652    1.0000 </r>
       <r>   -1.5645    1.0000 </r>
       <r>   -1.2324    1.0000 </r>
       <r>   -0.6048    1.0000 </r>
       <r>   -0.4839    1.0000 </r>
       <r>   -0.4237    1.0000 </r>
       <r>   -0.2839    1.0000 </r>
       <r>    0.0777    1.0000 </r>
       <r>    0.5192    1.0000 </r>
       <r>    0.8096    1.0000 </r>
       <r>    0.9691    1.0000 </r>
       <r>    7.5147    0.0000 </r>
       <r>   10.2555    0.0000 </r>
       <r>   10.4195    0.0000 </r>
       <r>   10.5209    0.0000 </r>
       <r>   11.2240    0.0000 </r>
      </set>
      <set comment="kpoint 15">
       <r>  -18.2165    1.0000 </r>
       <r>  -17.2837    1.0000 </r>
       <r>  -16.5341    1.0000 </r>
       <r>  -16.2134    1.0000 </r>
       <r>  -16.1876    1.0000 </r>
       <r>  -16.1489    1.0000 </r>
       <r>   -7.7043    1.0000 </r>
       <r>   -6.3573    1.0000 </r>
       <r>   -4.6741    1.0000 </r>
       <r>   -4.3777    1.0000 </r>
       <r>   -4.1814    1.0000 </r>
       <r>   -3.9223    1.0000 </r>
       <r>   -2.0439    1.0000 </r>
       <r>   -1.6493    1.0000 </r>
       <r>   -1.5285    1.0000 </r>
       <r>   -1.1548    1.0000 </r>
       <r>   -0.8344    1.0000 </r>
       <r>   -0.4980    1.0000 </r>
       <r>   -0.3948    1.0000 </r>
       <r>   -0.2399    1.0000 </r>
       <r>    0.1605    1.0000 </r>
       <r>    0.4153    1.0000 </r>
       <r>    0.7509    1.0000 </r>
       <r>    1.0107    1.0000 </r>
       <r>    7.8906    0.0000 </r>
       <r>   10.2692    0.0000 </r>
       <r>   10.5112    0.0000 </r>
       <r>   10.6059    0.0000 </r>
       <r>   11.3059    0.0000 </r>
      </set>
      <set comment="kpoint 16">
       <r>  -18.0148    1.0000 </r>
       <r>  -17.3238    1.0000 </r>
       <r>  -16.7204    1.0000 </r>
       <r>  -16.2409    1.0000 </r>
       <r>  -16.2138    1.0000 </r>
       <r>  -16.1687    1.0000 </r>
       <r>   -7.4112    1.0000 </r>
       <r>   -6.3291    1.0000 </r>
       <r>   -4.9092    1.0000 </r>
       <r>   -4.3364    1.0000 </r>
       <r>   -4.1003    1.0000 </r>
       <r>   -3.8262    1.0000 </r>
       <r>   -2.1390    1.0000 </r>
       <r>   -1.7118    1.0000 </r>
       <r>   -1.4747    1.0000 </r>
       <r>   -1.2121    1.0000 </r>
       <r>   -0.8962    1.0000 </r>
       <r>   -0.6029    1.0000 </r>
       <r>   -0.4921    1.0000 </r>
       <r>   -0.0548    1.0000 </r>
       <r>    0.1601    1.0000 </r>
       <r>    0.2797    1.0000 </r>
       <r>    0.7935    1.0000 </r>
       <r>    0.9660    1.0000 </r>
       <r>    8.8064    0.0000 </r>
       <r>   10.3211    0.0000 </r>
       <r>   10.5733    0.0000 </r>
       <r>   11.0423    0.0000 </r>
       <r>   11.4564    0.0000 </r>
      </set>
      <set comment="kpoint 17">
       <r>  -17.8599    1.0000 </r>
       <r>  -17.3924    1.0000 </r>
       <r>  -16.8309    1.0000 </r>
       <r>  -16.2498    1.0000 </r>
       <r>  -16.2155    1.0000 </r>
       <r>  -16.1811    1.0000 </r>
       <r>   -7.2723    1.0000 </r>
       <r>   -6.2738    1.0000 </r>
       <r>   -5.0448    1.0000 </r>
       <r>   -4.3579    1.0000 </r>
       <r>   -4.1058    1.0000 </r>
       <r>   -3.6728    1.0000 </r>
       <r>   -2.0474    1.0000 </r>
       <r>   -1.9464    1.0000 </r>
       <r>   -1.4713    1.0000 </r>
       <r>   -1.2620    1.0000 </r>
       <r>   -0.8458    1.0000 </r>
       <r>   -0.7258    1.0000 </r>
       <r>   -0.4216    1.0000 </r>
       <r>   -0.0736    1.0000 </r>
       <r>    0.1392    1.0000 </r>
       <r>    0.3319    1.0000 </r>
       <r>    0.7205    1.0000 </r>
       <r>    0.9965    1.0000 </r>
       <r>    9.5726    0.0000 </r>
       <r>   10.1818    0.0000 </r>
       <r>   10.6873    0.0000 </r>
       <r>   11.1559    0.0000 </r>
       <r>   11.5978    0.0000 </r>
      </set>
      <set comment="kpoint 18">
       <r>  -18.0185    1.0000 </r>
       <r>  -17.3036    1.0000 </r>
       <r>  -16.7538    1.0000 </r>
       <r>  -16.2331    1.0000 </r>
       <r>  -16.1928    1.0000 </r>
       <r>  -16.1800    1.0000 </r>
       <r>   -7.4148    1.0000 </r>
       <r>   -6.3305    1.0000 </r>
       <r>   -4.9109    1.0000 </r>
       <r>   -4.3756    1.0000 </r>
       <r>   -4.0772    1.0000 </r>
       <r>   -3.7767    1.0000 </r>
       <r>   -2.0747    1.0000 </r>
       <r>   -1.7033    1.0000 </r>
       <r>   -1.5279    1.0000 </r>
       <r>   -1.3904    1.0000 </r>
       <r>   -0.9258    1.0000 </r>
       <r>   -0.5013    1.0000 </r>
       <r>   -0.3480    1.0000 </r>
       <r>   -0.0908    1.0000 </r>
       <r>    0.0620    1.0000 </r>
       <r>    0.3936    1.0000 </r>
       <r>    0.6357    1.0000 </r>
       <r>    1.0594    1.0000 </r>
       <r>    8.7727    0.0000 </r>
       <r>   10.3807    0.0000 </r>
       <r>   10.7670    0.0000 </r>
       <r>   11.1827    0.0000 </r>
       <r>   11.3655    0.0000 </r>
      </set>
      <set comment="kpoint 19">
       <r>  -18.2171    1.0000 </r>
       <r>  -17.2796    1.0000 </r>
       <r>  -16.5453    1.0000 </r>
       <r>  -16.2121    1.0000 </r>
       <r>  -16.1771    1.0000 </r>
       <r>  -16.1529    1.0000 </r>
       <r>   -7.7054    1.0000 </r>
       <r>   -6.3574    1.0000 </r>
       <r>   -4.6784    1.0000 </r>
       <r>   -4.3788    1.0000 </r>
       <r>   -4.1955    1.0000 </r>
       <r>   -3.8938    1.0000 </r>
       <r>   -2.0172    1.0000 </r>
       <r>   -1.6666    1.0000 </r>
       <r>   -1.5231    1.0000 </r>
       <r>   -1.2055    1.0000 </r>
       <r>   -0.8776    1.0000 </r>
       <r>   -0.4127    1.0000 </r>
       <r>   -0.3836    1.0000 </r>
       <r>   -0.2603    1.0000 </r>
       <r>    0.1907    1.0000 </r>
       <r>    0.3767    1.0000 </r>
       <r>    0.7254    1.0000 </r>
       <r>    1.0402    1.0000 </r>
       <r>    7.8808    0.0000 </r>
       <r>   10.3077    0.0000 </r>
       <r>   10.5366    0.0000 </r>
       <r>   10.6552    0.0000 </r>
       <r>   11.2356    0.0000 </r>
      </set>
      <set comment="kpoint 20">
       <r>  -18.0757    1.0000 </r>
       <r>  -17.2964    1.0000 </r>
       <r>  -16.6872    1.0000 </r>
       <r>  -16.2294    1.0000 </r>
       <r>  -16.2039    1.0000 </r>
       <r>  -16.1655    1.0000 </r>
       <r>   -7.4875    1.0000 </r>
       <r>   -6.3311    1.0000 </r>
       <r>   -4.8879    1.0000 </r>
       <r>   -4.3426    1.0000 </r>
       <r>   -4.0733    1.0000 </r>
       <r>   -3.8618    1.0000 </r>
       <r>   -2.0959    1.0000 </r>
       <r>   -1.6497    1.0000 </r>
       <r>   -1.5311    1.0000 </r>
       <r>   -1.2590    1.0000 </r>
       <r>   -0.9438    1.0000 </r>
       <r>   -0.4945    1.0000 </r>
       <r>   -0.4131    1.0000 </r>
       <r>   -0.1322    1.0000 </r>
       <r>    0.1770    1.0000 </r>
       <r>    0.3076    1.0000 </r>
       <r>    0.7113    1.0000 </r>
       <r>    1.0283    1.0000 </r>
       <r>    8.5215    0.0000 </r>
       <r>   10.3274    0.0000 </r>
       <r>   10.7449    0.0000 </r>
       <r>   10.9040    0.0000 </r>
       <r>   11.4203    0.0000 </r>
      </set>
      <set comment="kpoint 21">
       <r>  -17.8616    1.0000 </r>
       <r>  -17.3906    1.0000 </r>
       <r>  -16.8277    1.0000 </r>
       <r>  -16.2484    1.0000 </r>
       <r>  -16.2240    1.0000 </r>
       <r>  -16.1777    1.0000 </r>
       <r>   -7.2854    1.0000 </r>
       <r>   -6.1900    1.0000 </r>
       <r>   -5.1862    1.0000 </r>
       <r>   -4.3206    1.0000 </r>
       <r>   -4.0733    1.0000 </r>
       <r>   -3.6910    1.0000 </r>
       <r>   -2.0919    1.0000 </r>
       <r>   -1.8143    1.0000 </r>
       <r>   -1.5885    1.0000 </r>
       <r>   -1.1322    1.0000 </r>
       <r>   -0.8994    1.0000 </r>
       <r>   -0.7071    1.0000 </r>
       <r>   -0.4210    1.0000 </r>
       <r>   -0.1382    1.0000 </r>
       <r>    0.1216    1.0000 </r>
       <r>    0.3741    1.0000 </r>
       <r>    0.7379    1.0000 </r>
       <r>    0.9706    1.0000 </r>
       <r>    9.4559    0.0000 </r>
       <r>   10.4457    0.0000 </r>
       <r>   10.6058    0.0000 </r>
       <r>   11.2090    0.0000 </r>
       <r>   11.4684    0.0000 </r>
      </set>
      <set comment="kpoint 22">
       <r>  -17.8643    1.0000 </r>
       <r>  -17.3813    1.0000 </r>
       <r>  -16.8394    1.0000 </r>
       <r>  -16.2435    1.0000 </r>
       <r>  -16.2226    1.0000 </r>
       <r>  -16.1787    1.0000 </r>
       <r>   -7.2866    1.0000 </r>
       <r>   -6.1912    1.0000 </r>
       <r>   -5.1859    1.0000 </r>
       <r>   -4.3300    1.0000 </r>
       <r>   -4.0671    1.0000 </r>
       <r>   -3.6762    1.0000 </r>
       <r>   -2.0561    1.0000 </r>
       <r>   -1.8410    1.0000 </r>
       <r>   -1.6068    1.0000 </r>
       <r>   -1.1858    1.0000 </r>
       <r>   -0.9116    1.0000 </r>
       <r>   -0.6729    1.0000 </r>
       <r>   -0.3235    1.0000 </r>
       <r>   -0.1864    1.0000 </r>
       <r>    0.0719    1.0000 </r>
       <r>    0.4556    1.0000 </r>
       <r>    0.6512    1.0000 </r>
       <r>    1.0068    1.0000 </r>
       <r>    9.4456    0.0000 </r>
       <r>   10.3538    0.0000 </r>
       <r>   10.9122    0.0000 </r>
       <r>   11.0652    0.0000 </r>
       <r>   11.5128    0.0000 </r>
      </set>
      <set comment="kpoint 23">
       <r>  -18.0757    1.0000 </r>
       <r>  -17.2964    1.0000 </r>
       <r>  -16.6873    1.0000 </r>
       <r>  -16.2294    1.0000 </r>
       <r>  -16.2039    1.0000 </r>
       <r>  -16.1654    1.0000 </r>
       <r>   -7.4875    1.0000 </r>
       <r>   -6.3312    1.0000 </r>
       <r>   -4.8879    1.0000 </r>
       <r>   -4.3426    1.0000 </r>
       <r>   -4.0733    1.0000 </r>
       <r>   -3.8618    1.0000 </r>
       <r>   -2.0959    1.0000 </r>
       <r>   -1.6498    1.0000 </r>
       <r>   -1.5310    1.0000 </r>
       <r>   -1.2590    1.0000 </r>
       <r>   -0.9438    1.0000 </r>
       <r>   -0.4946    1.0000 </r>
       <r>   -0.4131    1.0000 </r>
       <r>   -0.1322    1.0000 </r>
       <r>    0.1771    1.0000 </r>
       <r>    0.3075    1.0000 </r>
       <r>    0.7114    1.0000 </r>
       <r>    1.0284    1.0000 </r>
       <r>    8.5215    0.0000 </r>
       <r>   10.3274    0.0000 </r>
       <r>   10.7380    0.0000 </r>
       <r>   10.8880    0.0000 </r>
       <r>   11.3598    0.0000 </r>
      </set>
      <set comment="kpoint 24">
       <r>  -18.2165    1.0000 </r>
       <r>  -17.2837    1.0000 </r>
       <r>  -16.5342    1.0000 </r>
       <r>  -16.2134    1.0000 </r>
       <r>  -16.1876    1.0000 </r>
       <r>  -16.1489    1.0000 </r>
       <r>   -7.7043    1.0000 </r>
       <r>   -6.3573    1.0000 </r>
       <r>   -4.6741    1.0000 </r>
       <r>   -4.3777    1.0000 </r>
       <r>   -4.1814    1.0000 </r>
       <r>   -3.9223    1.0000 </r>
       <r>   -2.0439    1.0000 </r>
       <r>   -1.6493    1.0000 </r>
       <r>   -1.5286    1.0000 </r>
       <r>   -1.1548    1.0000 </r>
       <r>   -0.8344    1.0000 </r>
       <r>   -0.4980    1.0000 </r>
       <r>   -0.3948    1.0000 </r>
       <r>   -0.2398    1.0000 </r>
       <r>    0.1605    1.0000 </r>
       <r>    0.4153    1.0000 </r>
       <r>    0.7510    1.0000 </r>
       <r>    1.0107    1.0000 </r>
       <r>    7.8906    0.0000 </r>
       <r>   10.2692    0.0000 </r>
       <r>   10.5112    0.0000 </r>
       <r>   10.6058    0.0000 </r>
       <r>   11.2994    0.0000 </r>
      </set>
      <set comment="kpoint 25">
       <r>  -17.8643    1.0000 </r>
       <r>  -17.3813    1.0000 </r>
       <r>  -16.8394    1.0000 </r>
       <r>  -16.2435    1.0000 </r>
       <r>  -16.2226    1.0000 </r>
       <r>  -16.1788    1.0000 </r>
       <r>   -7.2866    1.0000 </r>
       <r>   -6.1911    1.0000 </r>
       <r>   -5.1859    1.0000 </r>
       <r>   -4.3300    1.0000 </r>
       <r>   -4.0671    1.0000 </r>
       <r>   -3.6762    1.0000 </r>
       <r>   -2.0560    1.0000 </r>
       <r>   -1.8410    1.0000 </r>
       <r>   -1.6068    1.0000 </r>
       <r>   -1.1858    1.0000 </r>
       <r>   -0.9115    1.0000 </r>
       <r>   -0.6729    1.0000 </r>
       <r>   -0.3235    1.0000 </r>
       <r>   -0.1864    1.0000 </r>
       <r>    0.0720    1.0000 </r>
       <r>    0.4556    1.0000 </r>
       <r>    0.6512    1.0000 </r>
       <r>    1.0068    1.0000 </r>
       <r>    9.4457    0.0000 </r>
       <r>   10.3540    0.0000 </r>
       <r>   10.9156    0.0000 </r>
       <r>   11.0906    0.0000 </r>
       <r>   11.7331    0.0000 </r>
      </set>
      <set comment="kpoint 26">
       <r>  -17.7364    1.0000 </r>
       <r>  -17.4749    1.0000 </r>
       <r>  -16.8783    1.0000 </r>
       <r>  -16.2429    1.0000 </r>
       <r>  -16.2403    1.0000 </r>
       <r>  -16.1810    1.0000 </r>
       <r>   -7.2409    1.0000 </r>
       <r>   -5.9349    1.0000 </r>
       <r>   -5.5185    1.0000 </r>
       <r>   -4.2981    1.0000 </r>
       <r>   -4.0628    1.0000 </r>
       <r>   -3.6182    1.0000 </r>
       <r>   -2.0599    1.0000 </r>
       <r>   -1.7564    1.0000 </r>
       <r>   -1.7531    1.0000 </r>
       <r>   -0.9682    1.0000 </r>
       <r>   -0.9123    1.0000 </r>
       <r>   -0.8457    1.0000 </r>
       <r>   -0.3635    1.0000 </r>
       <r>   -0.2078    1.0000 </r>
       <r>    0.0263    1.0000 </r>
       <r>    0.5735    1.0000 </r>
       <r>    0.6192    1.0000 </r>
       <r>    0.9657    1.0000 </r>
       <r>   10.0550    0.0000 </r>
       <r>   10.2553    0.0000 </r>
       <r>   10.6642    0.0000 </r>
       <r>   11.3883    0.0000 </r>
       <r>   11.4954    0.0000 </r>
      </set>
      <set comment="kpoint 27">
       <r>  -17.8616    1.0000 </r>
       <r>  -17.3907    1.0000 </r>
       <r>  -16.8277    1.0000 </r>
       <r>  -16.2484    1.0000 </r>
       <r>  -16.2240    1.0000 </r>
       <r>  -16.1776    1.0000 </r>
       <r>   -7.2854    1.0000 </r>
       <r>   -6.1901    1.0000 </r>
       <r>   -5.1863    1.0000 </r>
       <r>   -4.3206    1.0000 </r>
       <r>   -4.0733    1.0000 </r>
       <r>   -3.6910    1.0000 </r>
       <r>   -2.0919    1.0000 </r>
       <r>   -1.8143    1.0000 </r>
       <r>   -1.5886    1.0000 </r>
       <r>   -1.1322    1.0000 </r>
       <r>   -0.8994    1.0000 </r>
       <r>   -0.7071    1.0000 </r>
       <r>   -0.4210    1.0000 </r>
       <r>   -0.1383    1.0000 </r>
       <r>    0.1216    1.0000 </r>
       <r>    0.3741    1.0000 </r>
       <r>    0.7380    1.0000 </r>
       <r>    0.9707    1.0000 </r>
       <r>    9.4559    0.0000 </r>
       <r>   10.4455    0.0000 </r>
       <r>   10.6050    0.0000 </r>
       <r>   11.2164    0.0000 </r>
       <r>   11.4192    0.0000 </r>
      </set>
      <set comment="kpoint 28">
       <r>  -18.0147    1.0000 </r>
       <r>  -17.3238    1.0000 </r>
       <r>  -16.7205    1.0000 </r>
       <r>  -16.2410    1.0000 </r>
       <r>  -16.2138    1.0000 </r>
       <r>  -16.1685    1.0000 </r>
       <r>   -7.4111    1.0000 </r>
       <r>   -6.3292    1.0000 </r>
       <r>   -4.9092    1.0000 </r>
       <r>   -4.3363    1.0000 </r>
       <r>   -4.1003    1.0000 </r>
       <r>   -3.8262    1.0000 </r>
       <r>   -2.1391    1.0000 </r>
       <r>   -1.7119    1.0000 </r>
       <r>   -1.4748    1.0000 </r>
       <r>   -1.2120    1.0000 </r>
       <r>   -0.8962    1.0000 </r>
       <r>   -0.6029    1.0000 </r>
       <r>   -0.4921    1.0000 </r>
       <r>   -0.0549    1.0000 </r>
       <r>    0.1601    1.0000 </r>
       <r>    0.2796    1.0000 </r>
       <r>    0.7935    1.0000 </r>
       <r>    0.9661    1.0000 </r>
       <r>    8.8063    0.0000 </r>
       <r>   10.3213    0.0000 </r>
       <r>   10.5741    0.0000 </r>
       <r>   11.0395    0.0000 </r>
       <r>   11.4584    0.0000 </r>
      </set>
      <set comment="kpoint 29">
       <r>  -17.8616    1.0000 </r>
       <r>  -17.3907    1.0000 </r>
       <r>  -16.8277    1.0000 </r>
       <r>  -16.2484    1.0000 </r>
       <r>  -16.2240    1.0000 </r>
       <r>  -16.1777    1.0000 </r>
       <r>   -7.2854    1.0000 </r>
       <r>   -6.1900    1.0000 </r>
       <r>   -5.1862    1.0000 </r>
       <r>   -4.3206    1.0000 </r>
       <r>   -4.0733    1.0000 </r>
       <r>   -3.6910    1.0000 </r>
       <r>   -2.0919    1.0000 </r>
       <r>   -1.8143    1.0000 </r>
       <r>   -1.5885    1.0000 </r>
       <r>   -1.1322    1.0000 </r>
       <r>   -0.8994    1.0000 </r>
       <r>   -0.7071    1.0000 </r>
       <r>   -0.4210    1.0000 </r>
       <r>   -0.1383    1.0000 </r>
       <r>    0.1216    1.0000 </r>
       <r>    0.3741    1.0000 </r>
       <r>    0.7380    1.0000 </r>
       <r>    0.9706    1.0000 </r>
       <r>    9.4559    0.0000 </r>
       <r>   10.4456    0.0000 </r>
       <r>   10.6049    0.0000 </r>
       <r>   11.2111    0.0000 </r>
       <r>   11.4162    0.0000 </r>
      </set>
      <set comment="kpoint 30">
       <r>  -17.8643    1.0000 </r>
       <r>  -17.3813    1.0000 </r>
       <r>  -16.8395    1.0000 </r>
       <r>  -16.2435    1.0000 </r>
       <r>  -16.2226    1.0000 </r>
       <r>  -16.1787    1.0000 </r>
       <r>   -7.2866    1.0000 </r>
       <r>   -6.1912    1.0000 </r>
       <r>   -5.1860    1.0000 </r>
       <r>   -4.3300    1.0000 </r>
       <r>   -4.0671    1.0000 </r>
       <r>   -3.6762    1.0000 </r>
       <r>   -2.0561    1.0000 </r>
       <r>   -1.8410    1.0000 </r>
       <r>   -1.6068    1.0000 </r>
       <r>   -1.1858    1.0000 </r>
       <r>   -0.9115    1.0000 </r>
[...]
       <r>    0.9079    1.0000 </r>
       <r>    9.9982    0.0000 </r>
       <r>   10.3852    0.0000 </r>
       <r>   10.7497    0.0000 </r>
       <r>   11.0616    0.0000 </r>
       <r>   11.4962    0.0000 </r>
      </set>
      <set comment="kpoint 53">
       <r>  -17.9093    1.0000 </r>
       <r>  -17.5814    1.0000 </r>
       <r>  -16.5715    1.0000 </r>
       <r>  -16.2381    1.0000 </r>
       <r>  -16.1919    1.0000 </r>
       <r>  -16.1662    1.0000 </r>
       <r>   -7.6813    1.0000 </r>
       <r>   -5.8265    1.0000 </r>
       <r>   -5.2291    1.0000 </r>
       <r>   -4.3136    1.0000 </r>
       <r>   -4.1532    1.0000 </r>
       <r>   -3.7712    1.0000 </r>
       <r>   -2.0619    1.0000 </r>
       <r>   -1.8414    1.0000 </r>
       <r>   -1.3887    1.0000 </r>
       <r>   -1.2460    1.0000 </r>
       <r>   -0.9373    1.0000 </r>
       <r>   -0.4986    1.0000 </r>
       <r>   -0.3570    1.0000 </r>
       <r>   -0.1479    1.0000 </r>
       <r>    0.0865    1.0000 </r>
       <r>    0.4553    1.0000 </r>
       <r>    0.7415    1.0000 </r>
       <r>    0.9065    1.0000 </r>
       <r>    9.2309    0.0000 </r>
       <r>   10.0932    0.0000 </r>
       <r>   10.5332    0.0000 </r>
       <r>   10.9551    0.0000 </r>
       <r>   11.5997    0.0000 </r>
      </set>
      <set comment="kpoint 54">
       <r>  -17.8819    1.0000 </r>
       <r>  -17.5257    1.0000 </r>
       <r>  -16.6756    1.0000 </r>
       <r>  -16.2468    1.0000 </r>
       <r>  -16.1880    1.0000 </r>
       <r>  -16.1691    1.0000 </r>
       <r>   -7.5456    1.0000 </r>
       <r>   -5.9395    1.0000 </r>
       <r>   -5.2269    1.0000 </r>
       <r>   -4.3358    1.0000 </r>
       <r>   -4.0621    1.0000 </r>
       <r>   -3.7866    1.0000 </r>
       <r>   -2.0830    1.0000 </r>
       <r>   -1.9462    1.0000 </r>
       <r>   -1.3206    1.0000 </r>
       <r>   -1.2565    1.0000 </r>
       <r>   -1.0055    1.0000 </r>
       <r>   -0.4124    1.0000 </r>
       <r>   -0.3018    1.0000 </r>
       <r>   -0.1122    1.0000 </r>
       <r>    0.1317    1.0000 </r>
       <r>    0.3261    1.0000 </r>
       <r>    0.6303    1.0000 </r>
       <r>    0.9787    1.0000 </r>
       <r>    9.3820    0.0000 </r>
       <r>   10.3567    0.0000 </r>
       <r>   10.5574    0.0000 </r>
       <r>   11.0790    0.0000 </r>
       <r>   11.2381    0.0000 </r>
      </set>
      <set comment="kpoint 55">
       <r>  -18.0058    1.0000 </r>
       <r>  -17.6718    1.0000 </r>
       <r>  -16.3552    1.0000 </r>
       <r>  -16.2104    1.0000 </r>
       <r>  -16.1817    1.0000 </r>
       <r>  -16.1442    1.0000 </r>
       <r>   -8.0303    1.0000 </r>
       <r>   -5.6366    1.0000 </r>
       <r>   -5.0488    1.0000 </r>
       <r>   -4.4306    1.0000 </r>
       <r>   -4.3453    1.0000 </r>
       <r>   -3.6787    1.0000 </r>
       <r>   -1.9191    1.0000 </r>
       <r>   -1.6412    1.0000 </r>
       <r>   -1.4925    1.0000 </r>
       <r>   -1.1503    1.0000 </r>
       <r>   -0.9764    1.0000 </r>
       <r>   -0.5687    1.0000 </r>
       <r>   -0.4520    1.0000 </r>
       <r>   -0.3473    1.0000 </r>
       <r>   -0.0189    1.0000 </r>
       <r>    0.6501    1.0000 </r>
       <r>    0.8148    1.0000 </r>
       <r>    1.0201    1.0000 </r>
       <r>    8.7484    0.0000 </r>
       <r>    9.8386    0.0000 </r>
       <r>   10.3317    0.0000 </r>
       <r>   10.6883    0.0000 </r>
       <r>   11.2494    0.0000 </r>
      </set>
     </set>
    </set>
   </array>
  </eigenvalues>
  <separator name="orbital magnetization" >
   <v name="MAGDIPOLOUT">      0.00000000      0.00000000      0.00000000</v>
  </separator>
  <dos>
   <i name="efermi">      1.16679052 </i>
   <total>
    <array>
     <dimension dim="1">gridpoints</dimension>
     <dimension dim="2">spin</dimension>
     <field>energy</field>
     <field>total</field>
     <field>integrated</field>
     <set>
      <set comment="spin 1">
       <r>   -20.3722     0.0000     0.0000 </r>
       <r>   -20.2584     0.0000     0.0000 </r>
       <r>   -20.1446     0.0000     0.0000 </r>
       <r>   -20.0308     0.0000     0.0000 </r>
       <r>   -19.9170     0.0000     0.0000 </r>
       <r>   -19.8032     0.0000     0.0000 </r>
       <r>   -19.6894     0.0000     0.0000 </r>
       <r>   -19.5755     0.0000     0.0000 </r>
       <r>   -19.4617     0.0000     0.0000 </r>
       <r>   -19.3479     0.0000     0.0000 </r>
       <r>   -19.2341     0.0000     0.0000 </r>
       <r>   -19.1203     0.0000     0.0000 </r>
       <r>   -19.0065     0.0000     0.0000 </r>
       <r>   -18.8927     0.0000     0.0000 </r>
       <r>   -18.7789     0.0000     0.0000 </r>
       <r>   -18.6650     0.0000     0.0000 </r>
       <r>   -18.5512     0.0000     0.0000 </r>
       <r>   -18.4374     0.0000     0.0000 </r>
       <r>   -18.3236     0.3098     0.0050 </r>
       <r>   -18.2098     1.3479     0.1191 </r>
       <r>   -18.0960     2.2841     0.3249 </r>
       <r>   -17.9822     4.1050     0.6918 </r>
       <r>   -17.8684     9.2879     1.3241 </r>
       <r>   -17.7545     0.6032     1.9812 </r>
       <r>   -17.6407     1.1168     2.0680 </r>
       <r>   -17.5269     2.1775     2.2504 </r>
       <r>   -17.4131     6.7278     2.6827 </r>
       <r>   -17.2993     3.0788     3.6039 </r>
       <r>   -17.1855     1.2923     3.8375 </r>
       <r>   -17.0717     0.6241     3.9405 </r>
       <r>   -16.9579     0.9977     4.0161 </r>
       <r>   -16.8440     6.3903     4.3719 </r>
       <r>   -16.7302     4.0412     5.2991 </r>
       <r>   -16.6164     2.0947     5.6194 </r>
       <r>   -16.5026     1.3144     5.8054 </r>
       <r>   -16.3888     0.7928     5.9259 </r>
       <r>   -16.2750     3.2832     5.9960 </r>
       <r>   -16.1612    28.5190    11.5675 </r>
       <r>   -16.0474     0.0000    12.0000 </r>
       <r>   -15.9335     0.0000    12.0000 </r>
       <r>   -15.8197     0.0000    12.0000 </r>
       <r>   -15.7059     0.0000    12.0000 </r>
       <r>   -15.5921     0.0000    12.0000 </r>
       <r>   -15.4783     0.0000    12.0000 </r>
       <r>   -15.3645     0.0000    12.0000 </r>
       <r>   -15.2507     0.0000    12.0000 </r>
       <r>   -15.1369     0.0000    12.0000 </r>
       <r>   -15.0230     0.0000    12.0000 </r>
       <r>   -14.9092     0.0000    12.0000 </r>
       <r>   -14.7954     0.0000    12.0000 </r>
       <r>   -14.6816     0.0000    12.0000 </r>
       <r>   -14.5678     0.0000    12.0000 </r>
       <r>   -14.4540     0.0000    12.0000 </r>
       <r>   -14.3402     0.0000    12.0000 </r>
       <r>   -14.2264     0.0000    12.0000 </r>
       <r>   -14.1125     0.0000    12.0000 </r>
       <r>   -13.9987     0.0000    12.0000 </r>
       <r>   -13.8849     0.0000    12.0000 </r>
       <r>   -13.7711     0.0000    12.0000 </r>
       <r>   -13.6573     0.0000    12.0000 </r>
       <r>   -13.5435     0.0000    12.0000 </r>
       <r>   -13.4297     0.0000    12.0000 </r>
       <r>   -13.3159     0.0000    12.0000 </r>
       <r>   -13.2020     0.0000    12.0000 </r>
       <r>   -13.0882     0.0000    12.0000 </r>
       <r>   -12.9744     0.0000    12.0000 </r>
       <r>   -12.8606     0.0000    12.0000 </r>
       <r>   -12.7468     0.0000    12.0000 </r>
       <r>   -12.6330     0.0000    12.0000 </r>
       <r>   -12.5192     0.0000    12.0000 </r>
       <r>   -12.4054     0.0000    12.0000 </r>
       <r>   -12.2915     0.0000    12.0000 </r>
       <r>   -12.1777     0.0000    12.0000 </r>
       <r>   -12.0639     0.0000    12.0000 </r>
       <r>   -11.9501     0.0000    12.0000 </r>
       <r>   -11.8363     0.0000    12.0000 </r>
       <r>   -11.7225     0.0000    12.0000 </r>
       <r>   -11.6087     0.0000    12.0000 </r>
       <r>   -11.4949     0.0000    12.0000 </r>
       <r>   -11.3810     0.0000    12.0000 </r>
       <r>   -11.2672     0.0000    12.0000 </r>
       <r>   -11.1534     0.0000    12.0000 </r>
       <r>   -11.0396     0.0000    12.0000 </r>
       <r>   -10.9258     0.0000    12.0000 </r>
       <r>   -10.8120     0.0000    12.0000 </r>
       <r>   -10.6982     0.0000    12.0000 </r>
       <r>   -10.5844     0.0000    12.0000 </r>
       <r>   -10.4705     0.0000    12.0000 </r>
       <r>   -10.3567     0.0000    12.0000 </r>
       <r>   -10.2429     0.0000    12.0000 </r>
       <r>   -10.1291     0.0000    12.0000 </r>
       <r>   -10.0153     0.0000    12.0000 </r>
       <r>    -9.9015     0.0000    12.0000 </r>
       <r>    -9.7877     0.0000    12.0000 </r>
       <r>    -9.6739     0.0000    12.0000 </r>
       <r>    -9.5600     0.0000    12.0000 </r>
       <r>    -9.4462     0.0000    12.0000 </r>
       <r>    -9.3324     0.0000    12.0000 </r>
       <r>    -9.2186     0.0000    12.0000 </r>
       <r>    -9.1048     0.0000    12.0000 </r>
       <r>    -8.9910     0.0000    12.0000 </r>
       <r>    -8.8772     0.0000    12.0000 </r>
       <r>    -8.7634     0.0000    12.0000 </r>
       <r>    -8.6495     0.0000    12.0000 </r>
       <r>    -8.5357     0.0000    12.0000 </r>
       <r>    -8.4219     0.0000    12.0000 </r>
       <r>    -8.3081     0.0000    12.0000 </r>
       <r>    -8.1943     0.0650    12.0011 </r>
       <r>    -8.0805     0.3560    12.0239 </r>
       <r>    -7.9667     0.4850    12.0734 </r>
       <r>    -7.8529     0.6950    12.1402 </r>
       <r>    -7.7390     0.8903    12.2311 </r>
       <r>    -7.6252     1.2292    12.3492 </r>
       <r>    -7.5114     1.6971    12.5140 </r>
       <r>    -7.3976     3.0773    12.7650 </r>
       <r>    -7.2838     7.2857    13.5196 </r>
       <r>    -7.1700     0.9294    13.8862 </r>
       <r>    -7.0562     0.4968    13.9653 </r>
       <r>    -6.9424     0.2669    14.0073 </r>
       <r>    -6.8285     0.2472    14.0333 </r>
       <r>    -6.7147     0.3863    14.0690 </r>
       <r>    -6.6009     0.5851    14.1230 </r>
       <r>    -6.4871     0.9813    14.2100 </r>
       <r>    -6.3733     1.6345    14.3551 </r>
       <r>    -6.2595     4.3458    14.6530 </r>
       <r>    -6.1457     3.5280    15.2693 </r>
       <r>    -6.0319     2.0085    15.5779 </r>
       <r>    -5.9180     1.1729    15.7521 </r>
       <r>    -5.8042     0.7972    15.8624 </r>
       <r>    -5.6904     0.5326    15.9372 </r>
       <r>    -5.5766     0.3144    15.9939 </r>
       <r>    -5.4628     0.6374    16.0170 </r>
       <r>    -5.3490     2.6167    16.2057 </r>
       <r>    -5.2352     3.3770    16.5845 </r>
       <r>    -5.1214     2.9028    16.9206 </r>
       <r>    -5.0075     2.6707    17.2463 </r>
       <r>    -4.8937     1.8626    17.5063 </r>
       <r>    -4.7799     1.3629    17.6877 </r>
       <r>    -4.6661     1.0009    17.8213 </r>
       <r>    -4.5523     0.6680    17.9159 </r>
       <r>    -4.4385     1.9225    18.0333 </r>
       <r>    -4.3247    18.4830    19.2390 </r>
       <r>    -4.2109     8.0792    20.4459 </r>
       <r>    -4.0970     6.7376    21.1605 </r>
       <r>    -3.9832     4.4242    21.8299 </r>
       <r>    -3.8694     6.8943    22.3410 </r>
       <r>    -3.7556     6.6860    23.2263 </r>
       <r>    -3.6418     3.1693    23.7738 </r>
       <r>    -3.5280     0.4540    23.9902 </r>
       <r>    -3.4142     0.0000    24.0000 </r>
       <r>    -3.3004     0.0000    24.0000 </r>
       <r>    -3.1865     0.0000    24.0000 </r>
       <r>    -3.0727     0.0000    24.0000 </r>
       <r>    -2.9589     0.0000    24.0000 </r>
       <r>    -2.8451     0.0000    24.0000 </r>
       <r>    -2.7313     0.0000    24.0000 </r>
       <r>    -2.6175     0.0000    24.0000 </r>
       <r>    -2.5037     0.0000    24.0000 </r>
       <r>    -2.3899     0.0000    24.0000 </r>
       <r>    -2.2760     0.0000    24.0000 </r>
       <r>    -2.1622     3.2241    24.0369 </r>
       <r>    -2.0484    12.6671    25.2275 </r>
       <r>    -1.9346     5.9708    26.1458 </r>
       <r>    -1.8208     8.2037    26.8051 </r>
       <r>    -1.7070     6.4086    27.6826 </r>
       <r>    -1.5932     6.4426    28.3479 </r>
       <r>    -1.4794     5.9953    29.3925 </r>
       <r>    -1.3655     2.5275    29.9623 </r>
       <r>    -1.2517     3.7653    30.1420 </r>
       <r>    -1.1379     8.8662    31.4466 </r>
       <r>    -1.0241     2.5471    31.9490 </r>
       <r>    -0.9103    20.3624    33.3199 </r>
       <r>    -0.7965     1.8583    33.9261 </r>
       <r>    -0.6827     6.8750    34.3469 </r>
       <r>    -0.5689     8.0125    35.0722 </r>
       <r>    -0.4550    11.0122    36.2828 </r>
       <r>    -0.3412     5.5280    37.4058 </r>
       <r>    -0.2274     4.7227    37.9574 </r>
       <r>    -0.1136    11.4310    39.0147 </r>
       <r>     0.0002     5.1547    40.0199 </r>
       <r>     0.1140    14.0700    40.9230 </r>
       <r>     0.2278     0.0001    42.0000 </r>
       <r>     0.3416    11.5165    42.4731 </r>
       <r>     0.4555     3.7078    43.6307 </r>
       <r>     0.5693     4.2945    44.1248 </r>
       <r>     0.6831     6.6745    44.7184 </r>
       <r>     0.7969     9.9229    45.7376 </r>
       <r>     0.9107     7.0708    46.5022 </r>
       <r>     1.0245    11.6993    47.7051 </r>
       <r>     1.1383     0.0000    48.0000 </r>
       <r>     1.2521     0.0000    48.0000 </r>
       <r>     1.3660     0.0000    48.0000 </r>
       <r>     1.4798     0.0000    48.0000 </r>
       <r>     1.5936     0.0000    48.0000 </r>
       <r>     1.7074     0.0000    48.0000 </r>
       <r>     1.8212     0.0000    48.0000 </r>
       <r>     1.9350     0.0000    48.0000 </r>
       <r>     2.0488     0.0000    48.0000 </r>
       <r>     2.1627     0.0000    48.0000 </r>
       <r>     2.2765     0.0000    48.0000 </r>
       <r>     2.3903     0.0000    48.0000 </r>
       <r>     2.5041     0.0000    48.0000 </r>
       <r>     2.6179     0.0000    48.0000 </r>
       <r>     2.7317     0.0000    48.0000 </r>
       <r>     2.8455     0.0000    48.0000 </r>
       <r>     2.9593     0.0000    48.0000 </r>
       <r>     3.0732     0.0000    48.0000 </r>
       <r>     3.1870     0.0000    48.0000 </r>
       <r>     3.3008     0.0000    48.0000 </r>
       <r>     3.4146     0.0000    48.0000 </r>
       <r>     3.5284     0.0000    48.0000 </r>
       <r>     3.6422     0.0000    48.0000 </r>
       <r>     3.7560     0.0000    48.0000 </r>
       <r>     3.8698     0.0000    48.0000 </r>
       <r>     3.9837     0.0000    48.0000 </r>
       <r>     4.0975     0.0000    48.0000 </r>
       <r>     4.2113     0.0000    48.0000 </r>
       <r>     4.3251     0.0000    48.0000 </r>
       <r>     4.4389     0.0000    48.0000 </r>
       <r>     4.5527     0.0000    48.0000 </r>
       <r>     4.6665     0.0000    48.0000 </r>
       <r>     4.7803     0.0000    48.0000 </r>
       <r>     4.8942     0.0000    48.0000 </r>
       <r>     5.0080     0.0000    48.0000 </r>
       <r>     5.1218     0.0000    48.0000 </r>
       <r>     5.2356     0.0000    48.0000 </r>
       <r>     5.3494     0.0000    48.0000 </r>
       <r>     5.4632     0.0000    48.0000 </r>
       <r>     5.5770     0.0000    48.0000 </r>
       <r>     5.6908     0.0000    48.0000 </r>
       <r>     5.8047     0.0000    48.0000 </r>
       <r>     5.9185     0.0000    48.0000 </r>
       <r>     6.0323     0.0000    48.0000 </r>
       <r>     6.1461     0.0000    48.0000 </r>
       <r>     6.2599     0.0000    48.0000 </r>
       <r>     6.3737     0.0000    48.0000 </r>
       <r>     6.4875     0.0000    48.0000 </r>
       <r>     6.6013     0.0000    48.0000 </r>
       <r>     6.7152     0.0000    48.0000 </r>
       <r>     6.8290     0.0000    48.0000 </r>
       <r>     6.9428     0.0000    48.0000 </r>
       <r>     7.0566     0.0000    48.0000 </r>
       <r>     7.1704     0.0025    48.0000 </r>
       <r>     7.2842     0.0269    48.0015 </r>
       <r>     7.3980     0.0773    48.0071 </r>
       <r>     7.5118     0.1538    48.0201 </r>
       <r>     7.6257     0.2261    48.0424 </r>
       <r>     7.7395     0.2651    48.0705 </r>
       <r>     7.8533     0.2868    48.1021 </r>
       <r>     7.9671     0.3214    48.1363 </r>
       <r>     8.0809     0.3678    48.1755 </r>
       <r>     8.1947     0.4168    48.2202 </r>
       <r>     8.3085     0.4683    48.2705 </r>
       <r>     8.4223     0.5219    48.3268 </r>
       <r>     8.5362     0.6134    48.3901 </r>
       <r>     8.6500     0.7661    48.4687 </r>
       <r>     8.7638     0.8292    48.5637 </r>
       <r>     8.8776     0.8533    48.6576 </r>
       <r>     8.9914     0.9145    48.7582 </r>
       <r>     9.1052     0.9777    48.8658 </r>
       <r>     9.2190     1.0428    48.9808 </r>
       <r>     9.3328     1.4520    49.1163 </r>
       <r>     9.4467     1.5148    49.2887 </r>
       <r>     9.5605     1.2636    49.4438 </r>
       <r>     9.6743     1.2880    49.5858 </r>
       <r>     9.7881     1.5216    49.7465 </r>
       <r>     9.9019     2.0343    49.9284 </r>
       <r>    10.0157     1.2432    50.1249 </r>
       <r>    10.1295     1.2070    50.2548 </r>
       <r>    10.2433     3.1949    50.4844 </r>
       <r>    10.3572    11.8297    51.1877 </r>
       <r>    10.4710     4.1524    52.0861 </r>
       <r>    10.5848     5.7021    52.5811 </r>
       <r>    10.6986     7.3841    53.4210 </r>
       <r>    10.8124     4.5263    54.1618 </r>
       <r>    10.9262     2.5705    54.5146 </r>
       <r>    11.0400     5.3472    54.9566 </r>
       <r>    11.1538     5.8092    55.7592 </r>
       <r>    11.2677     2.5528    56.1224 </r>
       <r>    11.3815     4.3138    56.5210 </r>
       <r>    11.4953     8.4900    57.2152 </r>
       <r>    11.6091     2.3788    57.9111 </r>
       <r>    11.7229     0.0730    57.9989 </r>
       <r>    11.8367     0.0000    58.0000 </r>
       <r>    11.9505     0.0000    58.0000 </r>
       <r>    12.0643     0.0000    58.0000 </r>
       <r>    12.1782     0.0000    58.0000 </r>
       <r>    12.2920     0.0000    58.0000 </r>
       <r>    12.4058     0.0000    58.0000 </r>
       <r>    12.5196     0.0000    58.0000 </r>
       <r>    12.6334     0.0000    58.0000 </r>
       <r>    12.7472     0.0000    58.0000 </r>
       <r>    12.8610     0.0000    58.0000 </r>
       <r>    12.9748     0.0000    58.0000 </r>
       <r>    13.0887     0.0000    58.0000 </r>
       <r>    13.2025     0.0000    58.0000 </r>
       <r>    13.3163     0.0000    58.0000 </r>
       <r>    13.4301     0.0000    58.0000 </r>
       <r>    13.5439     0.0000    58.0000 </r>
       <r>    13.6577     0.0000    58.0000 </r>
       <r>    13.7715     0.0000    58.0000 </r>
      </set>
     </set>
    </array>
   </total>
  </dos>
 </calculation>
 <structure name="finalpos" >
  <crystal>
   <varray name="basis" >
    <v>       4.91370000       0.00000000       0.00000000 </v>
    <v>      -2.45685000       4.25538903       0.00000000 </v>
    <v>       0.00000000       0.00000000       5.40513000 </v>
   </varray>
   <i name="volume">    113.01967420 </i>
   <varray name="rec_basis" >
    <v>       0.20351263       0.11749807       0.00000000 </v>
    <v>       0.00000000       0.23499614       0.00000000 </v>
    <v>       0.00000000       0.00000000       0.18500943 </v>
   </varray>
  </crystal>
  <varray name="positions" >
   <v>       0.46980000       0.00000000       0.66667000 </v>
   <v>       0.00000000       0.46980000       0.33333000 </v>
   <v>       0.53020000       0.53020000       0.00000000 </v>
   <v>       0.41450000       0.26620000       0.78560000 </v>
   <v>       0.73380000       0.14830000       0.45227000 </v>
   <v>       0.85170000       0.58550000       0.11893000 </v>
   <v>       0.14830000       0.73380000       0.54773000 </v>
   <v>       0.26620000       0.41450000       0.21440000 </v>
   <v>       0.58550000       0.85170000       0.88107000 </v>
  </varray>
 </structure>
</modeling>
