  20  20   0   0
  0.2336395E+02  0.5522883E-09  0.3905268E-09  0.2166505E-08  0.5000000E-15
  1.000000000000000E-004
  CAR 
 unknown system                          
      6.10614867    -39.02005357  301     -0.80942748      1.00000000
    -39.020  0.0000E+00  0.0000E+00
    -38.870  0.0000E+00  0.0000E+00
    -38.719  0.0000E+00  0.0000E+00
    -38.569  0.0000E+00  0.0000E+00
    -38.418  0.0000E+00  0.0000E+00
    -38.268  0.0000E+00  0.0000E+00
    -38.118  0.0000E+00  0.0000E+00
    -37.967  0.0000E+00  0.0000E+00
    -37.817  0.0000E+00  0.0000E+00
    -37.666  0.0000E+00  0.0000E+00
    -37.516  0.0000E+00  0.0000E+00
    -37.365  0.0000E+00  0.0000E+00
    -37.215  0.0000E+00  0.0000E+00
    -37.065  0.0000E+00  0.0000E+00
    -36.914  0.0000E+00  0.2000E+01
    -36.764  0.0000E+00  0.2000E+01
    -36.613  0.0000E+00  0.2000E+01
    -36.463  0.0000E+00  0.2000E+01
    -36.312  0.0000E+00  0.2000E+01
    -36.162  0.0000E+00  0.2000E+01
    -36.012  0.0000E+00  0.2000E+01
    -35.861  0.0000E+00  0.2000E+01
    -35.711  0.0000E+00  0.2000E+01
    -35.560  0.0000E+00  0.2000E+01
    -35.410  0.0000E+00  0.2000E+01
    -35.260  0.0000E+00  0.4000E+01
    -35.109  0.0000E+00  0.4000E+01
    -34.959  0.0000E+00  0.4000E+01
    -34.808  0.0000E+00  0.4000E+01
    -34.658  0.0000E+00  0.4000E+01
    -34.507  0.0000E+00  0.4000E+01
    -34.357  0.0000E+00  0.4000E+01
    -34.207  0.0000E+00  0.6000E+01
    -34.056  0.0000E+00  0.6000E+01
    -33.906  0.0000E+00  0.6000E+01
    -33.755  0.0000E+00  0.6000E+01
    -33.605  0.0000E+00  0.6000E+01
    -33.454  0.0000E+00  0.6000E+01
    -33.304  0.0000E+00  0.6000E+01
    -33.154  0.0000E+00  0.8000E+01
    -33.003  0.0000E+00  0.8000E+01
    -32.853  0.0000E+00  0.8000E+01
    -32.702  0.0000E+00  0.8000E+01
    -32.552  0.0000E+00  0.8000E+01
    -32.402  0.0000E+00  0.8000E+01
    -32.251  0.0000E+00  0.8000E+01
    -32.101  0.0000E+00  0.8000E+01
    -31.950  0.0000E+00  0.8000E+01
    -31.800  0.0000E+00  0.8000E+01
    -31.649  0.0000E+00  0.8000E+01
    -31.499  0.0000E+00  0.8000E+01
    -31.349  0.0000E+00  0.8000E+01
    -31.198  0.0000E+00  0.8000E+01
    -31.048  0.0000E+00  0.8000E+01
    -30.897  0.0000E+00  0.8000E+01
    -30.747  0.0000E+00  0.8000E+01
    -30.596  0.0000E+00  0.8000E+01
    -30.446  0.0000E+00  0.8000E+01
    -30.296  0.0000E+00  0.8000E+01
    -30.145  0.0000E+00  0.8000E+01
    -29.995  0.0000E+00  0.8000E+01
    -29.844  0.0000E+00  0.8000E+01
    -29.694  0.0000E+00  0.8000E+01
    -29.544  0.0000E+00  0.8000E+01
    -29.393  0.0000E+00  0.8000E+01
    -29.243  0.0000E+00  0.8000E+01
    -29.092  0.0000E+00  0.8000E+01
    -28.942  0.0000E+00  0.8000E+01
    -28.791  0.0000E+00  0.8000E+01
    -28.641  0.0000E+00  0.8000E+01
    -28.491  0.0000E+00  0.8000E+01
    -28.340  0.0000E+00  0.8000E+01
    -28.190  0.0000E+00  0.8000E+01
    -28.039  0.0000E+00  0.8000E+01
    -27.889  0.0000E+00  0.8000E+01
    -27.739  0.0000E+00  0.8000E+01
    -27.588  0.0000E+00  0.8000E+01
    -27.438  0.0000E+00  0.8000E+01
    -27.287  0.0000E+00  0.8000E+01
    -27.137  0.0000E+00  0.8000E+01
    -26.986  0.0000E+00  0.8000E+01
    -26.836  0.0000E+00  0.8000E+01
    -26.686  0.0000E+00  0.8000E+01
    -26.535  0.0000E+00  0.8000E+01
    -26.385  0.0000E+00  0.8000E+01
    -26.234  0.0000E+00  0.8000E+01
    -26.084  0.0000E+00  0.8000E+01
    -25.933  0.0000E+00  0.8000E+01
    -25.783  0.0000E+00  0.8000E+01
    -25.633  0.0000E+00  0.8000E+01
    -25.482  0.0000E+00  0.8000E+01
    -25.332  0.0000E+00  0.8000E+01
    -25.181  0.0000E+00  0.8000E+01
    -25.031  0.0000E+00  0.8000E+01
    -24.881  0.0000E+00  0.8000E+01
    -24.730  0.0000E+00  0.8000E+01
    -24.580  0.0000E+00  0.8000E+01
    -24.429  0.0000E+00  0.8000E+01
    -24.279  0.0000E+00  0.8000E+01
    -24.128  0.0000E+00  0.8000E+01
    -23.978  0.0000E+00  0.8000E+01
    -23.828  0.0000E+00  0.8000E+01
    -23.677  0.0000E+00  0.8000E+01
    -23.527  0.0000E+00  0.8000E+01
    -23.376  0.0000E+00  0.8000E+01
    -23.226  0.0000E+00  0.8000E+01
    -23.075  0.0000E+00  0.8000E+01
    -22.925  0.0000E+00  0.8000E+01
    -22.775  0.0000E+00  0.8000E+01
    -22.624  0.0000E+00  0.8000E+01
    -22.474  0.0000E+00  0.8000E+01
    -22.323  0.0000E+00  0.8000E+01
    -22.173  0.0000E+00  0.8000E+01
    -22.023  0.0000E+00  0.8000E+01
    -21.872  0.0000E+00  0.8000E+01
    -21.722  0.0000E+00  0.8000E+01
    -21.571  0.0000E+00  0.8000E+01
    -21.421  0.0000E+00  0.8000E+01
    -21.270  0.0000E+00  0.8000E+01
    -21.120  0.0000E+00  0.8000E+01
    -20.970  0.0000E+00  0.8000E+01
    -20.819  0.0000E+00  0.8000E+01
    -20.669  0.1168E+02  0.8262E+01
    -20.518  0.5373E+01  0.9634E+01
    -20.368  0.1936E+01  0.1014E+02
    -20.217  0.3926E+01  0.1058E+02
    -20.067  0.4882E+01  0.1130E+02
    -19.917  0.8669E+01  0.1228E+02
    -19.766  0.5627E+01  0.1334E+02
    -19.616  0.1979E+01  0.1392E+02
    -19.465  0.0000E+00  0.1400E+02
    -19.315  0.0000E+00  0.1600E+02
    -19.165  0.1002E+02  0.1740E+02
    -19.014  0.4418E+02  0.1899E+02
    -18.864  0.1584E+02  0.2105E+02
    -18.713  0.1451E+02  0.2263E+02
    -18.563  0.1947E+02  0.2540E+02
    -18.412  0.0000E+00  0.2600E+02
    -18.262  0.1361E+02  0.2726E+02
    -18.112  0.8551E+01  0.2839E+02
    -17.961  0.0000E+00  0.3000E+02
    -17.811  0.1023E+02  0.3076E+02
    -17.660  0.3771E+01  0.3185E+02
    -17.510  0.8342E+01  0.3224E+02
    -17.359  0.4880E+01  0.3389E+02
    -17.209  0.3893E+02  0.3561E+02
    -17.059  0.3019E+01  0.3802E+02
    -16.908  0.7486E+01  0.3954E+02
    -16.758  0.0000E+00  0.4000E+02
    -16.607  0.0000E+00  0.4000E+02
    -16.457  0.1411E+02  0.4046E+02
    -16.307  0.9719E+01  0.4318E+02
    -16.156  0.1789E+02  0.4538E+02
    -16.006  0.4360E+01  0.4814E+02
    -15.855  0.1323E+02  0.4965E+02
    -15.705  0.0000E+00  0.5000E+02
    -15.554  0.0000E+00  0.5000E+02
    -15.404  0.6026E+01  0.5006E+02
    -15.254  0.2693E+01  0.5212E+02
    -15.103  0.7287E+01  0.5287E+02
    -14.953  0.2259E+02  0.5478E+02
    -14.802  0.0000E+00  0.5600E+02
    -14.652  0.0000E+00  0.5600E+02
    -14.501  0.0000E+00  0.5600E+02
    -14.351  0.0000E+00  0.5600E+02
    -14.201  0.0000E+00  0.5600E+02
    -14.050  0.0000E+00  0.5600E+02
    -13.900  0.0000E+00  0.5600E+02
    -13.749  0.0000E+00  0.5600E+02
    -13.599  0.0000E+00  0.5600E+02
    -13.449  0.0000E+00  0.5600E+02
    -13.298  0.0000E+00  0.5600E+02
    -13.148  0.0000E+00  0.5600E+02
    -12.997  0.0000E+00  0.5600E+02
    -12.847  0.0000E+00  0.5600E+02
    -12.696  0.0000E+00  0.5600E+02
    -12.546  0.0000E+00  0.5600E+02
    -12.396  0.0000E+00  0.5600E+02
    -12.245  0.0000E+00  0.5600E+02
    -12.095  0.0000E+00  0.5600E+02
    -11.944  0.0000E+00  0.5600E+02
    -11.794  0.0000E+00  0.5600E+02
    -11.643  0.0000E+00  0.5600E+02
    -11.493  0.0000E+00  0.5600E+02
    -11.343  0.0000E+00  0.5600E+02
    -11.192  0.0000E+00  0.5600E+02
    -11.042  0.0000E+00  0.5600E+02
    -10.891  0.0000E+00  0.5600E+02
    -10.741  0.0000E+00  0.5600E+02
    -10.591  0.0000E+00  0.5600E+02
    -10.440  0.0000E+00  0.5600E+02
    -10.290  0.0000E+00  0.5600E+02
    -10.139  0.0000E+00  0.5600E+02
     -9.989  0.0000E+00  0.5600E+02
     -9.838  0.0000E+00  0.5600E+02
     -9.688  0.0000E+00  0.5600E+02
     -9.538  0.0000E+00  0.5600E+02
     -9.387  0.0000E+00  0.5600E+02
     -9.237  0.0000E+00  0.5600E+02
     -9.086  0.0000E+00  0.5600E+02
     -8.936  0.0000E+00  0.5600E+02
     -8.785  0.0000E+00  0.5600E+02
     -8.635  0.0000E+00  0.5600E+02
     -8.485  0.0000E+00  0.5600E+02
     -8.334  0.0000E+00  0.5600E+02
     -8.184  0.0000E+00  0.5600E+02
     -8.033  0.0000E+00  0.5600E+02
     -7.883  0.0000E+00  0.5600E+02
     -7.733  0.0000E+00  0.5600E+02
     -7.582  0.0000E+00  0.5600E+02
     -7.432  0.6414E+01  0.5682E+02
     -7.281  0.3695E+01  0.5756E+02
     -7.131  0.1042E+02  0.5850E+02
     -6.980  0.1060E+02  0.6019E+02
     -6.830  0.7952E+01  0.6128E+02
     -6.680  0.8796E+01  0.6254E+02
     -6.529  0.8929E+01  0.6390E+02
     -6.379  0.9028E+01  0.6525E+02
     -6.228  0.9380E+01  0.6662E+02
     -6.078  0.8058E+01  0.6790E+02
     -5.928  0.1209E+02  0.6955E+02
     -5.777  0.1383E+02  0.7150E+02
     -5.627  0.1210E+02  0.7358E+02
     -5.476  0.1144E+02  0.7530E+02
     -5.326  0.1122E+02  0.7692E+02
     -5.175  0.1467E+02  0.7885E+02
     -5.025  0.1404E+02  0.8100E+02
     -4.875  0.1335E+02  0.8310E+02
     -4.724  0.1413E+02  0.8493E+02
     -4.574  0.1355E+02  0.8699E+02
     -4.423  0.1407E+02  0.8906E+02
     -4.273  0.1449E+02  0.9109E+02
     -4.122  0.1759E+02  0.9369E+02
     -3.972  0.1192E+02  0.9576E+02
     -3.822  0.6217E+01  0.9744E+02
     -3.671  0.1022E+02  0.9869E+02
     -3.521  0.1250E+02  0.1004E+03
     -3.370  0.1247E+02  0.1023E+03
     -3.220  0.8023E+01  0.1038E+03
     -3.070  0.6193E+01  0.1049E+03
     -2.919  0.1233E+02  0.1068E+03
     -2.769  0.1005E+02  0.1082E+03
     -2.618  0.1126E+02  0.1103E+03
     -2.468  0.6330E+01  0.1113E+03
     -2.317  0.2174E+01  0.1120E+03
     -2.167  0.8329E+01  0.1127E+03
     -2.017  0.1329E+02  0.1143E+03
     -1.866  0.6326E+01  0.1158E+03
     -1.716  0.7419E+01  0.1172E+03
     -1.565  0.2356E+01  0.1179E+03
     -1.415  0.1539E+02  0.1191E+03
     -1.264  0.1254E+02  0.1203E+03
     -1.114  0.1798E+02  0.1231E+03
     -0.964  0.7963E+01  0.1251E+03
     -0.813  0.2469E+02  0.1279E+03
     -0.663  0.1642E+02  0.1314E+03
     -0.512  0.6790E+01  0.1332E+03
     -0.362  0.4559E+01  0.1339E+03
     -0.212  0.3830E+01  0.1345E+03
     -0.061  0.3826E+01  0.1351E+03
      0.089  0.3832E+01  0.1356E+03
      0.240  0.6774E+01  0.1365E+03
      0.390  0.8066E+01  0.1377E+03
      0.541  0.8954E+01  0.1390E+03
      0.691  0.8288E+01  0.1403E+03
      0.841  0.6015E+01  0.1414E+03
      0.992  0.5224E+01  0.1422E+03
      1.142  0.4432E+01  0.1430E+03
      1.293  0.4899E+01  0.1436E+03
      1.443  0.4560E+01  0.1443E+03
      1.594  0.5100E+01  0.1450E+03
      1.744  0.5494E+01  0.1458E+03
      1.894  0.4462E+01  0.1466E+03
      2.045  0.3827E+01  0.1472E+03
      2.195  0.3193E+01  0.1477E+03
      2.346  0.0000E+00  0.1480E+03
      2.496  0.0000E+00  0.1480E+03
      2.646  0.0000E+00  0.1480E+03
      2.797  0.3893E+01  0.1484E+03
      2.947  0.4364E+01  0.1490E+03
      3.098  0.4834E+01  0.1497E+03
      3.248  0.1497E+01  0.1504E+03
      3.399  0.1967E+01  0.1506E+03
      3.549  0.2437E+01  0.1510E+03
      3.699  0.3400E+01  0.1514E+03
      3.850  0.1961E+01  0.1518E+03
      4.000  0.5231E+00  0.1520E+03
      4.151  0.0000E+00  0.1520E+03
      4.301  0.0000E+00  0.1520E+03
      4.452  0.0000E+00  0.1520E+03
      4.602  0.0000E+00  0.1520E+03
      4.752  0.0000E+00  0.1520E+03
      4.903  0.0000E+00  0.1520E+03
      5.053  0.0000E+00  0.1520E+03
      5.204  0.0000E+00  0.1520E+03
      5.354  0.0000E+00  0.1520E+03
      5.504  0.0000E+00  0.1520E+03
      5.655  0.0000E+00  0.1520E+03
      5.805  0.0000E+00  0.1520E+03
      5.956  0.0000E+00  0.1520E+03
      6.106  0.0000E+00  0.1520E+03
