   20   20    1    1
  0.2336395E+02  0.5522883E-09  0.3905268E-09  0.2166505E-08  0.5000000E-15
  1.000000000000000E-004
  CAR 
 unknown system                          
    128      4     76
 
  0.0000000E+00  0.0000000E+00  0.0000000E+00  0.2500000E+00
    1      -36.968863   1.000000
    2      -35.388243   1.000000
    3      -34.316957   1.000000
    4      -33.286295   1.000000
    5      -20.617480   1.000000
    6      -20.089990   1.000000
    7      -20.001542   1.000000
    8      -19.441127   1.000000
    9      -19.155710   1.000000
   10      -19.005715   1.000000
   11      -18.864838   1.000000
   12      -18.799957   1.000000
   13      -18.771445   1.000000
   14      -18.395378   1.000000
   15      -18.043214   1.000000
   16      -17.840595   1.000000
   17      -17.451539   1.000000
   18      -17.253968   1.000000
   19      -17.203928   1.000000
   20      -17.008064   1.000000
   21      -16.369436   1.000000
   22      -16.363730   1.000000
   23      -16.211843   1.000000
   24      -16.091616   1.000000
   25      -16.068281   1.000000
   26      -15.314565   1.000000
   27      -15.038474   1.000000
   28      -14.977329   1.000000
   29       -7.398107   1.000000
   30       -6.997186   1.000000
   31       -6.884185   1.000000
   32       -6.094017   1.000000
   33       -6.030277   1.000000
   34       -5.677376   1.000000
   35       -5.603775   1.000000
   36       -5.403378   1.000000
   37       -5.084977   1.000000
   38       -5.083492   1.000000
   39       -4.998748   1.000000
   40       -4.868603   1.000000
   41       -4.649432   1.000000
   42       -4.617683   1.000000
   43       -4.366153   1.000000
   44       -4.225141   1.000000
   45       -4.144151   1.000000
   46       -4.081141   1.000000
   47       -3.842961   1.000000
   48       -3.832164   1.000000
   49       -3.578686   1.000000
   50       -3.272943   1.000000
   51       -2.953920   1.000000
   52       -2.945129   1.000000
   53       -2.723824   1.000000
   54       -2.723314   1.000000
   55       -2.592630   1.000000
   56       -2.270340   1.000000
   57       -2.141500   1.000000
   58       -1.818329   1.000000
   59       -1.764171   1.000000
   60       -1.360674   1.000000
   61       -1.236301   1.000000
   62       -1.201597   1.000000
   63       -1.009229   1.027771
   64       -0.970393   1.007825
   65       -0.966061   0.847683
   66       -0.900222   0.576895
   67       -0.855946   0.242449
   68       -0.351402   0.000000
   69       -0.281559   0.000000
   70        0.106585   0.000000
   71        0.245477   0.000000
   72        0.395637   0.000000
   73        1.232406   0.000000
   74        1.405301   0.000000
   75        2.711489   0.000000
   76        4.054958   0.000000
 
  0.5000000E+00  0.0000000E+00  0.0000000E+00  0.2500000E+00
    1      -36.968061   1.000000
    2      -35.387281   1.000000
    3      -34.316023   1.000000
    4      -33.285520   1.000000
    5      -20.713538   1.000000
    6      -20.514302   1.000000
    7      -19.758800   1.000000
    8      -19.406921   1.000000
    9      -19.312423   1.000000
   10      -19.006758   1.000000
   11      -18.983409   1.000000
   12      -18.602895   1.000000
   13      -18.579461   1.000000
   14      -18.318546   1.000000
   15      -18.201917   1.000000
   16      -17.770832   1.000000
   17      -17.453354   1.000000
   18      -17.163531   1.000000
   19      -17.125400   1.000000
   20      -17.071764   1.000000
   21      -16.371448   1.000000
   22      -16.252911   1.000000
   23      -16.251423   1.000000
   24      -16.037303   1.000000
   25      -15.877073   1.000000
   26      -15.317134   1.000000
   27      -15.044347   1.000000
   28      -14.906832   1.000000
   29       -7.044654   1.000000
   30       -6.940193   1.000000
   31       -6.266359   1.000000
   32       -6.199678   1.000000
   33       -5.941540   1.000000
   34       -5.842447   1.000000
   35       -5.687863   1.000000
   36       -5.685830   1.000000
   37       -5.457528   1.000000
   38       -5.139900   1.000000
   39       -4.827569   1.000000
   40       -4.771202   1.000000
   41       -4.768344   1.000000
   42       -4.702144   1.000000
   43       -4.480125   1.000000
   44       -4.456264   1.000000
   45       -4.432684   1.000000
   46       -4.152209   1.000000
   47       -4.098939   1.000000
   48       -3.821293   1.000000
   49       -3.736016   1.000000
   50       -3.397930   1.000000
   51       -3.346045   1.000000
   52       -3.292456   1.000000
   53       -3.070475   1.000000
   54       -3.012709   1.000000
   55       -2.646410   1.000000
   56       -2.440633   1.000000
   57       -2.131847   1.000000
   58       -2.073960   1.000000
   59       -1.495292   1.000000
   60       -1.449184   1.000000
   61       -1.309967   1.000000
   62       -1.165612   1.000000
   63       -1.160156   1.070476
   64       -0.891687   0.798624
   65       -0.889407   0.644278
   66       -0.873349   0.496669
   67       -0.793646   0.108171
   68       -0.763917   0.000000
   69       -0.077581   0.000000
   70        0.127279   0.000000
   71        0.236814   0.000000
   72        0.701536   0.000000
   73        1.250152   0.000000
   74        1.736886   0.000000
   75        2.671848   0.000000
   76        2.769039   0.000000
 
  0.0000000E+00  0.5000000E+00  0.0000000E+00  0.2500000E+00
    1      -36.950481   1.000000
    2      -35.367167   1.000000
    3      -34.296008   1.000000
    4      -33.265721   1.000000
    5      -20.654960   1.000000
    6      -19.779451   1.000000
    7      -19.537447   1.000000
    8      -19.381650   1.000000
    9      -19.282277   1.000000
   10      -19.059100   1.000000
   11      -18.870556   1.000000
   12      -18.558741   1.000000
   13      -18.554131   1.000000
   14      -18.236101   1.000000
   15      -17.987401   1.000000
   16      -17.579390   1.000000
   17      -17.568307   1.000000
   18      -17.286006   1.000000
   19      -17.253510   1.000000
   20      -16.786379   1.000000
   21      -16.526676   1.000000
   22      -16.506367   1.000000
   23      -16.095027   1.000000
   24      -16.074947   1.000000
   25      -15.802677   1.000000
   26      -15.422441   1.000000
   27      -15.341760   1.000000
   28      -14.997406   1.000000
   29       -7.525007   1.000000
   30       -7.171808   1.000000
   31       -6.840916   1.000000
   32       -6.831076   1.000000
   33       -6.813973   1.000000
   34       -6.619733   1.000000
   35       -6.558915   1.000000
   36       -6.012263   1.000000
   37       -5.938375   1.000000
   38       -5.703623   1.000000
   39       -5.683336   1.000000
   40       -5.659075   1.000000
   41       -5.145025   1.000000
   42       -5.067688   1.000000
   43       -4.932996   1.000000
   44       -4.739210   1.000000
   45       -4.705906   1.000000
   46       -4.510756   1.000000
   47       -4.506818   1.000000
   48       -4.296287   1.000000
   49       -4.178071   1.000000
   50       -3.656057   1.000000
   51       -3.573155   1.000000
   52       -3.519106   1.000000
   53       -2.998739   1.000000
   54       -2.984338   1.000000
   55       -2.724559   1.000000
   56       -2.579988   1.000000
   57       -2.325355   1.000000
   58       -2.083573   1.000000
   59       -1.807256   1.000000
   60       -1.352348   1.000000
   61       -1.202997   1.000000
   62       -1.033331   1.000000
   63       -0.705943   0.594705
   64       -0.653825  -0.000697
   65       -0.563763  -0.076883
   66       -0.503005  -0.128020
   67       -0.380800  -0.108016
   68        0.535506   0.000000
   69        0.618472   0.000000
   70        0.828256   0.000000
   71        1.221270   0.000000
   72        1.306013   0.000000
   73        1.717462   0.000000
   74        2.312196   0.000000
   75        3.199008   0.000000
   76        3.680333   0.000000
 
  0.5000000E+00  0.5000000E+00  0.0000000E+00  0.2500000E+00
    1      -36.950157   1.000000
    2      -35.366816   1.000000
    3      -34.295679   1.000000
    4      -33.265505   1.000000
    5      -20.382085   1.000000
    6      -20.143256   1.000000
    7      -19.967105   1.000000
    8      -19.385825   1.000000
    9      -19.053125   1.000000
   10      -18.998455   1.000000
   11      -18.743185   1.000000
   12      -18.722593   1.000000
   13      -18.515121   1.000000
   14      -18.180937   1.000000
   15      -18.033994   1.000000
   16      -17.919751   1.000000
   17      -17.315614   1.000000
   18      -17.171274   1.000000
   19      -17.152890   1.000000
   20      -16.962007   1.000000
   21      -16.416888   1.000000
   22      -16.198563   1.000000
   23      -16.147050   1.000000
   24      -16.111847   1.000000
   25      -15.888267   1.000000
   26      -15.343874   1.000000
   27      -14.999458   1.000000
   28      -14.891041   1.000000
   29       -7.549702   1.000000
   30       -7.215751   1.000000
   31       -7.138445   1.000000
   32       -7.073913   1.000000
   33       -6.878057   1.000000
   34       -6.762130   1.000000
   35       -6.194341   1.000000
   36       -6.095859   1.000000
   37       -6.043007   1.000000
   38       -5.942366   1.000000
   39       -5.854665   1.000000
   40       -5.475884   1.000000
   41       -5.416526   1.000000
   42       -5.371324   1.000000
   43       -5.293197   1.000000
   44       -4.771276   1.000000
   45       -4.623846   1.000000
   46       -4.261673   1.000000
   47       -4.219147   1.000000
   48       -4.158265   1.000000
   49       -4.078681   1.000000
   50       -3.962482   1.000000
   51       -3.812016   1.000000
   52       -3.782419   1.000000
   53       -3.595760   1.000000
   54       -2.952280   1.000000
   55       -2.841863   1.000000
   56       -2.766601   1.000000
   57       -1.892174   1.000000
   58       -1.883686   1.000000
   59       -1.813918   1.000000
   60       -1.524230   1.000000
   61       -1.155847   1.000000
   62       -1.068660   1.000000
   63       -0.977454   1.012424
   64       -0.710717   0.137744
   65       -0.618763  -0.014333
   66       -0.522953  -0.118138
   67       -0.068199  -0.119626
   68        0.826262   0.000000
   69        0.827651   0.000000
   70        1.245684   0.000000
   71        1.256122   0.000000
   72        1.862299   0.000000
   73        2.251627   0.000000
   74        2.252623   0.000000
   75        3.235147   0.000000
   76        3.594546   0.000000
