Automatically generated mesh
       4
Reciprocal lattice
    0.00000000000000    0.00000000000000    0.00000000000000             1
    0.50000000000000    0.00000000000000    0.00000000000000             1
    0.00000000000000    0.50000000000000    0.00000000000000             1
    0.50000000000000    0.50000000000000    0.00000000000000             1
Tetrahedra
        12    0.04166666666667
         2         1         1         2         4
         2         1         1         3         4
         2         1         3         3         4
         2         1         2         2         4
         2         1         2         4         4
         2         1         3         4         4
         2         1         2         2         3
         2         2         2         3         4
         2         2         3         4         4
         2         1         1         2         3
         2         1         2         3         3
         2         2         3         3         4
