 vasp.5.4.4.18Apr17-6-g9f103f2a35 (build Jun 30 2017 11:15:00) complex          
  
 executed on    STALLO_VASP_5.4.4 date 2019.11.06  18:33:05
 running on    4 total cores
 distrk:  each k-point on    4 cores,    1 groups
 distr:  one band on NCORES_PER_BAND=   2 cores,    2 groups


--------------------------------------------------------------------------------------------------------


 INCAR:
 POTCAR:   PAW_PBE O 08Apr2002                    
 POTCAR:   PAW_PBE Sr_sv 07Sep2000                
 POTCAR:   PAW_PBE Ti 08Apr2002                   
 POTCAR:   PAW_PBE O 08Apr2002                    
   VRHFIN =O: s2p4                                                              
   LEXCH  = PE                                                                  
   EATOM  =   432.3788 eV,   31.7789 Ry                                         
                                                                                
   TITEL  = PAW_PBE O 08Apr2002                                                 
   LULTRA =        F    use ultrasoft PP ?                                      
   IUNSCR =        0    unscreen: 0-lin 1-nonlin 2-no                           
   RPACOR =     .000    partial core radius                                     
   POMASS =   16.000; ZVAL   =    6.000    mass and valenz                      
   RCORE  =    1.520    outmost cutoff radius                                   
   RWIGS  =    1.550; RWIGS  =     .820    wigner-seitz radius (au A)           
   ENMAX  =  400.000; ENMIN  =  300.000 eV                                      
   ICORE  =        2    local potential                                         
   LCOR   =        T    correct aug charges                                     
   LPAW   =        T    paw PP                                                  
   EAUG   =  605.392                                                            
   DEXC   =     .000                                                            
   RMAX   =    2.264    core radius for proj-oper                               
   RAUG   =    1.300    factor for augmentation sphere                          
   RDEP   =    1.550    radius for radial grids                                 
   QCUT   =   -5.520; QGAM   =   11.041    optimization parameters              
                                                                                
   Description                                                                  
     l     E      TYP  RCUT    TYP  RCUT                                        
     0   .000     23  1.200                                                     
     0  -.700     23  1.200                                                     
     1   .000     23  1.520                                                     
     1   .600     23  1.520                                                     
     2   .000      7  1.500                                                     
  local pseudopotential read in
  atomic valenz-charges read in
  non local Contribution for L=           0  read in
    real space projection operators read in
  non local Contribution for L=           0  read in
    real space projection operators read in
  non local Contribution for L=           1  read in
    real space projection operators read in
  non local Contribution for L=           1  read in
    real space projection operators read in
    PAW grid and wavefunctions read in
 
   number of l-projection  operators is LMAX  =           4
   number of lm-projection operators is LMMAX =           8
 
 POTCAR:   PAW_PBE Sr_sv 07Sep2000                
   VRHFIN =Sr: 4s4p5s                                                           
   LEXCH  = PE                                                                  
   EATOM  =   842.4562 eV,   61.9188 Ry                                         
                                                                                
   TITEL  = PAW_PBE Sr_sv 07Sep2000                                             
   LULTRA =        F    use ultrasoft PP ?                                      
   IUNSCR =        1    unscreen: 0-lin 1-nonlin 2-no                           
   RPACOR =    2.200    partial core radius                                     
   POMASS =   87.620; ZVAL   =   10.000    mass and valenz                      
   RCORE  =    2.500    outmost cutoff radius                                   
   RWIGS  =    4.040; RWIGS  =    2.138    wigner-seitz radius (au A)           
   ENMAX  =  229.282; ENMIN  =  171.961 eV                                      
   RCLOC  =    2.201    cutoff for local pot                                    
   LCOR   =        T    correct aug charges                                     
   LPAW   =        T    paw PP                                                  
   EAUG   =  366.804                                                            
   DEXC   =     .000                                                            
   RMAX   =    3.045    core radius for proj-oper                               
   RAUG   =    1.300    factor for augmentation sphere                          
   RDEP   =    2.562    radius for radial grids                                 
   QCUT   =   -4.105; QGAM   =    8.210    optimization parameters              
                                                                                
   Description                                                                  
     l     E      TYP  RCUT    TYP  RCUT                                        
     0   .000     23  2.480                                                     
     0   .000     23  2.480                                                     
     1   .000     23  2.500                                                     
     1   .000     23  2.500                                                     
     2   .000     23  2.500                                                     
     2   .000     23  2.500                                                     
  local pseudopotential read in
  partial core-charges read in
  atomic valenz-charges read in
  non local Contribution for L=           0  read in
    real space projection operators read in
  non local Contribution for L=           0  read in
    real space projection operators read in
  non local Contribution for L=           1  read in
    real space projection operators read in
  non local Contribution for L=           1  read in
    real space projection operators read in
  non local Contribution for L=           2  read in
    real space projection operators read in
  non local Contribution for L=           2  read in
    real space projection operators read in
    PAW grid and wavefunctions read in
 
   number of l-projection  operators is LMAX  =           6
   number of lm-projection operators is LMMAX =          18
 
 POTCAR:   PAW_PBE Ti 08Apr2002                   
   VRHFIN =Ti: d3 s1                                                            
   LEXCH  = PE                                                                  
   EATOM  =    94.7929 eV,    6.9671 Ry                                         
                                                                                
   TITEL  = PAW_PBE Ti 08Apr2002                                                
   LULTRA =        F    use ultrasoft PP ?                                      
   IUNSCR =        1    unscreen: 0-lin 1-nonlin 2-no                           
   RPACOR =    2.200    partial core radius                                     
   POMASS =   47.880; ZVAL   =    4.000    mass and valenz                      
   RCORE  =    2.800    outmost cutoff radius                                   
   RWIGS  =    2.500; RWIGS  =    1.323    wigner-seitz radius (au A)           
   ENMAX  =  178.330; ENMIN  =  133.747 eV                                      
   RCLOC  =    2.215    cutoff for local pot                                    
   LCOR   =        T    correct aug charges                                     
   LPAW   =        T    paw PP                                                  
   EAUG   =  328.883                                                            
   DEXC   =    -.043                                                            
   RMAX   =    3.453    core radius for proj-oper                               
   RAUG   =    1.300    factor for augmentation sphere                          
   RDEP   =    2.885    radius for radial grids                                 
   QCUT   =   -3.620; QGAM   =    7.241    optimization parameters              
                                                                                
   Description                                                                  
     l     E      TYP  RCUT    TYP  RCUT                                        
     2   .000     23  2.800                                                     
     2   .000     23  2.800                                                     
     0   .000     23  2.800                                                     
     0  1.500     23  2.800                                                     
     1  -.400     23  2.800                                                     
     3   .000      7   .000                                                     
  local pseudopotential read in
  partial core-charges read in
  atomic valenz-charges read in
  non local Contribution for L=           2  read in
    real space projection operators read in
  non local Contribution for L=           2  read in
    real space projection operators read in
  non local Contribution for L=           0  read in
    real space projection operators read in
  non local Contribution for L=           0  read in
    real space projection operators read in
  non local Contribution for L=           1  read in
    real space projection operators read in
    PAW grid and wavefunctions read in
 
   number of l-projection  operators is LMAX  =           5
   number of lm-projection operators is LMMAX =          15
 

 ----------------------------------------------------------------------------- 
|                                                                             |
|  ADVICE TO THIS USER RUNNING 'VASP/VAMP'   (HEAR YOUR MASTER'S VOICE ...):  |
|                                                                             |
|      You have a (more or less) 'large supercell' and for larger cells       |
|      it might be more efficient to use real space projection operators      |
|      So try LREAL= Auto  in the INCAR   file.                               |
|      Mind: If you want to do a very accurate calculations keep the          |
|      reciprocal projection scheme          (i.e. LREAL=.FALSE.)             |
|                                                                             |
 ----------------------------------------------------------------------------- 

 PAW_PBE O 08Apr2002                    :
 energy of atom  1       EATOM= -432.3788
 kinetic energy error for atom=    0.0224 (will be added to EATOM!!)
 PAW_PBE Sr_sv 07Sep2000                :
 energy of atom  2       EATOM= -842.4562
 kinetic energy error for atom=    0.0012 (will be added to EATOM!!)
 PAW_PBE Ti 08Apr2002                   :
 energy of atom  3       EATOM=  -94.7929
 kinetic energy error for atom=    0.0002 (will be added to EATOM!!)
 
 
 POSCAR:  O Sr Ti                                
  positions in direct lattice
  No initial velocities read in
 exchange correlation table for  LEXCH =        8
   RHO(1)=    0.500       N(1)  =     2000
   RHO(2)=  100.500       N(2)  =     4000
 


--------------------------------------------------------------------------------------------------------


 ion  position               nearest neighbor table
   1  0.500  0.000  0.277-  17 1.95  17 1.95  14 2.76  13 2.76  13 2.76
   2  0.250  0.500  0.341-  17 1.95  18 1.95  13 2.76  14 2.76  13 2.76  14 2.76
   3  0.750  0.500  0.341-  17 1.95  18 1.95  13 2.76  14 2.76  13 2.76  14 2.76
   4  0.000  0.000  0.404-  18 1.95  18 1.95  13 2.76  14 2.76  14 2.76  15 2.76
   5  0.750  0.500  0.468-  18 1.95  19 1.95  14 2.76  14 2.76  15 2.76  15 2.76
   6  0.250  0.500  0.468-  18 1.95  19 1.95  14 2.76  14 2.76  15 2.76  15 2.76
   7  0.500  0.000  0.532-  19 1.95  19 1.95  16 2.76  15 2.76  15 2.76  14 2.76
   8  0.250  0.500  0.596-  19 1.95  20 1.95  15 2.76  16 2.76  15 2.76  16 2.76
   9  0.750  0.500  0.596-  19 1.95  20 1.95  15 2.76  16 2.76  15 2.76  16 2.76
  10  0.000  0.000  0.659-  20 1.95  20 1.95  15 2.76  16 2.76  16 2.76
  11  0.750  0.500  0.723-  20 1.95  16 2.76  16 2.76
  12  0.250  0.500  0.723-  20 1.95  16 2.76  16 2.76
  13  0.000  0.000  0.277-   4 2.76   3 2.76   2 2.76   2 2.76   3 2.76   1 2.76   1 2.76  18 3.38
                            18 3.38  17 3.38  17 3.38  17 3.38  17 3.38  14 3.91  14 3.91
  14  0.500  0.000  0.404-   1 2.76   2 2.76   3 2.76   5 2.76   6 2.76   2 2.76   3 2.76   5 2.76
                             6 2.76   4 2.76   4 2.76   7 2.76  17 3.38  17 3.38  18 3.38  18 3.38
  15  0.000  0.000  0.532-  10 2.76   9 2.76   8 2.76   8 2.76   9 2.76   7 2.76   7 2.76   6 2.76
                             5 2.76   6 2.76   5 2.76   4 2.76  20 3.38  20 3.38  19 3.38  19 3.38
  16  0.500  0.000  0.659-   7 2.76   8 2.76   9 2.76  11 2.76  12 2.76   8 2.76   9 2.76  11 2.76
                            12 2.76  10 2.76  10 2.76  19 3.38  19 3.38  20 3.38  20 3.38  20 3.38
  17  0.500  0.500  0.277-   2 1.95   3 1.95   1 1.95   1 1.95  14 3.38  14 3.38  13 3.38  13 3.38
                            13 3.38  13 3.38
  18  0.000  0.500  0.404-   2 1.95   3 1.95   5 1.95   6 1.95   4 1.95   4 1.95  13 3.38  13 3.38
                            14 3.38  14 3.38  14 3.38  14 3.38  15 3.38  15 3.38
  19  0.500  0.500  0.532-   8 1.95   9 1.95   7 1.95   7 1.95   5 1.95   6 1.95  16 3.38  16 3.38
                            15 3.38  15 3.38  15 3.38  15 3.38  14 3.38  14 3.38
  20  0.000  0.500  0.659-   8 1.95   9 1.95  11 1.95  12 1.95  10 1.95  10 1.95  15 3.38  15 3.38
                            16 3.38  16 3.38  16 3.38  16 3.38
 
  LATTYP: Found a simple orthorhombic cell.
 ALAT       =     3.9052680000
 B/A-ratio  =     1.4142135624
 C/A-ratio  =     5.5476462046
  
  Lattice vectors:
  
 A1 = (   0.0000000000,  -3.9052680000,   0.0000000000)
 A2 = (  -5.5228829703,   0.0000000000,   0.0000000000)
 A3 = (   0.0000000000,   0.0000000000, -21.6650451980)


Analysis of symmetry for initial positions (statically):
=====================================================================
 Subroutine PRICEL returns:
 Original cell was already a primitive cell.
 

 Routine SETGRP: Setting up the symmetry group for a 
 simple orthorhombic supercell.


 Subroutine GETGRP returns: Found  4 space group operations
 (whereof  4 operations were pure point group operations)
 out of a pool of  8 trial point group operations.


The static configuration has the point symmetry C_2v.


Analysis of symmetry for dynamics (positions and initial velocities):
=====================================================================
 Subroutine PRICEL returns:
 Original cell was already a primitive cell.
 

 Routine SETGRP: Setting up the symmetry group for a 
 simple orthorhombic supercell.


 Subroutine GETGRP returns: Found  4 space group operations
 (whereof  4 operations were pure point group operations)
 out of a pool of  8 trial point group operations.


The dynamic configuration has the point symmetry C_2v.


 Subroutine INISYM returns: Found  4 space group operations
 (whereof  4 operations are pure point group operations),
 and found     1 'primitive' translations

 
 
 KPOINTS: k-density: 1.0                          

Automatic generation of k-mesh.
Space group operators:
 irot       det(A)        alpha          n_x          n_y          n_z        tau_x        tau_y        tau_z
    1     1.000000     0.000000     1.000000     0.000000     0.000000     0.000000     0.000000     0.000000
    2     1.000000   179.999999     0.000000     0.000000     1.000000     0.000000     0.000000     0.000000
    3    -1.000000   180.000000     1.000000     0.000000     0.000000     0.000000     0.000000     0.000000
    4    -1.000000   180.000000     0.000000     1.000000     0.000000     0.000000     0.000000     0.000000
 
 Subroutine IBZKPT returns following result:
 ===========================================
 
 Found      4 irreducible k-points:
 
 Following reciprocal coordinates:
            Coordinates               Weight
  0.000000  0.000000  0.000000      1.000000
  0.500000  0.000000  0.000000      1.000000
  0.000000  0.500000  0.000000      1.000000
  0.500000  0.500000  0.000000      1.000000
 
 Following cartesian coordinates:
            Coordinates               Weight
  0.000000  0.000000  0.000000      1.000000
  0.090532  0.000000  0.000000      1.000000
  0.000000  0.128032  0.000000      1.000000
  0.090532  0.128032  0.000000      1.000000
 
 TETIRR: Found     12 inequivalent tetrahedra from       24


--------------------------------------------------------------------------------------------------------




 Dimension of arrays:
   k-points           NKPTS =      4   k-points in BZ     NKDIM =      4   number of bands    NBANDS=     76
   number of dos      NEDOS =    301   number of ions     NIONS =     20
   non local maximal  LDIM  =      6   non local SUM 2l+1 LMDIM =     18
   total plane-waves  NPLWV =  86400
   max r-space proj   IRMAX =      1   max aug-charges    IRDMAX=  12968
   dimension x,y,z NGX =    30 NGY =   24 NGZ =  120
   dimension x,y,z NGXF=    60 NGYF=   48 NGZF=  240
   support grid    NGXF=    60 NGYF=   48 NGZF=  240
   ions per type =              12   4   4
   NGX,Y,Z   is equivalent  to a cutoff of   9.03, 10.22,  9.21 a.u.
   NGXF,Y,Z  is equivalent  to a cutoff of  18.06, 20.43, 18.42 a.u.

 SYSTEM =  unknown system                          
 POSCAR =   O Sr Ti                                

 Startparameter for this run:
   NWRITE =      2    write-flag & timer
   PREC   = normal    normal or accurate (medium, high low for compatibility)
   ISTART =      0    job   : 0-new  1-cont  2-samecut
   ICHARG =      2    charge: 1-file 2-atom 10-const
   ISPIN  =      1    spin polarized calculation?
   LNONCOLLINEAR =      F non collinear calculations
   LSORBIT =      F    spin-orbit coupling
   INIWAV =      1    electr: 0-lowe 1-rand  2-diag
   LASPH  =      F    aspherical Exc in radial PAW
   METAGGA=      F    non-selfconsistent MetaGGA calc.

 Electronic Relaxation 1
   ENCUT  =  500.0 eV  36.75 Ry    6.06 a.u.  10.07  7.12 39.50*2*pi/ulx,y,z
   ENINI  =  500.0     initial cutoff
   ENAUG  =  605.4 eV  augmentation charge cutoff
   NELM   =     60;   NELMIN=  4; NELMDL= -5     # of ELM steps 
   EDIFF  = 0.1E-04   stopping-criterion for ELM
   LREAL  =      F    real-space projection
   NLSPLINE    = F    spline interpolate recip. space projectors
   LCOMPAT=      F    compatible to vasp.4.4
   GGA_COMPAT  = T    GGA compatible to vasp.4.4-vasp.4.6
   LMAXPAW     = -100 max onsite density
   LMAXMIX     =    2 max onsite mixed and CHGCAR
   VOSKOWN=      0    Vosko Wilk Nusair interpolation
   ROPT   =    0.00000   0.00000   0.00000
 Ionic relaxation
   EDIFFG = 0.1E-03   stopping-criterion for IOM
   NSW    =      0    number of steps for IOM
   NBLOCK =      1;   KBLOCK =      1    inner block; outer block 
   IBRION =     -1    ionic relax: 0-MD 1-quasi-New 2-CG
   NFREE  =      0    steps in history (QN), initial steepest desc. (CG)
   ISIF   =      2    stress and relaxation
   IWAVPR =     10    prediction:  0-non 1-charg 2-wave 3-comb
   ISYM   =      2    0-nonsym 1-usesym 2-fastsym
   LCORR  =      T    Harris-Foulkes like correction to forces

   POTIM  = 0.5000    time-step for ionic-motion
   TEIN   =    0.0    initial temperature
   TEBEG  =    0.0;   TEEND  =   0.0 temperature during run
   SMASS  =  -3.00    Nose mass-parameter (am)
   estimated Nose-frequenzy (Omega)   =  0.10E-29 period in steps =****** mass=  -0.697E-27a.u.
   SCALEE = 1.0000    scale energy and forces
   NPACO  =    256;   APACO  = 16.0  distance and # of slots for P.C.
   PSTRESS=    0.0 pullay stress

  Mass of Ions in am
   POMASS =  16.00 87.62 47.88
  Ionic Valenz
   ZVAL   =   6.00 10.00  4.00
  Atomic Wigner-Seitz radii
   RWIGS  =  -1.00 -1.00 -1.00
  virtual crystal weights 
   VCA    =   1.00  1.00  1.00
   NELECT =     128.0000    total number of electrons
   NUPDOWN=      -1.0000    fix difference up-down

 DOS related values:
   EMIN   =  10.00;   EMAX   =-10.00  energy-range for DOS
   EFERMI =   0.00
   ISMEAR =    -5;   SIGMA  =   0.20  broadening in eV -4-tet -1-fermi 0-gaus

 Electronic relaxation 2 (details)
   IALGO  =     68    algorithm
   LDIAG  =      T    sub-space diagonalisation (order eigenvalues)
   LSUBROT=      F    optimize rotation matrix (better conditioning)
   TURBO    =      0    0=normal 1=particle mesh
   IRESTART =      0    0=no restart 2=restart with 2 vectors
   NREBOOT  =      0    no. of reboots
   NMIN     =      0    reboot dimension
   EREF     =   0.00    reference energy to select bands
   IMIX   =      4    mixing-type and parameters
     AMIX     =   0.40;   BMIX     =  1.00
     AMIX_MAG =   1.60;   BMIX_MAG =  1.00
     AMIN     =   0.10
     WC   =   100.;   INIMIX=   1;  MIXPRE=   1;  MAXMIX= -45

 Intra band minimization:
   WEIMIN = 0.0000     energy-eigenvalue tresh-hold
   EBREAK =  0.33E-07  absolut break condition
   DEPER  =   0.30     relativ break condition  

   TIME   =   0.40     timestep for ELM

  volume/ion in A,a.u.               =      23.36       157.67
  Fermi-wavevector in a.u.,A,eV,Ry     =   1.063211  2.009177 15.380261  1.130417
  Thomas-Fermi vector in A             =   2.198688
 
 Write flags
   LWAVE        =      F    write WAVECAR
   LDOWNSAMPLE  =      F    k-point downsampling of WAVECAR
   LCHARG       =      T    write CHGCAR
   LVTOT        =      F    write LOCPOT, total local potential
   LVHAR        =      F    write LOCPOT, Hartree potential only
   LELF         =      F    write electronic localiz. function (ELF)
   LORBIT       =      0    0 simple, 1 ext, 2 COOP (PROOUT), +10 PAW based schemes


 Dipole corrections
   LMONO  =      F    monopole corrections only (constant potential shift)
   LDIPOL =      F    correct potential (dipole corrections)
   IDIPOL =      0    1-x, 2-y, 3-z, 4-all directions 
   EPSILON=  1.0000000 bulk dielectric constant

 Exchange correlation treatment:
   GGA     =    --    GGA type
   LEXCH   =     8    internal setting for exchange type
   VOSKOWN=      0    Vosko Wilk Nusair interpolation
   LHFCALC =     F    Hartree Fock is set to
   LHFONE  =     F    Hartree Fock one center treatment
   AEXX    =    0.0000 exact exchange contribution

 Linear response parameters
   LEPSILON=     F    determine dielectric tensor
   LRPA    =     F    only Hartree local field effects (RPA)
   LNABLA  =     F    use nabla operator in PAW spheres
   LVEL    =     F    velocity operator in full k-point grid
   LINTERFAST=   F  fast interpolation
   KINTER  =     0    interpolate to denser k-point grid
   CSHIFT  =0.1000    complex shift for real part using Kramers Kronig
   OMEGAMAX=  -1.0    maximum frequency
   DEG_THRESHOLD= 0.2000000E-02 threshold for treating states as degnerate
   RTIME   =   -0.100 relaxation time in fs
  (WPLASMAI=    0.000 imaginary part of plasma frequency in eV, 0.658/RTIME)
   DFIELD  = 0.0000000 0.0000000 0.0000000 field for delta impulse in time
 
 Orbital magnetization related:
   ORBITALMAG=     F  switch on orbital magnetization
   LCHIMAG   =     F  perturbation theory with respect to B field
   DQ        =  0.001000  dq finite difference perturbation B field
   LLRAUG    =     F  two centre corrections for induced B field



--------------------------------------------------------------------------------------------------------


 Static calculation
 charge density and potential will be updated during run
 non-spin polarized calculation
 RMM-DIIS sequential band-by-band and
  variant of blocked Davidson during initial phase
 perform sub-space diagonalisation
    before iterative eigenvector-optimisation
 modified Broyden-mixing scheme, WC =      100.0
 initial mixing is a Kerker type mixing with AMIX =  0.4000 and BMIX =      1.0000
 Hartree-type preconditioning will be used
 using additional bands           12
 reciprocal scheme for non local part
 use partial core corrections
 calculate Harris-corrections to forces 
   (improved forces if not selfconsistent)
 use gradient corrections 
 use of overlap-Matrix (Vanderbilt PP)
 Fermi weights with tetrahedron method with Bloechl corrections


--------------------------------------------------------------------------------------------------------


  energy-cutoff  :      500.00
  volume of cell :      467.28
      direct lattice vectors                 reciprocal lattice vectors
     5.522882970  0.000000000  0.000000000     0.181064854  0.000000000  0.000000000
     0.000000000  3.905268000  0.000000000     0.000000000  0.256064373  0.000000000
     0.000000000  0.000000000 21.665045198     0.000000000  0.000000000  0.046157300

  length of vectors
     5.522882970  3.905268000 21.665045198     0.181064854  0.256064373  0.046157300


 
 k-points in units of 2pi/SCALE and weight: k-density: 1.0                          
   0.00000000  0.00000000  0.00000000       0.250
   0.09053243  0.00000000  0.00000000       0.250
   0.00000000  0.12803219  0.00000000       0.250
   0.09053243  0.12803219  0.00000000       0.250
 
 k-points in reciprocal lattice and weights: k-density: 1.0                          
   0.00000000  0.00000000  0.00000000       0.250
   0.50000000  0.00000000  0.00000000       0.250
   0.00000000  0.50000000  0.00000000       0.250
   0.50000000  0.50000000  0.00000000       0.250
 
 position of ions in fractional coordinates (direct lattice) 
   0.50000000  0.00000000  0.27694380
   0.25000000  0.50000000  0.34067414
   0.75000000  0.50000000  0.34067414
   0.00000000  0.00000000  0.40440449
   0.75000000  0.50000000  0.46813483
   0.25000000  0.50000000  0.46813483
   0.50000000  0.00000000  0.53186517
   0.25000000  0.50000000  0.59559551
   0.75000000  0.50000000  0.59559551
   0.00000000  0.00000000  0.65932586
   0.75000000  0.50000000  0.72305620
   0.25000000  0.50000000  0.72305620
   0.00000000  0.00000000  0.27694380
   0.50000000  0.00000000  0.40440449
   0.00000000  0.00000000  0.53186517
   0.50000000  0.00000000  0.65932586
   0.50000000  0.50000000  0.27694380
   0.00000000  0.50000000  0.40440449
   0.50000000  0.50000000  0.53186517
   0.00000000  0.50000000  0.65932586
 
 position of ions in cartesian coordinates  (Angst):
   2.76144149  0.00000000  6.00000000
   1.38072074  1.95263400  7.38072074
   4.14216223  1.95263400  7.38072074
   0.00000000  0.00000000  8.76144149
   4.14216223  1.95263400 10.14216223
   1.38072074  1.95263400 10.14216223
   2.76144149  0.00000000 11.52288297
   1.38072074  1.95263400 12.90360371
   4.14216223  1.95263400 12.90360371
   0.00000000  0.00000000 14.28432446
   4.14216223  1.95263400 15.66504520
   1.38072074  1.95263400 15.66504520
   0.00000000  0.00000000  6.00000000
   2.76144149  0.00000000  8.76144149
   0.00000000  0.00000000 11.52288297
   2.76144149  0.00000000 14.28432446
   2.76144149  1.95263400  6.00000000
   0.00000000  1.95263400  8.76144149
   2.76144149  1.95263400 11.52288297
   0.00000000  1.95263400 14.28432446
 


--------------------------------------------------------------------------------------------------------


 k-point  1 :   0.0000 0.0000 0.0000  plane waves:   11857
 k-point  2 :   0.5000 0.0000 0.0000  plane waves:   11860
 k-point  3 :   0.0000 0.5000 0.0000  plane waves:   11898
 k-point  4 :   0.5000 0.5000 0.0000  plane waves:   11904

 maximum and minimum number of plane-waves per node :      5952     5916

 maximum number of plane-waves:     11904
 maximum index in each direction: 
   IXMAX=   10   IYMAX=    7   IZMAX=   39
   IXMIN=  -10   IYMIN=   -7   IZMIN=  -39


 parallel 3D FFT for wavefunctions:
    minimum data exchange during FFTs selected (reduces bandwidth)
 parallel 3D FFT for charge:
    minimum data exchange during FFTs selected (reduces bandwidth)


 total amount of memory used by VASP MPI-rank0    77128. kBytes
=======================================================================

   base      :      30000. kBytes
   nonl-proj :      12189. kBytes
   fftplans  :       7170. kBytes
   grid      :      12862. kBytes
   one-center:        155. kBytes
   wavefun   :      14752. kBytes
 
     INWAV:  cpu time    0.0000: real time    0.0000
 Broyden mixing: mesh for mixing (old mesh)
   NGX = 21   NGY = 15   NGZ = 79
  (NGX  = 60   NGY  = 48   NGZ  =240)
  gives a total of  24885 points

 initial charge density was supplied:
 charge density of overlapping atoms calculated
 number of electron     128.0000000 magnetization 
 keeping initial charge density in first step


--------------------------------------------------------------------------------------------------------


 Maximum index for augmentation-charges         3132 (set IRDMAX)


--------------------------------------------------------------------------------------------------------


 First call to EWALD:  gamma=   0.228
 Maximum number of real-space cells 4x 5x 1
 Maximum number of reciprocal cells 2x 2x 7

    FEWALD:  cpu time    0.0020: real time    0.0019


--------------------------------------- Iteration      1(   1)  ---------------------------------------


    POTLOK:  cpu time    0.1100: real time    0.2076
    SETDIJ:  cpu time    0.0120: real time    0.0128
     EDDAV:  cpu time    2.2917: real time    2.3045
 BZINTS: Fermi energy: 13.643874;128.000000 electrons
         Band energy: -11.413706;  BLOECHL correction: -0.181950
       DOS:  cpu time    0.0020: real time    0.0015
    --------------------------------------------
      LOOP:  cpu time    2.4156: real time    2.5265

 eigenvalue-minimisations  :   616
 total energy-change (2. order) : 0.1589018E+04  (-0.5551434E+04)
 number of electron     128.0000000 magnetization 
 augmentation part      128.0000000 magnetization 

 Free energy of the ion-electron system (eV)
  ---------------------------------------------------
  alpha Z        PSCENC =       378.09908315
  Ewald energy   TEWEN  =     22731.27163923
  -Hartree energ DENC   =    -30966.93774878
  -exchange      EXHF   =         0.00000000
  -V(xc)+E(xc)   XCENC  =       325.41603597
  PAW double counting   =      5334.45189010    -5139.13784255
  entropy T*S    EENTRO =         0.00000000
  eigenvalues    EBANDS =       -11.41370553
  atomic energy  EATOM  =      8937.26825017
  Solvation  Ediel_sol  =         0.00000000
  ---------------------------------------------------
  free energy    TOTEN  =      1589.01760176 eV

  energy without entropy =     1589.01760176  energy(sigma->0) =     1589.01760176


--------------------------------------------------------------------------------------------------------




--------------------------------------- Iteration      1(   2)  ---------------------------------------


     EDDAV:  cpu time    2.6556: real time    2.7098
 BZINTS: Fermi energy:  3.518762;128.000000 electrons
         Band energy:***********;  BLOECHL correction: -0.117050
       DOS:  cpu time    0.0010: real time    0.0013
    --------------------------------------------
      LOOP:  cpu time    2.6566: real time    2.7111

 eigenvalue-minimisations  :   744
 total energy-change (2. order) :-0.1401840E+04  (-0.1350310E+04)
 number of electron     128.0000000 magnetization 
 augmentation part      128.0000000 magnetization 

 Free energy of the ion-electron system (eV)
  ---------------------------------------------------
  alpha Z        PSCENC =       378.09908315
  Ewald energy   TEWEN  =     22731.27163923
  -Hartree energ DENC   =    -30966.93774878
  -exchange      EXHF   =         0.00000000
  -V(xc)+E(xc)   XCENC  =       325.41603597
  PAW double counting   =      5334.45189010    -5139.13784255
  entropy T*S    EENTRO =         0.00000000
  eigenvalues    EBANDS =     -1413.25401636
  atomic energy  EATOM  =      8937.26825017
  Solvation  Ediel_sol  =         0.00000000
  ---------------------------------------------------
  free energy    TOTEN  =       187.17729093 eV

  energy without entropy =      187.17729093  energy(sigma->0) =      187.17729093


--------------------------------------------------------------------------------------------------------




--------------------------------------- Iteration      1(   3)  ---------------------------------------


     EDDAV:  cpu time    2.8756: real time    2.8795
 BZINTS: Fermi energy: -3.037376;128.000000 electrons
         Band energy:***********;  BLOECHL correction:  0.000000
       DOS:  cpu time    0.0000: real time    0.0003
    --------------------------------------------
      LOOP:  cpu time    2.8756: real time    2.8798

 eigenvalue-minimisations  :   820
 total energy-change (2. order) :-0.3562552E+03  (-0.3456963E+03)
 number of electron     128.0000000 magnetization 
 augmentation part      128.0000000 magnetization 

 Free energy of the ion-electron system (eV)
  ---------------------------------------------------
  alpha Z        PSCENC =       378.09908315
  Ewald energy   TEWEN  =     22731.27163923
  -Hartree energ DENC   =    -30966.93774878
  -exchange      EXHF   =         0.00000000
  -V(xc)+E(xc)   XCENC  =       325.41603597
  PAW double counting   =      5334.45189010    -5139.13784255
  entropy T*S    EENTRO =         0.00000000
  eigenvalues    EBANDS =     -1769.50922879
  atomic energy  EATOM  =      8937.26825017
  Solvation  Ediel_sol  =         0.00000000
  ---------------------------------------------------
  free energy    TOTEN  =      -169.07792150 eV

  energy without entropy =     -169.07792150  energy(sigma->0) =     -169.07792150


--------------------------------------------------------------------------------------------------------




--------------------------------------- Iteration      1(   4)  ---------------------------------------


     EDDAV:  cpu time    2.7686: real time    2.7715
 BZINTS: Fermi energy: -4.443823;128.000000 electrons
         Band energy:***********;  BLOECHL correction:  0.000000
       DOS:  cpu time    0.0010: real time    0.0003
    --------------------------------------------
      LOOP:  cpu time    2.7696: real time    2.7718

 eigenvalue-minimisations  :   784
 total energy-change (2. order) :-0.2798427E+02  (-0.2785281E+02)
 number of electron     128.0000000 magnetization 
 augmentation part      128.0000000 magnetization 

 Free energy of the ion-electron system (eV)
  ---------------------------------------------------
  alpha Z        PSCENC =       378.09908315
  Ewald energy   TEWEN  =     22731.27163923
  -Hartree energ DENC   =    -30966.93774878
  -exchange      EXHF   =         0.00000000
  -V(xc)+E(xc)   XCENC  =       325.41603597
  PAW double counting   =      5334.45189010    -5139.13784255
  entropy T*S    EENTRO =         0.00000000
  eigenvalues    EBANDS =     -1797.49349434
  atomic energy  EATOM  =      8937.26825017
  Solvation  Ediel_sol  =         0.00000000
  ---------------------------------------------------
  free energy    TOTEN  =      -197.06218705 eV

  energy without entropy =     -197.06218705  energy(sigma->0) =     -197.06218705


--------------------------------------------------------------------------------------------------------




--------------------------------------- Iteration      1(   5)  ---------------------------------------


     EDDAV:  cpu time    3.5365: real time    3.5567
 BZINTS: Fermi energy: -4.388340;128.000000 electrons
         Band energy:***********;  BLOECHL correction:  0.000000
       DOS:  cpu time    0.0000: real time    0.0003
    CHARGE:  cpu time    0.0900: real time    0.0900
    MIXING:  cpu time    0.0030: real time    0.0033
    --------------------------------------------
      LOOP:  cpu time    3.6294: real time    3.6504

 eigenvalue-minimisations  :  1056
 total energy-change (2. order) :-0.1448454E+01  (-0.1447748E+01)
 number of electron     127.9999566 magnetization 
 augmentation part       13.6696664 magnetization 

 Broyden mixing:
  rms(total) = 0.37602E+01    rms(broyden)= 0.37597E+01
  rms(prec ) = 0.42693E+01
  weight for this iteration     100.00

 Free energy of the ion-electron system (eV)
  ---------------------------------------------------
  alpha Z        PSCENC =       378.09908315
  Ewald energy   TEWEN  =     22731.27163923
  -Hartree energ DENC   =    -30966.93774878
  -exchange      EXHF   =         0.00000000
  -V(xc)+E(xc)   XCENC  =       325.41603597
  PAW double counting   =      5334.45189010    -5139.13784255
  entropy T*S    EENTRO =         0.00000000
  eigenvalues    EBANDS =     -1798.94194852
  atomic energy  EATOM  =      8937.26825017
  Solvation  Ediel_sol  =         0.00000000
  ---------------------------------------------------
  free energy    TOTEN  =      -198.51064122 eV

  energy without entropy =     -198.51064122  energy(sigma->0) =     -198.51064122


--------------------------------------------------------------------------------------------------------




--------------------------------------- Iteration      1(   6)  ---------------------------------------


    POTLOK:  cpu time    0.1040: real time    0.1092
    SETDIJ:  cpu time    0.0110: real time    0.0109
    EDDIAG:  cpu time    0.2510: real time    0.2519
  RMM-DIIS:  cpu time    2.0707: real time    2.0694
    ORTHCH:  cpu time    0.0550: real time    0.0559
 BZINTS: Fermi energy: -0.838724;128.000000 electrons
         Band energy:***********;  BLOECHL correction: -0.122429
       DOS:  cpu time    0.0010: real time    0.0014
    CHARGE:  cpu time    0.0920: real time    0.0916
    MIXING:  cpu time    0.0040: real time    0.0030
    --------------------------------------------
      LOOP:  cpu time    2.5886: real time    2.5932

 eigenvalue-minimisations  :   790
 total energy-change (2. order) :-0.5634262E+01  (-0.3818312E+02)
 number of electron     127.9999753 magnetization 
 augmentation part       17.2946325 magnetization 

 Broyden mixing:
  rms(total) = 0.52216E+01    rms(broyden)= 0.52207E+01
  rms(prec ) = 0.81558E+01
  weight for this iteration     100.00

 eigenvalues of (default mixing * dielectric matrix)
  average eigenvalue GAMMA=   0.4099
  0.4099

 Free energy of the ion-electron system (eV)
  ---------------------------------------------------
  alpha Z        PSCENC =       378.09908315
  Ewald energy   TEWEN  =     22731.27163923
  -Hartree energ DENC   =    -31256.19182048
  -exchange      EXHF   =         0.00000000
  -V(xc)+E(xc)   XCENC  =       345.70083851
  PAW double counting   =      5952.76689648    -5770.47636373
  entropy T*S    EENTRO =         0.00000000
  eigenvalues    EBANDS =     -1522.58342689
  atomic energy  EATOM  =      8937.26825017
  Solvation  Ediel_sol  =         0.00000000
  ---------------------------------------------------
  free energy    TOTEN  =      -204.14490356 eV

  energy without entropy =     -204.14490356  energy(sigma->0) =     -204.14490356


--------------------------------------------------------------------------------------------------------




--------------------------------------- Iteration      1(   7)  ---------------------------------------


    POTLOK:  cpu time    0.1000: real time    0.1046
    SETDIJ:  cpu time    0.0100: real time    0.0107
    EDDIAG:  cpu time    0.2520: real time    0.2510
  RMM-DIIS:  cpu time    1.9007: real time    1.9009
    ORTHCH:  cpu time    0.0530: real time    0.0530
 BZINTS: Fermi energy: -0.808308;128.000000 electrons
         Band energy:***********;  BLOECHL correction: -0.422833
       DOS:  cpu time    0.0020: real time    0.0013
    CHARGE:  cpu time    0.0910: real time    0.0914
    MIXING:  cpu time    0.0030: real time    0.0032
    --------------------------------------------
      LOOP:  cpu time    2.4116: real time    2.4161

 eigenvalue-minimisations  :   723
 total energy-change (2. order) : 0.3132022E+02  (-0.1057949E+02)
 number of electron     127.9999680 magnetization 
 augmentation part       14.3607941 magnetization 

 Broyden mixing:
  rms(total) = 0.21936E+01    rms(broyden)= 0.21924E+01
  rms(prec ) = 0.33859E+01
  weight for this iteration     100.00

 eigenvalues of (default mixing * dielectric matrix)
  average eigenvalue GAMMA=   0.4331
  0.6357  0.2305

 Free energy of the ion-electron system (eV)
  ---------------------------------------------------
  alpha Z        PSCENC =       378.09908315
  Ewald energy   TEWEN  =     22731.27163923
  -Hartree energ DENC   =    -31272.74019044
  -exchange      EXHF   =         0.00000000
  -V(xc)+E(xc)   XCENC  =       340.77636293
  PAW double counting   =      5913.45785050    -5734.16116862
  entropy T*S    EENTRO =         0.00000000
  eigenvalues    EBANDS =     -1466.79651100
  atomic energy  EATOM  =      8937.26825017
  Solvation  Ediel_sol  =         0.00000000
  ---------------------------------------------------
  free energy    TOTEN  =      -172.82468408 eV

  energy without entropy =     -172.82468408  energy(sigma->0) =     -172.82468408


--------------------------------------------------------------------------------------------------------




--------------------------------------- Iteration      1(   8)  ---------------------------------------


    POTLOK:  cpu time    0.1010: real time    0.1050
    SETDIJ:  cpu time    0.0110: real time    0.0108
    EDDIAG:  cpu time    0.2510: real time    0.2509
  RMM-DIIS:  cpu time    1.8717: real time    1.8709
    ORTHCH:  cpu time    0.0530: real time    0.0531
 BZINTS: Fermi energy: -1.845756;128.000000 electrons
         Band energy:***********;  BLOECHL correction:  0.000000
       DOS:  cpu time    0.0000: real time    0.0003
    CHARGE:  cpu time    0.0900: real time    0.0895
    MIXING:  cpu time    0.0030: real time    0.0380
    --------------------------------------------
      LOOP:  cpu time    2.3806: real time    2.4185

 eigenvalue-minimisations  :   705
 total energy-change (2. order) : 0.1285890E+02  (-0.2339001E+01)
 number of electron     127.9999649 magnetization 
 augmentation part       12.9431563 magnetization 

 Broyden mixing:
  rms(total) = 0.15340E+01    rms(broyden)= 0.15338E+01
  rms(prec ) = 0.20259E+01
  weight for this iteration     100.00

 eigenvalues of (default mixing * dielectric matrix)
  average eigenvalue GAMMA=   0.4428
  0.7531  0.2876  0.2876

 Free energy of the ion-electron system (eV)
  ---------------------------------------------------
  alpha Z        PSCENC =       378.09908315
  Ewald energy   TEWEN  =     22731.27163923
  -Hartree energ DENC   =    -31260.66239155
  -exchange      EXHF   =         0.00000000
  -V(xc)+E(xc)   XCENC  =       338.40679411
  PAW double counting   =      5936.79490637    -5760.73262180
  entropy T*S    EENTRO =         0.00000000
  eigenvalues    EBANDS =     -1460.41144609
  atomic energy  EATOM  =      8937.26825017
  Solvation  Ediel_sol  =         0.00000000
  ---------------------------------------------------
  free energy    TOTEN  =      -159.96578641 eV

  energy without entropy =     -159.96578641  energy(sigma->0) =     -159.96578641


--------------------------------------------------------------------------------------------------------




--------------------------------------- Iteration      1(   9)  ---------------------------------------


    POTLOK:  cpu time    0.1010: real time    0.1049
    SETDIJ:  cpu time    0.0100: real time    0.0107
    EDDIAG:  cpu time    0.2510: real time    0.2507
  RMM-DIIS:  cpu time    2.0367: real time    2.0357
    ORTHCH:  cpu time    0.0530: real time    0.0529
 BZINTS: Fermi energy: -1.683659;128.000000 electrons
         Band energy:***********;  BLOECHL correction:  0.000000
       DOS:  cpu time    0.0000: real time    0.0003
    CHARGE:  cpu time    0.0890: real time    0.0892
    MIXING:  cpu time    0.0040: real time    0.0034
    --------------------------------------------
      LOOP:  cpu time    2.5446: real time    2.5478

 eigenvalue-minimisations  :   771
 total energy-change (2. order) : 0.4408203E+01  (-0.2010502E+00)
 number of electron     127.9999651 magnetization 
 augmentation part       13.0514177 magnetization 

 Broyden mixing:
  rms(total) = 0.12667E+01    rms(broyden)= 0.12667E+01
  rms(prec ) = 0.17737E+01
  weight for this iteration     100.00

 eigenvalues of (default mixing * dielectric matrix)
  average eigenvalue GAMMA=   0.9146
  1.8851  1.0236  0.2570  0.4929

 Free energy of the ion-electron system (eV)
  ---------------------------------------------------
  alpha Z        PSCENC =       378.09908315
  Ewald energy   TEWEN  =     22731.27163923
  -Hartree energ DENC   =    -31285.88906494
  -exchange      EXHF   =         0.00000000
  -V(xc)+E(xc)   XCENC  =       339.43166266
  PAW double counting   =      5994.59310341    -5819.97168569
  entropy T*S    EENTRO =         0.00000000
  eigenvalues    EBANDS =     -1430.36057101
  atomic energy  EATOM  =      8937.26825017
  Solvation  Ediel_sol  =         0.00000000
  ---------------------------------------------------
  free energy    TOTEN  =      -155.55758302 eV

  energy without entropy =     -155.55758302  energy(sigma->0) =     -155.55758302


--------------------------------------------------------------------------------------------------------




--------------------------------------- Iteration      1(  10)  ---------------------------------------


    POTLOK:  cpu time    0.1000: real time    0.1027
    SETDIJ:  cpu time    0.0110: real time    0.0107
    EDDIAG:  cpu time    0.2510: real time    0.2509
  RMM-DIIS:  cpu time    1.9107: real time    1.9106
    ORTHCH:  cpu time    0.0520: real time    0.0529
 BZINTS: Fermi energy: -0.727629;128.000000 electrons
         Band energy:***********;  BLOECHL correction: -0.434825
       DOS:  cpu time    0.0020: real time    0.0013
    CHARGE:  cpu time    0.0940: real time    0.0940
    MIXING:  cpu time    0.0040: real time    0.0036
    --------------------------------------------
      LOOP:  cpu time    2.4246: real time    2.4269

 eigenvalue-minimisations  :   721
 total energy-change (2. order) :-0.2003983E+01  (-0.3875581E+01)
 number of electron     127.9999723 magnetization 
 augmentation part       15.4139985 magnetization 

 Broyden mixing:
  rms(total) = 0.31446E+01    rms(broyden)= 0.31440E+01
  rms(prec ) = 0.43783E+01
  weight for this iteration     100.00

 eigenvalues of (default mixing * dielectric matrix)
  average eigenvalue GAMMA=   0.7331
  1.8751  1.0277  0.4953  0.2567  0.0106

 Free energy of the ion-electron system (eV)
  ---------------------------------------------------
  alpha Z        PSCENC =       378.09908315
  Ewald energy   TEWEN  =     22731.27163923
  -Hartree energ DENC   =    -31354.49266302
  -exchange      EXHF   =         0.00000000
  -V(xc)+E(xc)   XCENC  =       342.69157964
  PAW double counting   =      6165.59240012    -5994.80920699
  entropy T*S    EENTRO =         0.00000000
  eigenvalues    EBANDS =     -1363.18264815
  atomic energy  EATOM  =      8937.26825017
  Solvation  Ediel_sol  =         0.00000000
  ---------------------------------------------------
  free energy    TOTEN  =      -157.56156585 eV

  energy without entropy =     -157.56156585  energy(sigma->0) =     -157.56156585


--------------------------------------------------------------------------------------------------------




--------------------------------------- Iteration      1(  11)  ---------------------------------------


    POTLOK:  cpu time    0.1000: real time    0.1029
    SETDIJ:  cpu time    0.0110: real time    0.0108
    EDDIAG:  cpu time    0.2520: real time    0.2510
  RMM-DIIS:  cpu time    2.3926: real time    2.3926
    ORTHCH:  cpu time    0.0520: real time    0.0520
 BZINTS: Fermi energy: -0.669171;128.000000 electrons
         Band energy:***********;  BLOECHL correction: -0.375123
       DOS:  cpu time    0.0010: real time    0.0014
    CHARGE:  cpu time    0.0940: real time    0.0941
    MIXING:  cpu time    0.0050: real time    0.0038
    --------------------------------------------
      LOOP:  cpu time    2.9076: real time    2.9086

 eigenvalue-minimisations  :   907
 total energy-change (2. order) : 0.1410411E+01  (-0.3206533E+00)
 number of electron     127.9999726 magnetization 
 augmentation part       15.4846879 magnetization 

 Broyden mixing:
  rms(total) = 0.31236E+01    rms(broyden)= 0.31236E+01
  rms(prec ) = 0.43197E+01
  weight for this iteration     100.00

 eigenvalues of (default mixing * dielectric matrix)
  average eigenvalue GAMMA=   0.6570
  2.0161  0.9801  0.4972  0.2573  0.1088  0.0827

 Free energy of the ion-electron system (eV)
  ---------------------------------------------------
  alpha Z        PSCENC =       378.09908315
  Ewald energy   TEWEN  =     22731.27163923
  -Hartree energ DENC   =    -31352.50169184
  -exchange      EXHF   =         0.00000000
  -V(xc)+E(xc)   XCENC  =       342.63352032
  PAW double counting   =      6164.83890400    -5994.09843684
  entropy T*S    EENTRO =         0.00000000
  eigenvalues    EBANDS =     -1363.66242291
  atomic energy  EATOM  =      8937.26825017
  Solvation  Ediel_sol  =         0.00000000
  ---------------------------------------------------
  free energy    TOTEN  =      -156.15115471 eV

  energy without entropy =     -156.15115471  energy(sigma->0) =     -156.15115471


--------------------------------------------------------------------------------------------------------




--------------------------------------- Iteration      1(  12)  ---------------------------------------


    POTLOK:  cpu time    0.0990: real time    0.1020
    SETDIJ:  cpu time    0.0110: real time    0.0107
    EDDIAG:  cpu time    0.2500: real time    0.2499
WARNING in EDDRMM: call to ZHEGV failed, returncode =   8  4     35
  RMM-DIIS:  cpu time    2.2957: real time    2.2955
    ORTHCH:  cpu time    0.0520: real time    0.0516
 BZINTS: Fermi energy: -0.684076;128.000000 electrons
         Band energy:***********;  BLOECHL correction: -0.276044
       DOS:  cpu time    0.0010: real time    0.0013
    CHARGE:  cpu time    0.0940: real time    0.0937
    MIXING:  cpu time    0.0040: real time    0.0040
    --------------------------------------------
      LOOP:  cpu time    2.8066: real time    2.8088

 eigenvalue-minimisations  :   882
 total energy-change (2. order) :-0.2931508E+01  (-0.1471277E+00)
 number of electron     127.9999731 magnetization 
 augmentation part       15.6856411 magnetization 

 Broyden mixing:
  rms(total) = 0.34108E+01    rms(broyden)= 0.34108E+01
  rms(prec ) = 0.47814E+01
  weight for this iteration     100.00

 eigenvalues of (default mixing * dielectric matrix)
  average eigenvalue GAMMA=   0.5824
  2.0042  0.9885  0.4965  0.2571  0.1598  0.0855  0.0855

 Free energy of the ion-electron system (eV)
  ---------------------------------------------------
  alpha Z        PSCENC =       378.09908315
  Ewald energy   TEWEN  =     22731.27163923
  -Hartree energ DENC   =    -31365.00355850
  -exchange      EXHF   =         0.00000000
  -V(xc)+E(xc)   XCENC  =       343.01578879
  PAW double counting   =      6179.16309505    -6008.68752621
  entropy T*S    EENTRO =         0.00000000
  eigenvalues    EBANDS =     -1354.20943487
  atomic energy  EATOM  =      8937.26825017
  Solvation  Ediel_sol  =         0.00000000
  ---------------------------------------------------
  free energy    TOTEN  =      -159.08266317 eV

  energy without entropy =     -159.08266317  energy(sigma->0) =     -159.08266317


--------------------------------------------------------------------------------------------------------




--------------------------------------- Iteration      1(  13)  ---------------------------------------


    POTLOK:  cpu time    0.1000: real time    0.1010
    SETDIJ:  cpu time    0.0110: real time    0.0108
    EDDIAG:  cpu time    0.2510: real time    0.2514
  RMM-DIIS:  cpu time    2.5606: real time    2.5600
    ORTHCH:  cpu time    0.0520: real time    0.0520
 BZINTS: Fermi energy: -0.701431;128.000000 electrons
         Band energy:***********;  BLOECHL correction: -0.323921
       DOS:  cpu time    0.0010: real time    0.0013
    CHARGE:  cpu time    0.0950: real time    0.0942
    MIXING:  cpu time    0.0040: real time    0.0043
    --------------------------------------------
      LOOP:  cpu time    3.0745: real time    3.0751

 eigenvalue-minimisations  :   967
 total energy-change (2. order) :-0.2373658E-01  (-0.2789223E-01)
 number of electron     127.9999731 magnetization 
 augmentation part       15.7735355 magnetization 

 Broyden mixing:
  rms(total) = 0.34446E+01    rms(broyden)= 0.34446E+01
  rms(prec ) = 0.47567E+01
  weight for this iteration     100.00

 eigenvalues of (default mixing * dielectric matrix)
  average eigenvalue GAMMA=   0.5538
  2.0010  0.9944  0.4985  0.2571  0.1957  0.1957  0.1442  0.1442

 Free energy of the ion-electron system (eV)
  ---------------------------------------------------
  alpha Z        PSCENC =       378.09908315
  Ewald energy   TEWEN  =     22731.27163923
  -Hartree energ DENC   =    -31363.90638009
  -exchange      EXHF   =         0.00000000
  -V(xc)+E(xc)   XCENC  =       343.04549448
  PAW double counting   =      6177.73268597    -6007.22536382
  entropy T*S    EENTRO =         0.00000000
  eigenvalues    EBANDS =     -1355.39180884
  atomic energy  EATOM  =      8937.26825017
  Solvation  Ediel_sol  =         0.00000000
  ---------------------------------------------------
  free energy    TOTEN  =      -159.10639975 eV

  energy without entropy =     -159.10639975  energy(sigma->0) =     -159.10639975


--------------------------------------------------------------------------------------------------------




--------------------------------------- Iteration      1(  14)  ---------------------------------------


    POTLOK:  cpu time    0.0990: real time    0.1013
    SETDIJ:  cpu time    0.0110: real time    0.0108
    EDDIAG:  cpu time    0.2520: real time    0.2518
  RMM-DIIS:  cpu time    2.2497: real time    2.2497
    ORTHCH:  cpu time    0.0540: real time    0.0546
 BZINTS: Fermi energy: -0.765944;128.000000 electrons
         Band energy:***********;  BLOECHL correction: -0.426022
       DOS:  cpu time    0.0010: real time    0.0014
    CHARGE:  cpu time    0.0990: real time    0.0975
    MIXING:  cpu time    0.0050: real time    0.0046
    --------------------------------------------
      LOOP:  cpu time    2.7706: real time    2.7717

 eigenvalue-minimisations  :   831
 total energy-change (2. order) : 0.1374421E+01  (-0.9449513E-02)
 number of electron     127.9999729 magnetization 
 augmentation part       15.8489320 magnetization 

 Broyden mixing:
  rms(total) = 0.33735E+01    rms(broyden)= 0.33735E+01
  rms(prec ) = 0.45635E+01
  weight for this iteration     100.00

 eigenvalues of (default mixing * dielectric matrix)
  average eigenvalue GAMMA=   0.5787
  1.9889  0.9915  0.4243  0.4243  0.4956  0.2178  0.2178  0.2565  0.1914

 Free energy of the ion-electron system (eV)
  ---------------------------------------------------
  alpha Z        PSCENC =       378.09908315
  Ewald energy   TEWEN  =     22731.27163923
  -Hartree energ DENC   =    -31355.29290010
  -exchange      EXHF   =         0.00000000
  -V(xc)+E(xc)   XCENC  =       342.89172222
  PAW double counting   =      6172.44040174    -6001.74878177
  entropy T*S    EENTRO =         0.00000000
  eigenvalues    EBANDS =     -1362.66139318
  atomic energy  EATOM  =      8937.26825017
  Solvation  Ediel_sol  =         0.00000000
  ---------------------------------------------------
  free energy    TOTEN  =      -157.73197853 eV

  energy without entropy =     -157.73197853  energy(sigma->0) =     -157.73197853


--------------------------------------------------------------------------------------------------------




--------------------------------------- Iteration      1(  15)  ---------------------------------------


    POTLOK:  cpu time    0.1020: real time    0.1059
    SETDIJ:  cpu time    0.0120: real time    0.0113
    EDDIAG:  cpu time    0.2660: real time    0.2733
  RMM-DIIS:  cpu time    2.1497: real time    2.1491
    ORTHCH:  cpu time    0.0520: real time    0.0521
 BZINTS: Fermi energy: -0.771719;128.000000 electrons
         Band energy:***********;  BLOECHL correction: -0.437422
       DOS:  cpu time    0.0020: real time    0.0013
    CHARGE:  cpu time    0.0940: real time    0.0941
    MIXING:  cpu time    0.0050: real time    0.0047
    --------------------------------------------
      LOOP:  cpu time    2.6826: real time    2.6919

 eigenvalue-minimisations  :   795
 total energy-change (2. order) : 0.1054593E+01  (-0.7263775E-02)
 number of electron     127.9999727 magnetization 
 augmentation part       15.7753150 magnetization 

 Broyden mixing:
  rms(total) = 0.32523E+01    rms(broyden)= 0.32523E+01
  rms(prec ) = 0.43744E+01
  weight for this iteration     100.00

 eigenvalues of (default mixing * dielectric matrix)
  average eigenvalue GAMMA=   0.5814
  1.9954  0.9869  0.5782  0.5782  0.4927  0.2616  0.2616  0.2569  0.2011  0.2011

 Free energy of the ion-electron system (eV)
  ---------------------------------------------------
  alpha Z        PSCENC =       378.09908315
  Ewald energy   TEWEN  =     22731.27163923
  -Hartree energ DENC   =    -31352.42041681
  -exchange      EXHF   =         0.00000000
  -V(xc)+E(xc)   XCENC  =       342.77717351
  PAW double counting   =      6171.58473266    -6000.86312887
  entropy T*S    EENTRO =         0.00000000
  eigenvalues    EBANDS =     -1364.39471815
  atomic energy  EATOM  =      8937.26825017
  Solvation  Ediel_sol  =         0.00000000
  ---------------------------------------------------
  free energy    TOTEN  =      -156.67738511 eV

  energy without entropy =     -156.67738511  energy(sigma->0) =     -156.67738511


--------------------------------------------------------------------------------------------------------




--------------------------------------- Iteration      1(  16)  ---------------------------------------


    POTLOK:  cpu time    0.1000: real time    0.1030
    SETDIJ:  cpu time    0.0110: real time    0.0109
    EDDIAG:  cpu time    0.2520: real time    0.2520
  RMM-DIIS:  cpu time    1.9327: real time    1.9317
    ORTHCH:  cpu time    0.0520: real time    0.0526
 BZINTS: Fermi energy: -0.783193;128.000000 electrons
         Band energy:***********;  BLOECHL correction: -0.363408
       DOS:  cpu time    0.0010: real time    0.0013
    CHARGE:  cpu time    0.0940: real time    0.0941
    MIXING:  cpu time    0.0050: real time    0.0049
    --------------------------------------------
      LOOP:  cpu time    2.4476: real time    2.4504

 eigenvalue-minimisations  :   723
 total energy-change (2. order) : 0.2734006E+01  (-0.7396021E-01)
 number of electron     127.9999722 magnetization 
 augmentation part       15.4452613 magnetization 

 Broyden mixing:
  rms(total) = 0.28462E+01    rms(broyden)= 0.28462E+01
  rms(prec ) = 0.38403E+01
  weight for this iteration     100.00

 eigenvalues of (default mixing * dielectric matrix)
  average eigenvalue GAMMA=   0.5812
  1.9748  1.0025  0.6987  0.6987  0.4925  0.3032  0.3032  0.2229  0.2229  0.2564
  0.2168

 Free energy of the ion-electron system (eV)
  ---------------------------------------------------
  alpha Z        PSCENC =       378.09908315
  Ewald energy   TEWEN  =     22731.27163923
  -Hartree energ DENC   =    -31345.41446296
  -exchange      EXHF   =         0.00000000
  -V(xc)+E(xc)   XCENC  =       342.43854707
  PAW double counting   =      6168.53639238    -5997.73919013
  entropy T*S    EENTRO =         0.00000000
  eigenvalues    EBANDS =     -1368.40363851
  atomic energy  EATOM  =      8937.26825017
  Solvation  Ediel_sol  =         0.00000000
  ---------------------------------------------------
  free energy    TOTEN  =      -153.94337960 eV

  energy without entropy =     -153.94337960  energy(sigma->0) =     -153.94337960


--------------------------------------------------------------------------------------------------------




--------------------------------------- Iteration      1(  17)  ---------------------------------------


    POTLOK:  cpu time    0.1000: real time    0.1032
    SETDIJ:  cpu time    0.0110: real time    0.0108
    EDDIAG:  cpu time    0.2520: real time    0.2516
  RMM-DIIS:  cpu time    1.9017: real time    1.9016
    ORTHCH:  cpu time    0.0540: real time    0.0535
 BZINTS: Fermi energy: -0.723484;128.000000 electrons
         Band energy:***********;  BLOECHL correction: -0.089878
       DOS:  cpu time    0.0010: real time    0.0014
    CHARGE:  cpu time    0.0940: real time    0.0938
    MIXING:  cpu time    0.0050: real time    0.0054
    --------------------------------------------
      LOOP:  cpu time    2.4186: real time    2.4213

 eigenvalue-minimisations  :   711
 total energy-change (2. order) : 0.3466846E+01  (-0.2254246E+00)
 number of electron     127.9999703 magnetization 
 augmentation part       14.1961695 magnetization 

 Broyden mixing:
  rms(total) = 0.15113E+01    rms(broyden)= 0.15109E+01
  rms(prec ) = 0.17956E+01
  weight for this iteration     100.00

 eigenvalues of (default mixing * dielectric matrix)
  average eigenvalue GAMMA=   0.5329
  1.9750  1.0024  0.6990  0.6990  0.4925  0.3030  0.3030  0.2226  0.2226  0.2564
  0.2162  0.0027

 Free energy of the ion-electron system (eV)
  ---------------------------------------------------
  alpha Z        PSCENC =       378.09908315
  Ewald energy   TEWEN  =     22731.27163923
  -Hartree energ DENC   =    -31324.29349297
  -exchange      EXHF   =         0.00000000
  -V(xc)+E(xc)   XCENC  =       341.70491045
  PAW double counting   =      6154.42744360    -5983.29815298
  entropy T*S    EENTRO =         0.00000000
  eigenvalues    EBANDS =     -1385.65621466
  atomic energy  EATOM  =      8937.26825017
  Solvation  Ediel_sol  =         0.00000000
  ---------------------------------------------------
  free energy    TOTEN  =      -150.47653402 eV

  energy without entropy =     -150.47653402  energy(sigma->0) =     -150.47653402


--------------------------------------------------------------------------------------------------------




--------------------------------------- Iteration      1(  18)  ---------------------------------------


    POTLOK:  cpu time    0.1040: real time    0.1072
    SETDIJ:  cpu time    0.0110: real time    0.0109
    EDDIAG:  cpu time    0.2560: real time    0.2551
  RMM-DIIS:  cpu time    2.2077: real time    2.2081
    ORTHCH:  cpu time    0.0520: real time    0.0519
 BZINTS: Fermi energy: -0.758935;128.000000 electrons
         Band energy:***********;  BLOECHL correction: -0.116095
       DOS:  cpu time    0.0010: real time    0.0014
    CHARGE:  cpu time    0.0910: real time    0.0911
    MIXING:  cpu time    0.0060: real time    0.0053
    --------------------------------------------
      LOOP:  cpu time    2.7286: real time    2.7311

 eigenvalue-minimisations  :   834
 total energy-change (2. order) : 0.1642139E+00  (-0.3952098E-01)
 number of electron     127.9999702 magnetization 
 augmentation part       14.2461988 magnetization 

 Broyden mixing:
  rms(total) = 0.14737E+01    rms(broyden)= 0.14737E+01
  rms(prec ) = 0.17965E+01
  weight for this iteration     100.00

 eigenvalues of (default mixing * dielectric matrix)
  average eigenvalue GAMMA=   0.5068
  1.9750  1.0027  0.7039  0.7039  0.4922  0.3082  0.3082  0.2256  0.2256  0.2563
  0.2174  0.0938  0.0757

 Free energy of the ion-electron system (eV)
  ---------------------------------------------------
  alpha Z        PSCENC =       378.09908315
  Ewald energy   TEWEN  =     22731.27163923
  -Hartree energ DENC   =    -31322.83640122
  -exchange      EXHF   =         0.00000000
  -V(xc)+E(xc)   XCENC  =       341.62621907
  PAW double counting   =      6153.89563716    -5982.73826724
  entropy T*S    EENTRO =         0.00000000
  eigenvalues    EBANDS =     -1386.89848049
  atomic energy  EATOM  =      8937.26825017
  Solvation  Ediel_sol  =         0.00000000
  ---------------------------------------------------
  free energy    TOTEN  =      -150.31232016 eV

  energy without entropy =     -150.31232016  energy(sigma->0) =     -150.31232016


--------------------------------------------------------------------------------------------------------




--------------------------------------- Iteration      1(  19)  ---------------------------------------


    POTLOK:  cpu time    0.0990: real time    0.1024
    SETDIJ:  cpu time    0.0100: real time    0.0107
    EDDIAG:  cpu time    0.2520: real time    0.2504
  RMM-DIIS:  cpu time    2.2187: real time    2.2188
    ORTHCH:  cpu time    0.0520: real time    0.0517
 BZINTS: Fermi energy: -0.764609;128.000000 electrons
         Band energy:***********;  BLOECHL correction: -0.069969
       DOS:  cpu time    0.0010: real time    0.0014
    CHARGE:  cpu time    0.0910: real time    0.0910
    MIXING:  cpu time    0.0060: real time    0.0055
    --------------------------------------------
      LOOP:  cpu time    2.7296: real time    2.7319

 eigenvalue-minimisations  :   852
 total energy-change (2. order) : 0.1947886E+00  (-0.5978359E-02)
 number of electron     127.9999698 magnetization 
 augmentation part       14.0832503 magnetization 

 Broyden mixing:
  rms(total) = 0.13058E+01    rms(broyden)= 0.13057E+01
  rms(prec ) = 0.15157E+01
  weight for this iteration     100.00

 eigenvalues of (default mixing * dielectric matrix)
  average eigenvalue GAMMA=   0.5116
  1.9770  0.9940  0.6652  0.6652  0.4967  0.2969  0.3030  0.3030  0.2695  0.2695
  0.2570  0.2301  0.2301  0.2057

 Free energy of the ion-electron system (eV)
  ---------------------------------------------------
  alpha Z        PSCENC =       378.09908315
  Ewald energy   TEWEN  =     22731.27163923
  -Hartree energ DENC   =    -31321.27177666
  -exchange      EXHF   =         0.00000000
  -V(xc)+E(xc)   XCENC  =       341.57320837
  PAW double counting   =      6153.02137515    -5981.83799631
  entropy T*S    EENTRO =         0.00000000
  eigenvalues    EBANDS =     -1388.24131468
  atomic energy  EATOM  =      8937.26825017
  Solvation  Ediel_sol  =         0.00000000
  ---------------------------------------------------
  free energy    TOTEN  =      -150.11753159 eV

  energy without entropy =     -150.11753159  energy(sigma->0) =     -150.11753159


--------------------------------------------------------------------------------------------------------




--------------------------------------- Iteration      1(  20)  ---------------------------------------


    POTLOK:  cpu time    0.0990: real time    0.1021
    SETDIJ:  cpu time    0.0110: real time    0.0108
    EDDIAG:  cpu time    0.2500: real time    0.2501
  RMM-DIIS:  cpu time    2.1287: real time    2.1280
    ORTHCH:  cpu time    0.0520: real time    0.0519
 BZINTS: Fermi energy: -0.749064;128.000000 electrons
         Band energy:***********;  BLOECHL correction: -0.096493
       DOS:  cpu time    0.0010: real time    0.0013
    CHARGE:  cpu time    0.0910: real time    0.0903
    MIXING:  cpu time    0.0060: real time    0.0058
    --------------------------------------------
      LOOP:  cpu time    2.6386: real time    2.6402

 eigenvalue-minimisations  :   809
 total energy-change (2. order) :-0.1576346E-02  (-0.1665642E-02)
 number of electron     127.9999699 magnetization 
 augmentation part       14.1072769 magnetization 

 Broyden mixing:
  rms(total) = 0.13229E+01    rms(broyden)= 0.13229E+01
  rms(prec ) = 0.15616E+01
  weight for this iteration     100.00

 eigenvalues of (default mixing * dielectric matrix)
  average eigenvalue GAMMA=   0.4869
  1.9805  0.9901  0.6747  0.6747  0.4982  0.3060  0.3060  0.2772  0.2772  0.2573
  0.2397  0.2397  0.2012  0.1908  0.1908

 Free energy of the ion-electron system (eV)
  ---------------------------------------------------
  alpha Z        PSCENC =       378.09908315
  Ewald energy   TEWEN  =     22731.27163923
  -Hartree energ DENC   =    -31321.44545395
  -exchange      EXHF   =         0.00000000
  -V(xc)+E(xc)   XCENC  =       341.56078422
  PAW double counting   =      6153.16856755    -5981.98715492
  entropy T*S    EENTRO =         0.00000000
  eigenvalues    EBANDS =     -1388.05482339
  atomic energy  EATOM  =      8937.26825017
  Solvation  Ediel_sol  =         0.00000000
  ---------------------------------------------------
  free energy    TOTEN  =      -150.11910793 eV

  energy without entropy =     -150.11910793  energy(sigma->0) =     -150.11910793


--------------------------------------------------------------------------------------------------------




--------------------------------------- Iteration      1(  21)  ---------------------------------------


    POTLOK:  cpu time    0.0970: real time    0.1011
    SETDIJ:  cpu time    0.0100: real time    0.0107
    EDDIAG:  cpu time    0.2500: real time    0.2491
  RMM-DIIS:  cpu time    2.1307: real time    2.1303
    ORTHCH:  cpu time    0.0530: real time    0.0530
 BZINTS: Fermi energy: -0.763394;128.000000 electrons
         Band energy:***********;  BLOECHL correction: -0.065998
       DOS:  cpu time    0.0010: real time    0.0012
    CHARGE:  cpu time    0.0920: real time    0.0918
    MIXING:  cpu time    0.0060: real time    0.0061
    --------------------------------------------
      LOOP:  cpu time    2.6396: real time    2.6433

 eigenvalue-minimisations  :   818
 total energy-change (2. order) : 0.8390650E-01  (-0.8179808E-03)
 number of electron     127.9999697 magnetization 
 augmentation part       14.0516895 magnetization 

 Broyden mixing:
  rms(total) = 0.12755E+01    rms(broyden)= 0.12755E+01
  rms(prec ) = 0.14828E+01
  weight for this iteration     100.00

 eigenvalues of (default mixing * dielectric matrix)
  average eigenvalue GAMMA=   0.5972
  1.8986  1.0487  1.0487  1.0571  0.6414  0.6414  0.4342  0.4342  0.4487  0.2582
  0.2582  0.3652  0.2840  0.2840  0.2589  0.1932

 Free energy of the ion-electron system (eV)
  ---------------------------------------------------
  alpha Z        PSCENC =       378.09908315
  Ewald energy   TEWEN  =     22731.27163923
  -Hartree energ DENC   =    -31320.90825930
  -exchange      EXHF   =         0.00000000
  -V(xc)+E(xc)   XCENC  =       341.55157555
  PAW double counting   =      6153.54573268    -5982.36163273
  entropy T*S    EENTRO =         0.00000000
  eigenvalues    EBANDS =     -1388.50159018
  atomic energy  EATOM  =      8937.26825017
  Solvation  Ediel_sol  =         0.00000000
  ---------------------------------------------------
  free energy    TOTEN  =      -150.03520143 eV

  energy without entropy =     -150.03520143  energy(sigma->0) =     -150.03520143


--------------------------------------------------------------------------------------------------------




--------------------------------------- Iteration      1(  22)  ---------------------------------------


    POTLOK:  cpu time    0.1010: real time    0.1028
    SETDIJ:  cpu time    0.0100: real time    0.0107
    EDDIAG:  cpu time    0.2500: real time    0.2493
  RMM-DIIS:  cpu time    1.8147: real time    1.8143
    ORTHCH:  cpu time    0.0540: real time    0.0536
 BZINTS: Fermi energy: -0.794792;128.000000 electrons
         Band energy:***********;  BLOECHL correction:  0.000000
       DOS:  cpu time    0.0000: real time    0.0004
    CHARGE:  cpu time    0.0890: real time    0.0894
    MIXING:  cpu time    0.0070: real time    0.0063
    --------------------------------------------
      LOOP:  cpu time    2.3256: real time    2.3269

 eigenvalue-minimisations  :   693
 total energy-change (2. order) : 0.1177508E+01  (-0.2034629E+00)
 number of electron     127.9999684 magnetization 
 augmentation part       13.6256843 magnetization 

 Broyden mixing:
  rms(total) = 0.77160E+00    rms(broyden)= 0.77113E+00
  rms(prec ) = 0.83839E+00
  weight for this iteration     100.00

 eigenvalues of (default mixing * dielectric matrix)
  average eigenvalue GAMMA=   0.5852
  1.9409  1.0143  1.0143  1.0514  0.7354  0.7354  0.4157  0.4157  0.2560  0.2560
  0.4600  0.2863  0.2863  0.3145  0.3145  0.2584  0.1929

 Free energy of the ion-electron system (eV)
  ---------------------------------------------------
  alpha Z        PSCENC =       378.09908315
  Ewald energy   TEWEN  =     22731.27163923
  -Hartree energ DENC   =    -31297.28244691
  -exchange      EXHF   =         0.00000000
  -V(xc)+E(xc)   XCENC  =       340.84060500
  PAW double counting   =      6149.34931647    -5977.93401754
  entropy T*S    EENTRO =         0.00000000
  eigenvalues    EBANDS =     -1410.47012285
  atomic energy  EATOM  =      8937.26825017
  Solvation  Ediel_sol  =         0.00000000
  ---------------------------------------------------
  free energy    TOTEN  =      -148.85769328 eV

  energy without entropy =     -148.85769328  energy(sigma->0) =     -148.85769328


--------------------------------------------------------------------------------------------------------




--------------------------------------- Iteration      1(  23)  ---------------------------------------


    POTLOK:  cpu time    0.1010: real time    0.1030
    SETDIJ:  cpu time    0.0100: real time    0.0107
    EDDIAG:  cpu time    0.2500: real time    0.2494
  RMM-DIIS:  cpu time    2.0157: real time    2.0154
    ORTHCH:  cpu time    0.0530: real time    0.0529
 BZINTS: Fermi energy: -0.822760;128.000000 electrons
         Band energy:***********;  BLOECHL correction: -0.047178
       DOS:  cpu time    0.0010: real time    0.0012
    CHARGE:  cpu time    0.0920: real time    0.0912
    MIXING:  cpu time    0.0060: real time    0.0066
    --------------------------------------------
      LOOP:  cpu time    2.5286: real time    2.5305

 eigenvalue-minimisations  :   764
 total energy-change (2. order) :-0.1038482E+00  (-0.1359962E+00)
 number of electron     127.9999678 magnetization 
 augmentation part       13.4707247 magnetization 

 Broyden mixing:
  rms(total) = 0.72880E+00    rms(broyden)= 0.72875E+00
  rms(prec ) = 0.80874E+00
  weight for this iteration     100.00

 eigenvalues of (default mixing * dielectric matrix)
  average eigenvalue GAMMA=   0.6099
  1.9665  0.9829  0.9829  0.9762  0.9762  0.9306  0.4100  0.4100  0.4727  0.4727
  0.4903  0.2555  0.2555  0.3680  0.2877  0.2877  0.2588  0.1931

 Free energy of the ion-electron system (eV)
  ---------------------------------------------------
  alpha Z        PSCENC =       378.09908315
  Ewald energy   TEWEN  =     22731.27163923
  -Hartree energ DENC   =    -31278.75639140
  -exchange      EXHF   =         0.00000000
  -V(xc)+E(xc)   XCENC  =       340.39719832
  PAW double counting   =      6143.75036015    -5972.21894795
  entropy T*S    EENTRO =         0.00000000
  eigenvalues    EBANDS =     -1428.77273311
  atomic energy  EATOM  =      8937.26825017
  Solvation  Ediel_sol  =         0.00000000
  ---------------------------------------------------
  free energy    TOTEN  =      -148.96154143 eV

  energy without entropy =     -148.96154143  energy(sigma->0) =     -148.96154143


--------------------------------------------------------------------------------------------------------




--------------------------------------- Iteration      1(  24)  ---------------------------------------


    POTLOK:  cpu time    0.0980: real time    0.1012
    SETDIJ:  cpu time    0.0110: real time    0.0107
    EDDIAG:  cpu time    0.2490: real time    0.2492
  RMM-DIIS:  cpu time    2.0717: real time    2.0702
    ORTHCH:  cpu time    0.0530: real time    0.0529
 BZINTS: Fermi energy: -0.788791;128.000000 electrons
         Band energy:***********;  BLOECHL correction: -0.063590
       DOS:  cpu time    0.0010: real time    0.0012
    CHARGE:  cpu time    0.0910: real time    0.0917
    MIXING:  cpu time    0.0080: real time    0.0069
    --------------------------------------------
      LOOP:  cpu time    2.5826: real time    2.5841

 eigenvalue-minimisations  :   787
 total energy-change (2. order) :-0.2358168E+00  (-0.3407008E-01)
 number of electron     127.9999676 magnetization 
 augmentation part       13.4505751 magnetization 

 Broyden mixing:
  rms(total) = 0.74118E+00    rms(broyden)= 0.74113E+00
  rms(prec ) = 0.87080E+00
  weight for this iteration     100.00

 eigenvalues of (default mixing * dielectric matrix)
  average eigenvalue GAMMA=   0.6539
  2.1253  1.3280  1.3280  0.9046  0.9046  0.9340  0.6078  0.6078  0.4219  0.4219
  0.2562  0.2562  0.4511  0.4248  0.4248  0.2876  0.2876  0.2587  0.1931

 Free energy of the ion-electron system (eV)
  ---------------------------------------------------
  alpha Z        PSCENC =       378.09908315
  Ewald energy   TEWEN  =     22731.27163923
  -Hartree energ DENC   =    -31269.69251329
  -exchange      EXHF   =         0.00000000
  -V(xc)+E(xc)   XCENC  =       340.32316152
  PAW double counting   =      6149.12049527    -5977.87599111
  entropy T*S    EENTRO =         0.00000000
  eigenvalues    EBANDS =     -1437.71148320
  atomic energy  EATOM  =      8937.26825017
  Solvation  Ediel_sol  =         0.00000000
  ---------------------------------------------------
  free energy    TOTEN  =      -149.19735826 eV

  energy without entropy =     -149.19735826  energy(sigma->0) =     -149.19735826


--------------------------------------------------------------------------------------------------------




--------------------------------------- Iteration      1(  25)  ---------------------------------------


    POTLOK:  cpu time    0.1020: real time    0.1045
    SETDIJ:  cpu time    0.0110: real time    0.0107
    EDDIAG:  cpu time    0.2490: real time    0.2492
  RMM-DIIS:  cpu time    1.9967: real time    1.9963
    ORTHCH:  cpu time    0.0520: real time    0.0528
 BZINTS: Fermi energy: -0.766148;128.000000 electrons
         Band energy:***********;  BLOECHL correction: -0.065129
       DOS:  cpu time    0.0010: real time    0.0013
    CHARGE:  cpu time    0.0920: real time    0.0915
    MIXING:  cpu time    0.0080: real time    0.0072
    --------------------------------------------
      LOOP:  cpu time    2.5116: real time    2.5137

 eigenvalue-minimisations  :   752
 total energy-change (2. order) :-0.5417685E-01  (-0.1502069E-01)
 number of electron     127.9999676 magnetization 
 augmentation part       13.4018710 magnetization 

 Broyden mixing:
  rms(total) = 0.74464E+00    rms(broyden)= 0.74464E+00
  rms(prec ) = 0.88314E+00
  weight for this iteration     100.00

 eigenvalues of (default mixing * dielectric matrix)
  average eigenvalue GAMMA=   0.7134
  2.2159  1.7368  1.7368  0.8944  0.8944  0.9024  0.7545  0.7545  0.4201  0.4201
  0.5332  0.5332  0.5375  0.2561  0.2561  0.3948  0.2878  0.2878  0.2587  0.1931

 Free energy of the ion-electron system (eV)
  ---------------------------------------------------
  alpha Z        PSCENC =       378.09908315
  Ewald energy   TEWEN  =     22731.27163923
  -Hartree energ DENC   =    -31265.59230534
  -exchange      EXHF   =         0.00000000
  -V(xc)+E(xc)   XCENC  =       340.32004045
  PAW double counting   =      6156.34204323    -5985.54820991
  entropy T*S    EENTRO =         0.00000000
  eigenvalues    EBANDS =     -1441.41207610
  atomic energy  EATOM  =      8937.26825017
[...]
     43      -4.3662      2.00000
     44      -4.2251      2.00000
     45      -4.1442      2.00000
     46      -4.0811      2.00000
     47      -3.8430      2.00000
     48      -3.8322      2.00000
     49      -3.5787      2.00000
     50      -3.2729      2.00000
     51      -2.9539      2.00000
     52      -2.9451      2.00000
     53      -2.7238      2.00000
     54      -2.7233      2.00000
     55      -2.5926      2.00000
     56      -2.2703      2.00000
     57      -2.1415      2.00000
     58      -1.8183      2.00000
     59      -1.7642      2.00000
     60      -1.3607      2.00000
     61      -1.2363      2.00000
     62      -1.2016      2.00000
     63      -1.0092      2.05554
     64      -0.9704      2.01565
     65      -0.9661      1.69537
     66      -0.9002      1.15379
     67      -0.8559      0.48490
     68      -0.3514      0.00000
     69      -0.2816      0.00000
     70       0.1066      0.00000
     71       0.2455      0.00000
     72       0.3956      0.00000
     73       1.2324      0.00000
     74       1.4053      0.00000
     75       2.7115      0.00000
     76       4.0550      0.00000

 k-point     2 :       0.5000    0.0000    0.0000
  band No.  band energies     occupation 
      1     -36.9681      2.00000
      2     -35.3873      2.00000
      3     -34.3160      2.00000
      4     -33.2855      2.00000
      5     -20.7135      2.00000
      6     -20.5143      2.00000
      7     -19.7588      2.00000
      8     -19.4069      2.00000
      9     -19.3124      2.00000
     10     -19.0068      2.00000
     11     -18.9834      2.00000
     12     -18.6029      2.00000
     13     -18.5795      2.00000
     14     -18.3185      2.00000
     15     -18.2019      2.00000
     16     -17.7708      2.00000
     17     -17.4534      2.00000
     18     -17.1635      2.00000
     19     -17.1254      2.00000
     20     -17.0718      2.00000
     21     -16.3714      2.00000
     22     -16.2529      2.00000
     23     -16.2514      2.00000
     24     -16.0373      2.00000
     25     -15.8771      2.00000
     26     -15.3171      2.00000
     27     -15.0443      2.00000
     28     -14.9068      2.00000
     29      -7.0447      2.00000
     30      -6.9402      2.00000
     31      -6.2664      2.00000
     32      -6.1997      2.00000
     33      -5.9415      2.00000
     34      -5.8424      2.00000
     35      -5.6879      2.00000
     36      -5.6858      2.00000
     37      -5.4575      2.00000
     38      -5.1399      2.00000
     39      -4.8276      2.00000
     40      -4.7712      2.00000
     41      -4.7683      2.00000
     42      -4.7021      2.00000
     43      -4.4801      2.00000
     44      -4.4563      2.00000
     45      -4.4327      2.00000
     46      -4.1522      2.00000
     47      -4.0989      2.00000
     48      -3.8213      2.00000
     49      -3.7360      2.00000
     50      -3.3979      2.00000
     51      -3.3460      2.00000
     52      -3.2925      2.00000
     53      -3.0705      2.00000
     54      -3.0127      2.00000
     55      -2.6464      2.00000
     56      -2.4406      2.00000
     57      -2.1318      2.00000
     58      -2.0740      2.00000
     59      -1.4953      2.00000
     60      -1.4492      2.00000
     61      -1.3100      2.00000
     62      -1.1656      2.00000
     63      -1.1602      2.14095
     64      -0.8917      1.59725
     65      -0.8894      1.28856
     66      -0.8733      0.99334
     67      -0.7936      0.21634
     68      -0.7639      0.00000
     69      -0.0776      0.00000
     70       0.1273      0.00000
     71       0.2368      0.00000
     72       0.7015      0.00000
     73       1.2502      0.00000
     74       1.7369      0.00000
     75       2.6718      0.00000
     76       2.7690      0.00000

 k-point     3 :       0.0000    0.5000    0.0000
  band No.  band energies     occupation 
      1     -36.9505      2.00000
      2     -35.3672      2.00000
      3     -34.2960      2.00000
      4     -33.2657      2.00000
      5     -20.6550      2.00000
      6     -19.7795      2.00000
      7     -19.5374      2.00000
      8     -19.3817      2.00000
      9     -19.2823      2.00000
     10     -19.0591      2.00000
     11     -18.8706      2.00000
     12     -18.5587      2.00000
     13     -18.5541      2.00000
     14     -18.2361      2.00000
     15     -17.9874      2.00000
     16     -17.5794      2.00000
     17     -17.5683      2.00000
     18     -17.2860      2.00000
     19     -17.2535      2.00000
     20     -16.7864      2.00000
     21     -16.5267      2.00000
     22     -16.5064      2.00000
     23     -16.0950      2.00000
     24     -16.0749      2.00000
     25     -15.8027      2.00000
     26     -15.4224      2.00000
     27     -15.3418      2.00000
     28     -14.9974      2.00000
     29      -7.5250      2.00000
     30      -7.1718      2.00000
     31      -6.8409      2.00000
     32      -6.8311      2.00000
     33      -6.8140      2.00000
     34      -6.6197      2.00000
     35      -6.5589      2.00000
     36      -6.0123      2.00000
     37      -5.9384      2.00000
     38      -5.7036      2.00000
     39      -5.6833      2.00000
     40      -5.6591      2.00000
     41      -5.1450      2.00000
     42      -5.0677      2.00000
     43      -4.9330      2.00000
     44      -4.7392      2.00000
     45      -4.7059      2.00000
     46      -4.5108      2.00000
     47      -4.5068      2.00000
     48      -4.2963      2.00000
     49      -4.1781      2.00000
     50      -3.6561      2.00000
     51      -3.5732      2.00000
     52      -3.5191      2.00000
     53      -2.9987      2.00000
     54      -2.9843      2.00000
     55      -2.7246      2.00000
     56      -2.5800      2.00000
     57      -2.3254      2.00000
     58      -2.0836      2.00000
     59      -1.8073      2.00000
     60      -1.3523      2.00000
     61      -1.2030      2.00000
     62      -1.0333      2.00000
     63      -0.7059      1.18941
     64      -0.6538     -0.00139
     65      -0.5638     -0.15377
     66      -0.5030     -0.25604
     67      -0.3808     -0.21603
     68       0.5355      0.00000
     69       0.6185      0.00000
     70       0.8283      0.00000
     71       1.2213      0.00000
     72       1.3060      0.00000
     73       1.7175      0.00000
     74       2.3122      0.00000
     75       3.1990      0.00000
     76       3.6803      0.00000

 k-point     4 :       0.5000    0.5000    0.0000
  band No.  band energies     occupation 
      1     -36.9502      2.00000
      2     -35.3668      2.00000
      3     -34.2957      2.00000
      4     -33.2655      2.00000
      5     -20.3821      2.00000
      6     -20.1433      2.00000
      7     -19.9671      2.00000
      8     -19.3858      2.00000
      9     -19.0531      2.00000
     10     -18.9985      2.00000
     11     -18.7432      2.00000
     12     -18.7226      2.00000
     13     -18.5151      2.00000
     14     -18.1809      2.00000
     15     -18.0340      2.00000
     16     -17.9198      2.00000
     17     -17.3156      2.00000
     18     -17.1713      2.00000
     19     -17.1529      2.00000
     20     -16.9620      2.00000
     21     -16.4169      2.00000
     22     -16.1986      2.00000
     23     -16.1470      2.00000
     24     -16.1118      2.00000
     25     -15.8883      2.00000
     26     -15.3439      2.00000
     27     -14.9995      2.00000
     28     -14.8910      2.00000
     29      -7.5497      2.00000
     30      -7.2158      2.00000
     31      -7.1384      2.00000
     32      -7.0739      2.00000
     33      -6.8781      2.00000
     34      -6.7621      2.00000
     35      -6.1943      2.00000
     36      -6.0959      2.00000
     37      -6.0430      2.00000
     38      -5.9424      2.00000
     39      -5.8547      2.00000
     40      -5.4759      2.00000
     41      -5.4165      2.00000
     42      -5.3713      2.00000
     43      -5.2932      2.00000
     44      -4.7713      2.00000
     45      -4.6238      2.00000
     46      -4.2617      2.00000
     47      -4.2191      2.00000
     48      -4.1583      2.00000
     49      -4.0787      2.00000
     50      -3.9625      2.00000
     51      -3.8120      2.00000
     52      -3.7824      2.00000
     53      -3.5958      2.00000
     54      -2.9523      2.00000
     55      -2.8419      2.00000
     56      -2.7666      2.00000
     57      -1.8922      2.00000
     58      -1.8837      2.00000
     59      -1.8139      2.00000
     60      -1.5242      2.00000
     61      -1.1558      2.00000
     62      -1.0687      2.00000
     63      -0.9775      2.02485
     64      -0.7107      0.27549
     65      -0.6188     -0.02867
     66      -0.5230     -0.23628
     67      -0.0682     -0.23925
     68       0.8263      0.00000
     69       0.8277      0.00000
     70       1.2457      0.00000
     71       1.2561      0.00000
     72       1.8623      0.00000
     73       2.2516      0.00000
     74       2.2526      0.00000
     75       3.2351      0.00000
     76       3.5945      0.00000


--------------------------------------------------------------------------------------------------------


 soft charge-density along one line, spin component           1
         0         1         2         3         4         5         6         7         8         9
 total charge-density along one line
 
 pseudopotential strength for first ion, spin component:           1
 13.284  -0.444   0.000  -0.001   0.000  -0.000   0.000  -0.000
 -0.444   0.103  -0.000  -0.000  -0.000   0.000   0.000   0.000
  0.000  -0.000  -9.788  -0.000   0.000   0.111   0.000  -0.000
 -0.001  -0.000  -0.000  -9.757   0.000   0.000   0.107  -0.000
  0.000  -0.000   0.000   0.000  -9.766  -0.000  -0.000   0.108
 -0.000   0.000   0.111   0.000  -0.000   0.184  -0.000   0.000
  0.000   0.000   0.000   0.107  -0.000  -0.000   0.184   0.000
 -0.000   0.000  -0.000  -0.000   0.108   0.000   0.000   0.184
 total augmentation occupancy for first ion, spin component:           1
  1.862   0.139   0.000   0.016   0.000   0.000   0.002   0.000
  0.139   0.014   0.000  -0.004   0.000   0.000   0.001   0.000
  0.000   0.000   1.609   0.000   0.000   0.151   0.000   0.000
  0.016  -0.004   0.000   1.515   0.000   0.000   0.121   0.000
  0.000   0.000   0.000   0.000   1.515   0.000   0.000   0.127
  0.000   0.000   0.151   0.000   0.000   0.017   0.000   0.000
  0.002   0.001   0.000   0.121   0.000   0.000   0.011   0.000
  0.000   0.000   0.000   0.000   0.127   0.000   0.000   0.013


------------------------ aborting loop because EDIFF is reached ----------------------------------------


    CHARGE:  cpu time    0.0950: real time    0.0946
    FORLOC:  cpu time    0.0220: real time    0.0222
    FORNL :  cpu time    0.9649: real time    0.9647
    STRESS:  cpu time    2.1037: real time    2.1105
    FORCOR:  cpu time    0.1130: real time    0.1135
    FORHAR:  cpu time    0.0380: real time    0.0384
    MIXING:  cpu time    0.0170: real time    0.0168
    OFIELD:  cpu time    0.0000: real time    0.0000

  FORCE on cell =-STRESS in cart. coord.  units (eV):
  Direction    XX          YY          ZZ          XY          YZ          ZX
  --------------------------------------------------------------------------------------
  Alpha Z   378.09908   378.09908   378.09908
  Ewald   27809.53423 27749.52952-32827.80614    -0.00000    -0.00000    -0.00000
  Hartree 30079.96267 30026.09252-28873.24957    -0.00000    -0.00000    -0.00000
  E(xc)    -576.05811  -575.39899  -577.54072     0.00000    -0.00000     0.00000
  Local  -59475.58720-59343.41811 59951.60423     0.00000    -0.00000    -0.00000
  n-local  -465.13487  -458.32516  -468.67392     0.00031    -0.00213    -0.00022
  augment   115.79428   114.47854   117.58959    -0.00000    -0.00000     0.00000
  Kinetic  2195.09929  2186.24637  2214.90756    -0.00159     0.00382    -0.00025
  Fock        0.00000     0.00000     0.00000     0.00000     0.00000     0.00000
  -------------------------------------------------------------------------------------
  Total      61.70938    77.30378   -85.06988     0.00000     0.00000     0.00000
  in kB     211.58530   265.05440  -291.68231     0.00000     0.00000     0.00000
  external pressure =       61.65 kB  Pullay stress =        0.00 kB


 VOLUME and BASIS-vectors are now :
 -----------------------------------------------------------------------------
  energy-cutoff  :      500.00
  volume of cell :      467.28
      direct lattice vectors                 reciprocal lattice vectors
     5.522882970  0.000000000  0.000000000     0.181064854  0.000000000  0.000000000
     0.000000000  3.905268000  0.000000000     0.000000000  0.256064373  0.000000000
     0.000000000  0.000000000 21.665045198     0.000000000  0.000000000  0.046157300

  length of vectors
     5.522882970  3.905268000 21.665045198     0.181064854  0.256064373  0.046157300


 FORCES acting on ions
    electron-ion (+dipol)            ewald-force                    non-local-force                 convergence-correction
 -----------------------------------------------------------------------------------------------
   0.144E-12 -.129E-12 0.127E+04   -.677E-14 0.936E-15 -.128E+04   0.000E+00 0.000E+00 -.119E+01   0.307E-10 0.329E-10 0.860E+01
   0.109E+02 -.364E-13 0.901E+03   -.132E+00 -.110E-13 -.946E+03   -.165E+00 0.000E+00 -.400E+01   -.105E+02 -.244E-10 0.467E+02
   -.109E+02 0.728E-14 0.901E+03   0.132E+00 -.115E-13 -.946E+03   0.165E+00 0.000E+00 -.400E+01   0.105E+02 -.220E-10 0.467E+02
   0.217E-14 -.591E-13 0.489E+03   -.628E-14 -.372E-14 -.542E+03   0.000E+00 0.000E+00 -.266E+01   0.232E-12 0.117E-10 0.553E+02
   0.283E+01 0.141E-11 0.828E+02   0.246E-13 -.106E-13 -.148E+03   0.491E+00 0.000E+00 -.297E+01   -.271E+01 -.572E-11 0.671E+02
   -.283E+01 0.164E-13 0.828E+02   -.125E-12 -.112E-13 -.148E+03   -.491E+00 0.000E+00 -.297E+01   0.271E+01 0.155E-10 0.671E+02
   0.159E-12 -.582E-13 -.311E+03   -.187E-14 -.940E-15 0.247E+03   0.000E+00 0.000E+00 -.184E+01   0.307E-11 0.492E-10 0.652E+02
   0.400E+01 0.646E-13 -.700E+03   0.132E+00 -.870E-15 0.641E+03   0.776E+00 -.339E-20 -.255E+01   -.438E+01 -.172E-10 0.608E+02
   -.400E+01 0.214E-12 -.700E+03   -.132E+00 0.195E-17 0.641E+03   -.776E+00 0.339E-20 -.255E+01   0.438E+01 0.622E-11 0.608E+02
   0.728E-14 -.211E-12 -.108E+04   -.158E-13 -.726E-14 0.105E+04   0.000E+00 0.000E+00 -.210E+01   -.424E-11 0.381E-10 0.367E+02
   0.178E+02 -.910E-13 -.134E+04   -.268E+02 0.747E-16 0.136E+04   0.584E+01 0.339E-20 -.156E+02   0.345E+01 -.233E-10 -.753E+01
   -.178E+02 0.215E-12 -.134E+04   0.268E+02 -.841E-15 0.136E+04   -.584E+01 -.678E-20 -.156E+02   -.345E+01 -.125E-10 -.753E+01
   0.482E-14 0.218E-13 0.211E+04   0.588E-13 0.130E-13 -.212E+04   0.000E+00 0.000E+00 -.226E+01   -.103E-11 0.224E-10 0.141E+02
   0.740E-13 -.248E-13 0.808E+03   0.105E-12 0.220E-13 -.904E+03   0.000E+00 0.000E+00 -.165E+01   0.328E-10 0.153E-10 0.972E+02
   0.887E-14 -.146E-12 -.525E+03   0.102E-12 0.196E-13 0.411E+03   0.000E+00 0.000E+00 -.162E+01   -.285E-11 0.778E-11 0.115E+03
   0.682E-13 -.298E-12 -.179E+04   -.674E-14 -.509E-14 0.174E+04   0.000E+00 0.000E+00 -.102E+01   -.313E-10 0.322E-10 0.592E+02
   0.387E-14 0.741E-13 0.893E+03   -.162E-13 0.219E-14 -.895E+03   0.000E+00 0.000E+00 -.308E+01   0.107E-10 -.109E-10 0.553E+01
   0.351E-14 0.157E-13 0.327E+03   -.108E-13 0.545E-15 -.362E+03   0.000E+00 0.000E+00 -.161E+00   -.166E-10 -.144E-11 0.373E+02
   -.593E-14 0.110E-12 -.207E+03   -.935E-14 0.336E-14 0.164E+03   0.000E+00 0.000E+00 0.721E+00   0.543E-11 -.125E-10 0.436E+02
   0.239E-14 -.148E-12 -.711E+03   -.243E-13 0.323E-14 0.685E+03   0.000E+00 0.000E+00 0.631E+00   0.142E-12 -.958E-11 0.259E+02
 -----------------------------------------------------------------------------------------------
   0.205E-11 0.944E-12 -.835E+03   -.390E-13 0.210E-14 -.182E-11   0.000E+00 -.339E-20 -.665E+02   0.869E-10 0.919E-10 0.898E+03
 
 
 POSITION                                       TOTAL-FORCE (eV/Angst)
 -----------------------------------------------------------------------------------
      2.76144      0.00000      6.00000         0.000000      0.000000     -1.125529
      1.38072      1.95263      7.38072         0.094148      0.000000     -1.445373
      4.14216      1.95263      7.38072        -0.094148      0.000000     -1.445373
      0.00000      0.00000      8.76144         0.000000      0.000000     -0.596510
      4.14216      1.95263     10.14216         0.617537      0.000000     -0.994004
      1.38072      1.95263     10.14216        -0.617537      0.000000     -0.994004
      2.76144      0.00000     11.52288         0.000000      0.000000     -0.426301
      1.38072      1.95263     12.90360         0.526214      0.000000     -1.055589
      4.14216      1.95263     12.90360        -0.526214      0.000000     -1.055589
      0.00000      0.00000     14.28432         0.000000      0.000000      1.194698
      4.14216      1.95263     15.66505         0.288641      0.000000      0.617639
      1.38072      1.95263     15.66505        -0.288641      0.000000      0.617639
      0.00000      0.00000      6.00000         0.000000      0.000000      1.191347
      2.76144      0.00000      8.76144         0.000000      0.000000      0.171826
      0.00000      0.00000     11.52288         0.000000      0.000000     -0.342712
      2.76144      0.00000     14.28432         0.000000      0.000000      0.249177
      2.76144      1.95263      6.00000         0.000000      0.000000      0.215504
      0.00000      1.95263      8.76144         0.000000      0.000000      1.570118
      2.76144      1.95263     11.52288         0.000000      0.000000      2.229115
      0.00000      1.95263     14.28432         0.000000      0.000000      1.423924
 -----------------------------------------------------------------------------------
    total drift:                                0.000000      0.000000     -4.111992


--------------------------------------------------------------------------------------------------------



  FREE ENERGIE OF THE ION-ELECTRON SYSTEM (eV)
  ---------------------------------------------------
  free  energy   TOTEN  =      -148.86426680 eV

  energy  without entropy=     -148.86426680  energy(sigma->0) =     -148.86426680
 


--------------------------------------------------------------------------------------------------------


    POTLOK:  cpu time    0.1140: real time    0.1140


--------------------------------------------------------------------------------------------------------


     LOOP+:  cpu time  159.0338: real time  159.4961
    4ORBIT:  cpu time    0.0000: real time    0.0000
 BZINTS: Fermi energy: -0.809427;128.000000 electrons
         Band energy:***********;  BLOECHL correction: -0.272095

 total amount of memory used by VASP MPI-rank0    77128. kBytes
=======================================================================

   base      :      30000. kBytes
   nonl-proj :      12189. kBytes
   fftplans  :       7170. kBytes
   grid      :      12862. kBytes
   one-center:        155. kBytes
   wavefun   :      14752. kBytes
 
  
  
 General timing and accounting informations for this job:
 ========================================================
  
                  Total CPU time used (sec):      160.902
                            User time (sec):      158.389
                          System time (sec):        2.513
                         Elapsed time (sec):      163.097
  
                   Maximum memory used (kb):       98140.
                   Average memory used (kb):           0.
  
                          Minor page faults:        29504
                          Major page faults:          155
                 Voluntary context switches:         4609
