Starting job 28515908 ("jobname") on c16-4 at Wed Nov 6 18:33:01 CET 2019
 running on    4 total cores
 distrk:  each k-point on    4 cores,    1 groups
 distr:  one band on    2 cores,    2 groups
 using from now: INCAR     
 vasp.5.4.4.18Apr17-6-g9f103f2a35 (build Jun 30 2017 11:15:00) complex          
  
 POSCAR found type information on POSCAR  O  Sr Ti
 POSCAR found :  3 types and      20 ions
 scaLAPACK will be used

 ----------------------------------------------------------------------------- 
|                                                                             |
|  ADVICE TO THIS USER RUNNING 'VASP/VAMP'   (HEAR YOUR MASTER'S VOICE ...):  |
|                                                                             |
|      You have a (more or less) 'large supercell' and for larger cells       |
|      it might be more efficient to use real space projection operators      |
|      So try LREAL= Auto  in the INCAR   file.                               |
|      Mind: If you want to do a very accurate calculations keep the          |
|      reciprocal projection scheme          (i.e. LREAL=.FALSE.)             |
|                                                                             |
 ----------------------------------------------------------------------------- 

 LDA part: xc-table for Pade appr. of Perdew
 POSCAR, INCAR and KPOINTS ok, starting setup
 FFT: planning ...
 WAVECAR not read
 entering main loop
       N       E                     dE             d eps       ncg     rms          rms(c)
DAV:   1     0.158901760176E+04    0.15890E+04   -0.55514E+04   616   0.147E+03
DAV:   2     0.187177290929E+03   -0.14018E+04   -0.13503E+04   744   0.379E+02
DAV:   3    -0.169077921500E+03   -0.35626E+03   -0.34570E+03   820   0.188E+02
DAV:   4    -0.197062187051E+03   -0.27984E+02   -0.27853E+02   784   0.611E+01
DAV:   5    -0.198510641224E+03   -0.14485E+01   -0.14477E+01  1056   0.125E+01    0.376E+01
RMM:   6    -0.204144903564E+03   -0.56343E+01   -0.38183E+02   790   0.571E+01    0.522E+01
RMM:   7    -0.172824684082E+03    0.31320E+02   -0.10579E+02   723   0.315E+01    0.219E+01
RMM:   8    -0.159965786409E+03    0.12859E+02   -0.23390E+01   705   0.163E+01    0.153E+01
RMM:   9    -0.155557583023E+03    0.44082E+01   -0.20105E+00   771   0.545E+00    0.127E+01
RMM:  10    -0.157561565846E+03   -0.20040E+01   -0.38756E+01   721   0.164E+01    0.314E+01
RMM:  11    -0.156151154710E+03    0.14104E+01   -0.32065E+00   907   0.372E+00    0.312E+01
WARNING in EDDRMM: call to ZHEGV failed, returncode =   8  4     35
RMM:  12    -0.159082663168E+03   -0.29315E+01   -0.14713E+00   882   0.259E+00    0.341E+01
RMM:  13    -0.159106399751E+03   -0.23737E-01   -0.27892E-01   967   0.900E-01    0.344E+01
RMM:  14    -0.157731978530E+03    0.13744E+01   -0.94495E-02   831   0.738E-01    0.337E+01
RMM:  15    -0.156677385108E+03    0.10546E+01   -0.72638E-02   795   0.723E-01    0.325E+01
RMM:  16    -0.153943379601E+03    0.27340E+01   -0.73960E-01   723   0.205E+00    0.285E+01
RMM:  17    -0.150476534018E+03    0.34668E+01   -0.22542E+00   711   0.370E+00    0.151E+01
RMM:  18    -0.150312320161E+03    0.16421E+00   -0.39521E-01   834   0.139E+00    0.147E+01
RMM:  19    -0.150117531586E+03    0.19479E+00   -0.59784E-02   852   0.555E-01    0.131E+01
RMM:  20    -0.150119107932E+03   -0.15763E-02   -0.16656E-02   809   0.301E-01    0.132E+01
RMM:  21    -0.150035201430E+03    0.83907E-01   -0.81798E-03   818   0.203E-01    0.128E+01
RMM:  22    -0.148857693277E+03    0.11775E+01   -0.20346E+00   693   0.391E+00    0.772E+00
RMM:  23    -0.148961541432E+03   -0.10385E+00   -0.13600E+00   764   0.300E+00    0.729E+00
RMM:  24    -0.149197358263E+03   -0.23582E+00   -0.34070E-01   787   0.158E+00    0.741E+00
RMM:  25    -0.149251535117E+03   -0.54177E-01   -0.15021E-01   752   0.109E+00    0.745E+00
RMM:  26    -0.149521211682E+03   -0.26968E+00   -0.32579E-01   719   0.169E+00    0.818E+00
RMM:  27    -0.149623780882E+03   -0.10257E+00   -0.11992E-01   818   0.867E-01    0.998E+00
RMM:  28    -0.149637616794E+03   -0.13836E-01   -0.12130E-02   934   0.275E-01    0.854E+00
RMM:  29    -0.149614316444E+03    0.23300E-01   -0.28561E-02   717   0.524E-01    0.845E+00
RMM:  30    -0.149829564654E+03   -0.21525E+00   -0.62449E-02   718   0.798E-01    0.839E+00
RMM:  31    -0.150356337355E+03   -0.52677E+00   -0.21973E-01   744   0.133E+00    0.995E+00
RMM:  32    -0.150407403517E+03   -0.51066E-01   -0.10214E-01   783   0.901E-01    0.957E+00
RMM:  33    -0.150184003118E+03    0.22340E+00   -0.39837E-02   789   0.573E-01    0.924E+00
RMM:  34    -0.149502485640E+03    0.68152E+00   -0.17797E-01   724   0.116E+00    0.699E+00
RMM:  35    -0.149235093090E+03    0.26739E+00   -0.48940E-02   794   0.635E-01    0.668E+00
RMM:  36    -0.149353737616E+03   -0.11864E+00   -0.46239E-03   859   0.179E-01    0.675E+00
RMM:  37    -0.148690358512E+03    0.66338E+00   -0.20392E-01   719   0.120E+00    0.517E+00
RMM:  38    -0.148640317034E+03    0.50041E-01   -0.45080E-02   813   0.518E-01    0.498E+00
RMM:  39    -0.148624632524E+03    0.15685E-01   -0.79792E-03   862   0.193E-01    0.490E+00
RMM:  40    -0.148601379466E+03    0.23253E-01   -0.34749E-03   850   0.121E-01    0.472E+00
RMM:  41    -0.148568361436E+03    0.33018E-01   -0.85608E-03   782   0.235E-01    0.452E+00
RMM:  42    -0.148570089557E+03   -0.17281E-02   -0.12513E-03   784   0.116E-01    0.450E+00
RMM:  43    -0.148557664823E+03    0.12425E-01   -0.12127E-03   782   0.752E-02    0.447E+00
RMM:  44    -0.148578127583E+03   -0.20463E-01   -0.37839E-03   711   0.164E-01    0.463E+00
RMM:  45    -0.148562099851E+03    0.16028E-01   -0.23942E-03   715   0.168E-01    0.450E+00
RMM:  46    -0.148563361734E+03   -0.12619E-02   -0.33178E-04   662   0.607E-02    0.451E+00
RMM:  47    -0.148559149993E+03    0.42117E-02   -0.25486E-04   658   0.382E-02    0.442E+00
RMM:  48    -0.148468493777E+03    0.90656E-01   -0.32910E-02   718   0.445E-01    0.435E+00
RMM:  49    -0.148461406866E+03    0.70869E-02   -0.87478E-03   801   0.229E-01    0.437E+00
RMM:  50    -0.148456189809E+03    0.52171E-02   -0.23814E-03   707   0.137E-01    0.418E+00
RMM:  51    -0.148708569758E+03   -0.25238E+00   -0.15043E-01   702   0.888E-01    0.844E+00
RMM:  52    -0.148712274484E+03   -0.37047E-02   -0.36676E-02   829   0.363E-01    0.867E+00
RMM:  53    -0.148616427035E+03    0.95847E-01   -0.50948E-03   741   0.171E-01    0.694E+00
RMM:  54    -0.148700559686E+03   -0.84133E-01   -0.23506E-02   727   0.314E-01    0.861E+00
RMM:  55    -0.148728236224E+03   -0.27677E-01   -0.67622E-03   817   0.126E-01    0.899E+00
RMM:  56    -0.149606338818E+03   -0.87810E+00   -0.20672E-01   717   0.112E+00    0.174E+01
RMM:  57    -0.149101585947E+03    0.50475E+00   -0.48433E-02   669   0.612E-01    0.140E+01
RMM:  58    -0.148888784139E+03    0.21280E+00   -0.70610E-02   725   0.500E-01    0.115E+01
RMM:  59    -0.148955133146E+03   -0.66349E-01   -0.53060E-03   778   0.155E-01    0.122E+01
RMM:  60    -0.148864266803E+03    0.90866E-01   -0.20118E-02   686   0.366E-01
   1 F= -.14886427E+03 E0= -.14886427E+03  d E =0.000000E+00

Currently Loaded Modulefiles:
  1) intel/2017.4         2) perf-reports/7.0.6

Job script resource usage:
       JobID  MaxVMSize     MaxRSS 
------------ ---------- ---------- 
28515908.ba+    499236K      5893K 

Job step resource usage:
       JobID    JobName  AllocCPUS  MaxVMSize     MaxRSS    Elapsed ExitCode 
------------ ---------- ---------- ---------- ---------- ---------- -------- 
28515908        jobname          4                         00:02:48      0:0 
28515908.0    pmi_proxy          1   1517912K    321635K   00:02:45      0:0 

Job 28515908 ("jobname") completed on c16-4 at Wed Nov 6 18:35:48 CET 2019
