unknown system                          
   1.00000000000000     
     2.573869    0.000000    0.000000
     1.286934    2.229036    0.000000
     0.000000    0.000000   30.304665
   Cu
     4
Direct
  0.000000  0.000000  0.395979
  0.333333  0.333333  0.465326
  0.666667  0.666667  0.534674
  0.000000  0.000000  0.604021
 
   20   20  240
 -.79752E-02 -.74690E-02 -.60013E-02 -.37865E-02 -.13134E-02 0.66347E-03 0.13840E-02 0.52763E-03 -.14541E-02 -.34471E-02
 -.42782E-02 -.34471E-02 -.14541E-02 0.52763E-03 0.13840E-02 0.66347E-03 -.13134E-02 -.37865E-02 -.60013E-02 -.74690E-02
 -.74690E-02 -.64473E-02 -.42711E-02 -.18382E-02 -.45802E-04 0.56436E-03 -.39362E-03 -.28169E-02 -.55316E-02 -.68834E-02
 -.61809E-02 -.41060E-02 -.17868E-02 -.88801E-04 0.34875E-03 -.71245E-03 -.27111E-02 -.46908E-02 -.61896E-02 -.72114E-02
 -.60013E-02 -.42711E-02 -.20182E-02 -.66960E-03 -.75521E-03 -.23790E-02 -.57690E-02 -.10254E-01 -.13736E-01 -.14429E-01
 -.12499E-01 -.92436E-02 -.56288E-02 -.24754E-02 -.89698E-03 -.13058E-02 -.27403E-02 -.41091E-02 -.52813E-02 -.61896E-02
 -.37865E-02 -.18382E-02 -.66960E-03 -.13362E-02 -.37798E-02 -.82988E-02 -.15094E-01 -.22275E-01 -.26534E-01 -.26231E-01
 -.22259E-01 -.16120E-01 -.91328E-02 -.33072E-02 -.58942E-03 -.78371E-03 -.19711E-02 -.30443E-02 -.41091E-02 -.46908E-02
 -.13134E-02 -.45802E-04 -.75521E-03 -.37798E-02 -.92558E-02 -.18039E-01 -.29231E-01 -.38657E-01 -.42080E-01 -.38761E-01
 -.30611E-01 -.19864E-01 -.92560E-02 -.21380E-02 0.11181E-03 -.47922E-03 -.13164E-02 -.19711E-02 -.27403E-02 -.27111E-02
 0.66347E-03 0.56436E-03 -.23790E-02 -.82988E-02 -.18039E-01 -.31896E-01 -.46248E-01 -.54865E-01 -.54339E-01 -.46010E-01
 -.33051E-01 -.18733E-01 -.70546E-02 -.11272E-02 -.11524E-03 -.48577E-03 -.47922E-03 -.78371E-03 -.13058E-02 -.71245E-03
 0.13840E-02 -.39362E-03 -.57690E-02 -.15094E-01 -.29231E-01 -.46248E-01 -.59778E-01 -.63855E-01 -.57917E-01 -.45331E-01
 -.29707E-01 -.14810E-01 -.47739E-02 -.96936E-03 -.47901E-03 -.11524E-03 0.11181E-03 -.58942E-03 -.89698E-03 0.34875E-03
 0.52763E-03 -.28169E-02 -.10254E-01 -.22275E-01 -.38657E-01 -.54865E-01 -.63855E-01 -.62410E-01 -.52791E-01 -.38633E-01
 -.22987E-01 -.98233E-02 -.26697E-02 -.92341E-03 -.96936E-03 -.11272E-02 -.21380E-02 -.33072E-02 -.24754E-02 -.88801E-04
 -.14541E-02 -.55316E-02 -.13736E-01 -.26534E-01 -.42080E-01 -.54339E-01 -.57917E-01 -.52791E-01 -.42081E-01 -.28272E-01
 -.14259E-01 -.45241E-02 -.14498E-02 -.26697E-02 -.47739E-02 -.70546E-02 -.92560E-02 -.91328E-02 -.56288E-02 -.17868E-02
 -.34471E-02 -.68834E-02 -.14429E-01 -.26231E-01 -.38761E-01 -.46010E-01 -.45331E-01 -.38633E-01 -.28272E-01 -.16029E-01
 -.57344E-02 -.18466E-02 -.45241E-02 -.98233E-02 -.14810E-01 -.18733E-01 -.19864E-01 -.16120E-01 -.92436E-02 -.41060E-02
 -.42782E-02 -.61809E-02 -.12499E-01 -.22259E-01 -.30611E-01 -.33051E-01 -.29707E-01 -.22987E-01 -.14259E-01 -.57344E-02
 -.19946E-02 -.57344E-02 -.14259E-01 -.22987E-01 -.29707E-01 -.33051E-01 -.30611E-01 -.22259E-01 -.12499E-01 -.61809E-02
 -.34471E-02 -.41060E-02 -.92436E-02 -.16120E-01 -.19864E-01 -.18733E-01 -.14810E-01 -.98233E-02 -.45241E-02 -.18466E-02
 -.57344E-02 -.16029E-01 -.28272E-01 -.38633E-01 -.45331E-01 -.46010E-01 -.38761E-01 -.26231E-01 -.14429E-01 -.68834E-02
 -.14541E-02 -.17868E-02 -.56288E-02 -.91328E-02 -.92560E-02 -.70546E-02 -.47739E-02 -.26697E-02 -.14498E-02 -.45241E-02
 -.14259E-01 -.28272E-01 -.42081E-01 -.52791E-01 -.57917E-01 -.54339E-01 -.42080E-01 -.26534E-01 -.13736E-01 -.55316E-02
 0.52763E-03 -.88801E-04 -.24754E-02 -.33072E-02 -.21380E-02 -.11272E-02 -.96936E-03 -.92341E-03 -.26697E-02 -.98233E-02
 -.22987E-01 -.38633E-01 -.52791E-01 -.62410E-01 -.63855E-01 -.54865E-01 -.38657E-01 -.22275E-01 -.10254E-01 -.28169E-02
 0.13840E-02 0.34875E-03 -.89698E-03 -.58942E-03 0.11181E-03 -.11524E-03 -.47901E-03 -.96936E-03 -.47739E-02 -.14810E-01
 -.29707E-01 -.45331E-01 -.57917E-01 -.63855E-01 -.59778E-01 -.46248E-01 -.29231E-01 -.15094E-01 -.57690E-02 -.39362E-03
 0.66347E-03 -.71245E-03 -.13058E-02 -.78371E-03 -.47922E-03 -.48577E-03 -.11524E-03 -.11272E-02 -.70546E-02 -.18733E-01
 -.33051E-01 -.46010E-01 -.54339E-01 -.54865E-01 -.46248E-01 -.31896E-01 -.18039E-01 -.82988E-02 -.23790E-02 0.56436E-03
 -.13134E-02 -.27111E-02 -.27403E-02 -.19711E-02 -.13164E-02 -.47922E-03 0.11181E-03 -.21380E-02 -.92560E-02 -.19864E-01
 -.30611E-01 -.38761E-01 -.42080E-01 -.38657E-01 -.29231E-01 -.18039E-01 -.92558E-02 -.37798E-02 -.75521E-03 -.45802E-04
 -.37865E-02 -.46908E-02 -.41091E-02 -.30443E-02 -.19711E-02 -.78371E-03 -.58942E-03 -.33072E-02 -.91328E-02 -.16120E-01
 -.22259E-01 -.26231E-01 -.26534E-01 -.22275E-01 -.15094E-01 -.82988E-02 -.37798E-02 -.13362E-02 -.66960E-03 -.18382E-02
 -.60013E-02 -.61896E-02 -.52813E-02 -.41091E-02 -.27403E-02 -.13058E-02 -.89698E-03 -.24754E-02 -.56288E-02 -.92436E-02
 -.12499E-01 -.14429E-01 -.13736E-01 -.10254E-01 -.57690E-02 -.23790E-02 -.75521E-03 -.66960E-03 -.20182E-02 -.42711E-02
 -.74690E-02 -.72114E-02 -.61896E-02 -.46908E-02 -.27111E-02 -.71245E-03 0.34875E-03 -.88801E-04 -.17868E-02 -.41060E-02
 -.61809E-02 -.68834E-02 -.55316E-02 -.28169E-02 -.39362E-03 0.56436E-03 -.45802E-04 -.18382E-02 -.42711E-02 -.64473E-02
 -.32717E-03 -.10232E-03 -.44646E-03 -.73103E-03 -.34075E-03 0.27131E-03 0.36280E-03 0.18963E-05 -.37971E-03 -.77600E-03
 -.11735E-02 -.10936E-02 -.37898E-03 0.25529E-03 0.20616E-03 -.16850E-03 -.34115E-03 -.46076E-03 -.72049E-03 -.73555E-03
 -.10232E-03 -.23774E-03 -.32986E-03 -.12312E-03 0.17719E-03 0.73256E-04 -.55087E-03 -.12570E-02 -.15811E-02 -.14265E-02
 -.94120E-03 -.35680E-03 0.11376E-04 -.58230E-04 -.41958E-03 -.69526E-03 -.70624E-03 -.55505E-03 -.35437E-03 -.16055E-03
 -.44646E-03 -.32986E-03 -.40819E-04 -.71914E-04 -.48691E-03 -.10242E-02 -.15062E-02 -.17607E-02 -.15446E-02 -.96282E-03
 -.57947E-03 -.71659E-03 -.10138E-02 -.10267E-02 -.82248E-03 -.62207E-03 -.35142E-03 0.13907E-04 0.13721E-03 -.15401E-03
 -.73103E-03 -.12312E-03 -.71914E-04 -.76584E-03 -.12895E-02 -.12974E-02 -.13614E-02 -.16197E-02 -.16076E-02 -.14629E-02
 -.17810E-02 -.22458E-02 -.19139E-02 -.88077E-03 -.18706E-03 -.10281E-03 -.30424E-05 0.14733E-03 -.21274E-03 -.80814E-03
 -.34075E-03 0.17719E-03 -.48691E-03 -.12895E-02 -.11357E-02 -.90010E-03 -.16755E-02 -.27314E-02 -.30115E-02 -.29639E-02
 -.31349E-02 -.26912E-02 -.11371E-02 0.19787E-03 0.16115E-03 -.38135E-03 -.34307E-03 -.28522E-03 -.82884E-03 -.10655E-02
 0.27131E-03 0.73256E-04 -.10242E-02 -.12974E-02 -.90010E-03 -.16959E-02 -.36206E-02 -.45712E-02 -.40013E-02 -.33565E-02
 -.29370E-02 -.16677E-02 -.18480E-04 0.21946E-03 -.79156E-03 -.10996E-02 -.43279E-03 -.32025E-03 -.84521E-03 -.58405E-03
 0.36280E-03 -.55087E-03 -.15062E-02 -.13614E-02 -.16755E-02 -.36206E-02 -.52316E-02 -.46125E-02 -.31323E-02 -.26409E-02
 -.23109E-02 -.10530E-02 -.21220E-03 -.93303E-03 -.15794E-02 -.65415E-03 0.38441E-03 -.27142E-04 -.64551E-03 -.92786E-04
 0.18963E-05 -.12570E-02 -.17607E-02 -.16197E-02 -.27314E-02 -.45712E-02 -.46125E-02 -.29699E-02 -.22559E-02 -.28219E-02
 -.25199E-02 -.11641E-02 -.76989E-03 -.13215E-02 -.75362E-03 0.76045E-03 0.89605E-03 -.36390E-03 -.68952E-03 0.13321E-03
 -.37971E-03 -.15811E-02 -.15446E-02 -.16076E-02 -.30115E-02 -.40013E-02 -.31323E-02 -.22559E-02 -.30138E-02 -.35952E-02
 -.22045E-02 -.50507E-03 -.37600E-03 -.49413E-03 0.60192E-03 0.13187E-02 0.19221E-03 -.94794E-03 -.31039E-03 0.49094E-03
 -.77600E-03 -.14265E-02 -.96282E-03 -.14629E-02 -.29639E-02 -.33565E-02 -.26409E-02 -.28219E-02 -.35952E-02 -.26614E-02
 -.33700E-03 0.66474E-03 0.57545E-04 0.10704E-03 0.10172E-02 0.76811E-03 -.47378E-03 -.41524E-03 0.81931E-03 0.74893E-03
 -.11735E-02 -.94120E-03 -.57947E-03 -.17810E-02 -.31349E-02 -.29370E-02 -.23109E-02 -.25199E-02 -.22045E-02 -.33700E-03
 0.11104E-02 0.51335E-03 -.37641E-03 0.27549E-03 0.11209E-02 0.61873E-03 0.13688E-03 0.99381E-03 0.15225E-02 0.22565E-03
 -.10936E-02 -.35680E-03 -.71659E-03 -.22458E-02 -.26912E-02 -.16677E-02 -.10530E-02 -.11641E-02 -.50507E-03 0.66474E-03
 0.51335E-03 -.57122E-03 -.32665E-03 0.12155E-02 0.18078E-02 0.11636E-02 0.11010E-02 0.16239E-02 0.93085E-03 -.69539E-03
 -.37898E-03 0.11376E-04 -.10138E-02 -.19139E-02 -.11371E-02 -.18480E-04 -.21220E-03 -.76989E-03 -.37600E-03 0.57545E-04
 -.37641E-03 -.32665E-03 0.12123E-02 0.25514E-02 0.21305E-02 0.11994E-02 0.12127E-02 0.11610E-02 0.94212E-05 -.88143E-03
 0.25529E-03 -.58230E-04 -.10267E-02 -.88077E-03 0.19787E-03 0.21946E-03 -.93303E-03 -.13215E-02 -.49413E-03 0.10704E-03
 0.27549E-03 0.12155E-02 0.25514E-02 0.25219E-02 0.12732E-02 0.71679E-03 0.10766E-02 0.80050E-03 -.16100E-03 -.30571E-03
 0.20616E-03 -.41958E-03 -.82248E-03 -.18706E-03 0.16115E-03 -.79156E-03 -.15794E-02 -.75362E-03 0.60192E-03 0.10172E-02
 0.11209E-02 0.18078E-02 0.21305E-02 0.12732E-02 0.50755E-03 0.95197E-03 0.14397E-02 0.75613E-03 -.10025E-03 0.11311E-04
 -.16850E-03 -.69526E-03 -.62207E-03 -.10281E-03 -.38135E-03 -.10996E-02 -.65415E-03 0.76045E-03 0.13187E-02 0.76811E-03
 0.61873E-03 0.11636E-02 0.11994E-02 0.71679E-03 0.95197E-03 0.16888E-02 0.13879E-02 0.10728E-03 -.50016E-03 -.15692E-03
 -.34115E-03 -.70624E-03 -.35142E-03 -.30424E-05 -.34307E-03 -.43279E-03 0.38441E-03 0.89605E-03 0.19221E-03 -.47378E-03
 0.13688E-03 0.11010E-02 0.12127E-02 0.10766E-02 0.14397E-02 0.13879E-02 0.19334E-03 -.89810E-03 -.69841E-03 -.12245E-03
 -.46076E-03 -.55505E-03 0.13907E-04 0.14733E-03 -.28522E-03 -.32025E-03 -.27142E-04 -.36390E-03 -.94794E-03 -.41524E-03
 0.99381E-03 0.16239E-02 0.11610E-02 0.80050E-03 0.75613E-03 0.10728E-03 -.89810E-03 -.94171E-03 -.12370E-03 0.99110E-04
 -.72049E-03 -.35437E-03 0.13721E-03 -.21274E-03 -.82884E-03 -.84521E-03 -.64551E-03 -.68952E-03 -.31039E-03 0.81931E-03
 0.15225E-02 0.93085E-03 0.94212E-05 -.16100E-03 -.10025E-03 -.50016E-03 -.69841E-03 -.12370E-03 0.30397E-03 -.19422E-03
 -.73555E-03 -.16055E-03 -.15401E-03 -.80814E-03 -.10655E-02 -.58405E-03 -.92786E-04 0.13321E-03 0.49094E-03 0.74893E-03
 0.22565E-03 -.69539E-03 -.88143E-03 -.30571E-03 0.11311E-04 -.15692E-03 -.12245E-03 0.99110E-04 -.19422E-03 -.78857E-03
 0.72470E-02 0.72024E-02 0.50731E-02 0.23102E-02 0.62146E-03 -.13764E-03 -.67428E-03 -.51981E-03 0.73365E-03 0.19678E-02
 0.20182E-02 0.13330E-02 0.73412E-03 -.16052E-04 -.99097E-03 -.10192E-02 0.62057E-03 0.28516E-02 0.45261E-02 0.59366E-02
 0.72024E-02 0.58788E-02 0.34782E-02 0.14458E-02 0.31213E-03 -.34584E-03 -.37843E-03 0.93932E-03 0.32826E-02 0.51086E-02
 0.53778E-02 0.43082E-02 0.24483E-02 0.30314E-03 -.11159E-02 -.76726E-03 0.11512E-02 0.34478E-02 0.53900E-02 0.68296E-02
 0.50731E-02 0.34782E-02 0.17266E-02 0.35760E-03 -.14794E-03 0.85356E-03 0.38773E-02 0.84594E-02 0.12826E-01 0.14852E-01
 0.13523E-01 0.95407E-02 0.47240E-02 0.94688E-03 -.67519E-03 -.10589E-03 0.18268E-02 0.40038E-02 0.55214E-02 0.58892E-02
 0.23102E-02 0.14458E-02 0.35760E-03 -.13615E-03 0.18146E-02 0.71576E-02 0.14783E-01 0.22287E-01 0.27062E-01 0.27049E-01
 0.21950E-01 0.14041E-01 0.67583E-02 0.21613E-02 0.27657E-03 0.40945E-03 0.18181E-02 0.33260E-02 0.37777E-02 0.31674E-02
 0.62146E-03 0.31213E-03 -.14794E-03 0.18146E-02 0.85579E-02 0.19052E-01 0.29935E-01 0.38169E-01 0.41371E-01 0.37807E-01
 0.28393E-01 0.17292E-01 0.85551E-02 0.31485E-02 0.27908E-03 -.37464E-03 0.62102E-03 0.15322E-02 0.12752E-02 0.70778E-03
 -.13764E-03 -.34584E-03 0.85356E-03 0.71576E-02 0.19052E-01 0.32859E-01 0.44712E-01 0.52218E-01 0.52832E-01 0.45001E-01
 0.31527E-01 0.18208E-01 0.84728E-02 0.20904E-02 -.13988E-02 -.17335E-02 -.31812E-03 0.30254E-03 -.22671E-03 -.38814E-03
 -.67428E-03 -.37843E-03 0.38773E-02 0.14783E-01 0.29935E-01 0.44712E-01 0.56248E-01 0.62021E-01 0.58590E-01 0.45753E-01
 0.29136E-01 0.15116E-01 0.54751E-02 -.56384E-03 -.26979E-02 -.12836E-02 0.59925E-03 0.50073E-03 -.45061E-03 -.62140E-03
 -.51981E-03 0.93932E-03 0.84594E-02 0.22287E-01 0.38169E-01 0.52218E-01 0.62021E-01 0.63865E-01 0.54778E-01 0.37963E-01
 0.21198E-01 0.92242E-02 0.17700E-02 -.17155E-02 -.83632E-03 0.22295E-02 0.34706E-02 0.21189E-02 0.67708E-03 0.58202E-04
 0.73365E-03 0.32826E-02 0.12826E-01 0.27062E-01 0.41371E-01 0.52832E-01 0.58590E-01 0.54778E-01 0.41371E-01 0.24825E-01
 0.12030E-01 0.44276E-02 0.73478E-03 0.11713E-02 0.51375E-02 0.86621E-02 0.85434E-02 0.62020E-02 0.41649E-02 0.22604E-02
 0.19678E-02 0.51086E-02 0.14852E-01 0.27049E-01 0.37807E-01 0.45001E-01 0.45753E-01 0.37963E-01 0.24825E-01 0.13055E-01
 0.61392E-02 0.32478E-02 0.39628E-02 0.88093E-02 0.15224E-01 0.18433E-01 0.17078E-01 0.13666E-01 0.96546E-02 0.49304E-02
 0.20182E-02 0.53778E-02 0.13523E-01 0.21950E-01 0.28393E-01 0.31527E-01 0.29136E-01 0.21198E-01 0.12030E-01 0.61392E-02
 0.43033E-02 0.59987E-02 0.12014E-01 0.21441E-01 0.29433E-01 0.31619E-01 0.28368E-01 0.22150E-01 0.14052E-01 0.58697E-02
 0.13330E-02 0.43082E-02 0.95407E-02 0.14041E-01 0.17292E-01 0.18208E-01 0.15116E-01 0.92242E-02 0.44276E-02 0.32478E-02
 0.59987E-02 0.13302E-01 0.25262E-01 0.38078E-01 0.45602E-01 0.44994E-01 0.37978E-01 0.27122E-01 0.14706E-01 0.47301E-02
 0.73412E-03 0.24483E-02 0.47240E-02 0.67583E-02 0.85551E-02 0.84728E-02 0.54751E-02 0.17700E-02 0.73478E-03 0.39628E-02
 0.12014E-01 0.25262E-01 0.41355E-01 0.54175E-01 0.58253E-01 0.53020E-01 0.41355E-01 0.26499E-01 0.12263E-01 0.30941E-02
 -.16052E-04 0.30314E-03 0.94688E-03 0.21613E-02 0.31485E-02 0.20904E-02 -.56384E-03 -.17155E-02 0.11713E-02 0.88093E-02
 0.21441E-01 0.38078E-01 0.54175E-01 0.63320E-01 0.62269E-01 0.52582E-01 0.37826E-01 0.21779E-01 0.87041E-02 0.16938E-02
 -.99097E-03 -.11159E-02 -.67519E-03 0.27657E-03 0.27908E-03 -.13988E-02 -.26979E-02 -.83632E-03 0.51375E-02 0.15224E-01
 0.29433E-01 0.45602E-01 0.58253E-01 0.62269E-01 0.56869E-01 0.44809E-01 0.29593E-01 0.14984E-01 0.47263E-02 0.11511E-03
 -.10192E-02 -.76726E-03 -.10589E-03 0.40945E-03 -.37464E-03 -.17335E-02 -.12836E-02 0.22295E-02 0.86621E-02 0.18433E-01
 0.31619E-01 0.44994E-01 0.53020E-01 0.52582E-01 0.44809E-01 0.32602E-01 0.18975E-01 0.74826E-02 0.96148E-03 -.96742E-03
 0.62057E-03 0.11512E-02 0.18268E-02 0.18181E-02 0.62102E-03 -.31812E-03 0.59925E-03 0.34706E-02 0.85434E-02 0.17078E-01
 0.28368E-01 0.37978E-01 0.41355E-01 0.37826E-01 0.29593E-01 0.18975E-01 0.85463E-02 0.15274E-02 -.69690E-03 -.13104E-03
 0.28516E-02 0.34478E-02 0.40038E-02 0.33260E-02 0.15322E-02 0.30254E-03 0.50073E-03 0.21189E-02 0.62020E-02 0.13666E-01
 0.22150E-01 0.27122E-01 0.26499E-01 0.21779E-01 0.14984E-01 0.74826E-02 0.15274E-02 -.58044E-03 0.57924E-03 0.21654E-02
 0.45261E-02 0.53900E-02 0.55214E-02 0.37777E-02 0.12752E-02 -.22671E-03 -.45061E-03 0.67708E-03 0.41649E-02 0.96546E-02
 0.14052E-01 0.14706E-01 0.12263E-01 0.87041E-02 0.47263E-02 0.96148E-03 -.69690E-03 0.57924E-03 0.28168E-02 0.39757E-02
 0.59366E-02 0.68296E-02 0.58892E-02 0.31674E-02 0.70778E-03 -.38814E-03 -.62140E-03 0.58202E-04 0.22604E-02 0.49304E-02
 0.58697E-02 0.47301E-02 0.30941E-02 0.16938E-02 0.11511E-03 -.96742E-03 -.13104E-03 0.21654E-02 0.39757E-02 0.48768E-02
 -.43496E-03 0.44810E-03 -.20238E-03 -.99551E-03 -.33751E-03 0.69258E-03 0.49976E-03 -.23121E-03 -.29112E-03 -.30438E-03
 -.99247E-03 -.12564E-02 -.29144E-03 0.52101E-03 0.20089E-04 -.63284E-03 -.33909E-03 -.18204E-03 -.10219E-02 -.14504E-02
 0.44810E-03 0.16591E-03 -.69740E-03 -.61042E-03 0.31877E-03 0.45751E-03 -.44856E-03 -.93231E-03 -.45186E-03 0.18055E-05
 0.54815E-04 0.37444E-03 0.81573E-03 0.41941E-03 -.59248E-03 -.96917E-03 -.61679E-03 -.53287E-03 -.69561E-03 -.23960E-03
 -.20238E-03 -.69740E-03 -.77918E-03 -.33857E-03 -.12365E-03 -.49820E-03 -.67155E-03 0.89604E-04 0.12574E-02 0.18404E-02
 0.16847E-02 0.12079E-02 0.52939E-03 -.30882E-03 -.84207E-03 -.71491E-03 -.26851E-03 0.88842E-05 0.10934E-03 0.10451E-03
 -.99551E-03 -.61042E-03 -.33857E-03 -.46235E-03 -.45048E-03 0.20471E-03 0.13436E-02 0.24601E-02 0.31056E-02 0.29351E-02
 0.19474E-02 0.74359E-03 0.24895E-04 -.16234E-03 -.21336E-03 -.20357E-03 0.13335E-04 0.15706E-03 -.21187E-03 -.83688E-03
 -.33751E-03 0.31877E-03 -.12365E-03 -.45048E-03 0.68071E-03 0.24359E-02 0.33175E-02 0.34079E-02 0.33901E-02 0.29155E-02
 0.16926E-02 0.70694E-03 0.67936E-03 0.73260E-03 0.82727E-04 -.49709E-03 -.33604E-03 -.27141E-03 -.88793E-03 -.11408E-02
 0.69258E-03 0.45751E-03 -.49820E-03 0.20471E-03 0.24359E-02 0.36258E-02 0.32136E-02 0.31290E-02 0.37872E-02 0.35265E-02
 0.22017E-02 0.15133E-02 0.15562E-02 0.73187E-03 -.78442E-03 -.11286E-02 -.32924E-03 -.19567E-03 -.72993E-03 -.31887E-03
 0.49976E-03 -.44856E-03 -.67155E-03 0.13436E-02 0.33175E-02 0.32136E-02 0.28958E-02 0.42866E-02 0.54807E-02 0.43153E-02
 0.23525E-02 0.16973E-02 0.12289E-02 -.43766E-03 -.16057E-02 -.68804E-03 0.50234E-03 0.75294E-04 -.56828E-03 0.74656E-04
 -.23121E-03 -.93231E-03 0.89604E-04 0.24601E-02 0.34079E-02 0.31290E-02 0.42866E-02 0.63320E-02 0.59372E-02 0.30866E-02
 0.11792E-02 0.10208E-02 0.24113E-03 -.12996E-02 -.11558E-02 0.47584E-03 0.68145E-03 -.76294E-03 -.11804E-02 -.25396E-03
 -.29112E-03 -.45186E-03 0.12574E-02 0.31056E-02 0.33901E-02 0.37872E-02 0.54807E-02 0.59372E-02 0.33946E-02 0.62013E-03
 0.32552E-03 0.76179E-03 -.29340E-03 -.12240E-02 -.24711E-03 0.61023E-03 -.66420E-03 -.20445E-02 -.12808E-02 -.30202E-04
 -.30438E-03 0.18055E-05 0.18404E-02 0.29351E-02 0.29155E-02 0.35265E-02 0.43153E-02 0.30866E-02 0.62013E-03 -.53908E-04
 0.97476E-03 0.81529E-03 -.72335E-03 -.10652E-02 -.13766E-03 -.45287E-03 -.19206E-02 -.18203E-02 -.86304E-04 0.52071E-03
 -.99247E-03 0.54815E-04 0.16847E-02 0.19474E-02 0.16926E-02 0.22017E-02 0.23525E-02 0.11792E-02 0.32552E-03 0.97476E-03
 0.12954E-02 -.15142E-03 -.15236E-02 -.11115E-02 -.46570E-03 -.11488E-02 -.16110E-02 -.41188E-03 0.65305E-03 -.12310E-03
 -.12564E-02 0.37444E-03 0.12079E-02 0.74359E-03 0.70694E-03 0.15133E-02 0.16973E-02 0.10208E-02 0.76179E-03 0.81529E-03
 -.15142E-03 -.16393E-02 -.17623E-02 -.70758E-03 -.42049E-03 -.99213E-03 -.79307E-03 0.56564E-05 -.33706E-03 -.14807E-02
 -.29144E-03 0.81573E-03 0.52939E-03 0.24895E-04 0.67936E-03 0.15562E-02 0.12289E-02 0.24113E-03 -.29340E-03 -.72335E-03
 -.15236E-02 -.17623E-02 -.85481E-03 -.69718E-04 -.44687E-03 -.10249E-02 -.85502E-03 -.77635E-03 -.14114E-02 -.15202E-02
 0.52101E-03 0.41941E-03 -.30882E-03 -.16234E-03 0.73260E-03 0.73187E-03 -.43766E-03 -.12996E-02 -.12240E-02 -.10652E-02
 -.11115E-02 -.70758E-03 -.69718E-04 -.24481E-03 -.10967E-02 -.14182E-02 -.10721E-02 -.95961E-03 -.10047E-02 -.36538E-03
 0.20089E-04 -.59248E-03 -.84207E-03 -.21336E-03 0.82727E-04 -.78442E-03 -.16057E-02 -.11558E-02 -.24711E-03 -.13766E-03
 -.46570E-03 -.42049E-03 -.44687E-03 -.10967E-02 -.15902E-02 -.11511E-02 -.46557E-03 -.35556E-03 -.36458E-03 -.17459E-04
 -.63284E-03 -.96917E-03 -.71491E-03 -.20357E-03 -.49709E-03 -.11286E-02 -.68804E-03 0.47584E-03 0.61023E-03 -.45287E-03
 -.11488E-02 -.99213E-03 -.10249E-02 -.14182E-02 -.11511E-02 -.25791E-03 0.82005E-05 -.53735E-03 -.79787E-03 -.55315E-03
 -.33909E-03 -.61679E-03 -.26851E-03 0.13335E-04 -.33604E-03 -.32924E-03 0.50234E-03 0.68145E-03 -.66420E-03 -.19206E-02
 -.16110E-02 -.79307E-03 -.85502E-03 -.10721E-02 -.46557E-03 0.82005E-05 -.66155E-03 -.14104E-02 -.10067E-02 -.26613E-03
 -.18204E-03 -.53287E-03 0.88842E-05 0.15706E-03 -.27141E-03 -.19567E-03 0.75294E-04 -.76294E-03 -.20445E-02 -.18203E-02
 -.41188E-03 0.56564E-05 -.77635E-03 -.95961E-03 -.35556E-03 -.53735E-03 -.14104E-02 -.11726E-02 0.15977E-03 0.61052E-03
 -.10219E-02 -.69561E-03 0.10934E-03 -.21187E-03 -.88793E-03 -.72993E-03 -.56828E-03 -.11804E-02 -.12808E-02 -.86304E-04
 0.65305E-03 -.33706E-03 -.14114E-02 -.10047E-02 -.36458E-03 -.79787E-03 -.10067E-02 0.15977E-03 0.10618E-02 0.16662E-03
 -.14504E-02 -.23960E-03 0.10451E-03 -.83688E-03 -.11408E-02 -.31887E-03 0.74656E-04 -.25396E-03 -.30202E-04 0.52071E-03
 -.12310E-03 -.14807E-02 -.15202E-02 -.36538E-03 -.17459E-04 -.55315E-03 -.26613E-03 0.61052E-03 0.16662E-03 -.12852E-02
 -.78502E-02 -.60729E-02 -.53231E-02 -.42157E-02 -.12337E-02 0.15968E-02 0.17440E-02 0.69157E-04 -.14113E-02 -.27780E-02
 -.42493E-02 -.40477E-02 -.14118E-02 0.10715E-02 0.11019E-02 -.17322E-03 -.12360E-02 -.31296E-02 -.64162E-02 -.86061E-02
 -.60729E-02 -.53196E-02 -.46541E-02 -.24656E-02 0.46061E-03 0.12239E-02 -.86452E-03 -.35552E-02 -.53291E-02 -.64906E-02
 -.66551E-02 -.47046E-02 -.15702E-02 0.18757E-03 -.10867E-03 -.10370E-02 -.21831E-02 -.42957E-02 -.65574E-02 -.70777E-02
 -.53231E-02 -.46541E-02 -.30184E-02 -.82812E-03 -.16686E-03 -.24669E-02 -.66137E-02 -.10504E-01 -.13179E-01 -.14283E-01
 -.13024E-01 -.93520E-02 -.50599E-02 -.21829E-02 -.10784E-02 -.11180E-02 -.20970E-02 -.37684E-02 -.51501E-02 -.55534E-02
 -.42157E-02 -.24656E-02 -.82812E-03 -.85827E-03 -.34784E-02 -.86191E-02 -.15297E-01 -.21776E-01 -.25983E-01 -.26313E-01
 -.22467E-01 -.15754E-01 -.85773E-02 -.32479E-02 -.77256E-03 -.60858E-03 -.15895E-02 -.29275E-02 -.42095E-02 -.48482E-02
 -.12337E-02 0.46061E-03 -.16686E-03 -.34784E-02 -.92446E-02 -.17966E-01 -.28894E-01 -.38321E-01 -.42073E-01 -.38945E-01
 -.30601E-01 -.19661E-01 -.92420E-02 -.24445E-02 -.17827E-03 -.48152E-03 -.12307E-02 -.21506E-02 -.31865E-02 -.30626E-02
 0.15968E-02 0.12239E-02 -.24669E-02 -.86191E-02 -.17966E-01 -.31648E-01 -.46354E-01 -.55235E-01 -.54532E-01 -.46015E-01
 -.33160E-01 -.18965E-01 -.72321E-02 -.12445E-02 -.20531E-03 -.44800E-03 -.36210E-03 -.81503E-03 -.13533E-02 -.27070E-03
 0.17440E-02 -.86452E-03 -.66137E-02 -.15297E-01 -.28894E-01 -.46354E-01 -.60405E-01 -.64100E-01 -.57577E-01 -.45190E-01
 -.30023E-01 -.14923E-01 -.44160E-02 -.66095E-03 -.44252E-03 0.33434E-04 0.46613E-03 -.32679E-03 -.62647E-03 0.89428E-03
 0.69157E-04 -.35552E-02 -.10504E-01 -.21776E-01 -.38321E-01 -.55235E-01 -.64100E-01 -.61853E-01 -.52181E-01 -.38758E-01
 -.23249E-01 -.94103E-02 -.20434E-02 -.87321E-03 -.11868E-02 -.94589E-03 -.17919E-02 -.33292E-02 -.27073E-02 -.27917E-03
 -.14113E-02 -.53291E-02 -.13179E-01 -.25983E-01 -.42073E-01 -.54532E-01 -.57577E-01 -.52181E-01 -.42066E-01 -.28718E-01
 -.14248E-01 -.40475E-02 -.14161E-02 -.32141E-02 -.50478E-02 -.68117E-02 -.92336E-02 -.96592E-02 -.61418E-02 -.19171E-02
 -.27780E-02 -.64906E-02 -.14283E-01 -.26313E-01 -.38945E-01 -.46015E-01 -.45190E-01 -.38758E-01 -.28718E-01 -.16273E-01
 -.55743E-02 -.18164E-02 -.49515E-02 -.10189E-01 -.14642E-01 -.18449E-01 -.20028E-01 -.16447E-01 -.90767E-02 -.34334E-02
 -.42493E-02 -.66551E-02 -.13024E-01 -.22467E-01 -.30601E-01 -.33160E-01 -.30023E-01 -.23249E-01 -.14248E-01 -.55743E-02
 -.19567E-02 -.58339E-02 -.14237E-01 -.22700E-01 -.29358E-01 -.32902E-01 -.30582E-01 -.22008E-01 -.11922E-01 -.56498E-02
 -.40477E-02 -.47046E-02 -.93520E-02 -.15754E-01 -.19661E-01 -.18965E-01 -.14923E-01 -.94103E-02 -.40475E-02 -.18164E-02
 -.58339E-02 -.15739E-01 -.27794E-01 -.38474E-01 -.45433E-01 -.45968E-01 -.38543E-01 -.26117E-01 -.14537E-01 -.72256E-02
 -.14118E-02 -.15702E-02 -.50599E-02 -.85773E-02 -.92420E-02 -.72321E-02 -.44160E-02 -.20434E-02 -.14161E-02 -.49515E-02
 -.14237E-01 -.27794E-01 -.42054E-01 -.53348E-01 -.58208E-01 -.54105E-01 -.42054E-01 -.27059E-01 -.14261E-01 -.56775E-02
 0.10715E-02 0.18757E-03 -.21829E-02 -.32479E-02 -.24445E-02 -.12445E-02 -.66095E-03 -.87321E-03 -.32141E-02 -.10189E-01
 -.22700E-01 -.38474E-01 -.53348E-01 -.62909E-01 -.63563E-01 -.54455E-01 -.38951E-01 -.22733E-01 -.99609E-02 -.20166E-02
 0.11019E-02 -.10867E-03 -.10784E-02 -.77256E-03 -.17827E-03 -.20531E-03 -.44252E-03 -.11868E-02 -.50478E-02 -.14642E-01
 -.29358E-01 -.45433E-01 -.58208E-01 -.63563E-01 -.59112E-01 -.46102E-01 -.29517E-01 -.14835E-01 -.48681E-02 0.14130E-03
 -.17322E-03 -.10370E-02 -.11180E-02 -.60858E-03 -.48152E-03 -.44800E-03 0.33434E-04 -.94589E-03 -.68117E-02 -.18449E-01
 -.32902E-01 -.45968E-01 -.54105E-01 -.54455E-01 -.46102E-01 -.32103E-01 -.18068E-01 -.79273E-02 -.22258E-02 -.13872E-04
 -.12360E-02 -.21831E-02 -.20970E-02 -.15895E-02 -.12307E-02 -.36210E-03 0.46613E-03 -.17919E-02 -.92336E-02 -.20028E-01
 -.30582E-01 -.38543E-01 -.42054E-01 -.38951E-01 -.29517E-01 -.18068E-01 -.92339E-02 -.40363E-02 -.12581E-02 -.42278E-03
 -.31296E-02 -.42957E-02 -.37684E-02 -.29275E-02 -.21506E-02 -.81503E-03 -.32679E-03 -.33292E-02 -.96592E-02 -.16447E-01
 -.22008E-01 -.26117E-01 -.27059E-01 -.22733E-01 -.14835E-01 -.79273E-02 -.40363E-02 -.17438E-02 -.37955E-03 -.10170E-02
 -.64162E-02 -.65574E-02 -.51501E-02 -.42095E-02 -.31865E-02 -.13533E-02 -.62647E-03 -.27073E-02 -.61418E-02 -.90767E-02
 -.11922E-01 -.14537E-01 -.14261E-01 -.99609E-02 -.48681E-02 -.22258E-02 -.12581E-02 -.37955E-03 -.82577E-03 -.36477E-02
 -.86061E-02 -.70777E-02 -.55534E-02 -.48482E-02 -.30626E-02 -.27070E-03 0.89428E-03 -.27917E-03 -.19171E-02 -.34334E-02
 -.56498E-02 -.72256E-02 -.56775E-02 -.20166E-02 0.14130E-03 -.13872E-04 -.42278E-03 -.10170E-02 -.36477E-02 -.73191E-02
 -.77827E-04 0.14002E-02 0.29362E-03 -.11330E-02 -.23342E-03 0.12547E-02 0.77925E-03 -.43586E-03 -.38669E-03 -.22662E-03
 -.12943E-02 -.18150E-02 -.38642E-03 0.81947E-03 -.23030E-04 -.95898E-03 -.23548E-03 0.22619E-03 -.10744E-02 -.17698E-02
 0.14002E-02 0.96684E-03 -.67382E-03 -.72662E-03 0.71745E-03 0.76849E-03 -.10303E-02 -.21004E-02 -.15980E-02 -.13312E-02
 -.17138E-02 -.11762E-02 0.12169E-03 0.20626E-03 -.84661E-03 -.98904E-03 -.15446E-03 -.12303E-03 -.65119E-03 0.76041E-04
 0.29362E-03 -.67382E-03 -.10162E-02 -.20740E-03 0.10314E-03 -.11983E-02 -.26105E-02 -.24925E-02 -.16594E-02 -.15656E-02
 -.17801E-02 -.13086E-02 -.70373E-03 -.82000E-03 -.10037E-02 -.41299E-03 0.31516E-03 0.39106E-03 0.32755E-03 0.55403E-03
 -.11330E-02 -.72662E-03 -.20740E-03 -.29945E-03 -.11288E-02 -.20215E-02 -.23353E-02 -.22585E-02 -.24256E-02 -.29172E-02
 -.31317E-02 -.26508E-02 -.17579E-02 -.95728E-03 -.37905E-03 0.96318E-04 0.40304E-03 0.29201E-03 -.27817E-03 -.93087E-03
 -.23342E-03 0.71745E-03 0.10314E-03 -.11288E-02 -.15851E-02 -.17834E-02 -.28592E-02 -.43690E-02 -.51526E-02 -.51235E-02
 -.46475E-02 -.34432E-02 -.15797E-02 -.24369E-03 -.12262E-03 -.34748E-03 -.22906E-03 -.44397E-03 -.12560E-02 -.13963E-02
 0.12547E-02 0.76849E-03 -.11983E-02 -.20215E-02 -.17834E-02 -.31163E-02 -.60753E-02 -.77058E-02 -.69574E-02 -.57069E-02
 -.47141E-02 -.28567E-02 -.59970E-03 0.17329E-04 -.84511E-03 -.10120E-02 -.28497E-03 -.33561E-03 -.87681E-03 -.11136E-03
 0.77925E-03 -.10303E-02 -.26105E-02 -.23353E-02 -.28592E-02 -.60753E-02 -.88611E-02 -.81047E-02 -.57882E-02 -.48443E-02
 -.41476E-02 -.19412E-02 -.11847E-03 -.63770E-03 -.14891E-02 -.47091E-03 0.73794E-03 0.21800E-03 -.37847E-03 0.48626E-03
 -.43586E-03 -.21004E-02 -.24925E-02 -.22585E-02 -.43690E-02 -.77058E-02 -.81047E-02 -.56592E-02 -.44087E-02 -.49221E-02
 -.39229E-02 -.12366E-02 -.25313E-03 -.12549E-02 -.97840E-03 0.86141E-03 0.11068E-02 -.52421E-03 -.10062E-02 -.64369E-04
 -.38669E-03 -.15980E-02 -.16594E-02 -.24256E-02 -.51526E-02 -.69574E-02 -.57882E-02 -.44087E-02 -.51485E-02 -.54144E-02
 -.28667E-02 -.24715E-03 -.39194E-03 -.11367E-02 0.81321E-04 0.11755E-02 -.22824E-03 -.18633E-02 -.10718E-02 0.26313E-03
 -.22662E-03 -.13312E-02 -.15656E-02 -.29172E-02 -.51235E-02 -.57069E-02 -.48443E-02 -.49221E-02 -.54144E-02 -.36552E-02
 -.47132E-03 0.57952E-03 -.57471E-03 -.72141E-03 0.43816E-03 0.12467E-03 -.15649E-02 -.14881E-02 0.52466E-03 0.12152E-02
 -.12943E-02 -.17138E-02 -.17801E-02 -.31317E-02 -.46475E-02 -.47141E-02 -.41476E-02 -.39229E-02 -.28667E-02 -.47132E-03
 0.10043E-02 0.13509E-03 -.10017E-02 -.54801E-03 -.18826E-04 -.86625E-03 -.13214E-02 0.13692E-03 0.14526E-02 0.47486E-03
 -.18150E-02 -.11762E-02 -.13086E-02 -.26508E-02 -.34432E-02 -.28567E-02 -.19412E-02 -.12366E-02 -.24715E-03 0.57952E-03
 0.13509E-03 -.10036E-02 -.11906E-02 -.56884E-03 -.60796E-03 -.11068E-02 -.62307E-03 0.39899E-03 0.10041E-03 -.13202E-02
 -.38642E-03 0.12169E-03 -.70373E-03 -.17579E-02 -.15797E-02 -.59970E-03 -.11847E-03 -.25313E-03 -.39194E-03 -.57471E-03
 -.10017E-02 -.11906E-02 -.87863E-03 -.73857E-03 -.11262E-02 -.12994E-02 -.87912E-03 -.70295E-03 -.11625E-02 -.12331E-02
 0.81947E-03 0.20626E-03 -.82000E-03 -.95728E-03 -.24369E-03 0.17329E-04 -.63770E-03 -.12549E-02 -.11367E-02 -.72141E-03
 -.54801E-03 -.56884E-03 -.73857E-03 -.11932E-02 -.16516E-02 -.16066E-02 -.11602E-02 -.76546E-03 -.32560E-03 0.40141E-03
 -.23030E-04 -.84661E-03 -.10037E-02 -.37905E-03 -.12262E-03 -.84511E-03 -.14891E-02 -.97840E-03 0.81321E-04 0.43816E-03
 -.18826E-04 -.60796E-03 -.11262E-02 -.16516E-02 -.17959E-02 -.12176E-02 -.33530E-03 0.27086E-03 0.55929E-03 0.54323E-03
 -.95898E-03 -.98904E-03 -.41299E-03 0.96318E-04 -.34748E-03 -.10120E-02 -.47091E-03 0.86141E-03 0.11755E-02 0.12467E-03
 -.86625E-03 -.11068E-02 -.12994E-02 -.16066E-02 -.12176E-02 -.15414E-03 0.42966E-03 0.91450E-04 -.42776E-03 -.70155E-03
 -.23548E-03 -.15446E-03 0.31516E-03 0.40304E-03 -.22906E-03 -.28497E-03 0.73794E-03 0.11068E-02 -.22824E-03 -.15649E-02
 -.13214E-02 -.62307E-03 -.87912E-03 -.11602E-02 -.33530E-03 0.42966E-03 -.23190E-03 -.12955E-02 -.12053E-02 -.46906E-03
 0.22619E-03 -.12303E-03 0.39106E-03 0.29201E-03 -.44397E-03 -.33561E-03 0.21800E-03 -.52421E-03 -.18633E-02 -.14881E-02
 0.13692E-03 0.39899E-03 -.70295E-03 -.76546E-03 0.27086E-03 0.91450E-04 -.12955E-02 -.13703E-02 0.18258E-03 0.94412E-03
 -.10744E-02 -.65119E-03 0.32755E-03 -.27817E-03 -.12560E-02 -.87681E-03 -.37847E-03 -.10062E-02 -.10718E-02 0.52466E-03
 0.14526E-02 0.10041E-03 -.11625E-02 -.32560E-03 0.55929E-03 -.42776E-03 -.12053E-02 0.18258E-03 0.15193E-02 0.46834E-03
 -.17698E-02 0.76041E-04 0.55403E-03 -.93087E-03 -.13963E-02 -.11136E-03 0.48626E-03 -.64369E-04 0.26313E-03 0.12152E-02
 0.47486E-03 -.13202E-02 -.12331E-02 0.40141E-03 0.54323E-03 -.70155E-03 -.46906E-03 0.94412E-03 0.46834E-03 -.15869E-02
 0.71720E-02 0.84096E-02 0.55829E-02 0.17527E-02 0.63309E-03 0.78414E-03 -.29570E-03 -.95164E-03 0.80702E-03 0.26728E-02
 0.20835E-02 0.76519E-03 0.80765E-03 0.55688E-03 -.12577E-02 -.18724E-02 0.63274E-03 0.33862E-02 0.39394E-02 0.46014E-02
 0.84096E-02 0.68389E-02 0.29584E-02 0.72838E-03 0.78455E-03 0.32486E-03 -.81557E-03 0.24151E-03 0.35272E-02 0.55426E-02
 0.49426E-02 0.37482E-02 0.27024E-02 0.60664E-03 -.15713E-02 -.11286E-02 0.15923E-02 0.37020E-02 0.48395E-02 0.67653E-02
 0.55829E-02 0.29584E-02 0.63471E-03 0.15795E-03 0.44303E-03 0.79761E-03 0.30821E-02 0.82694E-02 0.13446E-01 0.15056E-01