unknown system                          
   1.00000000000000     
     2.573869    0.000000    0.000000
     1.286934    2.229036    0.000000
     0.000000    0.000000   30.304665
   Cu
     4
Direct
 -0.000000  0.000000  0.397867
  0.333333  0.333333  0.465989
  0.666667  0.666667  0.534011
 -0.000000 -0.000000  0.602133
 
   20   20  240
 -.10405895427E+00 -.96174030799E-01 -.75405905978E-01 -.48932741286E-01 -.24649083996E-01
 -.78544268811E-02 0.17312525878E-03 0.14463782605E-02 -.69319423176E-03 -.32272433702E-02
 -.42750559850E-02 -.32272433704E-02 -.69319423200E-03 0.14463782603E-02 0.17312525864E-03
 -.78544268812E-02 -.24649083996E-01 -.48932741287E-01 -.75405905979E-01 -.96174030798E-01
 -.96174030799E-01 -.81844305126E-01 -.58086478614E-01 -.33113480737E-01 -.13785124550E-01
 -.30260568049E-02 -.63373834777E-04 -.20195020437E-02 -.53263314336E-02 -.71343580898E-02
 -.64427401782E-02 -.39214207077E-02 -.10014043879E-02 0.24221056965E-03 -.32331308544E-02
 -.14435354061E-01 -.33962577624E-01 -.58487395908E-01 -.81579724247E-01 -.95915253612E-01
 -.75405905979E-01 -.58086478613E-01 -.36379064371E-01 -.17777306287E-01 -.64971456831E-02
 -.29391937056E-02 -.52890659075E-02 -.10426529287E-01 -.14665398874E-01 -.15650471675E-01
 -.13445547459E-01 -.94273905046E-02 -.51455686569E-02 -.30311993747E-02 -.66341126011E-02
 -.18396913568E-01 -.37076580213E-01 -.57913287985E-01 -.74690105502E-01 -.81579724247E-01
 -.48932741287E-01 -.33113480737E-01 -.17777306287E-01 -.79427288488E-02 -.49810272922E-02
 -.81973127168E-02 -.15760427925E-01 -.24068931185E-01 -.28998477963E-01 -.28698479082E-01
 -.24049252471E-01 -.16767210556E-01 -.90204896154E-02 -.45257074284E-02 -.72152892790E-02
 -.17888768417E-01 -.33237018960E-01 -.48195304188E-01 -.57913287984E-01 -.58487395907E-01
 -.24649083996E-01 -.13785124550E-01 -.64971456832E-02 -.49810272921E-02 -.93184888789E-02
 -.19044158759E-01 -.31745864228E-01 -.42301643004E-01 -.46124681974E-01 -.42402124740E-01
 -.33100809826E-01 -.20841744818E-01 -.93303294568E-02 -.33838631510E-02 -.56563598051E-02
 -.14216359662E-01 -.24656298500E-01 -.33237018960E-01 -.37076580213E-01 -.33962577624E-01
 -.78544268813E-02 -.30260568050E-02 -.29391937058E-02 -.81973127170E-02 -.19044158759E-01
 -.34691333942E-01 -.50617126397E-01 -.60116685556E-01 -.59601466176E-01 -.50386711837E-01
 -.35826355884E-01 -.19727487223E-01 -.69797326167E-02 -.17180927189E-02 -.37035568868E-02
 -.89914872606E-02 -.14216359662E-01 -.17888768417E-01 -.18396913568E-01 -.14435354061E-01
 0.17312525837E-03 -.63373835282E-04 -.52890659079E-02 -.15760427926E-01 -.31745864228E-01
 -.50617126397E-01 -.65482219417E-01 -.70064946973E-01 -.63662831811E-01 -.49720175223E-01
 -.32207308085E-01 -.15468644993E-01 -.43004311141E-02 -.62161252497E-03 -.16632171811E-02
 -.37035568871E-02 -.56563598052E-02 -.72152892793E-02 -.66341126013E-02 -.32331308547E-02
 0.14463782597E-02 -.20195020446E-02 -.10426529288E-01 -.24068931186E-01 -.42301643005E-01
 -.60116685556E-01 -.70064946973E-01 -.68651842240E-01 -.58089337048E-01 -.42277271369E-01
 -.24755358019E-01 -.99827943953E-02 -.18556907038E-02 0.34814540314E-04 -.62161252529E-03
 -.17180927193E-02 -.33838631514E-02 -.45257074287E-02 -.30311993751E-02 0.24221056911E-03
 -.69319423276E-03 -.53263314348E-02 -.14665398875E-01 -.28998477964E-01 -.46124681975E-01
 -.59601466177E-01 -.63662831811E-01 -.58089337048E-01 -.46131950838E-01 -.30703719915E-01
 -.15174907816E-01 -.43295939656E-02 -.67694905258E-03 -.18556907042E-02 -.43004311147E-02
 -.69797326173E-02 -.93303294574E-02 -.90204896160E-02 -.51455686573E-02 -.10014043885E-02
 -.32272433712E-02 -.71343580910E-02 -.15650471676E-01 -.28698479083E-01 -.42402124741E-01
 -.50386711838E-01 -.49720175224E-01 -.42277271369E-01 -.30703719915E-01 -.17230212635E-01
 -.60240407883E-02 -.16692040995E-02 -.43295939659E-02 -.99827943960E-02 -.15468644994E-01
 -.19727487224E-01 -.20841744819E-01 -.16767210556E-01 -.94273905051E-02 -.39214207085E-02
 -.42750559859E-02 -.64427401791E-02 -.13445547459E-01 -.24049252472E-01 -.33100809827E-01
 -.35826355885E-01 -.32207308086E-01 -.24755358020E-01 -.15174907816E-01 -.60240407885E-02
 -.20632923247E-02 -.60240407884E-02 -.15174907816E-01 -.24755358020E-01 -.32207308086E-01
 -.35826355885E-01 -.33100809827E-01 -.24049252472E-01 -.13445547459E-01 -.64427401788E-02
 -.32272433711E-02 -.39214207086E-02 -.94273905052E-02 -.16767210557E-01 -.20841744819E-01
 -.19727487224E-01 -.15468644994E-01 -.99827943960E-02 -.43295939658E-02 -.16692040994E-02
 -.60240407883E-02 -.17230212635E-01 -.30703719915E-01 -.42277271369E-01 -.49720175224E-01
 -.50386711838E-01 -.42402124741E-01 -.28698479082E-01 -.15650471676E-01 -.71343580908E-02
 -.69319423272E-03 -.10014043887E-02 -.51455686575E-02 -.90204896160E-02 -.93303294576E-02
 -.69797326175E-02 -.43004311149E-02 -.18556907042E-02 -.67694905280E-03 -.43295939656E-02
 -.15174907816E-01 -.30703719915E-01 -.46131950838E-01 -.58089337048E-01 -.63662831811E-01
 -.59601466177E-01 -.46124681975E-01 -.28998477964E-01 -.14665398875E-01 -.53263314346E-02
 0.14463782596E-02 0.24221056912E-03 -.30311993751E-02 -.45257074288E-02 -.33838631515E-02
 -.17180927194E-02 -.62161252558E-03 0.34814540179E-04 -.18556907038E-02 -.99827943955E-02
 -.24755358019E-01 -.42277271369E-01 -.58089337048E-01 -.68651842240E-01 -.70064946973E-01
 -.60116685556E-01 -.42301643005E-01 -.24068931186E-01 -.10426529288E-01 -.20195020448E-02
 0.17312525813E-03 -.32331308549E-02 -.66341126013E-02 -.72152892791E-02 -.56563598053E-02
 -.37035568872E-02 -.16632171814E-02 -.62161252520E-03 -.43004311143E-02 -.15468644993E-01
 -.32207308086E-01 -.49720175224E-01 -.63662831811E-01 -.70064946972E-01 -.65482219417E-01
 -.50617126397E-01 -.31745864228E-01 -.15760427926E-01 -.52890659082E-02 -.63373835495E-04
 -.78544268816E-02 -.14435354061E-01 -.18396913568E-01 -.17888768417E-01 -.14216359662E-01
 -.89914872607E-02 -.37035568870E-02 -.17180927189E-02 -.69797326166E-02 -.19727487223E-01
 -.35826355884E-01 -.50386711838E-01 -.59601466177E-01 -.60116685556E-01 -.50617126397E-01
 -.34691333943E-01 -.19044158759E-01 -.81973127173E-02 -.29391937062E-02 -.30260568053E-02
 -.24649083996E-01 -.33962577624E-01 -.37076580213E-01 -.33237018960E-01 -.24656298501E-01
 -.14216359662E-01 -.56563598051E-02 -.33838631509E-02 -.93303294566E-02 -.20841744818E-01
 -.33100809826E-01 -.42402124740E-01 -.46124681975E-01 -.42301643004E-01 -.31745864228E-01
 -.19044158759E-01 -.93184888790E-02 -.49810272927E-02 -.64971456835E-02 -.13785124551E-01
 -.48932741287E-01 -.58487395907E-01 -.57913287985E-01 -.48195304187E-01 -.33237018961E-01
 -.17888768417E-01 -.72152892790E-02 -.45257074283E-02 -.90204896152E-02 -.16767210556E-01
 -.24049252471E-01 -.28698479082E-01 -.28998477964E-01 -.24068931185E-01 -.15760427925E-01
 -.81973127169E-02 -.49810272925E-02 -.79427288489E-02 -.17777306288E-01 -.33113480737E-01
 -.75405905978E-01 -.81579724246E-01 -.74690105501E-01 -.57913287984E-01 -.37076580213E-01
 -.18396913568E-01 -.66341126011E-02 -.30311993745E-02 -.51455686566E-02 -.94273905042E-02
 -.13445547459E-01 -.15650471675E-01 -.14665398874E-01 -.10426529287E-01 -.52890659077E-02
 -.29391937058E-02 -.64971456833E-02 -.17777306288E-01 -.36379064372E-01 -.58086478613E-01
 -.96174030798E-01 -.95915253612E-01 -.81579724246E-01 -.58487395907E-01 -.33962577624E-01
 -.14435354061E-01 -.32331308544E-02 0.24221056984E-03 -.10014043875E-02 -.39214207074E-02
 -.64427401781E-02 -.71343580900E-02 -.53263314338E-02 -.20195020439E-02 -.63373834976E-04
 -.30260568050E-02 -.13785124550E-01 -.33113480737E-01 -.58086478613E-01 -.81844305126E-01
 -.11296064971E-02 -.80168956470E-03 -.87658132009E-03 -.82607564536E-03 -.16556593806E-03
 0.60147640571E-03 0.76315389410E-03 0.41501567997E-03 0.35990717290E-04 -.35152469878E-03
 -.74295657257E-03 -.66668317519E-03 0.35375907071E-04 0.65959368388E-03 0.59276511070E-03
 0.14730718959E-03 -.17720565745E-03 -.55979596812E-03 -.11461495549E-02 -.14284038186E-02
 -.80168956481E-03 -.75196032935E-03 -.54028046929E-03 -.17895221845E-04 0.50305161596E-03
 0.51054266621E-03 -.11133318467E-03 -.88299419563E-03 -.12836692215E-02 -.11849472613E-02
 -.70962857413E-03 -.80399205878E-04 0.36832109802E-03 0.37268133878E-03 0.16034686993E-04
 -.36243303259E-03 -.58665300298E-03 -.75059232859E-03 -.86188707485E-03 -.85973612090E-03
 -.87658131997E-03 -.54028046929E-03 0.31400518367E-04 0.24350832697E-03 -.28645008427E-04
 -.56754336337E-03 -.11881515936E-02 -.16362251301E-02 -.15928373328E-02 -.10869693609E-02
 -.64354622650E-03 -.60153618806E-03 -.69029716406E-03 -.56116059655E-03 -.35584082445E-03
 -.28917700809E-03 -.25926112136E-03 -.19003089062E-03 -.29713970162E-03 -.67148509424E-03
 -.82607564536E-03 -.17895222015E-04 0.24350832678E-03 -.30325063668E-03 -.83246313005E-03
 -.10443727955E-02 -.14357419967E-02 -.20299900055E-02 -.22353237083E-02 -.20940621613E-02
 -.21866186101E-02 -.22951145433E-02 -.16380193990E-02 -.42211393661E-03 0.27166175292E-03
 0.22198162205E-03 0.10755948551E-03 0.38302187818E-04 -.44725657892E-03 -.10322540123E-02
 -.16556593789E-03 0.50305161582E-03 -.28645008427E-04 -.83246312995E-03 -.91187602055E-03
 -.11108066128E-02 -.23953438849E-02 -.38672252690E-02 -.43142525769E-02 -.41021133358E-02
 -.38354902796E-02 -.28718834047E-02 -.91298745231E-03 0.62925127516E-03 0.60599191958E-03
 -.49551260958E-04 -.17271142372E-03 -.24881148795E-03 -.82909688888E-03 -.10094259441E-02
 0.60147640556E-03 0.51054266612E-03 -.56754336351E-03 -.10443727955E-02 -.11108066129E-02
 -.25374432036E-02 -.50755600584E-02 -.64200209331E-02 -.58665182364E-02 -.48298466551E-02
 -.37712025788E-02 -.18726528369E-02 0.20793904010E-03 0.65061455303E-03 -.34760643936E-03
 -.76262375842E-03 -.21901104969E-03 -.17034266892E-03 -.67974025370E-03 -.35242751520E-03
 0.76315389367E-03 -.11133318522E-03 -.11881515940E-02 -.14357419969E-02 -.23953438851E-02
 -.50755600586E-02 -.72904051558E-02 -.69298895064E-02 -.52353875933E-02 -.41235612856E-02
 -.30271938034E-02 -.11339761636E-02 0.86562002920E-04 -.48865530079E-03 -.11515326198E-02
 -.32700359441E-03 0.63044013285E-03 0.20965412656E-03 -.36992610444E-03 0.23828223840E-03
 0.41501567916E-03 -.88299419658E-03 -.16362251310E-02 -.20299900061E-02 -.38672252693E-02
 -.64200209333E-02 -.69298895067E-02 -.53150018320E-02 -.41425646394E-02 -.39521238977E-02
 -.29095180049E-02 -.10443613949E-02 -.39598998343E-03 -.87939498812E-03 -.34731159077E-03
 0.11140879690E-02 0.12384005652E-02 0.23215167033E-05 -.30834430922E-03 0.52382557275E-03
 0.35990716302E-04 -.12836692226E-02 -.15928373339E-02 -.22353237091E-02 -.43142525780E-02
 -.58665182371E-02 -.52353875936E-02 -.41425646398E-02 -.43027349337E-02 -.41770749948E-02
 -.22376560915E-02 -.22703833647E-03 0.45496157593E-04 -.14917384352E-04 0.11082901646E-02
 0.18615072612E-02 0.77537948621E-03 -.37469578243E-03 0.19540098304E-03 0.93798402243E-03
 -.35152469977E-03 -.11849472624E-02 -.10869693619E-02 -.20940621623E-02 -.41021133368E-02
 -.48298466559E-02 -.41235612861E-02 -.39521238982E-02 -.41770749949E-02 -.27543222331E-02
 -.12613007120E-03 0.10524334041E-02 0.59327038522E-03 0.79944170722E-03 0.18660319278E-02
 0.17375172166E-02 0.50965260419E-03 0.44031226152E-03 0.14810463732E-02 0.12682251615E-02
 -.74295657341E-03 -.70962857493E-03 -.64354622712E-03 -.21866186109E-02 -.38354902805E-02
 -.37712025795E-02 -.30271938041E-02 -.29095180054E-02 -.22376560919E-02 -.12613007142E-03
 0.14818603996E-02 0.10783290731E-02 0.46528107023E-03 0.14323137857E-02 0.25478297798E-02
 0.21680135114E-02 0.15769456538E-02 0.21296694797E-02 0.23274474084E-02 0.80729332711E-03
 -.66668317586E-03 -.80399206652E-04 -.60153618862E-03 -.22951145438E-02 -.28718834055E-02
 -.18726528379E-02 -.11339761645E-02 -.10443613956E-02 -.22703833672E-03 0.10524334040E-02
 0.10783290732E-02 0.32700993947E-03 0.10210996743E-02 0.30106437007E-02 0.39051910910E-02
 0.32799687423E-02 0.29110506510E-02 0.29448982832E-02 0.18089778877E-02 -.98894979928E-04
 0.35375906347E-04 0.36832109724E-03 -.69029716470E-03 -.16380193996E-02 -.91298745323E-03
 0.20793903916E-03 0.86562002036E-04 -.39598998387E-03 0.45496157327E-04 0.59327038540E-03
 0.46528107043E-03 0.10210996745E-02 0.31475549072E-02 0.49832996562E-02 0.47845471277E-02
 0.36765975773E-02 0.31677773760E-02 0.24870606388E-02 0.84052622237E-03 -.33374253439E-03
 0.65959368316E-03 0.37268133812E-03 -.56116059702E-03 -.42211393712E-03 0.62925127446E-03
 0.65061455238E-03 -.48865530143E-03 -.87939498837E-03 -.14917383972E-04 0.79944170764E-03
 0.14323137863E-02 0.30106437010E-02 0.49832996564E-02 0.53804430851E-02 0.41649104867E-02
 0.31994353224E-02 0.28774386089E-02 0.19364342079E-02 0.52286037746E-03 0.15674960165E-03
 0.59276511017E-03 0.16034686354E-04 -.35584082484E-03 0.27166175241E-03 0.60599191897E-03
 -.34760644004E-03 -.11515326202E-02 -.34731159081E-03 0.11082901650E-02 0.18660319285E-02
 0.25478297806E-02 0.39051910915E-02 0.47845471280E-02 0.41649104868E-02 0.31950369600E-02
 0.30607283064E-02 0.28467070745E-02 0.15964517658E-02 0.41085342462E-03 0.39855613002E-03
 0.14730718925E-03 -.36243303285E-03 -.28917700837E-03 0.22198162173E-03 -.49551261668E-04
 -.76262375893E-03 -.32700359449E-03 0.11140879692E-02 0.18615072618E-02 0.17375172175E-02
 0.21680135121E-02 0.32799687430E-02 0.36765975777E-02 0.31994353226E-02 0.30607283066E-02
 0.32050909439E-02 0.23384480791E-02 0.67685994025E-03 -.11743470359E-03 0.15955039210E-03
 -.17720565751E-03 -.58665300298E-03 -.25926112170E-03 0.10755948529E-03 -.17271142445E-03
 -.21901105006E-03 0.63044013277E-03 0.12384005656E-02 0.77537948705E-03 0.50965260505E-03
 0.15769456547E-02 0.29110506518E-02 0.31677773764E-02 0.28774386094E-02 0.28467070747E-02
 0.23384480792E-02 0.79066757374E-03 -.50601252149E-03 -.42138446132E-03 0.86481212833E-04
 -.55979596789E-03 -.75059232825E-03 -.19003089085E-03 0.38302187704E-04 -.24881148801E-03
 -.17034266909E-03 0.20965412671E-03 0.23215170941E-05 -.37469578164E-03 0.44031226234E-03
 0.21296694806E-02 0.29448982839E-02 0.24870606395E-02 0.19364342087E-02 0.15964517663E-02
 0.67685994067E-03 -.50601252131E-03 -.67551991205E-03 0.29995666381E-04 0.13081153929E-03
 -.11461495545E-02 -.86188707371E-03 -.29713970105E-03 -.44725657870E-03 -.82909688888E-03
 -.67974025376E-03 -.36992610426E-03 -.30834430856E-03 0.19540098374E-03 0.14810463741E-02
 0.23274474090E-02 0.18089778885E-02 0.84052622319E-03 0.52286037828E-03 0.41085342519E-03
 -.11743470316E-03 -.42138446121E-03 0.29995666381E-04 0.28625962887E-03 -.43142642880E-03
 -.14284038180E-02 -.85973612067E-03 -.67148509436E-03 -.10322540119E-02 -.10094259437E-02
 -.35242751508E-03 0.23828223870E-03 0.52382557357E-03 0.93798402341E-03 0.12682251626E-02
 0.80729332776E-03 -.98894979139E-04 -.33374253363E-03 0.15674960258E-03 0.39855613064E-03
 0.15955039252E-03 0.86481213060E-04 0.13081153912E-03 -.43142642903E-03 -.13017365279E-02
 0.10441418791E+00 0.96972387622E-01 0.75513816831E-01 0.48432708551E-01 0.24878451129E-01
 0.92535892566E-02 0.13527169420E-02 -.63689415202E-03 0.78915272300E-03 0.25901932137E-02
 0.28745507612E-02 0.19596096925E-02 0.78829753699E-03 -.14392414274E-03 0.10216874517E-02
 0.83587220297E-02 0.24866020063E-01 0.48969100899E-01 0.74972823516E-01 0.95716211891E-01
 0.96972387623E-01 0.82318436989E-01 0.58283288872E-01 0.33649579197E-01 0.14954000711E-01
 0.41023352277E-02 0.11979785167E-03 0.97497740814E-03 0.39195781772E-02 0.61986581033E-02
 0.64558440560E-02 0.49175203361E-02 0.24565722750E-02 0.78463993677E-03 0.33271429512E-02
 0.13877460868E-01 0.33361346408E-01 0.58255811810E-01 0.81828734294E-01 0.96599273343E-01
 0.75513816832E-01 0.58283288872E-01 0.37016555882E-01 0.18382474378E-01 0.64929006096E-02
 0.22713466860E-02 0.42302910314E-02 0.94441236321E-02 0.14549230442E-01 0.16837289858E-01
 0.15224512839E-01 0.10507013542E-01 0.50748858680E-02 0.23715676378E-02 0.59757284872E-02
 0.17930900327E-01 0.37123441189E-01 0.58799589292E-01 0.75945729863E-01 0.82319498818E-01
 0.48432708551E-01 0.33649579197E-01 0.18382474378E-01 0.73868487353E-02 0.38930156272E-02
 0.78807255138E-02 0.16222979782E-01 0.24825294884E-01 0.30245257819E-01 0.30227834932E-01
 0.24490420259E-01 0.15504406845E-01 0.75097720502E-02 0.42509112686E-02 0.78035111727E-02
 0.18441294515E-01 0.34019006479E-01 0.49428843236E-01 0.58561800118E-01 0.57965207109E-01
 0.24878451129E-01 0.14954000711E-01 0.64929006096E-02 0.38930156273E-02 0.94403888546E-02
 0.20805251568E-01 0.33163461687E-01 0.42515685799E-01 0.46105146112E-01 0.42152150084E-01
 0.31643732048E-01 0.19080738507E-01 0.94507781050E-02 0.52149413643E-02 0.69187666307E-02
 0.14278585228E-01 0.24871355350E-01 0.33710638224E-01 0.36545171548E-01 0.32905144960E-01
 0.92535892564E-02 0.41023352276E-02 0.22713466858E-02 0.78807255139E-02 0.20805251568E-01
 0.36358718387E-01 0.49784788797E-01 0.58159797692E-01 0.58759933494E-01 0.50057898929E-01
 0.35037193327E-01 0.19965629942E-01 0.91722984378E-02 0.34880713754E-02 0.30651671644E-02
 0.76822260091E-02 0.14302499560E-01 0.18284589177E-01 0.17766311962E-01 0.14238388000E-01
 0.13527169415E-02 0.11979785115E-03 0.42302910310E-02 0.16222979782E-01 0.33163461686E-01
 0.49784788796E-01 0.62649713015E-01 0.68879496807E-01 0.64951439922E-01 0.50800222889E-01
 0.32362347237E-01 0.16534837110E-01 0.57928497296E-02 -.63318487079E-04 -.64004805017E-03
 0.31503597539E-02 0.71811668822E-02 0.79606116419E-02 0.61484730759E-02 0.38026353258E-02
 -.63689415285E-03 0.97497740726E-03 0.94441236315E-02 0.24825294883E-01 0.42515685798E-01
 0.58159797691E-01 0.68879496808E-01 0.70698426609E-01 0.60688865263E-01 0.42315819823E-01
 0.23745193311E-01 0.10184805597E-01 0.17832151933E-02 -.18138993148E-02 -.34810253946E-03
 0.35926867560E-02 0.54839198541E-02 0.41517354077E-02 0.20605137897E-02 0.52637209699E-03
 0.78915272205E-03 0.39195781761E-02 0.14549230441E-01 0.30245257819E-01 0.46105146111E-01
 0.58759933494E-01 0.64951439922E-01 0.60688865263E-01 0.46125130694E-01 0.28057851805E-01
 0.13765728524E-01 0.50374241838E-02 0.78378965042E-03 0.11919414091E-02 0.54631663510E-02
 0.93632833089E-02 0.94306489875E-02 0.69370011164E-02 0.44995573942E-02 0.22618542222E-02
 0.25901932128E-02 0.61986581024E-02 0.16837289857E-01 0.30227834931E-01 0.42152150083E-01
 0.50057898928E-01 0.50800222888E-01 0.42315819823E-01 0.28057851805E-01 0.15084183781E-01
 0.72140779814E-02 0.38450380044E-02 0.45888868808E-02 0.98094778592E-02 0.16705931287E-01
 0.20264891748E-01 0.18931024179E-01 0.15168077020E-01 0.10633956408E-01 0.55397043851E-02
 0.28745507603E-02 0.64558440552E-02 0.15224512838E-01 0.24490420259E-01 0.31643732047E-01
 0.35037193326E-01 0.32362347236E-01 0.23745193311E-01 0.13765728524E-01 0.72140779812E-02
 0.51246056347E-02 0.70894244030E-02 0.13797213111E-01 0.24084790471E-01 0.32800422021E-01
 0.35289012995E-01 0.31756647017E-01 0.24780040577E-01 0.15794568188E-01 0.69583299971E-02
 0.19596096918E-02 0.49175203354E-02 0.10507013542E-01 0.15504406845E-01 0.19080738506E-01
 0.19965629941E-01 0.16534837109E-01 0.10184805596E-01 0.50374241835E-02 0.38450380044E-02
 0.70894244032E-02 0.15378463511E-01 0.28595873221E-01 0.42598945940E-01 0.50869372652E-01
 0.50280248122E-01 0.42513583884E-01 0.30423662675E-01 0.16748961333E-01 0.58381175556E-02
 0.78829753620E-03 0.24565722742E-02 0.50748858673E-02 0.75097720495E-02 0.94507781040E-02
 0.91722984369E-02 0.57928497288E-02 0.17832151929E-02 0.78378965011E-03 0.45888868810E-02
 0.13797213111E-01 0.28595873221E-01 0.46280475068E-01 0.60324382153E-01 0.64889960655E-01
 0.59211717919E-01 0.46294780766E-01 0.29809070008E-01 0.14039709790E-01 0.37409521397E-02
 -.14392414349E-03 0.78463993609E-03 0.23715676373E-02 0.42509112680E-02 0.52149413636E-02
 0.34880713747E-02 -.63318487733E-04 -.18138993150E-02 0.11919414094E-02 0.98094778598E-02
 0.24084790472E-01 0.42598945940E-01 0.60324382153E-01 0.70438927296E-01 0.69418036121E-01
 0.58777030932E-01 0.42353206252E-01 0.24413732162E-01 0.97148323644E-02 0.17186176895E-02
 0.10216874511E-02 0.33271429505E-02 0.59757284865E-02 0.78035111719E-02 0.69187666299E-02
 0.30651671636E-02 -.64004805065E-03 -.34810253951E-03 0.54631663513E-02 0.16705931288E-01
 0.32800422021E-01 0.50869372653E-01 0.64889960656E-01 0.69418036122E-01 0.63535304459E-01
 0.50085144564E-01 0.32945376230E-01 0.16470145208E-01 0.50713388641E-02 0.58535451767E-03
 0.83587220293E-02 0.13877460868E-01 0.17930900326E-01 0.18441294515E-01 0.14278585227E-01
 0.76822260084E-02 0.31503597537E-02 0.35926867562E-02 0.93632833097E-02 0.20264891749E-01
 0.35289012996E-01 0.50280248123E-01 0.59211717920E-01 0.58777030932E-01 0.50085144564E-01
 0.36233673140E-01 0.20787178850E-01 0.82074374098E-02 0.23491015805E-02 0.34470570557E-02
 0.24866020063E-01 0.33361346408E-01 0.37123441189E-01 0.34019006479E-01 0.24871355350E-01
 0.14302499559E-01 0.71811668820E-02 0.54839198544E-02 0.94306489883E-02 0.18931024179E-01
 0.31756647018E-01 0.42513583884E-01 0.46294780767E-01 0.42353206253E-01 0.32945376231E-01
 0.20787178851E-01 0.94352617603E-02 0.35798985383E-02 0.59053527328E-02 0.14478386974E-01
 0.48969100900E-01 0.58255811810E-01 0.58799589291E-01 0.49428843236E-01 0.33710638224E-01
 0.18284589176E-01 0.79606116421E-02 0.41517354082E-02 0.69370011173E-02 0.15168077021E-01
 0.24780040578E-01 0.30423662676E-01 0.29809070009E-01 0.24413732163E-01 0.16470145209E-01
 0.82074374103E-02 0.35798985384E-02 0.69041947504E-02 0.18565768621E-01 0.34343780482E-01
 0.74972823516E-01 0.81828734294E-01 0.75945729863E-01 0.58561800118E-01 0.36545171548E-01
 0.17766311962E-01 0.61484730763E-02 0.20605137905E-02 0.44995573950E-02 0.10633956409E-01
 0.15794568188E-01 0.16748961334E-01 0.14039709791E-01 0.97148323652E-02 0.50713388646E-02
 0.23491015810E-02 0.59053527331E-02 0.18565768621E-01 0.38078220899E-01 0.58770965401E-01
 0.95716211890E-01 0.96599273343E-01 0.82319498818E-01 0.57965207109E-01 0.32905144961E-01
 0.14238388001E-01 0.38026353263E-02 0.52637209794E-03 0.22618542233E-02 0.55397043862E-02
 0.69583299978E-02 0.58381175564E-02 0.37409521406E-02 0.17186176904E-02 0.58535451825E-03
 0.34470570561E-02 0.14478386975E-01 0.34343780481E-01 0.58770965400E-01 0.81322816530E-01
 0.37888024117E-02 0.43614571609E-02 0.29120074818E-02 0.11339070022E-02 0.91132734551E-03
 0.13602324326E-02 0.91712228934E-03 0.13162969720E-03 0.87232926202E-04 0.92854688130E-04
 -.58689780636E-03 -.85405111035E-03 0.86882845952E-04 0.87839399223E-03 0.43621918157E-03
 0.38158821681E-04 0.90917400192E-03 0.19444876627E-02 0.20969104922E-02 0.24717108219E-02
 0.43614571611E-02 0.35280526973E-02 0.17711192930E-02 0.92964273711E-03 0.11414603429E-02
 0.91289865542E-03 -.72719520254E-04 -.48846022959E-03 0.88181839633E-04 0.59202913345E-03
 0.63126553245E-03 0.88112123778E-03 0.12259227422E-02 0.77813770553E-03 -.13456555967E-03
 -.13545486722E-03 0.92798932491E-03 0.19308507041E-02 0.26570104884E-02 0.36683038710E-02
 0.29120074823E-02 0.17711192933E-02 0.87761447793E-03 0.59732637308E-03 0.38155390108E-03
 -.10347425082E-03 -.16693153093E-03 0.79881718298E-03 0.21308876258E-02 0.27647452417E-02
 0.25314590945E-02 0.18878628671E-02 0.10203958968E-02 0.86843862199E-04 -.33013249389E-03
 0.22775561979E-03 0.13837615497E-02 0.24573987710E-02 0.32039808431E-02 0.34562018855E-02
 0.11339070023E-02 0.92964273728E-03 0.59732637285E-03 0.66250905903E-04 -.37159991656E-04
 0.76470649832E-03 0.22275447480E-02 0.36877098633E-02 0.45438892672E-02 0.43684829014E-02
 0.31743008091E-02 0.16453617206E-02 0.60541754810E-03 0.25627970287E-03 0.31151287511E-03
 0.73092812187E-03 0.15426023317E-02 0.22610230973E-02 0.22565782979E-02 0.16455337122E-02
 0.91132734568E-03 0.11414603428E-02 0.38155390115E-03 -.37159991521E-04 0.12641492585E-02
 0.34342938406E-02 0.48502553135E-02 0.53854754354E-02 0.55373632953E-02 0.48987624458E-02
 0.32551530979E-02 0.17455814946E-02 0.12745936792E-02 0.11320436363E-02 0.58349692267E-03
 0.33868517787E-03 0.91650817797E-03 0.13123022858E-02 0.83225577325E-03 0.45521209751E-03
 0.13602324324E-02 0.91289865527E-03 -.10347425093E-03 0.76470649843E-03 0.34342938407E-02
 0.52795730649E-02 0.55402740135E-02 0.58748955856E-02 0.65254422127E-02 0.58534813416E-02
 0.38780072072E-02 0.25239408878E-02 0.20929316146E-02 0.11093719535E-02 -.30394166374E-03
 -.42653579290E-03 0.59372235962E-03 0.86554364356E-03 0.33538577640E-03 0.59499770398E-03
 0.91712228887E-03 -.72719520798E-04 -.16693153131E-03 0.22275447478E-02 0.48502553135E-02
 0.55402740133E-02 0.58756774926E-02 0.75010249088E-02 0.84292957233E-02 0.66266068562E-02
 0.38871612755E-02 0.25595093891E-02 0.16982164871E-02 -.59199434748E-04 -.11427649284E-02
 -.12039234699E-03 0.11440491458E-02 0.75301938067E-03 0.79434606562E-04 0.61584788028E-03
 0.13162969641E-03 -.48846023047E-03 0.79881718218E-03 0.36877098628E-02 0.53854754353E-02
 0.58748955855E-02 0.75010249086E-02 0.95209499813E-02 0.86481686987E-02 0.50655559825E-02
 0.24114680339E-02 0.17003675201E-02 0.66019425853E-03 -.92183654029E-03 -.75184789498E-03
 0.89526563555E-03 0.11146023819E-02 -.31089319817E-03 -.74226097028E-03 0.13371713113E-03
 0.87232925264E-04 0.88181838581E-04 0.21308876249E-02 0.45438892665E-02 0.55373632944E-02
 0.65254422119E-02 0.84292957228E-02 0.86481686985E-02 0.55480808818E-02 0.20987423718E-02
 0.12098499313E-02 0.12740300270E-02 0.73064423390E-04 -.90296396133E-03 0.21648007117E-04
 0.83086430607E-03 -.43720472910E-03 -.17772100336E-02 -.98664186501E-03 0.28443149152E-03
 0.92854687235E-04 0.59202913258E-03 0.27647452410E-02 0.43684829007E-02 0.48987624449E-02
 0.58534813409E-02 0.66266068556E-02 0.50655559821E-02 0.20987423716E-02 0.91485953570E-03
 0.15586308677E-02 0.11928078926E-02 -.45279231843E-03 -.91925277533E-03 -.14253267496E-03
 -.54220891267E-03 -.19809193054E-02 -.17841709814E-02 0.58745652453E-04 0.78125970560E-03
 -.58689780710E-03 0.63126553181E-03 0.25314590941E-02 0.31743008085E-02 0.32551530973E-02
 0.38780072066E-02 0.38871612748E-02 0.24114680334E-02 0.12098499308E-02 0.15586308676E-02
 0.16796578406E-02 0.93674718455E-04 -.14669910264E-02 -.13301877765E-02 -.93266340443E-03
 -.16959065148E-02 -.20507853658E-02 -.63854571989E-03 0.66765429406E-03 0.11089077258E-03
 -.85405111107E-03 0.88112123708E-03 0.18878628667E-02 0.16453617201E-02 0.17455814939E-02
 0.25239408869E-02 0.25595093882E-02 0.17003675194E-02 0.12740300267E-02 0.11928078926E-02
 0.93674718594E-04 -.16160499023E-02 -.21131581548E-02 -.14861073992E-02 -.14693398281E-02
 -.20260792343E-02 -.15688115901E-02 -.39141004962E-03 -.35731351974E-03 -.12259683804E-02
 0.86882845178E-04 0.12259227415E-02 0.10203958961E-02 0.60541754750E-03 0.12745936783E-02
 0.20929316137E-02 0.16982164863E-02 0.66019425813E-03 0.73064423123E-04 -.45279231817E-03
 -.14669910261E-02 -.21131581544E-02 -.17544921557E-02 -.14387171568E-02 -.19809073550E-02
 -.23668406600E-02 -.17593792648E-02 -.11636386326E-02 -.13611146220E-02 -.12190503340E-02
 0.87839399147E-03 0.77813770481E-03 0.86843861595E-04 0.25627970217E-03 0.11320436355E-02
 0.11093719528E-02 -.59199435299E-04 -.92183654049E-03 -.90296396091E-03 -.91925277471E-03
 -.13301877756E-02 -.14861073987E-02 -.14387171566E-02 -.19745360828E-02 -.28004492384E-02
 -.27506966903E-02 -.18493130802E-02 -.11807893498E-02 -.82964497260E-03 -.23764653839E-04
 0.43621918101E-03 -.13456556034E-03 -.33013249461E-03 0.31151287430E-03 0.58349692168E-03
 -.30394166463E-03 -.11427649289E-02 -.75184789495E-03 0.21648007472E-04 -.14253267414E-03
 -.93266340349E-03 -.14693398272E-02 -.19809073544E-02 -.28004492381E-02 -.30915627616E-02
 -.21843335466E-02 -.93649687684E-03 -.34177330948E-03 -.64271703785E-04 0.37983542794E-03
 0.38158821212E-04 -.13545486777E-03 0.22775561897E-03 0.73092812107E-03 0.33868517691E-03
 -.42653579358E-03 -.12039234707E-03 0.89526563588E-03 0.83086430682E-03 -.54220891147E-03
 -.16959065137E-02 -.20260792334E-02 -.23668406595E-02 -.27506966902E-02 -.21843335462E-02
 -.83160700575E-03 -.98285941046E-04 -.29365500335E-03 -.35919169690E-03 -.94430319422E-05
 0.90917400169E-03 0.92798932454E-03 0.13837615490E-02 0.15426023313E-02 0.91650817700E-03
 0.59372235911E-03 0.11440491457E-02 0.11146023824E-02 -.43720472816E-03 -.19809193044E-02
 -.20507853647E-02 -.15688115892E-02 -.17593792642E-02 -.18493130796E-02 -.93649687657E-03
 -.98285940876E-04 -.44555225693E-03 -.95508197981E-03 -.35618847213E-03 0.64138140760E-03
 0.19444876629E-02 0.19308507038E-02 0.24573987706E-02 0.22610230970E-02 0.13123022854E-02
 0.86554364339E-03 0.75301938092E-03 -.31089319755E-03 -.17772100326E-02 -.17841709803E-02
 -.63854571872E-03 -.39141004863E-03 -.11636386318E-02 -.11807893491E-02 -.34177330896E-03
 -.29365500293E-03 -.95508197967E-03 -.48274456486E-03 0.12172732035E-02 0.21944773313E-02
 0.20969104922E-02 0.26570104884E-02 0.32039808432E-02 0.22565782977E-02 0.83225577322E-03
 0.33538577651E-03 0.79434607031E-04 -.74226096937E-03 -.98664186410E-03 0.58745653526E-04
 0.66765429487E-03 -.35731351889E-03 -.13611146212E-02 -.82964497192E-03 -.64271703287E-04
 -.35919169654E-03 -.35618847193E-03 0.12172732035E-02 0.27740416450E-02 0.26494787321E-02
 0.24717108215E-02 0.36683038712E-02 0.34562018853E-02 0.16455337122E-02 0.45521209762E-03
 0.59499770447E-03 0.61584788083E-03 0.13371713213E-03 0.28443149261E-03 0.78125970671E-03
 0.11089077328E-03 -.12259683797E-02 -.12190503332E-02 -.23764653033E-04 0.37983542838E-03
 -.94430316011E-05 0.64138140770E-03 0.21944773311E-02 0.26494787319E-02 0.20868267933E-02
 -.10468820129E+00 -.95508605741E-01 -.75375083419E-01 -.49879155981E-01 -.24933656155E-01
 -.71337650949E-02 0.44206448194E-03 0.95920979011E-03 -.67903674939E-03 -.26130434915E-02
 -.43115384103E-02 -.38773018791E-02 -.67819203670E-03 0.19621280362E-02 -.18730722368E-03
 -.88829832658E-02 -.24924921112E-01 -.48793598740E-01 -.76465739006E-01 -.98034494552E-01
 -.95508605742E-01 -.81386051537E-01 -.59030055674E-01 -.34166194584E-01 -.13560822586E-01