    4    4   50    1
  0.4346632E+02  0.2573869E-09  0.2573869E-09  0.3030466E-08  0.5000000E-15
  1.000000000000000E-004
  CAR 
 unknown system                          
     44     14     26
 
  0.0000000E+00  0.0000000E+00  0.0000000E+00  0.1000000E-01
    1      -11.160099   1.000000
    2       -9.891354   1.000000
    3       -8.223553   1.000000
    4       -7.412296   1.000000
    5       -5.392914   1.000000
    6       -5.378525   1.000000
    7       -5.325612   1.000000
    8       -5.325318   1.000000
    9       -5.294857   1.000000
   10       -5.294593   1.000000
   11       -5.133393   1.000000
   12       -5.133086   1.000000
   13       -5.100513   1.000000
   14       -5.083822   1.000000
   15       -5.083503   1.000000
   16       -4.547205   1.000000
   17       -4.547107   1.000000
   18       -4.440196   1.000000
   19       -4.440164   1.000000
   20       -4.169507   1.000000
   21       -4.169469   1.000000
   22       -4.002724   1.000000
   23       -4.002653   1.000000
   24       -3.540528   1.000000
   25       -2.472272   0.864928
   26        1.723630   0.000000
 
  0.1000000E+00  0.6938894E-17  0.0000000E+00  0.6000000E-01
    1      -10.846618   1.000000
    2       -9.591701   1.000000
    3       -7.951151   1.000000
    4       -7.202848   1.000000
    5       -5.551060   1.000000
    6       -5.506097   1.000000
    7       -5.417901   1.000000
    8       -5.240891   1.000000
    9       -5.225561   1.000000
   10       -5.217100   1.000000
   11       -5.204065   1.000000
   12       -5.183489   1.000000
   13       -5.062400   1.000000
   14       -5.035287   1.000000
   15       -4.984849   1.000000
   16       -4.612685   1.000000
   17       -4.597434   1.000000
   18       -4.504509   1.000000
   19       -4.424804   1.000000
   20       -4.393261   1.000000
   21       -4.167218   1.000000
   22       -4.116246   1.000000
   23       -3.995370   1.000000
   24       -3.005498   0.999999
   25       -1.768993   0.000054
   26        1.995523   0.000000
 
  0.2000000E+00 -0.1387779E-16  0.0000000E+00  0.6000000E-01
    1       -9.944592   1.000000
    2       -8.756570   1.000000
    3       -7.262573   1.000000
    4       -6.703248   1.000000
    5       -5.891300   1.000000
    6       -5.689543   1.000000
    7       -5.648331   1.000000
    8       -5.338034   1.000000
    9       -5.307881   1.000000
   10       -5.258413   1.000000
   11       -5.120590   1.000000
   12       -5.036383   1.000000
   13       -4.942920   1.000000
   14       -4.872840   1.000000
   15       -4.822342   1.000000
   16       -4.721411   1.000000
   17       -4.699219   1.000000
   18       -4.565921   1.000000
   19       -4.436342   1.000000
   20       -4.396716   1.000000
   21       -4.171947   1.000000
   22       -3.982635   1.000000
   23       -3.727745   1.000000
   24       -2.056501   0.033089
   25       -0.333821   0.000000
   26        2.802476   0.000000
 
  0.3000000E+00 -0.2775558E-16  0.0000000E+00  0.6000000E-01
    1       -8.629567   1.000000
    2       -7.705948   1.000000
    3       -6.775063   1.000000
    4       -6.406029   1.000000
    5       -6.178259   1.000000
    6       -5.901611   1.000000
    7       -5.674466   1.000000
    8       -5.465217   1.000000
    9       -5.217984   1.000000
   10       -5.157556   1.000000
   11       -5.054040   1.000000
   12       -4.972894   1.000000
   13       -4.869936   1.000000
   14       -4.785096   1.000000
   15       -4.537159   1.000000
   16       -4.453441   1.000000
   17       -4.367221   1.000000
   18       -4.265550   1.000000
   19       -4.256571   1.000000
   20       -4.246272   1.000000
   21       -4.151317   1.000000
   22       -3.965249   1.000000
   23       -3.058074   1.000000
   24       -0.810808   0.000000
   25        1.484888   0.000000
   26        4.098041   0.000000
 
  0.4000000E+00 -0.2775558E-16  0.0000000E+00  0.6000000E-01
    1       -7.480707   1.000000
    2       -7.130104   1.000000
    3       -6.742781   1.000000
    4       -6.540897   1.000000
    5       -6.383906   1.000000
    6       -6.108472   1.000000
    7       -5.590912   1.000000
    8       -5.343312   1.000000
    9       -5.243761   1.000000
   10       -5.238357   1.000000
   11       -4.898676   1.000000
   12       -4.804675   1.000000
   13       -4.426233   1.000000
   14       -4.338048   1.000000
   15       -4.147036   1.000000
   16       -4.105841   1.000000
   17       -4.093694   1.000000
   18       -3.994178   1.000000
   19       -3.958387   1.000000
   20       -3.907633   1.000000
   21       -3.849679   1.000000
   22       -3.299241   1.000000
   23       -1.797959   0.000123
   24        0.471661   0.000000
   25        2.579613   0.000000
   26        3.316736   0.000000
 
  0.5000000E+00 -0.2775558E-16  0.0000000E+00  0.3000000E-01
    1       -7.162163   1.000000
    2       -7.033889   1.000000
    3       -6.641613   1.000000
    4       -6.600111   1.000000
    5       -6.559507   1.000000
    6       -6.187104   1.000000
    7       -5.601100   1.000000
    8       -5.390098   1.000000
    9       -5.278821   1.000000
   10       -5.085573   1.000000
   11       -4.819865   1.000000
   12       -4.776690   1.000000
   13       -4.315450   1.000000
   14       -4.240427   1.000000
   15       -4.047004   1.000000
   16       -4.046391   1.000000
   17       -3.984859   1.000000
   18       -3.921474   1.000000
   19       -3.835763   1.000000
   20       -3.820019   1.000000
   21       -2.564430   0.960318
   22       -1.609606   0.000000
   23       -1.046518   0.000000
   24       -0.780326   0.000000
   25        1.872947   0.000000
   26        2.685377   0.000000
 
  0.2000000E+00  0.1000000E+00  0.0000000E+00  0.6000000E-01
    1      -10.237219   1.000000
    2       -9.020593   1.000000
    3       -7.459017   1.000000
    4       -6.836553   1.000000
    5       -5.746243   1.000000
    6       -5.696537   1.000000
    7       -5.582217   1.000000
    8       -5.342241   1.000000
    9       -5.295535   1.000000
   10       -5.267274   1.000000
   11       -5.155216   1.000000
   12       -5.063098   1.000000
   13       -5.011275   1.000000
   14       -4.839423   1.000000
   15       -4.811938   1.000000
   16       -4.728699   1.000000
   17       -4.697347   1.000000
   18       -4.635814   1.000000
   19       -4.443136   1.000000
   20       -4.294384   1.000000
   21       -4.264074   1.000000
   22       -4.035468   1.000000
   23       -3.810927   1.000000
   24       -2.331156   0.541769
   25       -0.758138   0.000000
   26        2.535596   0.000000
 
  0.3000000E+00  0.1000000E+00  0.0000000E+00  0.1200000E+00
    1       -9.109356   1.000000
    2       -8.037614   1.000000
    3       -6.804025   1.000000
    4       -6.366460   1.000000
    5       -6.014259   1.000000
    6       -5.833357   1.000000
    7       -5.774331   1.000000
    8       -5.481124   1.000000
    9       -5.409072   1.000000
   10       -5.338345   1.000000
   11       -5.225730   1.000000
   12       -5.046761   1.000000
   13       -4.922229   1.000000
   14       -4.770930   1.000000
   15       -4.730161   1.000000
   16       -4.615451   1.000000
   17       -4.416092   1.000000
   18       -4.332593   1.000000
   19       -4.282915   1.000000
   20       -4.208086   1.000000
   21       -4.180349   1.000000
   22       -4.037422   1.000000
   23       -3.278655   1.000000
   24       -1.265095   0.000000
   25        0.815830   0.000000
   26        3.605298   0.000000
 
  0.4000000E+00  0.1000000E+00  0.0000000E+00  0.1200000E+00
    1       -7.797041   1.000000
    2       -7.188780   1.000000
    3       -6.651168   1.000000
    4       -6.386004   1.000000
    5       -6.167986   1.000000
    6       -5.990622   1.000000
    7       -5.691625   1.000000
    8       -5.514161   1.000000
    9       -5.304095   1.000000
   10       -5.206363   1.000000
   11       -5.047593   1.000000
   12       -4.937180   1.000000
   13       -4.850874   1.000000
   14       -4.696599   1.000000
   15       -4.455421   1.000000
   16       -4.385859   1.000000
   17       -4.274171   1.000000
   18       -4.100919   1.000000
   19       -4.085455   1.000000
   20       -3.970880   1.000000
   21       -3.729780   1.000000
   22       -3.508582   1.000000
   23       -2.187810   0.181749
   24        0.183611   0.000000
   25        2.725609   0.000000
   26        4.256792   0.000000
 
  0.5000000E+00  0.1000000E+00  0.0000000E+00  0.1200000E+00
    1       -7.086769   1.000000
    2       -6.939661   1.000000
    3       -6.581771   1.000000
    4       -6.521711   1.000000
    5       -6.375772   1.000000
    6       -6.116228   1.000000
    7       -5.670005   1.000000
    8       -5.352729   1.000000
    9       -5.317944   1.000000
   10       -5.182677   1.000000
   11       -5.034918   1.000000
   12       -4.731456   1.000000
   13       -4.486216   1.000000
   14       -4.389997   1.000000
   15       -4.319736   1.000000
   16       -4.141461   1.000000
   17       -4.088289   1.000000
   18       -4.051036   1.000000
   19       -3.972753   1.000000
   20       -3.896663   1.000000
   21       -2.551994   0.952188
   22       -1.904477   0.001795
   23       -0.708684   0.000000
   24        0.342639   0.000000
   25        2.168508   0.000000
   26        3.060959   0.000000
 
  0.4000000E+00  0.2000000E+00  0.0000000E+00  0.6000000E-01
    1       -7.920031   1.000000
    2       -7.174897   1.000000
    3       -6.528702   1.000000
    4       -6.120526   1.000000
    5       -6.087765   1.000000
    6       -5.867811   1.000000
    7       -5.772811   1.000000
    8       -5.588068   1.000000
    9       -5.443892   1.000000
   10       -5.428277   1.000000
   11       -5.389906   1.000000
   12       -5.024215   1.000000
   13       -5.015541   1.000000
   14       -4.769444   1.000000
   15       -4.605689   1.000000
   16       -4.449533   1.000000
   17       -4.380553   1.000000
   18       -4.120129   1.000000
   19       -4.069230   1.000000
   20       -3.988032   1.000000
   21       -3.660139   1.000000
   22       -3.457476   1.000000
   23       -2.240048   0.294826
   24        0.052706   0.000000
   25        2.492335   0.000000
   26        4.918700   0.000000
 
  0.5000000E+00  0.2000000E+00  0.0000000E+00  0.1200000E+00
    1       -6.931318   1.000000
    2       -6.713884   1.000000
    3       -6.472301   1.000000
    4       -6.282545   1.000000
    5       -6.081084   1.000000
    6       -5.928445   1.000000
    7       -5.826138   1.000000
    8       -5.571525   1.000000
    9       -5.492274   1.000000
   10       -5.171107   1.000000
   11       -5.099456   1.000000
   12       -5.048218   1.000000
   13       -4.981192   1.000000
   14       -4.727203   1.000000
   15       -4.466670   1.000000
   16       -4.412436   1.000000
   17       -4.339394   1.000000
   18       -4.088495   1.000000
   19       -3.979599   1.000000
   20       -3.903330   1.000000
   21       -2.545511   0.947449
   22       -1.928725   0.003065
   23       -0.461318   0.000000
   24        1.705936   0.000000
   25        3.193699   0.000000
   26        4.121601   0.000000
 
 -0.4000000E+00  0.2000000E+00  0.0000000E+00  0.6000000E-01
    1       -6.687545   1.000000
    2       -6.665881   1.000000
    3       -6.359684   1.000000
    4       -6.287853   1.000000
    5       -6.184502   1.000000
    6       -5.968626   1.000000
    7       -5.876545   1.000000
    8       -5.481432   1.000000
    9       -5.463080   1.000000
   10       -5.203349   1.000000
   11       -5.129900   1.000000
   12       -4.847546   1.000000
   13       -4.799473   1.000000
   14       -4.732384   1.000000
   15       -4.444407   1.000000
   16       -4.296655   1.000000
   17       -4.170294   1.000000
   18       -4.077051   1.000000
   19       -4.051869   1.000000
   20       -3.963608   1.000000
   21       -0.802299   0.000000
   22       -0.353572   0.000000
   23        0.206208   0.000000
   24        0.761131   0.000000
   25        2.417554   0.000000
   26        3.301668   0.000000
 
 -0.4000000E+00  0.3000000E+00  0.0000000E+00  0.6000000E-01
    1       -6.440213   1.000000
    2       -6.383386   1.000000
    3       -6.325450   1.000000
    4       -6.153376   1.000000
    5       -6.073683   1.000000
    6       -6.030908   1.000000
    7       -5.881925   1.000000
    8       -5.566743   1.000000
    9       -5.511400   1.000000
   10       -5.189287   1.000000
   11       -5.117819   1.000000
   12       -5.112378   1.000000
   13       -5.100656   1.000000
   14       -4.671871   1.000000
   15       -4.501388   1.000000
   16       -4.482389   1.000000
   17       -4.244668   1.000000
   18       -4.096599   1.000000
   19       -4.056728   1.000000
   20       -3.997675   1.000000
   21       -0.564959   0.000000
   22        0.319664   0.000000
   23        1.663881   0.000000
   24        2.307847   0.000000
   25        2.391637   0.000000
   26        3.370653   0.000000
