       N       E                     dE             d eps       ncg     rms          rms(c)
DAV:   1     0.188090594811E+03    0.18809E+03   -0.13747E+04   752   0.976E+02
DAV:   2    -0.847252053637E+01   -0.19656E+03   -0.19324E+03   816   0.275E+02
DAV:   3    -0.169654612282E+02   -0.84929E+01   -0.83829E+01   782   0.768E+01
DAV:   4    -0.170493651641E+02   -0.83904E-01   -0.83861E-01   824   0.675E+00
DAV:   5    -0.170500597523E+02   -0.69459E-03   -0.69453E-03   830   0.400E-01    0.137E+01
RMM:   6    -0.154196756659E+02    0.16304E+01   -0.40434E+01   734   0.658E+01    0.707E+00
RMM:   7    -0.138078519127E+02    0.16118E+01   -0.67251E+00   730   0.279E+01    0.856E-01
RMM:   8    -0.137890634501E+02    0.18788E-01   -0.14748E-01   737   0.316E+00    0.102E+00
RMM:   9    -0.137771764782E+02    0.11887E-01   -0.16040E-02   728   0.125E+00    0.639E-01
RMM:  10    -0.137695135689E+02    0.76629E-02   -0.32523E-02   734   0.166E+00    0.134E-01
RMM:  11    -0.137683774220E+02    0.11361E-02   -0.24662E-03   733   0.524E-01    0.405E-02
RMM:  12    -0.137683922176E+02   -0.14796E-04   -0.17629E-04   729   0.106E-01    0.263E-02
RMM:  13    -0.137685937509E+02   -0.20153E-03   -0.15622E-04   648   0.604E-02    0.111E-02
RMM:  14    -0.137687497560E+02   -0.15601E-03   -0.39219E-05   457   0.211E-02    0.112E-02
RMM:  15    -0.137688153176E+02   -0.65562E-04   -0.29653E-05   436   0.269E-02    0.633E-03
RMM:  16    -0.137688406836E+02   -0.25366E-04   -0.60950E-06   404   0.118E-02    0.634E-03
RMM:  17    -0.137688501162E+02   -0.94326E-05   -0.11912E-06   391   0.911E-03
   1 F= -.13768850E+02 E0= -.13749539E+02  d E =-.137689E+02
       N       E                     dE             d eps       ncg     rms          rms(c)
DAV:   1    -0.137704503061E+02   -0.16096E-02   -0.43625E-01   728   0.445E+00    0.460E-02
RMM:   2    -0.137705545758E+02   -0.10427E-03   -0.84910E-04   732   0.268E-01    0.355E-02
RMM:   3    -0.137705351019E+02    0.19474E-04   -0.13347E-04   730   0.916E-02    0.285E-02
RMM:   4    -0.137705457694E+02   -0.10668E-04   -0.49407E-05   565   0.632E-02    0.576E-03
RMM:   5    -0.137705494508E+02   -0.36814E-05   -0.99837E-07   312   0.854E-03
   2 F= -.13770549E+02 E0= -.13751613E+02  d E =-.169933E-02
       N       E                     dE             d eps       ncg     rms          rms(c)
DAV:   1    -0.137729370809E+02   -0.23913E-02   -0.10962E+00   728   0.705E+00    0.729E-02
RMM:   2    -0.137731129619E+02   -0.17588E-03   -0.17974E-03   735   0.398E-01    0.723E-03
RMM:   3    -0.137731421922E+02   -0.29230E-04   -0.34932E-05   447   0.462E-02    0.624E-03
RMM:   4    -0.137731488525E+02   -0.66602E-05   -0.41627E-06   393   0.181E-02
   3 F= -.13773149E+02 E0= -.13754828E+02  d E =-.259940E-02
       N       E                     dE             d eps       ncg     rms          rms(c)
DAV:   1    -0.137713100631E+02    0.18321E-02   -0.53237E+01   728   0.503E+01    0.541E-01
RMM:   2    -0.137797105024E+02   -0.84004E-02   -0.15987E-01   737   0.380E+00    0.176E-01
RMM:   3    -0.137798491215E+02   -0.13862E-03   -0.29646E-03   737   0.408E-01    0.930E-02
RMM:   4    -0.137798168597E+02    0.32262E-04   -0.11842E-03   734   0.332E-01    0.293E-02
RMM:   5    -0.137798075521E+02    0.93076E-05   -0.75179E-05   676   0.852E-02
   4 F= -.13779808E+02 E0= -.13765215E+02  d E =-.665870E-02
       N       E                     dE             d eps       ncg     rms          rms(c)
DAV:   1    -0.137803162723E+02   -0.49941E-03   -0.70654E+00   728   0.179E+01    0.180E-01
RMM:   2    -0.137804901921E+02   -0.17392E-03   -0.11534E-02   734   0.106E+00    0.342E-02
RMM:   3    -0.137805039674E+02   -0.13775E-04   -0.26281E-04   730   0.121E-01    0.212E-02
RMM:   4    -0.137804953684E+02    0.85990E-05   -0.13778E-05   408   0.284E-02
   5 F= -.13780495E+02 E0= -.13764654E+02  d E =-.687816E-03
