unknown system                          
           1
     2.573869    0.000000    0.000000
     1.286934    2.229036    0.000000
     0.000000    0.000000   30.304665
   Cu
   4
Direct configuration=     1
   0.00000000  0.00000000  0.39597864
   0.33333333  0.33333333  0.46532621
   0.66666667  0.66666667  0.53467379
   0.00000000  0.00000000  0.60402136
Direct configuration=     2
   0.00000000  0.00000000  0.39617645
   0.33333333  0.33333333  0.46539970
   0.66666667  0.66666667  0.53460030
  -0.00000000  0.00000000  0.60382355
Direct configuration=     3
  -0.00000000  0.00000000  0.39649472
   0.33333333  0.33333333  0.46550213
   0.66666667  0.66666667  0.53449787
  -0.00000000 -0.00000000  0.60350528
Direct configuration=     4
  -0.00000000  0.00000000  0.39868593
   0.33333333  0.33333333  0.46620860
   0.66666667  0.66666667  0.53379140
  -0.00000000 -0.00000000  0.60131407
Direct configuration=     5
  -0.00000000  0.00000000  0.39786726
   0.33333333  0.33333333  0.46598948
   0.66666667  0.66666667  0.53401052
  -0.00000000 -0.00000000  0.60213274
