  25  25   0   0
  0.1854407E+02  0.3946846E-09  0.3946846E-09  0.2976081E-08  0.5000000E-15
  1.000000000000000E-004
  CAR 
 unknown system                          
      9.95681131    -35.68325301  301      0.75273167      1.00000000
    -35.683  0.0000E+00  0.0000E+00
    -35.531  0.0000E+00  0.0000E+00
    -35.379  0.0000E+00  0.0000E+00
    -35.227  0.0000E+00  0.0000E+00
    -35.075  0.0000E+00  0.0000E+00
    -34.923  0.0000E+00  0.0000E+00
    -34.770  0.0000E+00  0.0000E+00
    -34.618  0.0000E+00  0.0000E+00
    -34.466  0.0000E+00  0.0000E+00
    -34.314  0.0000E+00  0.0000E+00
    -34.162  0.0000E+00  0.0000E+00
    -34.010  0.0000E+00  0.0000E+00
    -33.858  0.0000E+00  0.0000E+00
    -33.706  0.0000E+00  0.0000E+00
    -33.553  0.0000E+00  0.2000E+01
    -33.401  0.0000E+00  0.2000E+01
    -33.249  0.0000E+00  0.2000E+01
    -33.097  0.0000E+00  0.2000E+01
    -32.945  0.0000E+00  0.2000E+01
    -32.793  0.0000E+00  0.2000E+01
    -32.641  0.0000E+00  0.4000E+01
    -32.488  0.1320E+03  0.9006E+01
    -32.336  0.0000E+00  0.1000E+02
    -32.184  0.0000E+00  0.1000E+02
    -32.032  0.0000E+00  0.1000E+02
    -31.880  0.0000E+00  0.1000E+02
    -31.728  0.0000E+00  0.1000E+02
    -31.576  0.0000E+00  0.1000E+02
    -31.424  0.0000E+00  0.1000E+02
    -31.271  0.0000E+00  0.1000E+02
    -31.119  0.0000E+00  0.1000E+02
    -30.967  0.0000E+00  0.1000E+02
    -30.815  0.0000E+00  0.1000E+02
    -30.663  0.0000E+00  0.1000E+02
    -30.511  0.0000E+00  0.1000E+02
    -30.359  0.0000E+00  0.1000E+02
    -30.206  0.0000E+00  0.1000E+02
    -30.054  0.0000E+00  0.1000E+02
    -29.902  0.0000E+00  0.1000E+02
    -29.750  0.0000E+00  0.1000E+02
    -29.598  0.0000E+00  0.1000E+02
    -29.446  0.0000E+00  0.1000E+02
    -29.294  0.0000E+00  0.1000E+02
    -29.142  0.0000E+00  0.1000E+02
    -28.989  0.0000E+00  0.1000E+02
    -28.837  0.0000E+00  0.1000E+02
    -28.685  0.0000E+00  0.1000E+02
    -28.533  0.0000E+00  0.1000E+02
    -28.381  0.0000E+00  0.1000E+02
    -28.229  0.0000E+00  0.1000E+02
    -28.077  0.0000E+00  0.1000E+02
    -27.924  0.0000E+00  0.1000E+02
    -27.772  0.0000E+00  0.1000E+02
    -27.620  0.0000E+00  0.1000E+02
    -27.468  0.0000E+00  0.1000E+02
    -27.316  0.0000E+00  0.1000E+02
    -27.164  0.0000E+00  0.1000E+02
    -27.012  0.0000E+00  0.1000E+02
    -26.860  0.0000E+00  0.1000E+02
    -26.707  0.0000E+00  0.1000E+02
    -26.555  0.0000E+00  0.1000E+02
    -26.403  0.0000E+00  0.1000E+02
    -26.251  0.0000E+00  0.1000E+02
    -26.099  0.0000E+00  0.1000E+02
    -25.947  0.0000E+00  0.1000E+02
    -25.795  0.0000E+00  0.1000E+02
    -25.642  0.0000E+00  0.1000E+02
    -25.490  0.0000E+00  0.1000E+02
    -25.338  0.0000E+00  0.1000E+02
    -25.186  0.0000E+00  0.1000E+02
    -25.034  0.0000E+00  0.1000E+02
    -24.882  0.0000E+00  0.1000E+02
    -24.730  0.0000E+00  0.1000E+02
    -24.578  0.0000E+00  0.1000E+02
    -24.425  0.0000E+00  0.1000E+02
    -24.273  0.0000E+00  0.1000E+02
    -24.121  0.0000E+00  0.1000E+02
    -23.969  0.0000E+00  0.1000E+02
    -23.817  0.0000E+00  0.1000E+02
    -23.665  0.0000E+00  0.1000E+02
    -23.513  0.0000E+00  0.1000E+02
    -23.360  0.0000E+00  0.1000E+02
    -23.208  0.0000E+00  0.1000E+02
    -23.056  0.0000E+00  0.1000E+02
    -22.904  0.0000E+00  0.1000E+02
    -22.752  0.0000E+00  0.1000E+02
    -22.600  0.0000E+00  0.1000E+02
    -22.448  0.0000E+00  0.1000E+02
    -22.296  0.0000E+00  0.1000E+02
    -22.143  0.0000E+00  0.1000E+02
    -21.991  0.0000E+00  0.1000E+02
    -21.839  0.0000E+00  0.1000E+02
    -21.687  0.0000E+00  0.1000E+02
    -21.535  0.0000E+00  0.1000E+02
    -21.383  0.0000E+00  0.1000E+02
    -21.231  0.0000E+00  0.1000E+02
    -21.078  0.0000E+00  0.1000E+02
    -20.926  0.0000E+00  0.1000E+02
    -20.774  0.0000E+00  0.1000E+02
    -20.622  0.0000E+00  0.1000E+02
    -20.470  0.0000E+00  0.1000E+02
    -20.318  0.0000E+00  0.1000E+02
    -20.166  0.0000E+00  0.1000E+02
    -20.013  0.0000E+00  0.1000E+02
    -19.861  0.0000E+00  0.1000E+02
    -19.709  0.0000E+00  0.1000E+02
    -19.557  0.0000E+00  0.1000E+02
    -19.405  0.0000E+00  0.1000E+02
    -19.253  0.0000E+00  0.1000E+02
    -19.101  0.0000E+00  0.1000E+02
    -18.949  0.0000E+00  0.1000E+02
    -18.796  0.0000E+00  0.1000E+02
    -18.644  0.0000E+00  0.1000E+02
    -18.492  0.0000E+00  0.1000E+02
    -18.340  0.0000E+00  0.1000E+02
    -18.188  0.0000E+00  0.1000E+02
    -18.036  0.0000E+00  0.1000E+02
    -17.884  0.0000E+00  0.1000E+02
    -17.731  0.0000E+00  0.1000E+02
    -17.579  0.0000E+00  0.1000E+02
    -17.427  0.0000E+00  0.1000E+02
    -17.275  0.1013E+02  0.1089E+02
    -17.123  0.1375E+02  0.1234E+02
    -16.971  0.1345E+02  0.1444E+02
    -16.819  0.7797E+01  0.1594E+02
    -16.667  0.8897E+01  0.1790E+02
    -16.514  0.7606E+01  0.1918E+02
    -16.362  0.2059E+02  0.2163E+02
    -16.210  0.3848E+02  0.2782E+02
    -16.058  0.4456E+02  0.3336E+02
    -15.906  0.1626E+02  0.3571E+02
    -15.754  0.4290E+01  0.3785E+02
    -15.602  0.9203E+01  0.4034E+02
    -15.449  0.1465E+02  0.4277E+02
    -15.297  0.0000E+00  0.4400E+02
    -15.145  0.3458E+00  0.4402E+02
    -14.993  0.2230E+01  0.4425E+02
    -14.841  0.1717E+02  0.4501E+02
    -14.689  0.2323E+02  0.4902E+02
    -14.537  0.4885E+02  0.5608E+02
    -14.385  0.4023E+02  0.6321E+02
    -14.232  0.3613E+02  0.6877E+02
    -14.080  0.0000E+00  0.7000E+02
    -13.928  0.0000E+00  0.7000E+02
    -13.776  0.0000E+00  0.7000E+02
    -13.624  0.0000E+00  0.7000E+02
    -13.472  0.0000E+00  0.7000E+02
    -13.320  0.0000E+00  0.7000E+02
    -13.167  0.0000E+00  0.7000E+02
    -13.015  0.0000E+00  0.7000E+02
    -12.863  0.0000E+00  0.7000E+02
    -12.711  0.0000E+00  0.7000E+02
    -12.559  0.0000E+00  0.7000E+02
    -12.407  0.0000E+00  0.7000E+02
    -12.255  0.0000E+00  0.7000E+02
    -12.103  0.0000E+00  0.7000E+02
    -11.950  0.0000E+00  0.7000E+02
    -11.798  0.0000E+00  0.7000E+02
    -11.646  0.0000E+00  0.7000E+02
    -11.494  0.0000E+00  0.7000E+02
    -11.342  0.0000E+00  0.7000E+02
    -11.190  0.0000E+00  0.7000E+02
    -11.038  0.0000E+00  0.7000E+02
    -10.885  0.0000E+00  0.7000E+02
    -10.733  0.0000E+00  0.7000E+02
    -10.581  0.0000E+00  0.7000E+02
    -10.429  0.0000E+00  0.7000E+02
    -10.277  0.0000E+00  0.7000E+02
    -10.125  0.0000E+00  0.7000E+02
     -9.973  0.0000E+00  0.7000E+02
     -9.821  0.0000E+00  0.7000E+02
     -9.668  0.0000E+00  0.7000E+02
     -9.516  0.0000E+00  0.7000E+02
     -9.364  0.0000E+00  0.7000E+02
     -9.212  0.0000E+00  0.7000E+02
     -9.060  0.0000E+00  0.7000E+02
     -8.908  0.0000E+00  0.7000E+02
     -8.756  0.0000E+00  0.7000E+02
     -8.603  0.0000E+00  0.7000E+02
     -8.451  0.0000E+00  0.7000E+02
     -8.299  0.0000E+00  0.7000E+02
     -8.147  0.0000E+00  0.7000E+02
     -7.995  0.0000E+00  0.7000E+02
     -7.843  0.0000E+00  0.7000E+02
     -7.691  0.0000E+00  0.7000E+02
     -7.539  0.0000E+00  0.7000E+02
     -7.386  0.0000E+00  0.7000E+02
     -7.234  0.0000E+00  0.7000E+02
     -7.082  0.0000E+00  0.7000E+02
     -6.930  0.0000E+00  0.7000E+02
     -6.778  0.0000E+00  0.7000E+02
     -6.626  0.0000E+00  0.7000E+02
     -6.474  0.0000E+00  0.7000E+02
     -6.321  0.0000E+00  0.7000E+02
     -6.169  0.0000E+00  0.7000E+02
     -6.017  0.0000E+00  0.7000E+02
     -5.865  0.0000E+00  0.7000E+02
     -5.713  0.0000E+00  0.7000E+02
     -5.561  0.0000E+00  0.7000E+02
     -5.409  0.0000E+00  0.7000E+02
     -5.257  0.0000E+00  0.7000E+02
     -5.104  0.0000E+00  0.7000E+02
     -4.952  0.0000E+00  0.7000E+02
     -4.800  0.0000E+00  0.7000E+02
     -4.648  0.0000E+00  0.7000E+02
     -4.496  0.0000E+00  0.7000E+02
     -4.344  0.1647E+01  0.7007E+02
     -4.192  0.9009E+01  0.7110E+02
     -4.039  0.2561E+02  0.7349E+02
     -3.887  0.1471E+02  0.7613E+02
     -3.735  0.1745E+02  0.7943E+02
     -3.583  0.1806E+02  0.8259E+02
     -3.431  0.2407E+02  0.8570E+02
     -3.279  0.2148E+02  0.8890E+02
     -3.127  0.2403E+02  0.9223E+02
     -2.975  0.2812E+02  0.9632E+02
     -2.822  0.3445E+02  0.1010E+03
     -2.670  0.2419E+02  0.1056E+03
     -2.518  0.1964E+02  0.1096E+03
     -2.366  0.1810E+02  0.1124E+03
     -2.214  0.1517E+02  0.1149E+03
     -2.062  0.1481E+02  0.1173E+03
     -1.910  0.1450E+02  0.1195E+03
     -1.757  0.1439E+02  0.1218E+03
     -1.605  0.1997E+02  0.1238E+03
     -1.453  0.1115E+02  0.1260E+03
     -1.301  0.1671E+02  0.1283E+03
     -1.149  0.1425E+02  0.1315E+03
     -0.997  0.2134E+02  0.1350E+03
     -0.845  0.3144E+02  0.1397E+03
     -0.693  0.2926E+02  0.1443E+03
     -0.540  0.1749E+02  0.1475E+03
     -0.388  0.1857E+02  0.1511E+03
     -0.236  0.1913E+02  0.1544E+03
     -0.084  0.9957E+01  0.1573E+03
      0.068  0.2661E+02  0.1587E+03
      0.220  0.1550E+01  0.1595E+03
      0.372  0.1391E+01  0.1597E+03
      0.525  0.8135E+00  0.1598E+03
      0.677  0.5446E+00  0.1599E+03
      0.829  0.0000E+00  0.1600E+03
      0.981  0.0000E+00  0.1600E+03
      1.133  0.0000E+00  0.1600E+03
      1.285  0.0000E+00  0.1600E+03
      1.437  0.0000E+00  0.1600E+03
      1.589  0.0000E+00  0.1600E+03
      1.742  0.4336E+00  0.1600E+03
      1.894  0.3452E+01  0.1602E+03
      2.046  0.3867E+01  0.1608E+03
      2.198  0.4911E+01  0.1615E+03
      2.350  0.7371E+01  0.1623E+03
      2.502  0.8190E+01  0.1635E+03
      2.654  0.7562E+01  0.1647E+03
      2.807  0.1296E+02  0.1661E+03
      2.959  0.1211E+02  0.1681E+03
      3.111  0.1300E+02  0.1700E+03
      3.263  0.1598E+02  0.1722E+03
      3.415  0.1966E+02  0.1748E+03
      3.567  0.1969E+02  0.1779E+03
      3.719  0.2035E+02  0.1815E+03
      3.871  0.1287E+02  0.1844E+03
      4.024  0.3885E+01  0.1862E+03
      4.176  0.1552E+01  0.1867E+03
      4.328  0.9003E+00  0.1869E+03
      4.480  0.8739E+00  0.1870E+03
      4.632  0.8474E+00  0.1872E+03
      4.784  0.8210E+00  0.1873E+03
      4.936  0.7946E+00  0.1874E+03
      5.089  0.7682E+00  0.1875E+03
      5.241  0.7418E+00  0.1876E+03
      5.393  0.7154E+00  0.1878E+03
      5.545  0.7505E+00  0.1879E+03
      5.697  0.7530E+00  0.1880E+03
      5.849  0.1027E+01  0.1881E+03
      6.001  0.1341E+01  0.1883E+03
      6.153  0.1435E+01  0.1885E+03
      6.306  0.1153E+01  0.1887E+03
      6.458  0.1273E+01  0.1889E+03
      6.610  0.1378E+01  0.1891E+03
      6.762  0.1436E+01  0.1893E+03
      6.914  0.1555E+01  0.1896E+03
      7.066  0.1691E+01  0.1898E+03
      7.218  0.1619E+01  0.1901E+03
      7.371  0.2333E+01  0.1904E+03
      7.523  0.2145E+01  0.1908E+03
      7.675  0.2231E+01  0.1911E+03
      7.827  0.4010E+01  0.1917E+03
      7.979  0.0000E+00  0.1920E+03
      8.131  0.0000E+00  0.1920E+03
      8.283  0.0000E+00  0.1920E+03
      8.435  0.0000E+00  0.1920E+03
      8.588  0.0000E+00  0.1920E+03
      8.740  0.0000E+00  0.1920E+03
      8.892  0.0000E+00  0.1920E+03
      9.044  0.0000E+00  0.1920E+03
      9.196  0.0000E+00  0.1920E+03
      9.348  0.0000E+00  0.1920E+03
      9.500  0.0000E+00  0.1920E+03
      9.653  0.0000E+00  0.1920E+03
      9.805  0.0000E+00  0.1920E+03
      9.957  0.0000E+00  0.1920E+03
