 vasp.5.4.4.18Apr17-6-g9f103f2a35 (build Jun 30 2017 11:15:00) complex          
  
 executed on    STALLO_VASP_5.4.4 date 2019.11.04  15:06:25
 running on    4 total cores
 distrk:  each k-point on    4 cores,    1 groups
 distr:  one band on NCORES_PER_BAND=   2 cores,    2 groups


--------------------------------------------------------------------------------------------------------


 INCAR:
 POTCAR:   PAW_PBE O 08Apr2002                    
 POTCAR:   PAW_PBE Sr_sv 07Sep2000                
 POTCAR:   PAW_PBE Ti 08Apr2002                   
 POTCAR:   PAW_PBE O 08Apr2002                    
   VRHFIN =O: s2p4                                                              
   LEXCH  = PE                                                                  
   EATOM  =   432.3788 eV,   31.7789 Ry                                         
                                                                                
   TITEL  = PAW_PBE O 08Apr2002                                                 
   LULTRA =        F    use ultrasoft PP ?                                      
   IUNSCR =        0    unscreen: 0-lin 1-nonlin 2-no                           
   RPACOR =     .000    partial core radius                                     
   POMASS =   16.000; ZVAL   =    6.000    mass and valenz                      
   RCORE  =    1.520    outmost cutoff radius                                   
   RWIGS  =    1.550; RWIGS  =     .820    wigner-seitz radius (au A)           
   ENMAX  =  400.000; ENMIN  =  300.000 eV                                      
   ICORE  =        2    local potential                                         
   LCOR   =        T    correct aug charges                                     
   LPAW   =        T    paw PP                                                  
   EAUG   =  605.392                                                            
   DEXC   =     .000                                                            
   RMAX   =    2.264    core radius for proj-oper                               
   RAUG   =    1.300    factor for augmentation sphere                          
   RDEP   =    1.550    radius for radial grids                                 
   QCUT   =   -5.520; QGAM   =   11.041    optimization parameters              
                                                                                
   Description                                                                  
     l     E      TYP  RCUT    TYP  RCUT                                        
     0   .000     23  1.200                                                     
     0  -.700     23  1.200                                                     
     1   .000     23  1.520                                                     
     1   .600     23  1.520                                                     
     2   .000      7  1.500                                                     
  local pseudopotential read in
  atomic valenz-charges read in
  non local Contribution for L=           0  read in
    real space projection operators read in
  non local Contribution for L=           0  read in
    real space projection operators read in
  non local Contribution for L=           1  read in
    real space projection operators read in
  non local Contribution for L=           1  read in
    real space projection operators read in
    PAW grid and wavefunctions read in
 
   number of l-projection  operators is LMAX  =           4
   number of lm-projection operators is LMMAX =           8
 
 POTCAR:   PAW_PBE Sr_sv 07Sep2000                
   VRHFIN =Sr: 4s4p5s                                                           
   LEXCH  = PE                                                                  
   EATOM  =   842.4562 eV,   61.9188 Ry                                         
                                                                                
   TITEL  = PAW_PBE Sr_sv 07Sep2000                                             
   LULTRA =        F    use ultrasoft PP ?                                      
   IUNSCR =        1    unscreen: 0-lin 1-nonlin 2-no                           
   RPACOR =    2.200    partial core radius                                     
   POMASS =   87.620; ZVAL   =   10.000    mass and valenz                      
   RCORE  =    2.500    outmost cutoff radius                                   
   RWIGS  =    4.040; RWIGS  =    2.138    wigner-seitz radius (au A)           
   ENMAX  =  229.282; ENMIN  =  171.961 eV                                      
   RCLOC  =    2.201    cutoff for local pot                                    
   LCOR   =        T    correct aug charges                                     
   LPAW   =        T    paw PP                                                  
   EAUG   =  366.804                                                            
   DEXC   =     .000                                                            
   RMAX   =    3.045    core radius for proj-oper                               
   RAUG   =    1.300    factor for augmentation sphere                          
   RDEP   =    2.562    radius for radial grids                                 
   QCUT   =   -4.105; QGAM   =    8.210    optimization parameters              
                                                                                
   Description                                                                  
     l     E      TYP  RCUT    TYP  RCUT                                        
     0   .000     23  2.480                                                     
     0   .000     23  2.480                                                     
     1   .000     23  2.500                                                     
     1   .000     23  2.500                                                     
     2   .000     23  2.500                                                     
     2   .000     23  2.500                                                     
  local pseudopotential read in
  partial core-charges read in
  atomic valenz-charges read in
  non local Contribution for L=           0  read in
    real space projection operators read in
  non local Contribution for L=           0  read in
    real space projection operators read in
  non local Contribution for L=           1  read in
    real space projection operators read in
  non local Contribution for L=           1  read in
    real space projection operators read in
  non local Contribution for L=           2  read in
    real space projection operators read in
  non local Contribution for L=           2  read in
    real space projection operators read in
    PAW grid and wavefunctions read in
 
   number of l-projection  operators is LMAX  =           6
   number of lm-projection operators is LMMAX =          18
 
 POTCAR:   PAW_PBE Ti 08Apr2002                   
   VRHFIN =Ti: d3 s1                                                            
   LEXCH  = PE                                                                  
   EATOM  =    94.7929 eV,    6.9671 Ry                                         
                                                                                
   TITEL  = PAW_PBE Ti 08Apr2002                                                
   LULTRA =        F    use ultrasoft PP ?                                      
   IUNSCR =        1    unscreen: 0-lin 1-nonlin 2-no                           
   RPACOR =    2.200    partial core radius                                     
   POMASS =   47.880; ZVAL   =    4.000    mass and valenz                      
   RCORE  =    2.800    outmost cutoff radius                                   
   RWIGS  =    2.500; RWIGS  =    1.323    wigner-seitz radius (au A)           
   ENMAX  =  178.330; ENMIN  =  133.747 eV                                      
   RCLOC  =    2.215    cutoff for local pot                                    
   LCOR   =        T    correct aug charges                                     
   LPAW   =        T    paw PP                                                  
   EAUG   =  328.883                                                            
   DEXC   =    -.043                                                            
   RMAX   =    3.453    core radius for proj-oper                               
   RAUG   =    1.300    factor for augmentation sphere                          
   RDEP   =    2.885    radius for radial grids                                 
   QCUT   =   -3.620; QGAM   =    7.241    optimization parameters              
                                                                                
   Description                                                                  
     l     E      TYP  RCUT    TYP  RCUT                                        
     2   .000     23  2.800                                                     
     2   .000     23  2.800                                                     
     0   .000     23  2.800                                                     
     0  1.500     23  2.800                                                     
     1  -.400     23  2.800                                                     
     3   .000      7   .000                                                     
  local pseudopotential read in
  partial core-charges read in
  atomic valenz-charges read in
  non local Contribution for L=           2  read in
    real space projection operators read in
  non local Contribution for L=           2  read in
    real space projection operators read in
  non local Contribution for L=           0  read in
    real space projection operators read in
  non local Contribution for L=           0  read in
    real space projection operators read in
  non local Contribution for L=           1  read in
    real space projection operators read in
    PAW grid and wavefunctions read in
 
   number of l-projection  operators is LMAX  =           5
   number of lm-projection operators is LMMAX =          15
 

 ----------------------------------------------------------------------------- 
|                                                                             |
|  ADVICE TO THIS USER RUNNING 'VASP/VAMP'   (HEAR YOUR MASTER'S VOICE ...):  |
|                                                                             |
|      You have a (more or less) 'large supercell' and for larger cells       |
|      it might be more efficient to use real space projection operators      |
|      So try LREAL= Auto  in the INCAR   file.                               |
|      Mind: If you want to do a very accurate calculations keep the          |
|      reciprocal projection scheme          (i.e. LREAL=.FALSE.)             |
|                                                                             |
 ----------------------------------------------------------------------------- 

 PAW_PBE O 08Apr2002                    :
 energy of atom  1       EATOM= -432.3788
 kinetic energy error for atom=    0.0224 (will be added to EATOM!!)
 PAW_PBE Sr_sv 07Sep2000                :
 energy of atom  2       EATOM= -842.4562
 kinetic energy error for atom=    0.0012 (will be added to EATOM!!)
 PAW_PBE Ti 08Apr2002                   :
 energy of atom  3       EATOM=  -94.7929
 kinetic energy error for atom=    0.0002 (will be added to EATOM!!)
 
 
 POSCAR:  O Sr Ti                                
  positions in direct lattice
  No initial velocities read in
 exchange correlation table for  LEXCH =        8
   RHO(1)=    0.500       N(1)  =     2000
   RHO(2)=  100.500       N(2)  =     4000
 


--------------------------------------------------------------------------------------------------------


 ion  position               nearest neighbor table
   1  0.500  0.500  0.202-  21 1.97  16 2.79  16 2.79  16 2.79  16 2.79
   2  0.500  0.000  0.268-  21 1.97  21 1.97  16 2.79  17 2.79  16 2.79  17 2.79
   3  0.000  0.500  0.268-  21 1.97  21 1.97  16 2.79  16 2.79  17 2.79  17 2.79
   4  0.500  0.500  0.334-  22 1.97  21 1.97  17 2.79  17 2.79  17 2.79  17 2.79
   5  0.500  0.000  0.401-  22 1.97  22 1.97  17 2.79  17 2.79  18 2.79  18 2.79
   6  0.000  0.500  0.401-  22 1.97  22 1.97  17 2.79  17 2.79  18 2.79  18 2.79
   7  0.500  0.500  0.467-  22 1.97  23 1.97  18 2.79  18 2.79  18 2.79  18 2.79
   8  0.500  0.000  0.533-  23 1.97  23 1.97  18 2.79  19 2.79  18 2.79  19 2.79
   9  0.000  0.500  0.533-  23 1.97  23 1.97  18 2.79  18 2.79  19 2.79  19 2.79
  10  0.500  0.500  0.599-  24 1.97  23 1.97  19 2.79  19 2.79  19 2.79  19 2.79
  11  0.500  0.000  0.666-  24 1.97  24 1.97  19 2.79  19 2.79  20 2.79  20 2.79
  12  0.000  0.500  0.666-  24 1.97  24 1.97  19 2.79  19 2.79  20 2.79  20 2.79
  13  0.500  0.500  0.732-  24 1.97  25 1.97  20 2.79  20 2.79  20 2.79  20 2.79
  14  0.500  0.000  0.798-  25 1.97  25 1.97  20 2.79  20 2.79
  15  0.000  0.500  0.798-  25 1.97  25 1.97  20 2.79  20 2.79
  16  0.000  0.000  0.202-   1 2.79   1 2.79   1 2.79   1 2.79   3 2.79   3 2.79   2 2.79   2 2.79
                            21 3.42  21 3.42  21 3.42  21 3.42  17 3.95
  17  0.000  0.000  0.334-   5 2.79   6 2.79   6 2.79   5 2.79   4 2.79   4 2.79   4 2.79   4 2.79
                             2 2.79   3 2.79   3 2.79   2 2.79  22 3.42  22 3.42  22 3.42  22 3.42
  18  0.000  0.000  0.467-   7 2.79   7 2.79   7 2.79   7 2.79   9 2.79   6 2.79   6 2.79   9 2.79
                             5 2.79   5 2.79   8 2.79   8 2.79  23 3.42  22 3.42  22 3.42  22 3.42
  19  0.000  0.000  0.599-  11 2.79  12 2.79  12 2.79  11 2.79  10 2.79  10 2.79  10 2.79  10 2.79
                             8 2.79   9 2.79   9 2.79   8 2.79  24 3.42  24 3.42  24 3.42  24 3.42
  20  0.000  0.000  0.732-  13 2.79  13 2.79  13 2.79  13 2.79  15 2.79  12 2.79  12 2.79  15 2.79
                            11 2.79  11 2.79  14 2.79  14 2.79  25 3.42  24 3.42  24 3.42  24 3.42
  21  0.500  0.500  0.268-   2 1.97   3 1.97   2 1.97   3 1.97   1 1.97   4 1.97  16 3.42  16 3.42
                            17 3.42  17 3.42  16 3.42  17 3.42  16 3.42  17 3.42
  22  0.500  0.500  0.401-   4 1.97   5 1.97   6 1.97   5 1.97   6 1.97   7 1.97  17 3.42  17 3.42
                            17 3.42  17 3.42  18 3.42  18 3.42  18 3.42  18 3.42
  23  0.500  0.500  0.533-   8 1.97   9 1.97   8 1.97   9 1.97   7 1.97  10 1.97  18 3.42  18 3.42
                            19 3.42  19 3.42  18 3.42  19 3.42  18 3.42  19 3.42
  24  0.500  0.500  0.666-  10 1.97  11 1.97  12 1.97  11 1.97  12 1.97  13 1.97  19 3.42  19 3.42
                            19 3.42  19 3.42  20 3.42  20 3.42  20 3.42  20 3.42
  25  0.500  0.500  0.798-  14 1.97  15 1.97  14 1.97  15 1.97  13 1.97  20 3.42  20 3.42  20 3.42
                            20 3.42
 
  LATTYP: Found a simple tetragonal cell.
 ALAT       =     3.9468463416
 C/A-ratio  =     7.5404021240
  
  Lattice vectors:
  
 A1 = (   3.9468463416,   0.0000000000,   0.0000000000)
 A2 = (   0.0000000000,   3.9468463416,   0.0000000000)
 A3 = (   0.0000000000,   0.0000000000,  29.7608085373)


Analysis of symmetry for initial positions (statically):
=====================================================================
 Subroutine PRICEL returns:
 Original cell was already a primitive cell.
 

 Routine SETGRP: Setting up the symmetry group for a 
 simple tetragonal supercell.


 Subroutine GETGRP returns: Found  8 space group operations
 (whereof  8 operations were pure point group operations)
 out of a pool of 16 trial point group operations.


The static configuration has the point symmetry C_4v.


Analysis of symmetry for dynamics (positions and initial velocities):
=====================================================================
 Subroutine PRICEL returns:
 Original cell was already a primitive cell.
 

 Routine SETGRP: Setting up the symmetry group for a 
 simple tetragonal supercell.


 Subroutine GETGRP returns: Found  8 space group operations
 (whereof  8 operations were pure point group operations)
 out of a pool of 16 trial point group operations.


The dynamic configuration has the point symmetry C_4v.


 Subroutine INISYM returns: Found  8 space group operations
 (whereof  8 operations are pure point group operations),
 and found     1 'primitive' translations

 
 
 KPOINTS: k-density: 4.0                          

Automatic generation of k-mesh.
Space group operators:
 irot       det(A)        alpha          n_x          n_y          n_z        tau_x        tau_y        tau_z
    1     1.000000     0.000000     1.000000     0.000000     0.000000     0.000000     0.000000     0.000000
    2     1.000000    90.000000     0.000000     0.000000    -1.000000     0.000000     0.000000     0.000000
    3     1.000000   180.000000     0.000000     0.000000     1.000000     0.000000     0.000000     0.000000
    4     1.000000    90.000000     0.000000     0.000000     1.000000     0.000000     0.000000     0.000000
    5    -1.000000   180.000000     0.000000     1.000000     0.000000     0.000000     0.000000     0.000000
    6    -1.000000   180.000000     0.707107     0.707107     0.000000     0.000000     0.000000     0.000000
    7    -1.000000   180.000000     1.000000     0.000000     0.000000     0.000000     0.000000     0.000000
    8    -1.000000   180.000000     0.707107    -0.707107     0.000000     0.000000     0.000000     0.000000
 
 Subroutine IBZKPT returns following result:
 ===========================================
 
 Found     10 irreducible k-points:
 
 Following reciprocal coordinates:
            Coordinates               Weight
  0.000000  0.000000  0.000000      1.000000
  0.142857  0.000000  0.000000      4.000000
  0.285714  0.000000  0.000000      4.000000
  0.428571  0.000000  0.000000      4.000000
  0.142857  0.142857  0.000000      4.000000
  0.285714  0.142857  0.000000      8.000000
  0.428571  0.142857  0.000000      8.000000
  0.285714  0.285714  0.000000      4.000000
  0.428571  0.285714  0.000000      8.000000
  0.428571  0.428571  0.000000      4.000000
 
 Following cartesian coordinates:
            Coordinates               Weight
  0.000000  0.000000  0.000000      1.000000
  0.036195  0.000000  0.000000      4.000000
  0.072391  0.000000  0.000000      4.000000
  0.108586  0.000000  0.000000      4.000000
  0.036195  0.036195  0.000000      4.000000
  0.072391  0.036195  0.000000      8.000000
  0.108586  0.036195  0.000000      8.000000
  0.072391  0.072391  0.000000      4.000000
  0.108586  0.072391  0.000000      8.000000
  0.108586  0.108586  0.000000      4.000000
 
 TETIRR: Found     65 inequivalent tetrahedra from      294


--------------------------------------------------------------------------------------------------------




 Dimension of arrays:
   k-points           NKPTS =     10   k-points in BZ     NKDIM =     10   number of bands    NBANDS=     96
   number of dos      NEDOS =    301   number of ions     NIONS =     25
   non local maximal  LDIM  =      6   non local SUM 2l+1 LMDIM =     18
   total plane-waves  NPLWV =  96768
   max r-space proj   IRMAX =      1   max aug-charges    IRDMAX=  14614
   dimension x,y,z NGX =    24 NGY =   24 NGZ =  168
   dimension x,y,z NGXF=    48 NGYF=   48 NGZF=  336
   support grid    NGXF=    48 NGYF=   48 NGZF=  336
   ions per type =              15   5   5
   NGX,Y,Z   is equivalent  to a cutoff of  10.11, 10.11,  9.38 a.u.
   NGXF,Y,Z  is equivalent  to a cutoff of  20.22, 20.22, 18.77 a.u.

 SYSTEM =  unknown system                          
 POSCAR =   O Sr Ti                                

 Startparameter for this run:
   NWRITE =      2    write-flag & timer
   PREC   = normal    normal or accurate (medium, high low for compatibility)
   ISTART =      0    job   : 0-new  1-cont  2-samecut
   ICHARG =      2    charge: 1-file 2-atom 10-const
   ISPIN  =      1    spin polarized calculation?
   LNONCOLLINEAR =      F non collinear calculations
   LSORBIT =      F    spin-orbit coupling
   INIWAV =      1    electr: 0-lowe 1-rand  2-diag
   LASPH  =      F    aspherical Exc in radial PAW
   METAGGA=      F    non-selfconsistent MetaGGA calc.

 Electronic Relaxation 1
   ENCUT  =  500.0 eV  36.75 Ry    6.06 a.u.   7.20  7.20 54.26*2*pi/ulx,y,z
   ENINI  =  500.0     initial cutoff
   ENAUG  =  605.4 eV  augmentation charge cutoff
   NELM   =     60;   NELMIN=  4; NELMDL= -5     # of ELM steps 
   EDIFF  = 0.1E-04   stopping-criterion for ELM
   LREAL  =      F    real-space projection
   NLSPLINE    = F    spline interpolate recip. space projectors
   LCOMPAT=      F    compatible to vasp.4.4
   GGA_COMPAT  = T    GGA compatible to vasp.4.4-vasp.4.6
   LMAXPAW     = -100 max onsite density
   LMAXMIX     =    2 max onsite mixed and CHGCAR
   VOSKOWN=      0    Vosko Wilk Nusair interpolation
   ROPT   =    0.00000   0.00000   0.00000
 Ionic relaxation
   EDIFFG = 0.1E-03   stopping-criterion for IOM
   NSW    =      0    number of steps for IOM
   NBLOCK =      1;   KBLOCK =      1    inner block; outer block 
   IBRION =     -1    ionic relax: 0-MD 1-quasi-New 2-CG
   NFREE  =      0    steps in history (QN), initial steepest desc. (CG)
   ISIF   =      2    stress and relaxation
   IWAVPR =     10    prediction:  0-non 1-charg 2-wave 3-comb
   ISYM   =      2    0-nonsym 1-usesym 2-fastsym
   LCORR  =      T    Harris-Foulkes like correction to forces

   POTIM  = 0.5000    time-step for ionic-motion
   TEIN   =    0.0    initial temperature
   TEBEG  =    0.0;   TEEND  =   0.0 temperature during run
   SMASS  =  -3.00    Nose mass-parameter (am)
   estimated Nose-frequenzy (Omega)   =  0.10E-29 period in steps =****** mass=  -0.356E-27a.u.
   SCALEE = 1.0000    scale energy and forces
   NPACO  =    256;   APACO  = 16.0  distance and # of slots for P.C.
   PSTRESS=    0.0 pullay stress

  Mass of Ions in am
   POMASS =  16.00 87.62 47.88
  Ionic Valenz
   ZVAL   =   6.00 10.00  4.00
  Atomic Wigner-Seitz radii
   RWIGS  =  -1.00 -1.00 -1.00
  virtual crystal weights 
   VCA    =   1.00  1.00  1.00
   NELECT =     160.0000    total number of electrons
   NUPDOWN=      -1.0000    fix difference up-down

 DOS related values:
   EMIN   =  10.00;   EMAX   =-10.00  energy-range for DOS
   EFERMI =   0.00
   ISMEAR =    -5;   SIGMA  =   0.20  broadening in eV -4-tet -1-fermi 0-gaus

 Electronic relaxation 2 (details)
   IALGO  =     68    algorithm
   LDIAG  =      T    sub-space diagonalisation (order eigenvalues)
   LSUBROT=      F    optimize rotation matrix (better conditioning)
   TURBO    =      0    0=normal 1=particle mesh
   IRESTART =      0    0=no restart 2=restart with 2 vectors
   NREBOOT  =      0    no. of reboots
   NMIN     =      0    reboot dimension
   EREF     =   0.00    reference energy to select bands
   IMIX   =      4    mixing-type and parameters
     AMIX     =   0.40;   BMIX     =  1.00
     AMIX_MAG =   1.60;   BMIX_MAG =  1.00
     AMIN     =   0.10
     WC   =   100.;   INIMIX=   1;  MIXPRE=   1;  MAXMIX= -45

 Intra band minimization:
   WEIMIN = 0.0000     energy-eigenvalue tresh-hold
   EBREAK =  0.26E-07  absolut break condition
   DEPER  =   0.30     relativ break condition  

   TIME   =   0.40     timestep for ELM

  volume/ion in A,a.u.               =      18.54       125.14
  Fermi-wavevector in a.u.,A,eV,Ry     =   1.148329  2.170028 17.941460  1.318660
  Thomas-Fermi vector in A             =   2.285005
 
 Write flags
   LWAVE        =      F    write WAVECAR
   LDOWNSAMPLE  =      F    k-point downsampling of WAVECAR
   LCHARG       =      T    write CHGCAR
   LVTOT        =      F    write LOCPOT, total local potential
   LVHAR        =      F    write LOCPOT, Hartree potential only
   LELF         =      F    write electronic localiz. function (ELF)
   LORBIT       =      0    0 simple, 1 ext, 2 COOP (PROOUT), +10 PAW based schemes


 Dipole corrections
   LMONO  =      F    monopole corrections only (constant potential shift)
   LDIPOL =      F    correct potential (dipole corrections)
   IDIPOL =      0    1-x, 2-y, 3-z, 4-all directions 
   EPSILON=  1.0000000 bulk dielectric constant

 Exchange correlation treatment:
   GGA     =    --    GGA type
   LEXCH   =     8    internal setting for exchange type
   VOSKOWN=      0    Vosko Wilk Nusair interpolation
   LHFCALC =     F    Hartree Fock is set to
   LHFONE  =     F    Hartree Fock one center treatment
   AEXX    =    0.0000 exact exchange contribution

 Linear response parameters
   LEPSILON=     F    determine dielectric tensor
   LRPA    =     F    only Hartree local field effects (RPA)
   LNABLA  =     F    use nabla operator in PAW spheres
   LVEL    =     F    velocity operator in full k-point grid
   LINTERFAST=   F  fast interpolation
   KINTER  =     0    interpolate to denser k-point grid
   CSHIFT  =0.1000    complex shift for real part using Kramers Kronig
   OMEGAMAX=  -1.0    maximum frequency
   DEG_THRESHOLD= 0.2000000E-02 threshold for treating states as degnerate
   RTIME   =   -0.100 relaxation time in fs
  (WPLASMAI=    0.000 imaginary part of plasma frequency in eV, 0.658/RTIME)
   DFIELD  = 0.0000000 0.0000000 0.0000000 field for delta impulse in time
 
 Orbital magnetization related:
   ORBITALMAG=     F  switch on orbital magnetization
   LCHIMAG   =     F  perturbation theory with respect to B field
   DQ        =  0.001000  dq finite difference perturbation B field
   LLRAUG    =     F  two centre corrections for induced B field



--------------------------------------------------------------------------------------------------------


 Static calculation
 charge density and potential will be updated during run
 non-spin polarized calculation
 RMM-DIIS sequential band-by-band and
  variant of blocked Davidson during initial phase
 perform sub-space diagonalisation
    before iterative eigenvector-optimisation
 modified Broyden-mixing scheme, WC =      100.0
 initial mixing is a Kerker type mixing with AMIX =  0.4000 and BMIX =      1.0000
 Hartree-type preconditioning will be used
 using additional bands           16
 reciprocal scheme for non local part
 use partial core corrections
 calculate Harris-corrections to forces 
   (improved forces if not selfconsistent)
 use gradient corrections 
 use of overlap-Matrix (Vanderbilt PP)
 Fermi weights with tetrahedron method with Bloechl corrections


--------------------------------------------------------------------------------------------------------


  energy-cutoff  :      500.00
  volume of cell :      463.60
      direct lattice vectors                 reciprocal lattice vectors
     3.946846342  0.000000000  0.000000000     0.253366844  0.000000000  0.000000000
     0.000000000  3.946846342  0.000000000     0.000000000  0.253366844  0.000000000
     0.000000000  0.000000000 29.760808537     0.000000000  0.000000000  0.033601238

  length of vectors
     3.946846342  3.946846342 29.760808537     0.253366844  0.253366844  0.033601238


 
 k-points in units of 2pi/SCALE and weight: k-density: 4.0                          
   0.00000000  0.00000000  0.00000000       0.020
   0.03619526  0.00000000  0.00000000       0.082
   0.07239053  0.00000000  0.00000000       0.082
   0.10858579  0.00000000  0.00000000       0.082
   0.03619526  0.03619526  0.00000000       0.082
   0.07239053  0.03619526  0.00000000       0.163
   0.10858579  0.03619526  0.00000000       0.163
   0.07239053  0.07239053  0.00000000       0.082
   0.10858579  0.07239053  0.00000000       0.163
   0.10858579  0.10858579  0.00000000       0.082
 
 k-points in reciprocal lattice and weights: k-density: 4.0                          
   0.00000000  0.00000000  0.00000000       0.020
   0.14285714  0.00000000  0.00000000       0.082
   0.28571429  0.00000000  0.00000000       0.082
   0.42857143  0.00000000  0.00000000       0.082
   0.14285714  0.14285714  0.00000000       0.082
   0.28571429  0.14285714  0.00000000       0.163
   0.42857143  0.14285714  0.00000000       0.163
   0.28571429  0.28571429  0.00000000       0.082
   0.42857143  0.28571429  0.00000000       0.163
   0.42857143  0.42857143  0.00000000       0.082
 
 position of ions in fractional coordinates (direct lattice) 
   0.50000000  0.50000000  0.20160743
   0.50000000  0.00000000  0.26791689
   0.00000000  0.50000000  0.26791689
   0.50000000  0.50000000  0.33422635
   0.50000000  0.00000000  0.40053581
   0.00000000  0.50000000  0.40053581
   0.50000000  0.50000000  0.46684527
   0.50000000  0.00000000  0.53315473
   0.00000000  0.50000000  0.53315473
   0.50000000  0.50000000  0.59946419
   0.50000000  0.00000000  0.66577365
   0.00000000  0.50000000  0.66577365
   0.50000000  0.50000000  0.73208311
   0.50000000  0.00000000  0.79839257
   0.00000000  0.50000000  0.79839257
   0.00000000  0.00000000  0.20160743
   0.00000000  0.00000000  0.33422635
   0.00000000  0.00000000  0.46684527
   0.00000000  0.00000000  0.59946419
   0.00000000  0.00000000  0.73208311
   0.50000000  0.50000000  0.26791689
   0.50000000  0.50000000  0.40053581
   0.50000000  0.50000000  0.53315473
   0.50000000  0.50000000  0.66577365
   0.50000000  0.50000000  0.79839257
 
 position of ions in cartesian coordinates  (Angst):
   1.97342317  1.97342317  6.00000000
   1.97342317  0.00000000  7.97342317
   0.00000000  1.97342317  7.97342317
   1.97342317  1.97342317  9.94684634
   1.97342317  0.00000000 11.92026951
   0.00000000  1.97342317 11.92026951
   1.97342317  1.97342317 13.89369268
   1.97342317  0.00000000 15.86711585
   0.00000000  1.97342317 15.86711585
   1.97342317  1.97342317 17.84053902
   1.97342317  0.00000000 19.81396220
   0.00000000  1.97342317 19.81396220
   1.97342317  1.97342317 21.78738537
   1.97342317  0.00000000 23.76080854
   0.00000000  1.97342317 23.76080854
   0.00000000  0.00000000  6.00000000
   0.00000000  0.00000000  9.94684634
   0.00000000  0.00000000 13.89369268
   0.00000000  0.00000000 17.84053902
   0.00000000  0.00000000 21.78738537
   1.97342317  1.97342317  7.97342317
   1.97342317  1.97342317 11.92026951
   1.97342317  1.97342317 15.86711585
   1.97342317  1.97342317 19.81396220
   1.97342317  1.97342317 23.76080854
 


--------------------------------------------------------------------------------------------------------


 k-point  1 :   0.0000 0.0000 0.0000  plane waves:   11685
 k-point  2 :   0.1429 0.0000 0.0000  plane waves:   11771
 k-point  3 :   0.2857 0.0000 0.0000  plane waves:   11780
 k-point  4 :   0.4286 0.0000 0.0000  plane waves:   11808
 k-point  5 :   0.1429 0.1429 0.0000  plane waves:   11758
 k-point  6 :   0.2857 0.1429 0.0000  plane waves:   11749
 k-point  7 :   0.4286 0.1429 0.0000  plane waves:   11787
 k-point  8 :   0.2857 0.2857 0.0000  plane waves:   11774
 k-point  9 :   0.4286 0.2857 0.0000  plane waves:   11774
 k-point 10 :   0.4286 0.4286 0.0000  plane waves:   11790

 maximum and minimum number of plane-waves per node :      5941     5798

 maximum number of plane-waves:     11808
 maximum index in each direction: 
   IXMAX=    7   IYMAX=    7   IZMAX=   54
   IXMIN=   -7   IYMIN=   -7   IZMIN=  -54


 parallel 3D FFT for wavefunctions:
    minimum data exchange during FFTs selected (reduces bandwidth)
 parallel 3D FFT for charge:
    minimum data exchange during FFTs selected (reduces bandwidth)


 total amount of memory used by VASP MPI-rank0   126810. kBytes
=======================================================================

   base      :      30000. kBytes
   nonl-proj :      27829. kBytes
   fftplans  :       7996. kBytes
   grid      :      14381. kBytes
   one-center:        202. kBytes
   wavefun   :      46402. kBytes
 
     INWAV:  cpu time    0.0010: real time    0.0001
 Broyden mixing: mesh for mixing (old mesh)
   NGX = 15   NGY = 15   NGZ =109
  (NGX  = 48   NGY  = 48   NGZ  =336)
  gives a total of  24525 points

 initial charge density was supplied:
 charge density of overlapping atoms calculated
 number of electron     160.0000000 magnetization 
 keeping initial charge density in first step


--------------------------------------------------------------------------------------------------------


 Maximum index for augmentation-charges         3502 (set IRDMAX)


--------------------------------------------------------------------------------------------------------


 First call to EWALD:  gamma=   0.229
 Maximum number of real-space cells 5x 5x 1
 Maximum number of reciprocal cells 2x 2x 9

    FEWALD:  cpu time    0.0010: real time    0.0020


--------------------------------------- Iteration      1(   1)  ---------------------------------------


    POTLOK:  cpu time    0.1160: real time    0.1848
    SETDIJ:  cpu time    0.0160: real time    0.0160
     EDDAV:  cpu time    7.8388: real time    7.8431
 BZINTS: Fermi energy: 16.101794;160.000000 electrons
         Band energy: 259.359089;  BLOECHL correction: -0.038694
       DOS:  cpu time    0.0080: real time    0.0089
    --------------------------------------------
      LOOP:  cpu time    7.9788: real time    8.0529

 eigenvalue-minimisations  :  1952
 total energy-change (2. order) : 0.1989526E+04  (-0.6984966E+04)
 number of electron     160.0000000 magnetization 
 augmentation part      160.0000000 magnetization 

 Free energy of the ion-electron system (eV)
  ---------------------------------------------------
  alpha Z        PSCENC =       595.46572648
  Ewald energy   TEWEN  =     33131.92940099
  -Hartree energ DENC   =    -43820.48908445
  -exchange      EXHF   =         0.00000000
  -V(xc)+E(xc)   XCENC  =       407.53315421
  PAW double counting   =      6668.06486263    -6423.92230319
  entropy T*S    EENTRO =         0.00000000
  eigenvalues    EBANDS =       259.35908862
  atomic energy  EATOM  =     11171.58531272
  Solvation  Ediel_sol  =         0.00000000
  ---------------------------------------------------
  free energy    TOTEN  =      1989.52615801 eV

  energy without entropy =     1989.52615801  energy(sigma->0) =     1989.52615801


--------------------------------------------------------------------------------------------------------




--------------------------------------- Iteration      1(   2)  ---------------------------------------


     EDDAV:  cpu time    8.5807: real time    8.5820
 BZINTS: Fermi energy:  5.618983;160.000000 electrons
         Band energy:***********;  BLOECHL correction: -0.099454
       DOS:  cpu time    0.0060: real time    0.0063
    --------------------------------------------
      LOOP:  cpu time    8.5867: real time    8.5883

 eigenvalue-minimisations  :  2200
 total energy-change (2. order) :-0.1761045E+04  (-0.1670266E+04)
 number of electron     160.0000000 magnetization 
 augmentation part      160.0000000 magnetization 

 Free energy of the ion-electron system (eV)
  ---------------------------------------------------
  alpha Z        PSCENC =       595.46572648
  Ewald energy   TEWEN  =     33131.92940099
  -Hartree energ DENC   =    -43820.48908445
  -exchange      EXHF   =         0.00000000
  -V(xc)+E(xc)   XCENC  =       407.53315421
  PAW double counting   =      6668.06486263    -6423.92230319
  entropy T*S    EENTRO =         0.00000000
  eigenvalues    EBANDS =     -1501.68576074
  atomic energy  EATOM  =     11171.58531272
  Solvation  Ediel_sol  =         0.00000000
  ---------------------------------------------------
  free energy    TOTEN  =       228.48130865 eV

  energy without entropy =      228.48130865  energy(sigma->0) =      228.48130865


--------------------------------------------------------------------------------------------------------




--------------------------------------- Iteration      1(   3)  ---------------------------------------


     EDDAV:  cpu time    9.7675: real time    9.7698
 BZINTS: Fermi energy: -2.137158;160.000000 electrons
         Band energy:***********;  BLOECHL correction:  0.000000
       DOS:  cpu time    0.0010: real time    0.0014
    --------------------------------------------
      LOOP:  cpu time    9.7685: real time    9.7712

 eigenvalue-minimisations  :  2592
 total energy-change (2. order) :-0.4452295E+03  (-0.4314673E+03)
 number of electron     160.0000000 magnetization 
 augmentation part      160.0000000 magnetization 

 Free energy of the ion-electron system (eV)
  ---------------------------------------------------
  alpha Z        PSCENC =       595.46572648
  Ewald energy   TEWEN  =     33131.92940099
  -Hartree energ DENC   =    -43820.48908445
  -exchange      EXHF   =         0.00000000
  -V(xc)+E(xc)   XCENC  =       407.53315421
  PAW double counting   =      6668.06486263    -6423.92230319
  entropy T*S    EENTRO =         0.00000000
  eigenvalues    EBANDS =     -1946.91525244
  atomic energy  EATOM  =     11171.58531272
  Solvation  Ediel_sol  =         0.00000000
  ---------------------------------------------------
  free energy    TOTEN  =      -216.74818305 eV

  energy without entropy =     -216.74818305  energy(sigma->0) =     -216.74818305


--------------------------------------------------------------------------------------------------------




--------------------------------------- Iteration      1(   4)  ---------------------------------------


     EDDAV:  cpu time    9.5256: real time    9.5281
 BZINTS: Fermi energy: -3.570861;160.000000 electrons
         Band energy:***********;  BLOECHL correction:  0.000000
       DOS:  cpu time    0.0020: real time    0.0016
    --------------------------------------------
      LOOP:  cpu time    9.5276: real time    9.5296

 eigenvalue-minimisations  :  2512
 total energy-change (2. order) :-0.3425978E+02  (-0.3415944E+02)
 number of electron     160.0000000 magnetization 
 augmentation part      160.0000000 magnetization 

 Free energy of the ion-electron system (eV)
  ---------------------------------------------------
  alpha Z        PSCENC =       595.46572648
  Ewald energy   TEWEN  =     33131.92940099
  -Hartree energ DENC   =    -43820.48908445
  -exchange      EXHF   =         0.00000000
  -V(xc)+E(xc)   XCENC  =       407.53315421
  PAW double counting   =      6668.06486263    -6423.92230319
  entropy T*S    EENTRO =         0.00000000
  eigenvalues    EBANDS =     -1981.17503474
  atomic energy  EATOM  =     11171.58531272
  Solvation  Ediel_sol  =         0.00000000
  ---------------------------------------------------
  free energy    TOTEN  =      -251.00796535 eV

  energy without entropy =     -251.00796535  energy(sigma->0) =     -251.00796535


--------------------------------------------------------------------------------------------------------




--------------------------------------- Iteration      1(   5)  ---------------------------------------


     EDDAV:  cpu time   11.8602: real time   11.8606
 BZINTS: Fermi energy: -3.617123;160.000000 electrons
         Band energy:***********;  BLOECHL correction:  0.000000
       DOS:  cpu time    0.0010: real time    0.0016
    CHARGE:  cpu time    0.2580: real time    0.2578
    MIXING:  cpu time    0.0030: real time    0.0033
    --------------------------------------------
      LOOP:  cpu time   12.1222: real time   12.1233

 eigenvalue-minimisations  :  3280
 total energy-change (2. order) :-0.1701670E+01  (-0.1700689E+01)
 number of electron     159.9999657 magnetization 
 augmentation part       17.0133192 magnetization 

 Broyden mixing:
  rms(total) = 0.41346E+01    rms(broyden)= 0.41340E+01
  rms(prec ) = 0.43456E+01
  weight for this iteration     100.00

 Free energy of the ion-electron system (eV)
  ---------------------------------------------------
  alpha Z        PSCENC =       595.46572648
  Ewald energy   TEWEN  =     33131.92940099
  -Hartree energ DENC   =    -43820.48908445
  -exchange      EXHF   =         0.00000000
  -V(xc)+E(xc)   XCENC  =       407.53315421
  PAW double counting   =      6668.06486263    -6423.92230319
  entropy T*S    EENTRO =         0.00000000
  eigenvalues    EBANDS =     -1982.87670483
  atomic energy  EATOM  =     11171.58531272
  Solvation  Ediel_sol  =         0.00000000
  ---------------------------------------------------
  free energy    TOTEN  =      -252.70963544 eV

  energy without entropy =     -252.70963544  energy(sigma->0) =     -252.70963544


--------------------------------------------------------------------------------------------------------




--------------------------------------- Iteration      1(   6)  ---------------------------------------


    POTLOK:  cpu time    0.1140: real time    0.1169
    SETDIJ:  cpu time    0.0150: real time    0.0149
    EDDIAG:  cpu time    0.7849: real time    0.7857
  RMM-DIIS:  cpu time    5.9641: real time    5.9620
    ORTHCH:  cpu time    0.1790: real time    0.1789
 BZINTS: Fermi energy:  0.337601;160.000000 electrons
         Band energy:***********;  BLOECHL correction: -0.067030
       DOS:  cpu time    0.0080: real time    0.0081
    CHARGE:  cpu time    0.2640: real time    0.2635
    MIXING:  cpu time    0.0030: real time    0.0031
    --------------------------------------------
      LOOP:  cpu time    7.3319: real time    7.3332

 eigenvalue-minimisations  :  2119
 total energy-change (2. order) : 0.5046099E+02  (-0.3552789E+02)
 number of electron     159.9999772 magnetization 
 augmentation part       17.8064288 magnetization 

 Broyden mixing:
  rms(total) = 0.16019E+01    rms(broyden)= 0.16007E+01
  rms(prec ) = 0.16636E+01
  weight for this iteration     100.00

 eigenvalues of (default mixing * dielectric matrix)
  average eigenvalue GAMMA=   0.7576
  0.7576

 Free energy of the ion-electron system (eV)
  ---------------------------------------------------
  alpha Z        PSCENC =       595.46572648
  Ewald energy   TEWEN  =     33131.92940099
  -Hartree energ DENC   =    -44163.36178289
  -exchange      EXHF   =         0.00000000
  -V(xc)+E(xc)   XCENC  =       432.23455316
  PAW double counting   =      7420.10303176    -7192.12374941
  entropy T*S    EENTRO =         0.00000000
  eigenvalues    EBANDS =     -1598.08113685
  atomic energy  EATOM  =     11171.58531272
  Solvation  Ediel_sol  =         0.00000000
  ---------------------------------------------------
  free energy    TOTEN  =      -202.24864406 eV

  energy without entropy =     -202.24864406  energy(sigma->0) =     -202.24864406


--------------------------------------------------------------------------------------------------------




--------------------------------------- Iteration      1(   7)  ---------------------------------------


    POTLOK:  cpu time    0.1100: real time    0.1145
    SETDIJ:  cpu time    0.0160: real time    0.0148
    EDDIAG:  cpu time    0.7839: real time    0.7857
  RMM-DIIS:  cpu time    6.4200: real time    6.4178
    ORTHCH:  cpu time    0.1790: real time    0.1789
 BZINTS: Fermi energy: -0.309375;160.000000 electrons
         Band energy:***********;  BLOECHL correction:  0.000000
       DOS:  cpu time    0.0010: real time    0.0014
    CHARGE:  cpu time    0.2570: real time    0.2571
    MIXING:  cpu time    0.0040: real time    0.0032
    --------------------------------------------
      LOOP:  cpu time    7.7708: real time    7.7733

 eigenvalue-minimisations  :  2292
 total energy-change (2. order) : 0.4631561E+01  (-0.1629857E+01)
 number of electron     159.9999752 magnetization 
 augmentation part       16.8536834 magnetization 

 Broyden mixing:
  rms(total) = 0.80710E+00    rms(broyden)= 0.80700E+00
  rms(prec ) = 0.83157E+00
  weight for this iteration     100.00

 eigenvalues of (default mixing * dielectric matrix)
  average eigenvalue GAMMA=   0.9586
  0.9586  0.9586

 Free energy of the ion-electron system (eV)
  ---------------------------------------------------
  alpha Z        PSCENC =       595.46572648
  Ewald energy   TEWEN  =     33131.92940099
  -Hartree energ DENC   =    -44170.50008201
  -exchange      EXHF   =         0.00000000
  -V(xc)+E(xc)   XCENC  =       427.26651938
  PAW double counting   =      7429.00275035    -7206.99401605
  entropy T*S    EENTRO =         0.00000000
  eigenvalues    EBANDS =     -1575.37269492
  atomic energy  EATOM  =     11171.58531272
  Solvation  Ediel_sol  =         0.00000000
  ---------------------------------------------------
  free energy    TOTEN  =      -197.61708307 eV

  energy without entropy =     -197.61708307  energy(sigma->0) =     -197.61708307


--------------------------------------------------------------------------------------------------------




--------------------------------------- Iteration      1(   8)  ---------------------------------------


    POTLOK:  cpu time    0.1110: real time    0.1157
    SETDIJ:  cpu time    0.0150: real time    0.0147
    EDDIAG:  cpu time    0.7839: real time    0.7843
  RMM-DIIS:  cpu time    7.2869: real time    7.2842
    ORTHCH:  cpu time    0.1790: real time    0.1793
 BZINTS: Fermi energy: -0.367528;160.000000 electrons
         Band energy:***********;  BLOECHL correction:  0.000000
       DOS:  cpu time    0.0010: real time    0.0016
    CHARGE:  cpu time    0.2580: real time    0.2575
    MIXING:  cpu time    0.0040: real time    0.0034
    --------------------------------------------
      LOOP:  cpu time    8.6387: real time    8.6408

 eigenvalue-minimisations  :  2590
 total energy-change (2. order) : 0.8603243E+00  (-0.3718296E+00)
 number of electron     159.9999753 magnetization 
 augmentation part       17.1229172 magnetization 

 Broyden mixing:
  rms(total) = 0.40710E+00    rms(broyden)= 0.40707E+00
  rms(prec ) = 0.42228E+00
  weight for this iteration     100.00

 eigenvalues of (default mixing * dielectric matrix)
  average eigenvalue GAMMA=   1.2559
  2.1868  0.9093  0.6715

 Free energy of the ion-electron system (eV)
  ---------------------------------------------------
  alpha Z        PSCENC =       595.46572648
  Ewald energy   TEWEN  =     33131.92940099
  -Hartree energ DENC   =    -44178.08201950
  -exchange      EXHF   =         0.00000000
  -V(xc)+E(xc)   XCENC  =       426.98086725
  PAW double counting   =      7523.60363793    -7306.11957098
  entropy T*S    EENTRO =         0.00000000
  eigenvalues    EBANDS =     -1562.12011368
  atomic energy  EATOM  =     11171.58531272
  Solvation  Ediel_sol  =         0.00000000
  ---------------------------------------------------
  free energy    TOTEN  =      -196.75675880 eV

  energy without entropy =     -196.75675880  energy(sigma->0) =     -196.75675880


--------------------------------------------------------------------------------------------------------




--------------------------------------- Iteration      1(   9)  ---------------------------------------


    POTLOK:  cpu time    0.1120: real time    0.1165
    SETDIJ:  cpu time    0.0150: real time    0.0147
    EDDIAG:  cpu time    0.7839: real time    0.7836
  RMM-DIIS:  cpu time    7.0679: real time    7.0660
    ORTHCH:  cpu time    0.1790: real time    0.1790
 BZINTS: Fermi energy:  0.068218;160.000000 electrons
         Band energy:***********;  BLOECHL correction:  0.000000
       DOS:  cpu time    0.0010: real time    0.0014
    CHARGE:  cpu time    0.2570: real time    0.2564
    MIXING:  cpu time    0.0040: real time    0.0043
    --------------------------------------------
      LOOP:  cpu time    8.4197: real time    8.4219

 eigenvalue-minimisations  :  2528
 total energy-change (2. order) : 0.2632811E+00  (-0.1895642E+00)
 number of electron     159.9999749 magnetization 
 augmentation part       17.1935627 magnetization 

 Broyden mixing:
  rms(total) = 0.11672E+00    rms(broyden)= 0.11663E+00
  rms(prec ) = 0.13258E+00
  weight for this iteration     100.00

 eigenvalues of (default mixing * dielectric matrix)
  average eigenvalue GAMMA=   1.1395
  2.2154  0.8105  0.8105  0.7216

 Free energy of the ion-electron system (eV)
  ---------------------------------------------------
  alpha Z        PSCENC =       595.46572648
  Ewald energy   TEWEN  =     33131.92940099
  -Hartree energ DENC   =    -44194.20571391
  -exchange      EXHF   =         0.00000000
  -V(xc)+E(xc)   XCENC  =       426.40960013
  PAW double counting   =      7643.78468706    -7431.37423323
  entropy T*S    EENTRO =         0.00000000
  eigenvalues    EBANDS =     -1540.08825794
  atomic energy  EATOM  =     11171.58531272
  Solvation  Ediel_sol  =         0.00000000
  ---------------------------------------------------
  free energy    TOTEN  =      -196.49347770 eV

  energy without entropy =     -196.49347770  energy(sigma->0) =     -196.49347770


--------------------------------------------------------------------------------------------------------




--------------------------------------- Iteration      1(  10)  ---------------------------------------


    POTLOK:  cpu time    0.1120: real time    0.1153
    SETDIJ:  cpu time    0.0150: real time    0.0147
    EDDIAG:  cpu time    0.7829: real time    0.7828
  RMM-DIIS:  cpu time    8.4017: real time    8.3996
    ORTHCH:  cpu time    0.1790: real time    0.1790
 BZINTS: Fermi energy:  0.176284;160.000000 electrons
         Band energy:***********;  BLOECHL correction:  0.000000
       DOS:  cpu time    0.0010: real time    0.0016
    CHARGE:  cpu time    0.2570: real time    0.2570
    MIXING:  cpu time    0.0040: real time    0.0037
    --------------------------------------------
      LOOP:  cpu time    9.7525: real time    9.7537

 eigenvalue-minimisations  :  2999
 total energy-change (2. order) : 0.5413596E-01  (-0.2872373E-01)
 number of electron     159.9999749 magnetization 
 augmentation part       17.1328885 magnetization 

 Broyden mixing:
  rms(total) = 0.83586E-01    rms(broyden)= 0.83575E-01
  rms(prec ) = 0.94301E-01
  weight for this iteration     100.00

 eigenvalues of (default mixing * dielectric matrix)
  average eigenvalue GAMMA=   1.1628
  2.2272  1.1363  1.1363  0.7177  0.5967

 Free energy of the ion-electron system (eV)
  ---------------------------------------------------
  alpha Z        PSCENC =       595.46572648
  Ewald energy   TEWEN  =     33131.92940099
  -Hartree energ DENC   =    -44214.36028758
  -exchange      EXHF   =         0.00000000
  -V(xc)+E(xc)   XCENC  =       426.74601460
  PAW double counting   =      7668.23508677    -7456.41976582
  entropy T*S    EENTRO =         0.00000000
  eigenvalues    EBANDS =     -1519.62082989
  atomic energy  EATOM  =     11171.58531272
  Solvation  Ediel_sol  =         0.00000000
  ---------------------------------------------------
  free energy    TOTEN  =      -196.43934174 eV

  energy without entropy =     -196.43934174  energy(sigma->0) =     -196.43934174


--------------------------------------------------------------------------------------------------------




--------------------------------------- Iteration      1(  11)  ---------------------------------------


    POTLOK:  cpu time    0.1130: real time    0.1154
    SETDIJ:  cpu time    0.0160: real time    0.0147
    EDDIAG:  cpu time    0.7839: real time    0.7838
  RMM-DIIS:  cpu time    8.0148: real time    8.0127
    ORTHCH:  cpu time    0.1750: real time    0.1758
 BZINTS: Fermi energy:  0.285678;160.000000 electrons
         Band energy:***********;  BLOECHL correction:  0.000000
       DOS:  cpu time    0.0020: real time    0.0016
    CHARGE:  cpu time    0.2570: real time    0.2574
    MIXING:  cpu time    0.0050: real time    0.0039
    --------------------------------------------
      LOOP:  cpu time    9.3666: real time    9.3654

 eigenvalue-minimisations  :  2876
 total energy-change (2. order) : 0.2756303E-01  (-0.1945352E-01)
 number of electron     159.9999750 magnetization 
 augmentation part       17.0620372 magnetization 

 Broyden mixing:
  rms(total) = 0.39683E-01    rms(broyden)= 0.39662E-01
  rms(prec ) = 0.49785E-01
  weight for this iteration     100.00

 eigenvalues of (default mixing * dielectric matrix)
  average eigenvalue GAMMA=   1.2261
  2.1339  2.1339  0.8792  0.8792  0.7367  0.5935

 Free energy of the ion-electron system (eV)
  ---------------------------------------------------
  alpha Z        PSCENC =       595.46572648
  Ewald energy   TEWEN  =     33131.92940099
  -Hartree energ DENC   =    -44236.79416926
  -exchange      EXHF   =         0.00000000
  -V(xc)+E(xc)   XCENC  =       427.21286311
  PAW double counting   =      7689.31520834    -7477.68572813
  entropy T*S    EENTRO =         0.00000000
  eigenvalues    EBANDS =     -1497.44039296
  atomic energy  EATOM  =     11171.58531272
  Solvation  Ediel_sol  =         0.00000000
  ---------------------------------------------------
  free energy    TOTEN  =      -196.41177871 eV

  energy without entropy =     -196.41177871  energy(sigma->0) =     -196.41177871


--------------------------------------------------------------------------------------------------------




--------------------------------------- Iteration      1(  12)  ---------------------------------------


    POTLOK:  cpu time    0.1120: real time    0.1156
    SETDIJ:  cpu time    0.0150: real time    0.0148
    EDDIAG:  cpu time    0.7829: real time    0.7830
  RMM-DIIS:  cpu time    8.2837: real time    8.2816
    ORTHCH:  cpu time    0.1760: real time    0.1756
 BZINTS: Fermi energy:  0.416938;160.000000 electrons
         Band energy:***********;  BLOECHL correction:  0.000000
       DOS:  cpu time    0.0010: real time    0.0014
    CHARGE:  cpu time    0.2570: real time    0.2573
    MIXING:  cpu time    0.0040: real time    0.0041
    --------------------------------------------
      LOOP:  cpu time    9.6315: real time    9.6334

 eigenvalue-minimisations  :  2962
 total energy-change (2. order) : 0.9026247E-02  (-0.6579720E-02)
 number of electron     159.9999750 magnetization 
 augmentation part       16.9980393 magnetization 

 Broyden mixing:
  rms(total) = 0.35278E-01    rms(broyden)= 0.35274E-01
  rms(prec ) = 0.42445E-01
  weight for this iteration     100.00

 eigenvalues of (default mixing * dielectric matrix)
  average eigenvalue GAMMA=   1.1954
  2.2447  2.2447  0.9381  0.9381  0.7938  0.6041  0.6041

 Free energy of the ion-electron system (eV)
  ---------------------------------------------------
  alpha Z        PSCENC =       595.46572648
  Ewald energy   TEWEN  =     33131.92940099
  -Hartree energ DENC   =    -44250.44424241
  -exchange      EXHF   =         0.00000000
  -V(xc)+E(xc)   XCENC  =       427.33585893
  PAW double counting   =      7693.75252485    -7481.83956008
  entropy T*S    EENTRO =         0.00000000
  eigenvalues    EBANDS =     -1484.18777393
  atomic energy  EATOM  =     11171.58531272
  Solvation  Ediel_sol  =         0.00000000
  ---------------------------------------------------
  free energy    TOTEN  =      -196.40275246 eV

  energy without entropy =     -196.40275246  energy(sigma->0) =     -196.40275246


--------------------------------------------------------------------------------------------------------




--------------------------------------- Iteration      1(  13)  ---------------------------------------


    POTLOK:  cpu time    0.1140: real time    0.1168
    SETDIJ:  cpu time    0.0160: real time    0.0151
    EDDIAG:  cpu time    0.7919: real time    0.7913
  RMM-DIIS:  cpu time    9.4346: real time    9.4327
    ORTHCH:  cpu time    0.1760: real time    0.1760
 BZINTS: Fermi energy:  0.483451;160.000000 electrons
         Band energy:***********;  BLOECHL correction:  0.000000
       DOS:  cpu time    0.0020: real time    0.0014
    CHARGE:  cpu time    0.2570: real time    0.2578
    MIXING:  cpu time    0.0050: real time    0.0043
    --------------------------------------------
      LOOP:  cpu time   10.7964: real time   10.7953

 eigenvalue-minimisations  :  3377
 total energy-change (2. order) : 0.7473668E-02  (-0.2311060E-02)
 number of electron     159.9999750 magnetization 
 augmentation part       17.0068317 magnetization 

 Broyden mixing:
  rms(total) = 0.22003E-01    rms(broyden)= 0.22000E-01
  rms(prec ) = 0.28452E-01
  weight for this iteration     100.00

 eigenvalues of (default mixing * dielectric matrix)
  average eigenvalue GAMMA=   1.3264
  2.5966  2.5966  1.1822  1.1822  0.8966  0.8966  0.6302  0.6302

 Free energy of the ion-electron system (eV)
  ---------------------------------------------------
  alpha Z        PSCENC =       595.46572648
  Ewald energy   TEWEN  =     33131.92940099
  -Hartree energ DENC   =    -44257.17032729
  -exchange      EXHF   =         0.00000000
  -V(xc)+E(xc)   XCENC  =       427.37592960
  PAW double counting   =      7696.66740406    -7484.66084319
  entropy T*S    EENTRO =         0.00000000
  eigenvalues    EBANDS =     -1477.58788215
  atomic energy  EATOM  =     11171.58531272
  Solvation  Ediel_sol  =         0.00000000
  ---------------------------------------------------
  free energy    TOTEN  =      -196.39527879 eV

  energy without entropy =     -196.39527879  energy(sigma->0) =     -196.39527879


--------------------------------------------------------------------------------------------------------




--------------------------------------- Iteration      1(  14)  ---------------------------------------


    POTLOK:  cpu time    0.1140: real time    0.1180
    SETDIJ:  cpu time    0.0160: real time    0.0151
    EDDIAG:  cpu time    0.7839: real time    0.7846
  RMM-DIIS:  cpu time    8.0168: real time    8.0140
    ORTHCH:  cpu time    0.1750: real time    0.1759
 BZINTS: Fermi energy:  0.592545;160.000000 electrons
         Band energy:***********;  BLOECHL correction:  0.000000
       DOS:  cpu time    0.0020: real time    0.0014
    CHARGE:  cpu time    0.2580: real time    0.2587
    MIXING:  cpu time    0.0050: real time    0.0045
    --------------------------------------------
      LOOP:  cpu time    9.3706: real time    9.3722

 eigenvalue-minimisations  :  2859
 total energy-change (2. order) : 0.6265487E-02  (-0.2231402E-02)
 number of electron     159.9999749 magnetization 
 augmentation part       17.0153683 magnetization 

 Broyden mixing:
  rms(total) = 0.12689E-01    rms(broyden)= 0.12681E-01
  rms(prec ) = 0.17040E-01
  weight for this iteration     100.00

 eigenvalues of (default mixing * dielectric matrix)
  average eigenvalue GAMMA=   1.3674
  3.2543  2.5522  1.4193  1.0221  1.0221  0.9036  0.9036  0.6148  0.6148

 Free energy of the ion-electron system (eV)
  ---------------------------------------------------
  alpha Z        PSCENC =       595.46572648
  Ewald energy   TEWEN  =     33131.92940099
  -Hartree energ DENC   =    -44267.91969256
  -exchange      EXHF   =         0.00000000
  -V(xc)+E(xc)   XCENC  =       427.31187875
  PAW double counting   =      7692.12476734    -7479.71454588
  entropy T*S    EENTRO =         0.00000000
  eigenvalues    EBANDS =     -1467.17186114
  atomic energy  EATOM  =     11171.58531272
  Solvation  Ediel_sol  =         0.00000000
  ---------------------------------------------------
  free energy    TOTEN  =      -196.38901330 eV

  energy without entropy =     -196.38901330  energy(sigma->0) =     -196.38901330


--------------------------------------------------------------------------------------------------------




--------------------------------------- Iteration      1(  15)  ---------------------------------------


    POTLOK:  cpu time    0.1110: real time    0.1154
    SETDIJ:  cpu time    0.0160: real time    0.0147
    EDDIAG:  cpu time    0.7839: real time    0.7841
  RMM-DIIS:  cpu time    8.8387: real time    8.8366
    ORTHCH:  cpu time    0.1760: real time    0.1758
 BZINTS: Fermi energy:  0.657221;160.000000 electrons
         Band energy:***********;  BLOECHL correction:  0.000000
       DOS:  cpu time    0.0010: real time    0.0014
    CHARGE:  cpu time    0.2580: real time    0.2583
    MIXING:  cpu time    0.0050: real time    0.0047
    --------------------------------------------
      LOOP:  cpu time   10.1895: real time   10.1910

 eigenvalue-minimisations  :  3155
 total energy-change (2. order) : 0.1594286E-02  (-0.7196555E-03)
 number of electron     159.9999749 magnetization 
 augmentation part       17.0194115 magnetization 

 Broyden mixing:
  rms(total) = 0.81511E-02    rms(broyden)= 0.81475E-02
  rms(prec ) = 0.11375E-01
  weight for this iteration     100.00

 eigenvalues of (default mixing * dielectric matrix)
  average eigenvalue GAMMA=   1.3764
  3.6614  2.4046  1.3513  1.3513  1.1918  0.9069  0.9069  0.7735  0.6082  0.6082

 Free energy of the ion-electron system (eV)
  ---------------------------------------------------
  alpha Z        PSCENC =       595.46572648
  Ewald energy   TEWEN  =     33131.92940099
  -Hartree energ DENC   =    -44275.58947650
  -exchange      EXHF   =         0.00000000
  -V(xc)+E(xc)   XCENC  =       427.36194505
  PAW double counting   =      7692.07283970    -7479.57698409
  entropy T*S    EENTRO =         0.00000000
  eigenvalues    EBANDS =     -1459.63618336
  atomic energy  EATOM  =     11171.58531272
  Solvation  Ediel_sol  =         0.00000000
  ---------------------------------------------------
  free energy    TOTEN  =      -196.38741902 eV

  energy without entropy =     -196.38741902  energy(sigma->0) =     -196.38741902


--------------------------------------------------------------------------------------------------------




--------------------------------------- Iteration      1(  16)  ---------------------------------------


    POTLOK:  cpu time    0.1130: real time    0.1170
    SETDIJ:  cpu time    0.0150: real time    0.0148
    EDDIAG:  cpu time    0.7939: real time    0.7937
  RMM-DIIS:  cpu time    8.5557: real time    8.5537
    ORTHCH:  cpu time    0.1780: real time    0.1783
 BZINTS: Fermi energy:  0.711908;160.000000 electrons
         Band energy:***********;  BLOECHL correction:  0.000000
       DOS:  cpu time    0.0020: real time    0.0014
    CHARGE:  cpu time    0.2610: real time    0.2614
    MIXING:  cpu time    0.0050: real time    0.0049
    --------------------------------------------
      LOOP:  cpu time    9.9235: real time    9.9251

 eigenvalue-minimisations  :  2988
 total energy-change (2. order) :-0.5472947E-03  (-0.5464821E-03)
 number of electron     159.9999749 magnetization 
 augmentation part       17.0104806 magnetization 

 Broyden mixing:
  rms(total) = 0.81855E-02    rms(broyden)= 0.81827E-02
  rms(prec ) = 0.99164E-02
  weight for this iteration     100.00

 eigenvalues of (default mixing * dielectric matrix)
  average eigenvalue GAMMA=   1.5392
  4.7233  2.7979  2.0898  1.3835  1.1254  1.1254  0.8767  0.8767  0.7175  0.6072
  0.6072

 Free energy of the ion-electron system (eV)
  ---------------------------------------------------
  alpha Z        PSCENC =       595.46572648
  Ewald energy   TEWEN  =     33131.92940099
  -Hartree energ DENC   =    -44282.26826817
  -exchange      EXHF   =         0.00000000
  -V(xc)+E(xc)   XCENC  =       427.40607438
  PAW double counting   =      7693.03704839    -7480.61072018
  entropy T*S    EENTRO =         0.00000000
  eigenvalues    EBANDS =     -1452.93254092
  atomic energy  EATOM  =     11171.58531272
  Solvation  Ediel_sol  =         0.00000000
  ---------------------------------------------------
  free energy    TOTEN  =      -196.38796631 eV

  energy without entropy =     -196.38796631  energy(sigma->0) =     -196.38796631


--------------------------------------------------------------------------------------------------------




--------------------------------------- Iteration      1(  17)  ---------------------------------------


    POTLOK:  cpu time    0.1130: real time    0.1160
    SETDIJ:  cpu time    0.0160: real time    0.0151
    EDDIAG:  cpu time    0.7949: real time    0.7951
  RMM-DIIS:  cpu time    8.0648: real time    8.0631
    ORTHCH:  cpu time    0.1760: real time    0.1759
 BZINTS: Fermi energy:  0.729044;160.000000 electrons
         Band energy:***********;  BLOECHL correction:  0.000000
       DOS:  cpu time    0.0020: real time    0.0016
    CHARGE:  cpu time    0.2580: real time    0.2578
    MIXING:  cpu time    0.0050: real time    0.0051
    --------------------------------------------
      LOOP:  cpu time    9.4296: real time    9.4297

 eigenvalue-minimisations  :  2866
 total energy-change (2. order) :-0.6263760E-03  (-0.2601861E-03)
 number of electron     159.9999749 magnetization 
 augmentation part       17.0043103 magnetization 

 Broyden mixing:
  rms(total) = 0.47650E-02    rms(broyden)= 0.47634E-02
  rms(prec ) = 0.56124E-02
  weight for this iteration     100.00

 eigenvalues of (default mixing * dielectric matrix)
  average eigenvalue GAMMA=   1.5595
  5.6711  2.8063  2.3583  1.1366  1.1366  1.0642  1.0642  0.8120  0.8120  0.6141
  0.6141  0.6245

 Free energy of the ion-electron system (eV)
  ---------------------------------------------------
  alpha Z        PSCENC =       595.46572648
  Ewald energy   TEWEN  =     33131.92940099
  -Hartree energ DENC   =    -44286.92391941
  -exchange      EXHF   =         0.00000000
  -V(xc)+E(xc)   XCENC  =       427.36016792
  PAW double counting   =      7690.39045068    -7477.93941137
  entropy T*S    EENTRO =         0.00000000
  eigenvalues    EBANDS =     -1448.25632069
  atomic energy  EATOM  =     11171.58531272
  Solvation  Ediel_sol  =         0.00000000
  ---------------------------------------------------
  free energy    TOTEN  =      -196.38859269 eV

  energy without entropy =     -196.38859269  energy(sigma->0) =     -196.38859269


--------------------------------------------------------------------------------------------------------




--------------------------------------- Iteration      1(  18)  ---------------------------------------


    POTLOK:  cpu time    0.1110: real time    0.1164
    SETDIJ:  cpu time    0.0150: real time    0.0149
    EDDIAG:  cpu time    0.7839: real time    0.7846
  RMM-DIIS:  cpu time    7.9088: real time    7.9061
    ORTHCH:  cpu time    0.1760: real time    0.1759
 BZINTS: Fermi energy:  0.759974;160.000000 electrons
         Band energy:***********;  BLOECHL correction:  0.000000
       DOS:  cpu time    0.0010: real time    0.0016
    CHARGE:  cpu time    0.2570: real time    0.2573
    MIXING:  cpu time    0.0060: real time    0.0053
    --------------------------------------------
      LOOP:  cpu time    9.2586: real time    9.2620

 eigenvalue-minimisations  :  2819
 total energy-change (2. order) :-0.3397394E-03  (-0.9346215E-04)
 number of electron     159.9999749 magnetization 
 augmentation part       17.0077441 magnetization 

 Broyden mixing:
  rms(total) = 0.19388E-02    rms(broyden)= 0.19369E-02
  rms(prec ) = 0.26825E-02
  weight for this iteration     100.00

 eigenvalues of (default mixing * dielectric matrix)
  average eigenvalue GAMMA=   1.6618
  6.4085  3.0504  2.1368  2.1368  1.1797  1.1797  1.0070  1.0070  0.8300  0.8300
  0.6209  0.6209  0.5954

 Free energy of the ion-electron system (eV)
  ---------------------------------------------------
  alpha Z        PSCENC =       595.46572648
  Ewald energy   TEWEN  =     33131.92940099
  -Hartree energ DENC   =    -44288.53581984
  -exchange      EXHF   =         0.00000000
  -V(xc)+E(xc)   XCENC  =       427.37058393
  PAW double counting   =      7690.64161067    -7478.18965177
  entropy T*S    EENTRO =         0.00000000
  eigenvalues    EBANDS =     -1446.65609560
  atomic energy  EATOM  =     11171.58531272
  Solvation  Ediel_sol  =         0.00000000
  ---------------------------------------------------
  free energy    TOTEN  =      -196.38893243 eV

  energy without entropy =     -196.38893243  energy(sigma->0) =     -196.38893243


--------------------------------------------------------------------------------------------------------




--------------------------------------- Iteration      1(  19)  ---------------------------------------


    POTLOK:  cpu time    0.1140: real time    0.1172
    SETDIJ:  cpu time    0.0160: real time    0.0153
    EDDIAG:  cpu time    0.7869: real time    0.7870
  RMM-DIIS:  cpu time    7.5878: real time    7.5853
    ORTHCH:  cpu time    0.1760: real time    0.1761
 BZINTS: Fermi energy:  0.789506;160.000000 electrons
         Band energy:***********;  BLOECHL correction:  0.000000
       DOS:  cpu time    0.0010: real time    0.0016
    CHARGE:  cpu time    0.2570: real time    0.2570
    MIXING:  cpu time    0.0060: real time    0.0055
    --------------------------------------------
      LOOP:  cpu time    8.9446: real time    8.9449

 eigenvalue-minimisations  :  2684
 total energy-change (2. order) :-0.1583599E-02  (-0.5663304E-04)
 number of electron     159.9999749 magnetization 
 augmentation part       17.0067016 magnetization 

 Broyden mixing:
  rms(total) = 0.13276E-02    rms(broyden)= 0.13270E-02
  rms(prec ) = 0.15664E-02
  weight for this iteration     100.00

 eigenvalues of (default mixing * dielectric matrix)
  average eigenvalue GAMMA=   1.7414
  7.2345  3.4131  2.3705  2.3705  1.1969  1.1969  1.2317  0.9439  0.9439  0.8156
  0.8156  0.6241  0.6241  0.5987

 Free energy of the ion-electron system (eV)
  ---------------------------------------------------
  alpha Z        PSCENC =       595.46572648
  Ewald energy   TEWEN  =     33131.92940099
  -Hartree energ DENC   =    -44289.41204217
  -exchange      EXHF   =         0.00000000
  -V(xc)+E(xc)   XCENC  =       427.37125798
  PAW double counting   =      7690.78601619    -7478.29916046
  entropy T*S    EENTRO =         0.00000000
  eigenvalues    EBANDS =     -1445.81702775
  atomic energy  EATOM  =     11171.58531272
  Solvation  Ediel_sol  =         0.00000000
  ---------------------------------------------------
  free energy    TOTEN  =      -196.39051603 eV

  energy without entropy =     -196.39051603  energy(sigma->0) =     -196.39051603


--------------------------------------------------------------------------------------------------------




--------------------------------------- Iteration      1(  20)  ---------------------------------------


    POTLOK:  cpu time    0.1140: real time    0.1174
    SETDIJ:  cpu time    0.0160: real time    0.0152
    EDDIAG:  cpu time    0.7899: real time    0.7905
  RMM-DIIS:  cpu time    6.8990: real time    6.8970
    ORTHCH:  cpu time    0.1760: real time    0.1759
 BZINTS: Fermi energy:  0.813177;160.000000 electrons
         Band energy:***********;  BLOECHL correction:  0.000000
       DOS:  cpu time    0.0010: real time    0.0016
    CHARGE:  cpu time    0.2580: real time    0.2579
    MIXING:  cpu time    0.0060: real time    0.0059
    --------------------------------------------
      LOOP:  cpu time    8.2597: real time    8.2614

 eigenvalue-minimisations  :  2426
 total energy-change (2. order) :-0.7153122E-03  (-0.2889478E-04)
 number of electron     159.9999749 magnetization 
 augmentation part       17.0067625 magnetization 

 Broyden mixing:
  rms(total) = 0.10523E-02    rms(broyden)= 0.10521E-02
  rms(prec ) = 0.11611E-02
  weight for this iteration     100.00

 eigenvalues of (default mixing * dielectric matrix)
  average eigenvalue GAMMA=   1.7773
  7.7445  3.9577  2.4221  2.4221  1.3011  1.3011  1.1675  1.1675  0.8840  0.8840
  0.7801  0.7801  0.6250  0.6250  0.5976

 Free energy of the ion-electron system (eV)
  ---------------------------------------------------
  alpha Z        PSCENC =       595.46572648
  Ewald energy   TEWEN  =     33131.92940099
  -Hartree energ DENC   =    -44289.57653832
  -exchange      EXHF   =         0.00000000
  -V(xc)+E(xc)   XCENC  =       427.37364462
  PAW double counting   =      7691.22020225    -7478.73914921
  entropy T*S    EENTRO =         0.00000000
  eigenvalues    EBANDS =     -1445.64983087
  atomic energy  EATOM  =     11171.58531272
  Solvation  Ediel_sol  =         0.00000000
  ---------------------------------------------------
  free energy    TOTEN  =      -196.39123134 eV

  energy without entropy =     -196.39123134  energy(sigma->0) =     -196.39123134


--------------------------------------------------------------------------------------------------------




--------------------------------------- Iteration      1(  21)  ---------------------------------------


    POTLOK:  cpu time    0.1150: real time    0.1168
    SETDIJ:  cpu time    0.0150: real time    0.0148
    EDDIAG:  cpu time    0.7949: real time    0.7940
  RMM-DIIS:  cpu time    6.6160: real time    6.6147
    ORTHCH:  cpu time    0.1750: real time    0.1757
 BZINTS: Fermi energy:  0.716516;160.000000 electrons
         Band energy:***********;  BLOECHL correction:  0.000000
       DOS:  cpu time    0.0010: real time    0.0014
    CHARGE:  cpu time    0.2580: real time    0.2575
    MIXING:  cpu time    0.0070: real time    0.0061
    --------------------------------------------
      LOOP:  cpu time    7.9818: real time    7.9810

 eigenvalue-minimisations  :  2335
 total energy-change (2. order) :-0.2268094E-03  (-0.1244883E-04)
 number of electron     159.9999749 magnetization 
 augmentation part       17.0051368 magnetization 

 Broyden mixing:
  rms(total) = 0.86852E-03    rms(broyden)= 0.86831E-03
  rms(prec ) = 0.93557E-03
  weight for this iteration     100.00

 eigenvalues of (default mixing * dielectric matrix)
  average eigenvalue GAMMA=   1.8392
  8.4791  4.2823  2.5565  2.5565  2.0797  1.1607  1.1607  1.1337  0.8815  0.8815
  0.9363  0.8185  0.6753  0.6187  0.6187  0.5880

 Free energy of the ion-electron system (eV)
  ---------------------------------------------------
  alpha Z        PSCENC =       595.46572648
  Ewald energy   TEWEN  =     33131.92940099
  -Hartree energ DENC   =    -44289.41519887
  -exchange      EXHF   =         0.00000000
  -V(xc)+E(xc)   XCENC  =       427.36690534
  PAW double counting   =      7691.02796640    -7478.53868786
  entropy T*S    EENTRO =         0.00000000
  eigenvalues    EBANDS =     -1445.81288334
  atomic energy  EATOM  =     11171.58531272
  Solvation  Ediel_sol  =         0.00000000
  ---------------------------------------------------
  free energy    TOTEN  =      -196.39145815 eV

  energy without entropy =     -196.39145815  energy(sigma->0) =     -196.39145815


--------------------------------------------------------------------------------------------------------




--------------------------------------- Iteration      1(  22)  ---------------------------------------


    POTLOK:  cpu time    0.1120: real time    0.1183
    SETDIJ:  cpu time    0.0150: real time    0.0148
    EDDIAG:  cpu time    0.7919: real time    0.7918
  RMM-DIIS:  cpu time    5.4882: real time    5.4862
    ORTHCH:  cpu time    0.1760: real time    0.1757
 BZINTS: Fermi energy:  0.730912;160.000000 electrons
         Band energy:***********;  BLOECHL correction:  0.000000
       DOS:  cpu time    0.0000: real time    0.0014
    CHARGE:  cpu time    0.2590: real time    0.2580
    MIXING:  cpu time    0.0060: real time    0.0064
    --------------------------------------------
      LOOP:  cpu time    6.8480: real time    6.8524

 eigenvalue-minimisations  :  1910
 total energy-change (2. order) :-0.1252976E-03  (-0.5670475E-05)
 number of electron     159.9999749 magnetization 
 augmentation part       17.0056023 magnetization 

 Broyden mixing:
  rms(total) = 0.22649E-03    rms(broyden)= 0.22640E-03
  rms(prec ) = 0.25716E-03
  weight for this iteration     100.00

 eigenvalues of (default mixing * dielectric matrix)
  average eigenvalue GAMMA=   1.8401
  8.2750  4.9346  2.7648  2.6577  2.1205  1.1626  1.1626  1.1705  1.1705  0.8966
  0.8966  0.8226  0.8226  0.6177  0.6177  0.6170  0.5717

 Free energy of the ion-electron system (eV)
  ---------------------------------------------------
  alpha Z        PSCENC =       595.46572648
  Ewald energy   TEWEN  =     33131.92940099
  -Hartree energ DENC   =    -44289.44053731
  -exchange      EXHF   =         0.00000000
  -V(xc)+E(xc)   XCENC  =       427.36980957
  PAW double counting   =      7691.15156827    -7478.65742306
  entropy T*S    EENTRO =         0.00000000
  eigenvalues    EBANDS =     -1445.79544110
  atomic energy  EATOM  =     11171.58531272
  Solvation  Ediel_sol  =         0.00000000
  ---------------------------------------------------
  free energy    TOTEN  =      -196.39158345 eV

  energy without entropy =     -196.39158345  energy(sigma->0) =     -196.39158345


--------------------------------------------------------------------------------------------------------




--------------------------------------- Iteration      1(  23)  ---------------------------------------


    POTLOK:  cpu time    0.1140: real time    0.1173
    SETDIJ:  cpu time    0.0160: real time    0.0153
    EDDIAG:  cpu time    0.7949: real time    0.7949
  RMM-DIIS:  cpu time    4.6013: real time    4.6003
    ORTHCH:  cpu time    0.1760: real time    0.1759
 BZINTS: Fermi energy:  0.742768;160.000000 electrons
         Band energy:***********;  BLOECHL correction:  0.000000
       DOS:  cpu time    0.0010: real time    0.0014
    CHARGE:  cpu time    0.2590: real time    0.2586
    MIXING:  cpu time    0.0070: real time    0.0066
    --------------------------------------------
      LOOP:  cpu time    5.9691: real time    5.9702

 eigenvalue-minimisations  :  1588
 total energy-change (2. order) :-0.2777805E-04  (-0.1923335E-05)
 number of electron     159.9999749 magnetization 
 augmentation part       17.0055123 magnetization 

 Broyden mixing:
  rms(total) = 0.14774E-03    rms(broyden)= 0.14768E-03
  rms(prec ) = 0.16833E-03
  weight for this iteration     100.00

 eigenvalues of (default mixing * dielectric matrix)
  average eigenvalue GAMMA=   1.8263
  8.1970  5.2693  2.9920  2.3573  2.3573  1.3469  1.3469  1.1661  1.1661  0.9133
  0.9133  0.8300  0.8300  0.7782  0.6187  0.6187  0.5944  0.5776

 Free energy of the ion-electron system (eV)
  ---------------------------------------------------
  alpha Z        PSCENC =       595.46572648
  Ewald energy   TEWEN  =     33131.92940099
  -Hartree energ DENC   =    -44289.43223238
  -exchange      EXHF   =         0.00000000
  -V(xc)+E(xc)   XCENC  =       427.37067734
  PAW double counting   =      7691.16770498    -7478.67003203
  entropy T*S    EENTRO =         0.00000000
  eigenvalues    EBANDS =     -1445.80816933
  atomic energy  EATOM  =     11171.58531272
  Solvation  Ediel_sol  =         0.00000000
  ---------------------------------------------------
  free energy    TOTEN  =      -196.39161122 eV

  energy without entropy =     -196.39161122  energy(sigma->0) =     -196.39161122


--------------------------------------------------------------------------------------------------------




--------------------------------------- Iteration      1(  24)  ---------------------------------------


    POTLOK:  cpu time    0.1140: real time    0.1180
    SETDIJ:  cpu time    0.0150: real time    0.0152
    EDDIAG:  cpu time    0.7929: real time    0.7933
  RMM-DIIS:  cpu time    4.3453: real time    4.3430
    ORTHCH:  cpu time    0.1750: real time    0.1761
 BZINTS: Fermi energy:  0.752732;160.000000 electrons
         Band energy:***********;  BLOECHL correction:  0.000000
       DOS:  cpu time    0.0010: real time    0.0014
    --------------------------------------------
      LOOP:  cpu time    5.4432: real time    5.4468

 eigenvalue-minimisations  :  1466
 total energy-change (2. order) :-0.9747338E-05  (-0.1339750E-05)
 number of electron     159.9999749 magnetization 
 augmentation part       17.0055123 magnetization 

 Free energy of the ion-electron system (eV)
  ---------------------------------------------------
  alpha Z        PSCENC =       595.46572648
  Ewald energy   TEWEN  =     33131.92940099
  -Hartree energ DENC   =    -44289.42804957
  -exchange      EXHF   =         0.00000000
  -V(xc)+E(xc)   XCENC  =       427.37063873
  PAW double counting   =      7691.17260152    -7478.67463669
[...]
     56      -2.8244      2.00000
     57      -2.7720      2.00000
     58      -2.6844      2.00000
     59      -2.6507      2.00000
     60      -2.3929      2.00000
     61      -2.3143      2.00000
     62      -2.2491      2.00000
     63      -2.0017      2.00000
     64      -1.6729      2.00000
     65      -1.2889      2.00000
     66      -1.2513      2.00000
     67      -1.0368      2.00000
     68      -0.8507      2.00000
     69      -0.7786      2.00000
     70      -0.6709      2.00000
     71      -0.6684      2.00000
     72      -0.5237      2.00000
     73      -0.5151      2.00000
     74      -0.4976      2.00000
     75      -0.3870      2.00000
     76      -0.3828      2.00000
     77      -0.2689      2.00000
     78      -0.2662      2.00000
     79      -0.0811      2.00000
     80       0.2176      2.00000
     81       2.7567      0.00000
     82       2.9969      0.00000
     83       3.0776      0.00000
     84       3.1874      0.00000
     85       3.2755      0.00000
     86       3.3003      0.00000
     87       3.3761      0.00000
     88       3.4187      0.00000
     89       3.5299      0.00000
     90       3.5504      0.00000
     91       3.5917      0.00000
     92       3.6565      0.00000
     93       3.6637      0.00000
     94       3.8189      0.00000
     95       3.8650      0.00000
     96       7.5100      0.00000

 k-point     9 :       0.4286    0.2857    0.0000
  band No.  band energies     occupation 
      1     -33.5851      2.00000
      2     -32.7047      2.00000
      3     -32.5797      2.00000
      4     -32.5718      2.00000
      5     -32.4792      2.00000
      6     -17.0460      2.00000
      7     -16.8435      2.00000
      8     -16.6953      2.00000
      9     -16.5248      2.00000
     10     -16.4108      2.00000
     11     -16.3850      2.00000
     12     -16.2926      2.00000
     13     -16.2711      2.00000
     14     -16.2420      2.00000
     15     -16.1395      2.00000
     16     -16.1140      2.00000
     17     -16.0203      2.00000
     18     -15.8252      2.00000
     19     -15.8128      2.00000
     20     -15.7076      2.00000
     21     -15.6367      2.00000
     22     -15.4077      2.00000
     23     -14.8457      2.00000
     24     -14.8352      2.00000
     25     -14.7936      2.00000
     26     -14.6852      2.00000
     27     -14.6283      2.00000
     28     -14.5822      2.00000
     29     -14.5174      2.00000
     30     -14.4887      2.00000
     31     -14.4802      2.00000
     32     -14.4190      2.00000
     33     -14.3864      2.00000
     34     -14.3664      2.00000
     35     -14.2596      2.00000
     36      -4.2486      2.00000
     37      -4.1438      2.00000
     38      -4.0071      2.00000
     39      -3.9113      2.00000
     40      -3.8876      2.00000
     41      -3.8134      2.00000
     42      -3.7772      2.00000
     43      -3.7048      2.00000
     44      -3.6343      2.00000
     45      -3.5935      2.00000
     46      -3.5194      2.00000
     47      -3.4656      2.00000
     48      -3.3854      2.00000
     49      -3.3366      2.00000
     50      -3.2810      2.00000
     51      -3.2685      2.00000
     52      -3.2121      2.00000
     53      -3.1221      2.00000
     54      -3.0752      2.00000
     55      -3.0312      2.00000
     56      -2.9708      2.00000
     57      -2.8418      2.00000
     58      -2.7866      2.00000
     59      -2.7631      2.00000
     60      -2.6505      2.00000
     61      -2.5365      2.00000
     62      -2.3263      2.00000
     63      -2.1905      2.00000
     64      -1.7301      2.00000
     65      -1.3410      2.00000
     66      -1.1754      2.00000
     67      -1.0767      2.00000
     68      -0.8990      2.00000
     69      -0.8158      2.00000
     70      -0.6094      2.00000
     71      -0.5509      2.00000
     72      -0.4553      2.00000
     73      -0.4220      2.00000
     74      -0.3693      2.00000
     75      -0.2627      2.00000
     76      -0.2510      2.00000
     77      -0.2334      2.00000
     78      -0.1318      2.00000
     79       0.0934      2.00000
     80       0.3749      2.00000
     81       2.8776      0.00000
     82       3.1619      0.00000
     83       3.3905      0.00000
     84       3.4370      0.00000
     85       3.5931      0.00000
     86       3.6268      0.00000
     87       3.6372      0.00000
     88       3.7420      0.00000
     89       3.7659      0.00000
     90       3.8932      0.00000
     91       3.8973      0.00000
     92       3.9190      0.00000
     93       3.9807      0.00000
     94       4.0012      0.00000
     95       4.1112      0.00000
     96       7.8823      0.00000

 k-point    10 :       0.4286    0.4286    0.0000
  band No.  band energies     occupation 
      1     -33.5803      2.00000
      2     -32.6991      2.00000
      3     -32.5741      2.00000
      4     -32.5662      2.00000
      5     -32.4736      2.00000
      6     -16.7826      2.00000
      7     -16.5837      2.00000
      8     -16.4700      2.00000
      9     -16.4566      2.00000
     10     -16.3670      2.00000
     11     -16.3361      2.00000
     12     -16.2870      2.00000
     13     -16.2553      2.00000
     14     -16.2138      2.00000
     15     -16.0830      2.00000
     16     -16.0634      2.00000
     17     -16.0177      2.00000
     18     -15.8094      2.00000
     19     -15.7187      2.00000
     20     -15.6889      2.00000
     21     -15.5341      2.00000
     22     -15.4293      2.00000
     23     -15.1104      2.00000
     24     -14.8830      2.00000
     25     -14.8469      2.00000
     26     -14.8318      2.00000
     27     -14.7017      2.00000
     28     -14.6524      2.00000
     29     -14.6075      2.00000
     30     -14.5904      2.00000
     31     -14.5207      2.00000
     32     -14.4524      2.00000
     33     -14.4229      2.00000
     34     -14.3351      2.00000
     35     -14.3122      2.00000
     36      -4.3635      2.00000
     37      -4.2611      2.00000
     38      -4.1707      2.00000
     39      -4.1093      2.00000
     40      -4.0217      2.00000
     41      -3.9949      2.00000
     42      -3.9499      2.00000
     43      -3.9123      2.00000
     44      -3.8817      2.00000
     45      -3.7894      2.00000
     46      -3.7471      2.00000
     47      -3.7436      2.00000
     48      -3.6639      2.00000
     49      -3.5845      2.00000
     50      -3.5599      2.00000
     51      -3.4705      2.00000
     52      -3.4624      2.00000
     53      -3.4240      2.00000
     54      -3.2841      2.00000
     55      -3.2375      2.00000
     56      -3.1109      2.00000
     57      -3.0364      2.00000
     58      -2.9990      2.00000
     59      -2.8240      2.00000
     60      -2.6686      2.00000
     61      -2.6686      2.00000
     62      -2.4353      2.00000
     63      -2.3906      2.00000
     64      -1.9576      2.00000
     65      -1.2290      2.00000
     66      -1.1615      2.00000
     67      -1.0383      2.00000
     68      -0.8436      2.00000
     69      -0.7972      2.00000
     70      -0.4849      2.00000
     71      -0.4445      2.00000
     72      -0.2094      2.00000
     73      -0.1689      2.00000
     74      -0.1137      2.00000
     75      -0.0154      2.00000
     76       0.0524      2.00000
     77       0.0801      2.00000
     78       0.1285      2.00000
     79       0.1525      2.00000
     80       0.7047      2.00000
     81       3.4015      0.00000
     82       3.4624      0.00000
     83       3.6283      0.00000
     84       3.6606      0.00000
     85       3.7993      0.00000
     86       3.8601      0.00000
     87       3.8930      0.00000
     88       3.9521      0.00000
     89       4.0053      0.00000
     90       4.1199      0.00000
     91       4.1403      0.00000
     92       4.2178      0.00000
     93       7.2985      0.00000
     94       7.3915      0.00000
     95       7.6521      0.00000
     96       7.7632      0.00000


--------------------------------------------------------------------------------------------------------


 soft charge-density along one line, spin component           1
         0         1         2         3         4         5         6         7         8         9
 total charge-density along one line
 
 pseudopotential strength for first ion, spin component:           1
 12.611  -0.335  -0.000  -0.021   0.000   0.000   0.001  -0.000
 -0.335   0.081   0.000   0.002  -0.000  -0.000  -0.000   0.000
 -0.000   0.000  -8.889   0.000   0.000  -0.106  -0.000  -0.000
 -0.021   0.002   0.000  -8.909  -0.000  -0.000  -0.103   0.000
  0.000  -0.000   0.000  -0.000  -8.889  -0.000   0.000  -0.106
  0.000  -0.000  -0.106  -0.000  -0.000   0.251   0.000   0.000
  0.001  -0.000  -0.000  -0.103   0.000   0.000   0.250  -0.000
 -0.000   0.000  -0.000   0.000  -0.106   0.000  -0.000   0.251
 total augmentation occupancy for first ion, spin component:           1
  1.866   0.123  -0.000  -0.009   0.000   0.000   0.012   0.000
  0.123   0.012   0.000   0.026   0.000   0.000   0.005   0.000
  0.000   0.000   1.516  -0.000   0.000   0.121   0.000   0.000
 -0.009   0.026   0.000   1.513   0.000   0.000   0.131   0.000
  0.000   0.000   0.000   0.000   1.516   0.000   0.000   0.121
  0.000   0.000   0.121   0.000   0.000   0.011   0.000   0.000
  0.012   0.005   0.000   0.131   0.000   0.000   0.012   0.000
  0.000   0.000   0.000   0.000   0.121   0.000   0.000   0.011


------------------------ aborting loop because EDIFF is reached ----------------------------------------


    CHARGE:  cpu time    0.2580: real time    0.2582
    FORLOC:  cpu time    0.0280: real time    0.0278
    FORNL :  cpu time    3.4815: real time    3.4811
    STRESS:  cpu time    6.9939: real time    6.9927
    FORCOR:  cpu time    0.1240: real time    0.1236
    FORHAR:  cpu time    0.0450: real time    0.0450
    MIXING:  cpu time    0.0070: real time    0.0069
    OFIELD:  cpu time    0.0000: real time    0.0000

  FORCE on cell =-STRESS in cart. coord.  units (eV):
  Direction    XX          YY          ZZ          XY          YZ          ZX
  --------------------------------------------------------------------------------------
  Alpha Z   595.46573   595.46573   595.46573
  Ewald   39465.49448 39465.49448-45799.07810     0.00000    -0.00000     0.00000
  Hartree 42765.44601 42765.44601-41241.51308    -0.00000    -0.00000    -0.00000
  E(xc)    -722.66430  -722.66430  -722.20406    -0.00000    -0.00000     0.00000
  Local  -84441.20373-84441.20373 84838.73396    -0.00000    -0.00000     0.00000
  n-local  -610.73235  -583.58300  -599.12330    -1.98685    -0.00003     0.00004
  augment   144.97226   144.97226   143.95136     0.00000     0.00000     0.00000
  Kinetic  2756.59826  2811.49050  2780.38265   -11.51976     0.00006    -0.00009
  Fock        0.00000     0.00000     0.00000     0.00000     0.00000     0.00000
  -------------------------------------------------------------------------------------
  Total      -5.60285    -5.60285    -3.38485     0.00000     0.00000     0.00000
  in kB     -19.36309   -19.36309   -11.69782     0.00000     0.00000     0.00000
  external pressure =      -16.81 kB  Pullay stress =        0.00 kB


 VOLUME and BASIS-vectors are now :
 -----------------------------------------------------------------------------
  energy-cutoff  :      500.00
  volume of cell :      463.60
      direct lattice vectors                 reciprocal lattice vectors
     3.946846342  0.000000000  0.000000000     0.253366844  0.000000000  0.000000000
     0.000000000  3.946846342  0.000000000     0.000000000  0.253366844  0.000000000
     0.000000000  0.000000000 29.760808537     0.000000000  0.000000000  0.033601238

  length of vectors
     3.946846342  3.946846342 29.760808537     0.253366844  0.253366844  0.033601238


 FORCES acting on ions
    electron-ion (+dipol)            ewald-force                    non-local-force                 convergence-correction
 -----------------------------------------------------------------------------------------------
   0.181E-12 0.187E-12 0.170E+04   0.443E-14 -.641E-14 -.171E+04   0.106E-21 0.000E+00 0.792E+01   -.144E-13 0.344E-14 0.219E-02
   0.162E-12 -.224E-12 0.132E+04   -.137E-13 0.866E-15 -.132E+04   -.212E-21 0.371E-21 -.258E+00   -.544E-14 0.325E-13 0.650E-03
   -.530E-14 -.202E-12 0.132E+04   0.835E-14 -.684E-14 -.132E+04   0.000E+00 0.000E+00 -.258E+00   -.215E-13 0.279E-13 0.650E-03
   0.172E-12 0.538E-12 0.939E+03   0.349E-14 -.882E-14 -.939E+03   0.000E+00 0.000E+00 0.651E+00   -.173E-13 0.264E-14 -.304E-03
   0.156E-12 -.450E-13 0.563E+03   -.129E-13 0.510E-14 -.564E+03   0.000E+00 0.000E+00 0.214E+00   0.913E-14 -.172E-13 0.149E-03
   -.119E-13 0.323E-12 0.563E+03   0.571E-14 -.722E-14 -.564E+03   0.000E+00 0.424E-21 0.214E+00   -.936E-14 -.652E-15 0.149E-03
   0.158E-12 0.167E-12 0.188E+03   0.289E-14 -.749E-14 -.188E+03   0.000E+00 -.212E-21 0.396E+00   0.646E-14 0.492E-14 0.583E-03
   0.164E-12 0.504E-13 -.188E+03   -.129E-13 0.159E-14 0.188E+03   0.000E+00 0.000E+00 0.231E+00   0.172E-14 -.108E-14 -.161E-03
   -.588E-14 0.265E-12 -.188E+03   0.736E-14 -.661E-14 0.188E+03   0.000E+00 0.000E+00 0.231E+00   -.619E-14 -.327E-14 -.161E-03
   0.155E-12 0.153E-12 -.564E+03   0.178E-14 -.769E-14 0.564E+03   0.000E+00 0.000E+00 0.512E+00   0.110E-13 0.203E-13 -.917E-04
   0.174E-12 0.990E-13 -.939E+03   -.143E-13 0.105E-14 0.939E+03   0.000E+00 -.106E-20 0.411E-01   0.207E-13 -.890E-14 -.128E-02
   -.925E-14 0.709E-12 -.939E+03   0.314E-14 -.517E-14 0.939E+03   0.000E+00 -.212E-21 0.411E-01   0.134E-13 0.417E-14 -.128E-02
   0.155E-12 -.864E-13 -.132E+04   0.254E-14 -.657E-14 0.131E+04   0.000E+00 0.000E+00 0.258E+01   0.176E-13 -.200E-13 -.235E-02
   0.191E-12 0.230E-12 -.167E+04   -.814E-14 0.618E-15 0.167E+04   0.000E+00 0.000E+00 -.218E+01   0.129E-13 -.718E-14 0.325E-03
   -.111E-13 0.634E-12 -.167E+04   0.557E-14 -.226E-14 0.167E+04   0.000E+00 0.318E-21 -.218E+01   0.755E-14 0.214E-14 0.325E-03
   0.179E-14 0.158E-12 0.277E+04   -.480E-14 0.773E-14 -.276E+04   0.212E-21 0.000E+00 -.497E+01   -.229E-13 0.169E-13 0.425E-02
   -.516E-14 -.162E-12 0.157E+04   -.355E-14 0.100E-13 -.157E+04   0.000E+00 0.635E-21 0.155E-01   -.222E-13 0.149E-13 0.411E-04
   -.398E-14 -.366E-13 0.313E+03   0.789E-15 0.101E-13 -.313E+03   -.212E-21 -.847E-21 0.146E+00   -.611E-14 0.248E-13 0.357E-03
   -.117E-14 -.718E-14 -.939E+03   0.644E-14 0.831E-14 0.939E+03   0.000E+00 -.847E-21 0.106E+00   -.940E-14 0.265E-13 -.985E-03
   0.470E-14 -.717E-15 -.219E+04   -.212E-14 0.894E-14 0.219E+04   0.000E+00 0.424E-21 -.785E+00   0.562E-14 -.451E-14 -.272E-02
   -.105E-14 0.362E-13 0.877E+03   -.126E-14 -.152E-14 -.877E+03   0.000E+00 0.662E-23 -.341E+00   0.329E-14 -.110E-13 0.475E-03
   0.592E-14 0.982E-13 0.375E+03   0.110E-14 -.416E-14 -.376E+03   0.000E+00 0.000E+00 -.845E-01   0.170E-14 0.205E-14 0.209E-04
   0.369E-14 -.203E-13 -.125E+03   -.289E-14 -.219E-14 0.125E+03   0.000E+00 0.000E+00 -.813E-01   0.165E-14 0.224E-14 -.105E-03
   0.692E-14 -.621E-13 -.626E+03   -.181E-14 -.182E-14 0.626E+03   -.132E-22 0.000E+00 -.819E-02   -.391E-14 0.415E-14 -.730E-03
   -.341E-14 -.135E-12 -.114E+04   -.206E-14 -.291E-14 0.113E+04   0.000E+00 0.132E-22 0.134E+01   -.436E-14 0.477E-14 0.199E-03
 -----------------------------------------------------------------------------------------------
   0.163E-11 0.267E-11 -.349E+01   -.268E-13 -.233E-13 0.227E-12   -.119E-21 -.986E-21 0.349E+01   -.303E-13 0.121E-12 0.198E-03
 
 
 POSITION                                       TOTAL-FORCE (eV/Angst)
 -----------------------------------------------------------------------------------
      1.97342      1.97342      6.00000        -0.000000      0.000000     -0.680265
      1.97342      0.00000      7.97342         0.000000     -0.000000     -0.010461
      0.00000      1.97342      7.97342        -0.000000     -0.000000     -0.010461
      1.97342      1.97342      9.94685        -0.000000     -0.000000      0.360377
      1.97342      0.00000     11.92027        -0.000000     -0.000000      0.068182
      0.00000      1.97342     11.92027        -0.000000     -0.000000      0.068182
      1.97342      1.97342     13.89369        -0.000000     -0.000000      0.241529
      1.97342      0.00000     15.86712        -0.000000     -0.000000      0.069382
      0.00000      1.97342     15.86712        -0.000000     -0.000000      0.069382
      1.97342      1.97342     17.84054        -0.000000     -0.000000      0.284068
      1.97342      0.00000     19.81396        -0.000000     -0.000000      0.021354
      0.00000      1.97342     19.81396        -0.000000      0.000000      0.021354
      1.97342      1.97342     21.78739         0.000000     -0.000000      0.992886
      1.97342      0.00000     23.76081        -0.000000     -0.000000      0.379192
      0.00000      1.97342     23.76081        -0.000000      0.000000      0.379192
      0.00000      0.00000      6.00000        -0.000000     -0.000000      1.351790
      0.00000      0.00000      9.94685        -0.000000     -0.000000     -0.004921
      0.00000      0.00000     13.89369        -0.000000     -0.000000     -0.085749
      0.00000      0.00000     17.84054        -0.000000     -0.000000     -0.059439
      0.00000      0.00000     21.78739        -0.000000     -0.000000      0.637480
      1.97342      1.97342      7.97342        -0.000000     -0.000000     -0.978790
      1.97342      1.97342     11.92027        -0.000000     -0.000000     -0.294347
      1.97342      1.97342     15.86712        -0.000000     -0.000000     -0.289651
      1.97342      1.97342     19.81396        -0.000000     -0.000000     -0.355001
      1.97342      1.97342     23.76081        -0.000000     -0.000000     -2.175266
 -----------------------------------------------------------------------------------
    total drift:                                0.000000      0.000000      0.003523


--------------------------------------------------------------------------------------------------------



  FREE ENERGIE OF THE ION-ELECTRON SYSTEM (eV)
  ---------------------------------------------------
  free  energy   TOTEN  =      -196.39162097 eV

  energy  without entropy=     -196.39162097  energy(sigma->0) =     -196.39162097
 


--------------------------------------------------------------------------------------------------------


    POTLOK:  cpu time    0.1240: real time    0.1246


--------------------------------------------------------------------------------------------------------


     LOOP+:  cpu time  223.1391: real time  223.3258
    4ORBIT:  cpu time    0.0000: real time    0.0000
 BZINTS: Fermi energy:  0.752732;160.000000 electrons
         Band energy:***********;  BLOECHL correction:  0.000000

 total amount of memory used by VASP MPI-rank0   126810. kBytes
=======================================================================

   base      :      30000. kBytes
   nonl-proj :      27829. kBytes
   fftplans  :       7996. kBytes
   grid      :      14381. kBytes
   one-center:        202. kBytes
   wavefun   :      46402. kBytes
 
  
  
 General timing and accounting informations for this job:
 ========================================================
  
                  Total CPU time used (sec):      226.125
                            User time (sec):      223.335
                          System time (sec):        2.790
                         Elapsed time (sec):      227.026
  
                   Maximum memory used (kb):      141352.
                   Average memory used (kb):           0.
  
                          Minor page faults:        40564
                          Major page faults:          210
                 Voluntary context switches:         3624
