Starting job 28500494 ("jobname") on c15-35 at Mon Nov 4 15:06:24 CET 2019
 running on    4 total cores
 distrk:  each k-point on    4 cores,    1 groups
 distr:  one band on    2 cores,    2 groups
 using from now: INCAR     
 vasp.5.4.4.18Apr17-6-g9f103f2a35 (build Jun 30 2017 11:15:00) complex          
  
 POSCAR found type information on POSCAR  O  Sr Ti
 POSCAR found :  3 types and      25 ions
 scaLAPACK will be used

 ----------------------------------------------------------------------------- 
|                                                                             |
|  ADVICE TO THIS USER RUNNING 'VASP/VAMP'   (HEAR YOUR MASTER'S VOICE ...):  |
|                                                                             |
|      You have a (more or less) 'large supercell' and for larger cells       |
|      it might be more efficient to use real space projection operators      |
|      So try LREAL= Auto  in the INCAR   file.                               |
|      Mind: If you want to do a very accurate calculations keep the          |
|      reciprocal projection scheme          (i.e. LREAL=.FALSE.)             |
|                                                                             |
 ----------------------------------------------------------------------------- 

 LDA part: xc-table for Pade appr. of Perdew
 POSCAR, INCAR and KPOINTS ok, starting setup
 FFT: planning ...
 WAVECAR not read
 entering main loop
       N       E                     dE             d eps       ncg     rms          rms(c)
DAV:   1     0.198952615801E+04    0.19895E+04   -0.69850E+04  1952   0.151E+03
DAV:   2     0.228481308651E+03   -0.17610E+04   -0.16703E+04  2200   0.396E+02
DAV:   3    -0.216748183049E+03   -0.44523E+03   -0.43147E+03  2592   0.192E+02
DAV:   4    -0.251007965352E+03   -0.34260E+02   -0.34159E+02  2512   0.596E+01
DAV:   5    -0.252709635440E+03   -0.17017E+01   -0.17007E+01  3280   0.126E+01    0.413E+01
RMM:   6    -0.202248644057E+03    0.50461E+02   -0.35528E+02  2119   0.496E+01    0.160E+01
RMM:   7    -0.197617083068E+03    0.46316E+01   -0.16299E+01  2292   0.136E+01    0.807E+00
RMM:   8    -0.196756758796E+03    0.86032E+00   -0.37183E+00  2590   0.589E+00    0.407E+00
RMM:   9    -0.196493477703E+03    0.26328E+00   -0.18956E+00  2528   0.448E+00    0.117E+00
RMM:  10    -0.196439341739E+03    0.54136E-01   -0.28724E-01  2999   0.140E+00    0.836E-01
RMM:  11    -0.196411778706E+03    0.27563E-01   -0.19454E-01  2876   0.100E+00    0.397E-01
RMM:  12    -0.196402752459E+03    0.90262E-02   -0.65797E-02  2962   0.625E-01    0.353E-01
RMM:  13    -0.196395278791E+03    0.74737E-02   -0.23111E-02  3377   0.320E-01    0.220E-01
RMM:  14    -0.196389013304E+03    0.62655E-02   -0.22314E-02  2859   0.347E-01    0.127E-01
RMM:  15    -0.196387419018E+03    0.15943E-02   -0.71966E-03  3155   0.181E-01    0.815E-02
RMM:  16    -0.196387966313E+03   -0.54729E-03   -0.54648E-03  2988   0.153E-01    0.819E-02
RMM:  17    -0.196388592689E+03   -0.62638E-03   -0.26019E-03  2866   0.116E-01    0.477E-02
RMM:  18    -0.196388932429E+03   -0.33974E-03   -0.93462E-04  2819   0.648E-02    0.194E-02
RMM:  19    -0.196390516027E+03   -0.15836E-02   -0.56633E-04  2684   0.400E-02    0.133E-02
RMM:  20    -0.196391231339E+03   -0.71531E-03   -0.28895E-04  2426   0.295E-02    0.105E-02
RMM:  21    -0.196391458149E+03   -0.22681E-03   -0.12449E-04  2335   0.247E-02    0.869E-03
RMM:  22    -0.196391583446E+03   -0.12530E-03   -0.56705E-05  1910   0.156E-02    0.226E-03
RMM:  23    -0.196391611224E+03   -0.27778E-04   -0.19233E-05  1588   0.100E-02    0.148E-03
RMM:  24    -0.196391620972E+03   -0.97473E-05   -0.13397E-05  1466   0.911E-03
   1 F= -.19639162E+03 E0= -.19639162E+03  d E =0.000000E+00

Currently Loaded Modulefiles:
  1) intel/2017.4         2) perf-reports/7.0.6

Job script resource usage:
       JobID  MaxVMSize     MaxRSS 
------------ ---------- ---------- 
28500494.ba+    499232K      5728K 

Job step resource usage:
       JobID    JobName  AllocCPUS  MaxVMSize     MaxRSS    Elapsed ExitCode 
------------ ---------- ---------- ---------- ---------- ---------- -------- 
28500494        jobname          4                         00:03:50      0:0 
28500494.0    pmi_proxy          1   1708140K    504016K   00:03:48      0:0 

Job 28500494 ("jobname") completed on c15-35 at Mon Nov 4 15:10:12 CET 2019
