unknown system                          
           1
     3.946846    0.000000    0.000000
     0.000000    3.946846    0.000000
     0.000000    0.000000   29.760809
   O    Sr   Ti
  15   5   5
Direct configuration=     1
   0.50000000  0.50000000  0.20160743
   0.50000000  0.00000000  0.26791689
   0.00000000  0.50000000  0.26791689
   0.50000000  0.50000000  0.33422635
   0.50000000  0.00000000  0.40053581
   0.00000000  0.50000000  0.40053581
   0.50000000  0.50000000  0.46684527
   0.50000000  0.00000000  0.53315473
   0.00000000  0.50000000  0.53315473
   0.50000000  0.50000000  0.59946419
   0.50000000  0.00000000  0.66577365
   0.00000000  0.50000000  0.66577365
   0.50000000  0.50000000  0.73208311
   0.50000000  0.00000000  0.79839257
   0.00000000  0.50000000  0.79839257
   0.00000000  0.00000000  0.20160743
   0.00000000  0.00000000  0.33422635
   0.00000000  0.00000000  0.46684527
   0.00000000  0.00000000  0.59946419
   0.00000000  0.00000000  0.73208311
   0.50000000  0.50000000  0.26791689
   0.50000000  0.50000000  0.40053581
   0.50000000  0.50000000  0.53315473
   0.50000000  0.50000000  0.66577365
   0.50000000  0.50000000  0.79839257
