unknown system                          
   4.00000000000000     
     0.994396    0.000000    0.000000
     0.000000    0.994396    0.000000
     0.000000    0.000000    0.994396
   Pt
     4
Direct
  0.000000  0.000000  0.000000
  0.000000  0.500000  0.500000
  0.500000  0.000000  0.500000
  0.500000  0.500000  0.000000
 
   48   48   48
  240.76      236.28      223.98      206.71      187.72      169.29      151.97      134.93      117.02      97.824    
  78.175      59.801      44.433      32.970      25.152      19.829      16.049      13.414      11.571      10.264    
  9.3335      8.6848      8.2612      8.0239      7.9478      8.0239      8.2612      8.6848      9.3335      10.264    
  11.571      13.414      16.049      19.829      25.152      32.970      44.433      59.801      78.175      97.824    
  117.02      134.93      151.97      169.29      187.72      206.71      223.98      236.28      236.28      231.95    
  220.05      203.32      184.90      166.92      149.92      133.10      115.37      96.384      76.997      58.923    
  43.847      32.624      24.968      19.734      16.014      13.418      11.600      10.311      9.3915      8.7510    
  8.3330      8.0990      8.0239      8.0990      8.3330      8.7510      9.3915      10.311      11.600      13.418    
  16.014      19.734      24.968      32.624      43.847      58.923      76.997      96.384      115.37      133.10    
  149.92      166.92      184.90      203.32      220.05      231.95      223.98      220.05      209.24      193.98    
  177.03      160.27      144.12      127.87      110.64      92.236      73.608      56.404      42.174      31.641    
  24.447      19.469      15.921      13.441      11.699      10.459      9.5743      8.9583      8.5571      8.3330    
  8.2612      8.3330      8.5571      8.9583      9.5743      10.459      11.699      13.441      15.921      19.469    
  24.447      31.641      42.174      56.404      73.608      92.236      110.64      127.87      144.12      160.27    
  177.03      193.98      209.24      220.05      206.71      203.32      193.98      180.69      165.68      150.47    
  135.39      119.88      103.34      85.849      68.415      52.574      39.654      30.174      23.672      19.086    
  15.811      13.513      11.891      10.733      9.9058      9.3311      8.9583      8.7510      8.6848      8.7510    
  8.9583      9.3311      9.9058      10.733      11.891      13.513      15.811      19.086      23.672      30.174    
  39.654      52.574      68.415      85.849      103.34      119.88      135.39      150.47      165.68      180.69    
  193.98      203.32      187.72      184.90      177.03      165.68      152.56      138.80      124.69      109.91    
  94.188      77.870      61.990      47.896      36.622      28.433      22.756      18.662      15.737      13.677    
  12.216      11.168      10.422      9.9058      9.5743      9.3915      9.3335      9.3915      9.5743      9.9058    
  10.422      11.168      12.216      13.677      15.737      18.662      22.756      28.433      36.622      47.896    
  61.990      77.870      94.188      109.91      124.69      138.80      152.56      165.68      177.03      184.90    
  169.29      166.92      160.27      150.47      138.80      126.13      112.76      98.660      83.891      68.995    
  54.964      42.880      33.436      26.635      21.814      18.284      15.764      13.982      12.715      11.809    
  11.168      10.733      10.459      10.311      10.264      10.311      10.459      10.733      11.168      11.809    
  12.715      13.982      15.764      18.284      21.814      26.635      33.436      42.880      54.964      68.995    
  83.891      98.660      112.76      126.13      138.80      150.47      160.27      166.92      151.97      149.92    
  144.12      135.39      124.69      112.76      100.02      86.672      73.082      59.884      47.932      37.991    
  30.410      24.955      20.961      18.035      15.953      14.483      13.445      12.715      12.216      11.891    
  11.699      11.600      11.571      11.600      11.699      11.891      12.216      12.715      13.445      14.483    
  15.953      18.035      20.961      24.955      30.410      37.991      47.932      59.884      73.082      86.672    
  100.02      112.76      124.69      135.39      144.12      149.92      134.93      133.10      127.87      119.88    
  109.91      98.660      86.672      74.392      62.331      51.116      41.389      33.589      27.757      23.492    
  20.300      17.992      16.369      15.247      14.483      13.982      13.677      13.513      13.441      13.418    
  13.414      13.418      13.441      13.513      13.677      13.982      14.483      15.247      16.369      17.992    
  20.300      23.492      27.757      33.589      41.389      51.116      62.331      74.392      86.672      98.660    
  109.91      119.88      127.87      133.10      117.02      115.37      110.64      103.34      94.188      83.891    
  73.082      62.331      52.190      43.178      35.694      29.886      25.570      22.315      19.914      18.227    
  17.092      16.369      15.953      15.764      15.737      15.811      15.921      16.014      16.049      16.014    
  15.921      15.811      15.737      15.764      15.953      16.369      17.092      18.227      19.914      22.315    
  25.570      29.886      35.694      43.178      52.190      62.331      73.082      83.891      94.188      103.34    
  110.64      115.37      97.824      96.384      92.236      85.849      77.870      68.995      59.884      51.116    
  43.178      36.427      31.036      26.936      23.829      21.502      19.872      18.820      18.227      17.992    
  18.035      18.284      18.662      19.086      19.469      19.734      19.829      19.734      19.469      19.086    
  18.662      18.284      18.035      17.992      18.227      18.820      19.872      21.502      23.829      26.936    
  31.036      36.427      43.178      51.116      59.884      68.995      77.870      85.849      92.236      96.384    
  78.175      76.997      73.608      68.415      61.990      54.964      47.932      41.389      35.694      31.036    
  27.414      24.640      22.552      21.110      20.245      19.872      19.914      20.300      20.961      21.814    
  22.756      23.672      24.447      24.968      25.152      24.968      24.447      23.672      22.756      21.814    
  20.961      20.300      19.914      19.872      20.245      21.110      22.552      24.640      27.414      31.036    
  35.694      41.389      47.932      54.964      61.990      68.415      73.608      76.997      59.801      58.923    
  56.404      52.574      47.896      42.880      37.991      33.589      29.886      26.936      24.640      22.919    
  21.777      21.187      21.110      21.502      22.315      23.492      24.955      26.635      28.433      30.174    
  31.641      32.624      32.970      32.624      31.641      30.174      28.433      26.635      24.955      23.492    
  22.315      21.502      21.110      21.187      21.777      22.919      24.640      26.936      29.886      33.589    
  37.991      42.880      47.896      52.574      56.404      58.923      44.433      43.847      42.174      39.654    
  36.622      33.436      30.410      27.757      25.570      23.829      22.552      21.777      21.517      21.777    
  22.552      23.829      25.570      27.757      30.410      33.436      36.622      39.654      42.174      43.847    
  44.433      43.847      42.174      39.654      36.622      33.436      30.410      27.757      25.570      23.829    
  22.552      21.777      21.517      21.777      22.552      23.829      25.570      27.757      30.410      33.436    
  36.622      39.654      42.174      43.847      32.970      32.624      31.641      30.174      28.433      26.635    
  24.955      23.492      22.315      21.502      21.110      21.187      21.777      22.919      24.640      26.936    
  29.886      33.589      37.991      42.880      47.896      52.574      56.404      58.923      59.801      58.923    
  56.404      52.574      47.896      42.880      37.991      33.589      29.886      26.936      24.640      22.919    
  21.777      21.187      21.110      21.502      22.315      23.492      24.955      26.635      28.433      30.174    
  31.641      32.624      25.152      24.968      24.447      23.672      22.756      21.814      20.961      20.300    
  19.914      19.872      20.245      21.110      22.552      24.640      27.414      31.036      35.694      41.389    
  47.932      54.964      61.990      68.415      73.608      76.997      78.175      76.997      73.608      68.415    
  61.990      54.964      47.932      41.389      35.694      31.036      27.414      24.640      22.552      21.110    
  20.245      19.872      19.914      20.300      20.961      21.814      22.756      23.672      24.447      24.968    
  19.829      19.734      19.469      19.086      18.662      18.284      18.035      17.992      18.227      18.820    
  19.872      21.502      23.829      26.936      31.036      36.427      43.178      51.116      59.884      68.995    
  77.870      85.849      92.236      96.384      97.824      96.384      92.236      85.849      77.870      68.995    
  59.884      51.116      43.178      36.427      31.036      26.936      23.829      21.502      19.872      18.820    
  18.227      17.992      18.035      18.284      18.662      19.086      19.469      19.734      16.049      16.014    
  15.921      15.811      15.737      15.764      15.953      16.369      17.092      18.227      19.914      22.315    
  25.570      29.886      35.694      43.178      52.190      62.331      73.082      83.891      94.188      103.34    
  110.64      115.37      117.02      115.37      110.64      103.34      94.188      83.891      73.082      62.331    
  52.190      43.178      35.694      29.886      25.570      22.315      19.914      18.227      17.092      16.369    
  15.953      15.764      15.737      15.811      15.921      16.014      13.414      13.418      13.441      13.513    
  13.677      13.982      14.483      15.247      16.369      17.992      20.300      23.492      27.757      33.589    
  41.389      51.116      62.331      74.392      86.672      98.660      109.91      119.88      127.87      133.10    
  134.93      133.10      127.87      119.88      109.91      98.660      86.672      74.392      62.331      51.116    
  41.389      33.589      27.757      23.492      20.300      17.992      16.369      15.247      14.483      13.982    
  13.677      13.513      13.441      13.418      11.571      11.600      11.699      11.891      12.216      12.715    
  13.445      14.483      15.953      18.035      20.961      24.955      30.410      37.991      47.932      59.884    
  73.082      86.672      100.02      112.76      124.69      135.39      144.12      149.92      151.97      149.92    
  144.12      135.39      124.69      112.76      100.02      86.672      73.082      59.884      47.932      37.991    
  30.410      24.955      20.961      18.035      15.953      14.483      13.445      12.715      12.216      11.891    
  11.699      11.600      10.264      10.311      10.459      10.733      11.168      11.809      12.715      13.982    
  15.764      18.284      21.814      26.635      33.436      42.880      54.964      68.995      83.891      98.660    
  112.76      126.13      138.80      150.47      160.27      166.92      169.29      166.92      160.27      150.47    
  138.80      126.13      112.76      98.660      83.891      68.995      54.964      42.880      33.436      26.635    
  21.814      18.284      15.764      13.982      12.715      11.809      11.168      10.733      10.459      10.311    
  9.3335      9.3915      9.5743      9.9058      10.422      11.168      12.216      13.677      15.737      18.662    
  22.756      28.433      36.622      47.896      61.990      77.870      94.188      109.91      124.69      138.80    
  152.56      165.68      177.03      184.90      187.72      184.90      177.03      165.68      152.56      138.80    
  124.69      109.91      94.188      77.870      61.990      47.896      36.622      28.433      22.756      18.662    
  15.737      13.677      12.216      11.168      10.422      9.9058      9.5743      9.3915      8.6848      8.7510    
  8.9583      9.3311      9.9058      10.733      11.891      13.513      15.811      19.086      23.672      30.174    
  39.654      52.574      68.415      85.849      103.34      119.88      135.39      150.47      165.68      180.69    
  193.98      203.32      206.71      203.32      193.98      180.69      165.68      150.47      135.39      119.88    
  103.34      85.849      68.415      52.574      39.654      30.174      23.672      19.086      15.811      13.513    
  11.891      10.733      9.9058      9.3311      8.9583      8.7510      8.2612      8.3330      8.5571      8.9583    
  9.5743      10.459      11.699      13.441      15.921      19.469      24.447      31.641      42.174      56.404    
  73.608      92.236      110.64      127.87      144.12      160.27      177.03      193.98      209.24      220.05    
  223.98      220.05      209.24      193.98      177.03      160.27      144.12      127.87      110.64      92.236    
  73.608      56.404      42.174      31.641      24.447      19.469      15.921      13.441      11.699      10.459    
  9.5743      8.9583      8.5571      8.3330      8.0239      8.0990      8.3330      8.7510      9.3915      10.311    
  11.600      13.418      16.014      19.734      24.968      32.624      43.847      58.923      76.997      96.384    
  115.37      133.10      149.92      166.92      184.90      203.32      220.05      231.95      236.28      231.95    
  220.05      203.32      184.90      166.92      149.92      133.10      115.37      96.384      76.997      58.923    
  43.847      32.624      24.968      19.734      16.014      13.418      11.600      10.311      9.3915      8.7510    
  8.3330      8.0990      7.9478      8.0239      8.2612      8.6848      9.3335      10.264      11.571      13.414    
  16.049      19.829      25.152      32.970      44.433      59.801      78.175      97.824      117.02      134.93    
  151.97      169.29      187.72      206.71      223.98      236.28      240.76      236.28      223.98      206.71    
  187.72      169.29      151.97      134.93      117.02      97.824      78.175      59.801      44.433      32.970    
  25.152      19.829      16.049      13.414      11.571      10.264      9.3335      8.6848      8.2612      8.0239    
  8.0239      8.0990      8.3330      8.7510      9.3915      10.311      11.600      13.418      16.014      19.734    
  24.968      32.624      43.847      58.923      76.997      96.384      115.37      133.10      149.92      166.92    
  184.90      203.32      220.05      231.95      236.28      231.95      220.05      203.32      184.90      166.92    
  149.92      133.10      115.37      96.384      76.997      58.923      43.847      32.624      24.968      19.734    
  16.014      13.418      11.600      10.311      9.3915      8.7510      8.3330      8.0990      8.2612      8.3330    
  8.5571      8.9583      9.5743      10.459      11.699      13.441      15.921      19.469      24.447      31.641    
  42.174      56.404      73.608      92.236      110.64      127.87      144.12      160.27      177.03      193.98    
  209.24      220.05      223.98      220.05      209.24      193.98      177.03      160.27      144.12      127.87    
  110.64      92.236      73.608      56.404      42.174      31.641      24.447      19.469      15.921      13.441    
  11.699      10.459      9.5743      8.9583      8.5571      8.3330      8.6848      8.7510      8.9583      9.3311    
  9.9058      10.733      11.891      13.513      15.811      19.086      23.672      30.174      39.654      52.574    
  68.415      85.849      103.34      119.88      135.39      150.47      165.68      180.69      193.98      203.32    
  206.71      203.32      193.98      180.69      165.68      150.47      135.39      119.88      103.34      85.849    
  68.415      52.574      39.654      30.174      23.672      19.086      15.811      13.513      11.891      10.733    
  9.9058      9.3311      8.9583      8.7510      9.3335      9.3915      9.5743      9.9058      10.422      11.168    
  12.216      13.677      15.737      18.662      22.756      28.433      36.622      47.896      61.990      77.870    
  94.188      109.91      124.69      138.80      152.56      165.68      177.03      184.90      187.72      184.90    
  177.03      165.68      152.56      138.80      124.69      109.91      94.188      77.870      61.990      47.896    
  36.622      28.433      22.756      18.662      15.737      13.677      12.216      11.168      10.422      9.9058    
  9.5743      9.3915      10.264      10.311      10.459      10.733      11.168      11.809      12.715      13.982    
  15.764      18.284      21.814      26.635      33.436      42.880      54.964      68.995      83.891      98.660    
  112.76      126.13      138.80      150.47      160.27      166.92      169.29      166.92      160.27      150.47    
  138.80      126.13      112.76      98.660      83.891      68.995      54.964      42.880      33.436      26.635    
  21.814      18.284      15.764      13.982      12.715      11.809      11.168      10.733      10.459      10.311    
  11.571      11.600      11.699      11.891      12.216      12.715      13.445      14.483      15.953      18.035    
  20.961      24.955      30.410      37.991      47.932      59.884      73.082      86.672      100.02      112.76    
  124.69      135.39      144.12      149.92      151.97      149.92      144.12      135.39      124.69      112.76    
  100.02      86.672      73.082      59.884      47.932      37.991      30.410      24.955      20.961      18.035    
  15.953      14.483      13.445      12.715      12.216      11.891      11.699      11.600      13.414      13.418    
  13.441      13.513      13.677      13.982      14.483      15.247      16.369      17.992      20.300      23.492    
  27.757      33.589      41.389      51.116      62.331      74.392      86.672      98.660      109.91      119.88    
  127.87      133.10      134.93      133.10      127.87      119.88      109.91      98.660      86.672      74.392    
  62.331      51.116      41.389      33.589      27.757      23.492      20.300      17.992      16.369      15.247    
  14.483      13.982      13.677      13.513      13.441      13.418      16.049      16.014      15.921      15.811    
  15.737      15.764      15.953      16.369      17.092      18.227      19.914      22.315      25.570      29.886    
  35.694      43.178      52.190      62.331      73.082      83.891      94.188      103.34      110.64      115.37    
  117.02      115.37      110.64      103.34      94.188      83.891      73.082      62.331      52.190      43.178    
  35.694      29.886      25.570      22.315      19.914      18.227      17.092      16.369      15.953      15.764    
  15.737      15.811      15.921      16.014      19.829      19.734      19.469      19.086      18.662      18.284    
  18.035      17.992      18.227      18.820      19.872      21.502      23.829      26.936      31.036      36.427    
  43.178      51.116      59.884      68.995      77.870      85.849      92.236      96.384      97.824      96.384    
  92.236      85.849      77.870      68.995      59.884      51.116      43.178      36.427      31.036      26.936    
  23.829      21.502      19.872      18.820      18.227      17.992      18.035      18.284      18.662      19.086    
  19.469      19.734      25.152      24.968      24.447      23.672      22.756      21.814      20.961      20.300    
  19.914      19.872      20.245      21.110      22.552      24.640      27.414      31.036      35.694      41.389    
  47.932      54.964      61.990      68.415      73.608      76.997      78.175      76.997      73.608      68.415    
  61.990      54.964      47.932      41.389      35.694      31.036      27.414      24.640      22.552      21.110    
  20.245      19.872      19.914      20.300      20.961      21.814      22.756      23.672      24.447      24.968    
  32.970      32.624      31.641      30.174      28.433      26.635      24.955      23.492      22.315      21.502    
  21.110      21.187      21.777      22.919      24.640      26.936      29.886      33.589      37.991      42.880    
  47.896      52.574      56.404      58.923      59.801      58.923      56.404      52.574      47.896      42.880    
  37.991      33.589      29.886      26.936      24.640      22.919      21.777      21.187      21.110      21.502    
  22.315      23.492      24.955      26.635      28.433      30.174      31.641      32.624      44.433      43.847    
  42.174      39.654      36.622      33.436      30.410      27.757      25.570      23.829      22.552      21.777    
  21.517      21.777      22.552      23.829      25.570      27.757      30.410      33.436      36.622      39.654    
  42.174      43.847      44.433      43.847      42.174      39.654      36.622      33.436      30.410      27.757    
  25.570      23.829      22.552      21.777      21.517      21.777      22.552      23.829      25.570      27.757    
  30.410      33.436      36.622      39.654      42.174      43.847      59.801      58.923      56.404      52.574    
  47.896      42.880      37.991      33.589      29.886      26.936      24.640      22.919      21.777      21.187    
  21.110      21.502      22.315      23.492      24.955      26.635      28.433      30.174      31.641      32.624    
  32.970      32.624      31.641      30.174      28.433      26.635      24.955      23.492      22.315      21.502    
  21.110      21.187      21.777      22.919      24.640      26.936      29.886      33.589      37.991      42.880    
  47.896      52.574      56.404      58.923      78.175      76.997      73.608      68.415      61.990      54.964    
  47.932      41.389      35.694      31.036      27.414      24.640      22.552      21.110      20.245      19.872    
  19.914      20.300      20.961      21.814      22.756      23.672      24.447      24.968      25.152      24.968    
  24.447      23.672      22.756      21.814      20.961      20.300      19.914      19.872      20.245      21.110    
  22.552      24.640      27.414      31.036      35.694      41.389      47.932      54.964      61.990      68.415    
  73.608      76.997      97.824      96.384      92.236      85.849      77.870      68.995      59.884      51.116    
  43.178      36.427      31.036      26.936      23.829      21.502      19.872      18.820      18.227      17.992    
  18.035      18.284      18.662      19.086      19.469      19.734      19.829      19.734      19.469      19.086    
  18.662      18.284      18.035      17.992      18.227      18.820      19.872      21.502      23.829      26.936    
  31.036      36.427      43.178      51.116      59.884      68.995      77.870      85.849      92.236      96.384    
  117.02      115.37      110.64      103.34      94.188      83.891      73.082      62.331      52.190      43.178    
  35.694      29.886      25.570      22.315      19.914      18.227      17.092      16.369      15.953      15.764    
  15.737      15.811      15.921      16.014      16.049      16.014      15.921      15.811      15.737      15.764    
  15.953      16.369      17.092      18.227      19.914      22.315      25.570      29.886      35.694      43.178    
  52.190      62.331      73.082      83.891      94.188      103.34      110.64      115.37      134.93      133.10    
  127.87      119.88      109.91      98.660      86.672      74.392      62.331      51.116      41.389      33.589    
  27.757      23.492      20.300      17.992      16.369      15.247      14.483      13.982      13.677      13.513    
  13.441      13.418      13.414      13.418      13.441      13.513      13.677      13.982      14.483      15.247    
  16.369      17.992      20.300      23.492      27.757      33.589      41.389      51.116      62.331      74.392    
  86.672      98.660      109.91      119.88      127.87      133.10      151.97      149.92      144.12      135.39    
  124.69      112.76      100.02      86.672      73.082      59.884      47.932      37.991      30.410      24.955    
  20.961      18.035      15.953      14.483      13.445      12.715      12.216      11.891      11.699      11.600    
  11.571      11.600      11.699      11.891      12.216      12.715      13.445      14.483      15.953      18.035    
  20.961      24.955      30.410      37.991      47.932      59.884      73.082      86.672      100.02      112.76    
  124.69      135.39      144.12      149.92      169.29      166.92      160.27      150.47      138.80      126.13    
  112.76      98.660      83.891      68.995      54.964      42.880      33.436      26.635      21.814      18.284    
  15.764      13.982      12.715      11.809      11.168      10.733      10.459      10.311      10.264      10.311    
  10.459      10.733      11.168      11.809      12.715      13.982      15.764      18.284      21.814      26.635    
  33.436      42.880      54.964      68.995      83.891      98.660      112.76      126.13      138.80      150.47    
  160.27      166.92      187.72      184.90      177.03      165.68      152.56      138.80      124.69      109.91    
  94.188      77.870      61.990      47.896      36.622      28.433      22.756      18.662      15.737      13.677    
  12.216      11.168      10.422      9.9058      9.5743      9.3915      9.3335      9.3915      9.5743      9.9058    
  10.422      11.168      12.216      13.677      15.737      18.662      22.756      28.433      36.622      47.896    
  61.990      77.870      94.188      109.91      124.69      138.80      152.56      165.68      177.03      184.90    
  206.71      203.32      193.98      180.69      165.68      150.47      135.39      119.88      103.34      85.849    
  68.415      52.574      39.654      30.174      23.672      19.086      15.811      13.513      11.891      10.733    
  9.9058      9.3311      8.9583      8.7510      8.6848      8.7510      8.9583      9.3311      9.9058      10.733    
  11.891      13.513      15.811      19.086      23.672      30.174      39.654      52.574      68.415      85.849    
  103.34      119.88      135.39      150.47      165.68      180.69      193.98      203.32      223.98      220.05    
  209.24      193.98      177.03      160.27      144.12      127.87      110.64      92.236      73.608      56.404    
  42.174      31.641      24.447      19.469      15.921      13.441      11.699      10.459      9.5743      8.9583    
  8.5571      8.3330      8.2612      8.3330      8.5571      8.9583      9.5743      10.459      11.699      13.441    
  15.921      19.469      24.447      31.641      42.174      56.404      73.608      92.236      110.64      127.87    
  144.12      160.27      177.03      193.98      209.24      220.05      236.28      231.95      220.05      203.32    
  184.90      166.92      149.92      133.10      115.37      96.384      76.997      58.923      43.847      32.624    
  24.968      19.734      16.014      13.418      11.600      10.311      9.3915      8.7510      8.3330      8.0990    
  8.0239      8.0990      8.3330      8.7510      9.3915      10.311      11.600      13.418      16.014      19.734    
  24.968      32.624      43.847      58.923      76.997      96.384      115.37      133.10      149.92      166.92    
  184.90      203.32      220.05      231.95      236.28      231.95      220.05      203.32      184.90      166.92    
  149.92      133.10      115.37      96.384      76.997      58.923      43.847      32.624      24.968      19.734    
  16.014      13.418      11.600      10.311      9.3915      8.7510      8.3330      8.0990      8.0239      8.0990    
  8.3330      8.7510      9.3915      10.311      11.600      13.418      16.014      19.734      24.968      32.624    
  43.847      58.923      76.997      96.384      115.37      133.10      149.92      166.92      184.90      203.32    
  220.05      231.95      231.95      227.76      216.25      200.04      182.14      164.60      147.91      131.31    
  113.75      94.966      75.839      58.060      43.272      32.285      24.787      19.640      15.979      13.421    
  11.629      10.356      9.4485      8.8161      8.4037      8.1729      8.0990      8.1729      8.4037      8.8161    
  9.4485      10.356      11.629      13.421      15.979      19.640      24.787      32.285      43.272      58.060    
  75.839      94.966      113.75      131.31      147.91      164.60      182.14      200.04      216.25      227.76    
  220.05      216.25      205.77      190.97      174.48      158.10      142.21      126.15      109.08      90.882    
  72.508      55.590      41.634      31.322      24.274      19.378      15.886      13.442      11.725      10.502    
  9.6282      9.0202      8.6246      8.4037      8.3330      8.4037      8.6246      9.0202      9.6282      10.502    
  11.725      13.442      15.886      19.378      24.274      31.322      41.634      55.590      72.508      90.882    
  109.08      126.15      142.21      158.10      174.48      190.97      205.77      216.25      203.32      200.04    