unknown system                          
   4.00000000000000     
     0.994396    0.000000    0.000000
     0.000000    0.994396    0.000000
     0.000000    0.000000    0.994396
   Pt
     4
Direct
  0.000000  0.000000  0.000000
  0.000000  0.500000  0.500000
  0.500000  0.000000  0.500000
  0.500000  0.500000  0.000000
 
   48   48   48
 0.24076332917E+03 0.23628311773E+03 0.22397729871E+03 0.20670600837E+03 0.18772306451E+03
 0.16928836660E+03 0.15196582113E+03 0.13493160947E+03 0.11702049703E+03 0.97823588008E+02
 0.78175414784E+02 0.59801493736E+02 0.44432853516E+02 0.32970223393E+02 0.25152458894E+02
 0.19828932912E+02 0.16049390745E+02 0.13413532062E+02 0.11570889133E+02 0.10264401953E+02
 0.93335032211E+01 0.86848048101E+01 0.82612401192E+01 0.80239479618E+01 0.79478354811E+01
 0.80239479618E+01 0.82612401192E+01 0.86848048101E+01 0.93335032211E+01 0.10264401953E+02
 0.11570889133E+02 0.13413532062E+02 0.16049390745E+02 0.19828932912E+02 0.25152458894E+02
 0.32970223393E+02 0.44432853516E+02 0.59801493736E+02 0.78175414784E+02 0.97823588008E+02
 0.11702049703E+03 0.13493160947E+03 0.15196582113E+03 0.16928836660E+03 0.18772306451E+03
 0.20670600837E+03 0.22397729871E+03 0.23628311773E+03 0.23628311773E+03 0.23195186162E+03
 0.22004955365E+03 0.20332443943E+03 0.18489599439E+03 0.16691993777E+03 0.14992125249E+03
 0.13310495232E+03 0.11537380109E+03 0.96383567539E+02 0.76996876381E+02 0.58922530187E+02
 0.43846599925E+02 0.32623998654E+02 0.24968196309E+02 0.19734189261E+02 0.16013926791E+02
 0.13417559426E+02 0.11600499616E+02 0.10310864391E+02 0.93915362044E+01 0.87509960542E+01
 0.83329982834E+01 0.80989789560E+01 0.80239479618E+01 0.80989789560E+01 0.83329982834E+01
 0.87509960542E+01 0.93915362044E+01 0.10310864391E+02 0.11600499616E+02 0.13417559426E+02
 0.16013926791E+02 0.19734189261E+02 0.24968196309E+02 0.32623998654E+02 0.43846599925E+02
 0.58922530187E+02 0.76996876381E+02 0.96383567539E+02 0.11537380109E+03 0.13310495232E+03
 0.14992125249E+03 0.16691993777E+03 0.18489599439E+03 0.20332443943E+03 0.22004955365E+03
 0.23195186162E+03 0.22397729871E+03 0.22004955365E+03 0.20923791285E+03 0.19398220140E+03
 0.17703429218E+03 0.16026990866E+03 0.14411772080E+03 0.12787361540E+03 0.11063500273E+03
 0.92235713102E+02 0.73608297642E+02 0.56404008081E+02 0.42174216857E+02 0.31641003602E+02
 0.24446539561E+02 0.19468856557E+02 0.15921460157E+02 0.13440536070E+02 0.11698702749E+02
 0.10459034300E+02 0.95743043450E+01 0.89583105759E+01 0.85571201617E+01 0.83329982834E+01
 0.82612401192E+01 0.83329982834E+01 0.85571201617E+01 0.89583105759E+01 0.95743043450E+01
 0.10459034300E+02 0.11698702749E+02 0.13440536070E+02 0.15921460157E+02 0.19468856557E+02
 0.24446539561E+02 0.31641003602E+02 0.42174216857E+02 0.56404008081E+02 0.73608297642E+02
 0.92235713102E+02 0.11063500273E+03 0.12787361540E+03 0.14411772080E+03 0.16026990866E+03
 0.17703429218E+03 0.19398220140E+03 0.20923791285E+03 0.22004955365E+03 0.20670600837E+03
 0.20332443943E+03 0.19398220140E+03 0.18068666592E+03 0.16568240042E+03 0.15047388741E+03
 0.13538715579E+03 0.11987862189E+03 0.10333872493E+03 0.85848686265E+02 0.68415168246E+02
 0.52573577818E+02 0.39654167946E+02 0.30173806183E+02 0.23671655134E+02 0.19085901527E+02
 0.15810759794E+02 0.13512632246E+02 0.11891380718E+02 0.10733179067E+02 0.99058313811E+01
 0.93310654095E+01 0.89583105759E+01 0.87509960542E+01 0.86848048101E+01 0.87509960542E+01
 0.89583105759E+01 0.93310654095E+01 0.99058313811E+01 0.10733179067E+02 0.11891380718E+02
 0.13512632246E+02 0.15810759794E+02 0.19085901527E+02 0.23671655134E+02 0.30173806183E+02
 0.39654167946E+02 0.52573577818E+02 0.68415168246E+02 0.85848686265E+02 0.10333872493E+03
 0.11987862189E+03 0.13538715579E+03 0.15047388741E+03 0.16568240042E+03 0.18068666592E+03
 0.19398220140E+03 0.20332443943E+03 0.18772306451E+03 0.18489599439E+03 0.17703429218E+03
 0.16568240042E+03 0.15255639229E+03 0.13880127341E+03 0.12468992762E+03 0.10990699932E+03
 0.94188023837E+02 0.77869636760E+02 0.61990321628E+02 0.47895824823E+02 0.36621696047E+02
 0.28432938570E+02 0.22755970946E+02 0.18662044146E+02 0.15737367674E+02 0.13676854684E+02
 0.12215579218E+02 0.11168489371E+02 0.10421587135E+02 0.99058313811E+01 0.95743043450E+01
 0.93915362044E+01 0.93335032211E+01 0.93915362044E+01 0.95743043450E+01 0.99058313811E+01
 0.10421587135E+02 0.11168489371E+02 0.12215579218E+02 0.13676854684E+02 0.15737367674E+02
 0.18662044146E+02 0.22755970946E+02 0.28432938570E+02 0.36621696047E+02 0.47895824823E+02
 0.61990321628E+02 0.77869636760E+02 0.94188023837E+02 0.10990699932E+03 0.12468992762E+03
 0.13880127341E+03 0.15255639229E+03 0.16568240042E+03 0.17703429218E+03 0.18489599439E+03
 0.16928836660E+03 0.16691993777E+03 0.16026990866E+03 0.15047388741E+03 0.13880127341E+03
 0.12613118477E+03 0.11276497104E+03 0.98660327680E+02 0.83891183567E+02 0.68995445677E+02
 0.54964264858E+02 0.42879552342E+02 0.33435931291E+02 0.26635358006E+02 0.21813986485E+02
 0.18283817681E+02 0.15763697708E+02 0.13982372168E+02 0.12715387977E+02 0.11809128629E+02
 0.11168489371E+02 0.10733179067E+02 0.10459034300E+02 0.10310864391E+02 0.10264401953E+02
 0.10310864391E+02 0.10459034300E+02 0.10733179067E+02 0.11168489371E+02 0.11809128629E+02
 0.12715387977E+02 0.13982372168E+02 0.15763697708E+02 0.18283817681E+02 0.21813986485E+02
 0.26635358006E+02 0.33435931291E+02 0.42879552342E+02 0.54964264858E+02 0.68995445677E+02
 0.83891183567E+02 0.98660327680E+02 0.11276497104E+03 0.12613118477E+03 0.13880127341E+03
 0.15047388741E+03 0.16026990866E+03 0.16691993777E+03 0.15196582113E+03 0.14992125249E+03
 0.14411772080E+03 0.13538715579E+03 0.12468992762E+03 0.11276497104E+03 0.10001546609E+03
 0.86672231985E+02 0.73081798321E+02 0.59884088993E+02 0.47931805246E+02 0.37990873730E+02
 0.30409632437E+02 0.24955289594E+02 0.20961387481E+02 0.18035140866E+02 0.15952609459E+02
 0.14483256433E+02 0.13445143334E+02 0.12715387977E+02 0.12215579218E+02 0.11891380718E+02
 0.11698702749E+02 0.11600499616E+02 0.11570889133E+02 0.11600499616E+02 0.11698702749E+02
 0.11891380718E+02 0.12215579218E+02 0.12715387977E+02 0.13445143334E+02 0.14483256433E+02
 0.15952609459E+02 0.18035140866E+02 0.20961387481E+02 0.24955289594E+02 0.30409632437E+02
 0.37990873730E+02 0.47931805246E+02 0.59884088993E+02 0.73081798321E+02 0.86672231985E+02
 0.10001546609E+03 0.11276497104E+03 0.12468992762E+03 0.13538715579E+03 0.14411772080E+03
 0.14992125249E+03 0.13493160947E+03 0.13310495232E+03 0.12787361540E+03 0.11987862189E+03
 0.10990699932E+03 0.98660327680E+02 0.86672231985E+02 0.74392499937E+02 0.62331217679E+02
 0.51116270205E+02 0.41389091659E+02 0.33588650861E+02 0.27757398723E+02 0.23492261300E+02
 0.20300388255E+02 0.17991967684E+02 0.16369286054E+02 0.15246730242E+02 0.14483256433E+02
 0.13982372168E+02 0.13676854684E+02 0.13512632246E+02 0.13440536070E+02 0.13417559426E+02
 0.13413532062E+02 0.13417559426E+02 0.13440536070E+02 0.13512632246E+02 0.13676854684E+02
 0.13982372168E+02 0.14483256433E+02 0.15246730242E+02 0.16369286054E+02 0.17991967684E+02
 0.20300388255E+02 0.23492261300E+02 0.27757398723E+02 0.33588650861E+02 0.41389091659E+02
 0.51116270205E+02 0.62331217679E+02 0.74392499937E+02 0.86672231985E+02 0.98660327680E+02
 0.10990699932E+03 0.11987862189E+03 0.12787361540E+03 0.13310495232E+03 0.11702049703E+03
 0.11537380109E+03 0.11063500273E+03 0.10333872493E+03 0.94188023837E+02 0.83891183567E+02
 0.73081798321E+02 0.62331217679E+02 0.52189927336E+02 0.43177926873E+02 0.35693851144E+02
 0.29886198593E+02 0.25569749762E+02 0.22315009535E+02 0.19913777986E+02 0.18226742948E+02
 0.17092060803E+02 0.16369286054E+02 0.15952609459E+02 0.15763697708E+02 0.15737367674E+02
 0.15810759794E+02 0.15921460157E+02 0.16013926791E+02 0.16049390745E+02 0.16013926791E+02
 0.15921460157E+02 0.15810759794E+02 0.15737367674E+02 0.15763697708E+02 0.15952609459E+02
 0.16369286054E+02 0.17092060803E+02 0.18226742948E+02 0.19913777986E+02 0.22315009535E+02
 0.25569749762E+02 0.29886198593E+02 0.35693851144E+02 0.43177926873E+02 0.52189927336E+02
 0.62331217679E+02 0.73081798321E+02 0.83891183567E+02 0.94188023837E+02 0.10333872493E+03
 0.11063500273E+03 0.11537380109E+03 0.97823588008E+02 0.96383567539E+02 0.92235713102E+02
 0.85848686265E+02 0.77869636760E+02 0.68995445677E+02 0.59884088993E+02 0.51116270205E+02
 0.43177926873E+02 0.36426989211E+02 0.31035628690E+02 0.26936033650E+02 0.23828637262E+02
 0.21501720590E+02 0.19871908031E+02 0.18820078100E+02 0.18226742948E+02 0.17991967684E+02
 0.18035140866E+02 0.18283817681E+02 0.18662044146E+02 0.19085901527E+02 0.19468856557E+02
 0.19734189261E+02 0.19828932912E+02 0.19734189261E+02 0.19468856557E+02 0.19085901527E+02
 0.18662044146E+02 0.18283817681E+02 0.18035140866E+02 0.17991967684E+02 0.18226742948E+02
 0.18820078100E+02 0.19871908031E+02 0.21501720590E+02 0.23828637262E+02 0.26936033650E+02
 0.31035628690E+02 0.36426989211E+02 0.43177926873E+02 0.51116270205E+02 0.59884088993E+02
 0.68995445677E+02 0.77869636760E+02 0.85848686265E+02 0.92235713102E+02 0.96383567539E+02
 0.78175414784E+02 0.76996876381E+02 0.73608297642E+02 0.68415168246E+02 0.61990321628E+02
 0.54964264858E+02 0.47931805246E+02 0.41389091659E+02 0.35693851144E+02 0.31035628690E+02
 0.27413700647E+02 0.24640439949E+02 0.22551948951E+02 0.21110159479E+02 0.20244668151E+02
 0.19871908031E+02 0.19913777986E+02 0.20300388255E+02 0.20961387481E+02 0.21813986485E+02
 0.22755970946E+02 0.23671655134E+02 0.24446539561E+02 0.24968196309E+02 0.25152458894E+02
 0.24968196309E+02 0.24446539561E+02 0.23671655134E+02 0.22755970946E+02 0.21813986485E+02
 0.20961387481E+02 0.20300388255E+02 0.19913777986E+02 0.19871908031E+02 0.20244668151E+02
 0.21110159479E+02 0.22551948951E+02 0.24640439949E+02 0.27413700647E+02 0.31035628690E+02
 0.35693851144E+02 0.41389091659E+02 0.47931805246E+02 0.54964264858E+02 0.61990321628E+02
 0.68415168246E+02 0.73608297642E+02 0.76996876381E+02 0.59801493736E+02 0.58922530187E+02
 0.56404008081E+02 0.52573577818E+02 0.47895824823E+02 0.42879552342E+02 0.37990873730E+02
 0.33588650861E+02 0.29886198593E+02 0.26936033650E+02 0.24640439949E+02 0.22919470103E+02
 0.21776652763E+02 0.21187087477E+02 0.21110159479E+02 0.21501720590E+02 0.22315009535E+02
 0.23492261300E+02 0.24955289594E+02 0.26635358006E+02 0.28432938570E+02 0.30173806183E+02
 0.31641003602E+02 0.32623998654E+02 0.32970223393E+02 0.32623998654E+02 0.31641003602E+02
 0.30173806183E+02 0.28432938570E+02 0.26635358006E+02 0.24955289594E+02 0.23492261300E+02
 0.22315009535E+02 0.21501720590E+02 0.21110159479E+02 0.21187087477E+02 0.21776652763E+02
 0.22919470103E+02 0.24640439949E+02 0.26936033650E+02 0.29886198593E+02 0.33588650861E+02
 0.37990873730E+02 0.42879552342E+02 0.47895824823E+02 0.52573577818E+02 0.56404008081E+02
 0.58922530187E+02 0.44432853516E+02 0.43846599925E+02 0.42174216857E+02 0.39654167946E+02
 0.36621696047E+02 0.33435931291E+02 0.30409632437E+02 0.27757398723E+02 0.25569749762E+02
 0.23828637262E+02 0.22551948951E+02 0.21776652763E+02 0.21517142955E+02 0.21776652763E+02
 0.22551948951E+02 0.23828637262E+02 0.25569749762E+02 0.27757398723E+02 0.30409632437E+02
 0.33435931291E+02 0.36621696047E+02 0.39654167946E+02 0.42174216857E+02 0.43846599925E+02
 0.44432853516E+02 0.43846599925E+02 0.42174216857E+02 0.39654167946E+02 0.36621696047E+02
 0.33435931291E+02 0.30409632437E+02 0.27757398723E+02 0.25569749762E+02 0.23828637262E+02
 0.22551948951E+02 0.21776652763E+02 0.21517142955E+02 0.21776652763E+02 0.22551948951E+02
 0.23828637262E+02 0.25569749762E+02 0.27757398723E+02 0.30409632437E+02 0.33435931291E+02
 0.36621696047E+02 0.39654167946E+02 0.42174216857E+02 0.43846599925E+02 0.32970223393E+02
 0.32623998654E+02 0.31641003602E+02 0.30173806183E+02 0.28432938570E+02 0.26635358006E+02
 0.24955289594E+02 0.23492261300E+02 0.22315009535E+02 0.21501720590E+02 0.21110159479E+02
 0.21187087477E+02 0.21776652763E+02 0.22919470103E+02 0.24640439949E+02 0.26936033650E+02
 0.29886198593E+02 0.33588650861E+02 0.37990873730E+02 0.42879552342E+02 0.47895824823E+02
 0.52573577818E+02 0.56404008081E+02 0.58922530187E+02 0.59801493736E+02 0.58922530187E+02
 0.56404008081E+02 0.52573577818E+02 0.47895824823E+02 0.42879552342E+02 0.37990873730E+02
 0.33588650861E+02 0.29886198593E+02 0.26936033650E+02 0.24640439949E+02 0.22919470103E+02
 0.21776652763E+02 0.21187087477E+02 0.21110159479E+02 0.21501720590E+02 0.22315009535E+02
 0.23492261300E+02 0.24955289594E+02 0.26635358006E+02 0.28432938570E+02 0.30173806183E+02
 0.31641003602E+02 0.32623998654E+02 0.25152458894E+02 0.24968196309E+02 0.24446539561E+02
 0.23671655134E+02 0.22755970946E+02 0.21813986485E+02 0.20961387481E+02 0.20300388255E+02
 0.19913777986E+02 0.19871908031E+02 0.20244668151E+02 0.21110159479E+02 0.22551948951E+02
 0.24640439949E+02 0.27413700647E+02 0.31035628690E+02 0.35693851144E+02 0.41389091659E+02
 0.47931805246E+02 0.54964264858E+02 0.61990321628E+02 0.68415168246E+02 0.73608297642E+02
 0.76996876381E+02 0.78175414784E+02 0.76996876381E+02 0.73608297642E+02 0.68415168246E+02
 0.61990321628E+02 0.54964264858E+02 0.47931805246E+02 0.41389091659E+02 0.35693851144E+02
 0.31035628690E+02 0.27413700647E+02 0.24640439949E+02 0.22551948951E+02 0.21110159479E+02
 0.20244668151E+02 0.19871908031E+02 0.19913777986E+02 0.20300388255E+02 0.20961387481E+02
 0.21813986485E+02 0.22755970946E+02 0.23671655134E+02 0.24446539561E+02 0.24968196309E+02
 0.19828932912E+02 0.19734189261E+02 0.19468856557E+02 0.19085901527E+02 0.18662044146E+02
 0.18283817681E+02 0.18035140866E+02 0.17991967684E+02 0.18226742948E+02 0.18820078100E+02
 0.19871908031E+02 0.21501720590E+02 0.23828637262E+02 0.26936033650E+02 0.31035628690E+02
 0.36426989211E+02 0.43177926873E+02 0.51116270205E+02 0.59884088993E+02 0.68995445677E+02
 0.77869636760E+02 0.85848686265E+02 0.92235713102E+02 0.96383567539E+02 0.97823588008E+02
 0.96383567539E+02 0.92235713102E+02 0.85848686265E+02 0.77869636760E+02 0.68995445677E+02
 0.59884088993E+02 0.51116270205E+02 0.43177926873E+02 0.36426989211E+02 0.31035628690E+02
 0.26936033650E+02 0.23828637262E+02 0.21501720590E+02 0.19871908031E+02 0.18820078100E+02
 0.18226742948E+02 0.17991967684E+02 0.18035140866E+02 0.18283817681E+02 0.18662044146E+02
 0.19085901527E+02 0.19468856557E+02 0.19734189261E+02 0.16049390745E+02 0.16013926791E+02
 0.15921460157E+02 0.15810759794E+02 0.15737367674E+02 0.15763697708E+02 0.15952609459E+02
 0.16369286054E+02 0.17092060803E+02 0.18226742948E+02 0.19913777986E+02 0.22315009535E+02
 0.25569749762E+02 0.29886198593E+02 0.35693851144E+02 0.43177926873E+02 0.52189927336E+02
 0.62331217679E+02 0.73081798321E+02 0.83891183567E+02 0.94188023837E+02 0.10333872493E+03
 0.11063500273E+03 0.11537380109E+03 0.11702049703E+03 0.11537380109E+03 0.11063500273E+03
 0.10333872493E+03 0.94188023837E+02 0.83891183567E+02 0.73081798321E+02 0.62331217679E+02
 0.52189927336E+02 0.43177926873E+02 0.35693851144E+02 0.29886198593E+02 0.25569749762E+02
 0.22315009535E+02 0.19913777986E+02 0.18226742948E+02 0.17092060803E+02 0.16369286054E+02
 0.15952609459E+02 0.15763697708E+02 0.15737367674E+02 0.15810759794E+02 0.15921460157E+02
 0.16013926791E+02 0.13413532062E+02 0.13417559426E+02 0.13440536070E+02 0.13512632246E+02
 0.13676854684E+02 0.13982372168E+02 0.14483256433E+02 0.15246730242E+02 0.16369286054E+02
 0.17991967684E+02 0.20300388255E+02 0.23492261300E+02 0.27757398723E+02 0.33588650861E+02
 0.41389091659E+02 0.51116270205E+02 0.62331217679E+02 0.74392499937E+02 0.86672231985E+02
 0.98660327680E+02 0.10990699932E+03 0.11987862189E+03 0.12787361540E+03 0.13310495232E+03
 0.13493160947E+03 0.13310495232E+03 0.12787361540E+03 0.11987862189E+03 0.10990699932E+03
 0.98660327680E+02 0.86672231985E+02 0.74392499937E+02 0.62331217679E+02 0.51116270205E+02
 0.41389091659E+02 0.33588650861E+02 0.27757398723E+02 0.23492261300E+02 0.20300388255E+02
 0.17991967684E+02 0.16369286054E+02 0.15246730242E+02 0.14483256433E+02 0.13982372168E+02
 0.13676854684E+02 0.13512632246E+02 0.13440536070E+02 0.13417559426E+02 0.11570889133E+02
 0.11600499616E+02 0.11698702749E+02 0.11891380718E+02 0.12215579218E+02 0.12715387977E+02
 0.13445143334E+02 0.14483256433E+02 0.15952609459E+02 0.18035140866E+02 0.20961387481E+02
 0.24955289594E+02 0.30409632437E+02 0.37990873730E+02 0.47931805246E+02 0.59884088993E+02
 0.73081798321E+02 0.86672231985E+02 0.10001546609E+03 0.11276497104E+03 0.12468992762E+03
 0.13538715579E+03 0.14411772080E+03 0.14992125249E+03 0.15196582113E+03 0.14992125249E+03
 0.14411772080E+03 0.13538715579E+03 0.12468992762E+03 0.11276497104E+03 0.10001546609E+03
 0.86672231985E+02 0.73081798321E+02 0.59884088993E+02 0.47931805246E+02 0.37990873730E+02
 0.30409632437E+02 0.24955289594E+02 0.20961387481E+02 0.18035140866E+02 0.15952609459E+02
 0.14483256433E+02 0.13445143334E+02 0.12715387977E+02 0.12215579218E+02 0.11891380718E+02
 0.11698702749E+02 0.11600499616E+02 0.10264401953E+02 0.10310864391E+02 0.10459034300E+02
 0.10733179067E+02 0.11168489371E+02 0.11809128629E+02 0.12715387977E+02 0.13982372168E+02
 0.15763697708E+02 0.18283817681E+02 0.21813986485E+02 0.26635358006E+02 0.33435931291E+02
 0.42879552342E+02 0.54964264858E+02 0.68995445677E+02 0.83891183567E+02 0.98660327680E+02
 0.11276497104E+03 0.12613118477E+03 0.13880127341E+03 0.15047388741E+03 0.16026990866E+03
 0.16691993777E+03 0.16928836660E+03 0.16691993777E+03 0.16026990866E+03 0.15047388741E+03
 0.13880127341E+03 0.12613118477E+03 0.11276497104E+03 0.98660327680E+02 0.83891183567E+02
 0.68995445677E+02 0.54964264858E+02 0.42879552342E+02 0.33435931291E+02 0.26635358006E+02
 0.21813986485E+02 0.18283817681E+02 0.15763697708E+02 0.13982372168E+02 0.12715387977E+02
 0.11809128629E+02 0.11168489371E+02 0.10733179067E+02 0.10459034300E+02 0.10310864391E+02
 0.93335032211E+01 0.93915362044E+01 0.95743043450E+01 0.99058313811E+01 0.10421587135E+02
 0.11168489371E+02 0.12215579218E+02 0.13676854684E+02 0.15737367674E+02 0.18662044146E+02
 0.22755970946E+02 0.28432938570E+02 0.36621696047E+02 0.47895824823E+02 0.61990321628E+02
 0.77869636760E+02 0.94188023837E+02 0.10990699932E+03 0.12468992762E+03 0.13880127341E+03
 0.15255639229E+03 0.16568240042E+03 0.17703429218E+03 0.18489599439E+03 0.18772306451E+03
 0.18489599439E+03 0.17703429218E+03 0.16568240042E+03 0.15255639229E+03 0.13880127341E+03
 0.12468992762E+03 0.10990699932E+03 0.94188023837E+02 0.77869636760E+02 0.61990321628E+02
 0.47895824823E+02 0.36621696047E+02 0.28432938570E+02 0.22755970946E+02 0.18662044146E+02
 0.15737367674E+02 0.13676854684E+02 0.12215579218E+02 0.11168489371E+02 0.10421587135E+02
 0.99058313811E+01 0.95743043450E+01 0.93915362044E+01 0.86848048101E+01 0.87509960542E+01
 0.89583105759E+01 0.93310654095E+01 0.99058313811E+01 0.10733179067E+02 0.11891380718E+02
 0.13512632246E+02 0.15810759794E+02 0.19085901527E+02 0.23671655134E+02 0.30173806183E+02
 0.39654167946E+02 0.52573577818E+02 0.68415168246E+02 0.85848686265E+02 0.10333872493E+03
 0.11987862189E+03 0.13538715579E+03 0.15047388741E+03 0.16568240042E+03 0.18068666592E+03
 0.19398220140E+03 0.20332443943E+03 0.20670600837E+03 0.20332443943E+03 0.19398220140E+03
 0.18068666592E+03 0.16568240042E+03 0.15047388741E+03 0.13538715579E+03 0.11987862189E+03
 0.10333872493E+03 0.85848686265E+02 0.68415168246E+02 0.52573577818E+02 0.39654167946E+02
 0.30173806183E+02 0.23671655134E+02 0.19085901527E+02 0.15810759794E+02 0.13512632246E+02
 0.11891380718E+02 0.10733179067E+02 0.99058313811E+01 0.93310654095E+01 0.89583105759E+01
 0.87509960542E+01 0.82612401192E+01 0.83329982834E+01 0.85571201617E+01 0.89583105759E+01
 0.95743043450E+01 0.10459034300E+02 0.11698702749E+02 0.13440536070E+02 0.15921460157E+02
 0.19468856557E+02 0.24446539561E+02 0.31641003602E+02 0.42174216857E+02 0.56404008081E+02
 0.73608297642E+02 0.92235713102E+02 0.11063500273E+03 0.12787361540E+03 0.14411772080E+03
 0.16026990866E+03 0.17703429218E+03 0.19398220140E+03 0.20923791285E+03 0.22004955365E+03
 0.22397729871E+03 0.22004955365E+03 0.20923791285E+03 0.19398220140E+03 0.17703429218E+03
 0.16026990866E+03 0.14411772080E+03 0.12787361540E+03 0.11063500273E+03 0.92235713102E+02
 0.73608297642E+02 0.56404008081E+02 0.42174216857E+02 0.31641003602E+02 0.24446539561E+02
 0.19468856557E+02 0.15921460157E+02 0.13440536070E+02 0.11698702749E+02 0.10459034300E+02
 0.95743043450E+01 0.89583105759E+01 0.85571201617E+01 0.83329982834E+01 0.80239479618E+01
 0.80989789560E+01 0.83329982834E+01 0.87509960542E+01 0.93915362044E+01 0.10310864391E+02
 0.11600499616E+02 0.13417559426E+02 0.16013926791E+02 0.19734189261E+02 0.24968196309E+02
 0.32623998654E+02 0.43846599925E+02 0.58922530187E+02 0.76996876381E+02 0.96383567539E+02
 0.11537380109E+03 0.13310495232E+03 0.14992125249E+03 0.16691993777E+03 0.18489599439E+03
 0.20332443943E+03 0.22004955365E+03 0.23195186162E+03 0.23628311773E+03 0.23195186162E+03
 0.22004955365E+03 0.20332443943E+03 0.18489599439E+03 0.16691993777E+03 0.14992125249E+03
 0.13310495232E+03 0.11537380109E+03 0.96383567539E+02 0.76996876381E+02 0.58922530187E+02
 0.43846599925E+02 0.32623998654E+02 0.24968196309E+02 0.19734189261E+02 0.16013926791E+02
 0.13417559426E+02 0.11600499616E+02 0.10310864391E+02 0.93915362044E+01 0.87509960542E+01
 0.83329982834E+01 0.80989789560E+01 0.79478354811E+01 0.80239479618E+01 0.82612401192E+01
 0.86848048101E+01 0.93335032211E+01 0.10264401953E+02 0.11570889133E+02 0.13413532062E+02
 0.16049390745E+02 0.19828932912E+02 0.25152458894E+02 0.32970223393E+02 0.44432853516E+02
 0.59801493736E+02 0.78175414784E+02 0.97823588008E+02 0.11702049703E+03 0.13493160947E+03
 0.15196582113E+03 0.16928836660E+03 0.18772306451E+03 0.20670600837E+03 0.22397729871E+03
 0.23628311773E+03 0.24076332917E+03 0.23628311773E+03 0.22397729871E+03 0.20670600837E+03
 0.18772306451E+03 0.16928836660E+03 0.15196582113E+03 0.13493160947E+03 0.11702049703E+03
 0.97823588008E+02 0.78175414784E+02 0.59801493736E+02 0.44432853516E+02 0.32970223393E+02
 0.25152458894E+02 0.19828932912E+02 0.16049390745E+02 0.13413532062E+02 0.11570889133E+02
 0.10264401953E+02 0.93335032211E+01 0.86848048101E+01 0.82612401192E+01 0.80239479618E+01
 0.80239479618E+01 0.80989789560E+01 0.83329982834E+01 0.87509960542E+01 0.93915362044E+01
 0.10310864391E+02 0.11600499616E+02 0.13417559426E+02 0.16013926791E+02 0.19734189261E+02
 0.24968196309E+02 0.32623998654E+02 0.43846599925E+02 0.58922530187E+02 0.76996876381E+02
 0.96383567539E+02 0.11537380109E+03 0.13310495232E+03 0.14992125249E+03 0.16691993777E+03
 0.18489599439E+03 0.20332443943E+03 0.22004955365E+03 0.23195186162E+03 0.23628311773E+03
 0.23195186162E+03 0.22004955365E+03 0.20332443943E+03 0.18489599439E+03 0.16691993777E+03
 0.14992125249E+03 0.13310495232E+03 0.11537380109E+03 0.96383567539E+02 0.76996876381E+02
 0.58922530187E+02 0.43846599925E+02 0.32623998654E+02 0.24968196309E+02 0.19734189261E+02
 0.16013926791E+02 0.13417559426E+02 0.11600499616E+02 0.10310864391E+02 0.93915362044E+01
 0.87509960542E+01 0.83329982834E+01 0.80989789560E+01 0.82612401192E+01 0.83329982834E+01
 0.85571201617E+01 0.89583105759E+01 0.95743043450E+01 0.10459034300E+02 0.11698702749E+02
 0.13440536070E+02 0.15921460157E+02 0.19468856557E+02 0.24446539561E+02 0.31641003602E+02
 0.42174216857E+02 0.56404008081E+02 0.73608297642E+02 0.92235713102E+02 0.11063500273E+03
 0.12787361540E+03 0.14411772080E+03 0.16026990866E+03 0.17703429218E+03 0.19398220140E+03
 0.20923791285E+03 0.22004955365E+03 0.22397729871E+03 0.22004955365E+03 0.20923791285E+03
 0.19398220140E+03 0.17703429218E+03 0.16026990866E+03 0.14411772080E+03 0.12787361540E+03
 0.11063500273E+03 0.92235713102E+02 0.73608297642E+02 0.56404008081E+02 0.42174216857E+02
 0.31641003602E+02 0.24446539561E+02 0.19468856557E+02 0.15921460157E+02 0.13440536070E+02
 0.11698702749E+02 0.10459034300E+02 0.95743043450E+01 0.89583105759E+01 0.85571201617E+01
 0.83329982834E+01 0.86848048101E+01 0.87509960542E+01 0.89583105759E+01 0.93310654095E+01
 0.99058313811E+01 0.10733179067E+02 0.11891380718E+02 0.13512632246E+02 0.15810759794E+02
 0.19085901527E+02 0.23671655134E+02 0.30173806183E+02 0.39654167946E+02 0.52573577818E+02
 0.68415168246E+02 0.85848686265E+02 0.10333872493E+03 0.11987862189E+03 0.13538715579E+03
 0.15047388741E+03 0.16568240042E+03 0.18068666592E+03 0.19398220140E+03 0.20332443943E+03
 0.20670600837E+03 0.20332443943E+03 0.19398220140E+03 0.18068666592E+03 0.16568240042E+03
 0.15047388741E+03 0.13538715579E+03 0.11987862189E+03 0.10333872493E+03 0.85848686265E+02
 0.68415168246E+02 0.52573577818E+02 0.39654167946E+02 0.30173806183E+02 0.23671655134E+02
 0.19085901527E+02 0.15810759794E+02 0.13512632246E+02 0.11891380718E+02 0.10733179067E+02
 0.99058313811E+01 0.93310654095E+01 0.89583105759E+01 0.87509960542E+01 0.93335032211E+01
 0.93915362044E+01 0.95743043450E+01 0.99058313811E+01 0.10421587135E+02 0.11168489371E+02
 0.12215579218E+02 0.13676854684E+02 0.15737367674E+02 0.18662044146E+02 0.22755970946E+02
 0.28432938570E+02 0.36621696047E+02 0.47895824823E+02 0.61990321628E+02 0.77869636760E+02
 0.94188023837E+02 0.10990699932E+03 0.12468992762E+03 0.13880127341E+03 0.15255639229E+03
 0.16568240042E+03 0.17703429218E+03 0.18489599439E+03 0.18772306451E+03 0.18489599439E+03
 0.17703429218E+03 0.16568240042E+03 0.15255639229E+03 0.13880127341E+03 0.12468992762E+03
 0.10990699932E+03 0.94188023837E+02 0.77869636760E+02 0.61990321628E+02 0.47895824823E+02
 0.36621696047E+02 0.28432938570E+02 0.22755970946E+02 0.18662044146E+02 0.15737367674E+02
 0.13676854684E+02 0.12215579218E+02 0.11168489371E+02 0.10421587135E+02 0.99058313811E+01
 0.95743043450E+01 0.93915362044E+01 0.10264401953E+02 0.10310864391E+02 0.10459034300E+02
 0.10733179067E+02 0.11168489371E+02 0.11809128629E+02 0.12715387977E+02 0.13982372168E+02
 0.15763697708E+02 0.18283817681E+02 0.21813986485E+02 0.26635358006E+02 0.33435931291E+02
 0.42879552342E+02 0.54964264858E+02 0.68995445677E+02 0.83891183567E+02 0.98660327680E+02
 0.11276497104E+03 0.12613118477E+03 0.13880127341E+03 0.15047388741E+03 0.16026990866E+03
 0.16691993777E+03 0.16928836660E+03 0.16691993777E+03 0.16026990866E+03 0.15047388741E+03
 0.13880127341E+03 0.12613118477E+03 0.11276497104E+03 0.98660327680E+02 0.83891183567E+02
 0.68995445677E+02 0.54964264858E+02 0.42879552342E+02 0.33435931291E+02 0.26635358006E+02
 0.21813986485E+02 0.18283817681E+02 0.15763697708E+02 0.13982372168E+02 0.12715387977E+02
 0.11809128629E+02 0.11168489371E+02 0.10733179067E+02 0.10459034300E+02 0.10310864391E+02
 0.11570889133E+02 0.11600499616E+02 0.11698702749E+02 0.11891380718E+02 0.12215579218E+02
 0.12715387977E+02 0.13445143334E+02 0.14483256433E+02 0.15952609459E+02 0.18035140866E+02
 0.20961387481E+02 0.24955289594E+02 0.30409632437E+02 0.37990873730E+02 0.47931805246E+02
 0.59884088993E+02 0.73081798321E+02 0.86672231985E+02 0.10001546609E+03 0.11276497104E+03
 0.12468992762E+03 0.13538715579E+03 0.14411772080E+03 0.14992125249E+03 0.15196582113E+03
 0.14992125249E+03 0.14411772080E+03 0.13538715579E+03 0.12468992762E+03 0.11276497104E+03
 0.10001546609E+03 0.86672231985E+02 0.73081798321E+02 0.59884088993E+02 0.47931805246E+02
 0.37990873730E+02 0.30409632437E+02 0.24955289594E+02 0.20961387481E+02 0.18035140866E+02
 0.15952609459E+02 0.14483256433E+02 0.13445143334E+02 0.12715387977E+02 0.12215579218E+02
 0.11891380718E+02 0.11698702749E+02 0.11600499616E+02 0.13413532062E+02 0.13417559426E+02
 0.13440536070E+02 0.13512632246E+02 0.13676854684E+02 0.13982372168E+02 0.14483256433E+02
 0.15246730242E+02 0.16369286054E+02 0.17991967684E+02 0.20300388255E+02 0.23492261300E+02
 0.27757398723E+02 0.33588650861E+02 0.41389091659E+02 0.51116270205E+02 0.62331217679E+02
 0.74392499937E+02 0.86672231985E+02 0.98660327680E+02 0.10990699932E+03 0.11987862189E+03
 0.12787361540E+03 0.13310495232E+03 0.13493160947E+03 0.13310495232E+03 0.12787361540E+03
 0.11987862189E+03 0.10990699932E+03 0.98660327680E+02 0.86672231985E+02 0.74392499937E+02
 0.62331217679E+02 0.51116270205E+02 0.41389091659E+02 0.33588650861E+02 0.27757398723E+02
 0.23492261300E+02 0.20300388255E+02 0.17991967684E+02 0.16369286054E+02 0.15246730242E+02
 0.14483256433E+02 0.13982372168E+02 0.13676854684E+02 0.13512632246E+02 0.13440536070E+02
 0.13417559426E+02 0.16049390745E+02 0.16013926791E+02 0.15921460157E+02 0.15810759794E+02
 0.15737367674E+02 0.15763697708E+02 0.15952609459E+02 0.16369286054E+02 0.17092060803E+02
 0.18226742948E+02 0.19913777986E+02 0.22315009535E+02 0.25569749762E+02 0.29886198593E+02
 0.35693851144E+02 0.43177926873E+02 0.52189927336E+02 0.62331217679E+02 0.73081798321E+02
 0.83891183567E+02 0.94188023837E+02 0.10333872493E+03 0.11063500273E+03 0.11537380109E+03
 0.11702049703E+03 0.11537380109E+03 0.11063500273E+03 0.10333872493E+03 0.94188023837E+02
 0.83891183567E+02 0.73081798321E+02 0.62331217679E+02 0.52189927336E+02 0.43177926873E+02
 0.35693851144E+02 0.29886198593E+02 0.25569749762E+02 0.22315009535E+02 0.19913777986E+02
 0.18226742948E+02 0.17092060803E+02 0.16369286054E+02 0.15952609459E+02 0.15763697708E+02
 0.15737367674E+02 0.15810759794E+02 0.15921460157E+02 0.16013926791E+02 0.19828932912E+02
 0.19734189261E+02 0.19468856557E+02 0.19085901527E+02 0.18662044146E+02 0.18283817681E+02
 0.18035140866E+02 0.17991967684E+02 0.18226742948E+02 0.18820078100E+02 0.19871908031E+02
 0.21501720590E+02 0.23828637262E+02 0.26936033650E+02 0.31035628690E+02 0.36426989211E+02
 0.43177926873E+02 0.51116270205E+02 0.59884088993E+02 0.68995445677E+02 0.77869636760E+02
 0.85848686265E+02 0.92235713102E+02 0.96383567539E+02 0.97823588008E+02 0.96383567539E+02
 0.92235713102E+02 0.85848686265E+02 0.77869636760E+02 0.68995445677E+02 0.59884088993E+02
 0.51116270205E+02 0.43177926873E+02 0.36426989211E+02 0.31035628690E+02 0.26936033650E+02
 0.23828637262E+02 0.21501720590E+02 0.19871908031E+02 0.18820078100E+02 0.18226742948E+02