   4   4   0   0
  0.1573250E+02  0.3977583E-09  0.3977583E-09  0.3977583E-09  0.5000000E-15
  1.000000000000000E-004
  CAR 
 unknown system                          
     16.21173079     -4.49355157  301      7.23975492      1.00000000
     -4.494  0.0000E+00  0.0000E+00
     -4.425  0.0000E+00  0.0000E+00
     -4.356  0.0000E+00  0.0000E+00
     -4.286  0.0000E+00  0.0000E+00
     -4.217  0.0000E+00  0.0000E+00
     -4.148  0.0000E+00  0.0000E+00
     -4.079  0.0000E+00  0.0000E+00
     -4.010  0.0000E+00  0.0000E+00
     -3.941  0.0000E+00  0.0000E+00
     -3.872  0.0000E+00  0.0000E+00
     -3.803  0.0000E+00  0.0000E+00
     -3.734  0.0000E+00  0.0000E+00
     -3.665  0.0000E+00  0.0000E+00
     -3.596  0.0000E+00  0.0000E+00
     -3.527  0.0000E+00  0.0000E+00
     -3.458  0.0000E+00  0.0000E+00
     -3.389  0.0000E+00  0.0000E+00
     -3.320  0.0000E+00  0.0000E+00
     -3.251  0.0000E+00  0.0000E+00
     -3.182  0.0000E+00  0.0000E+00
     -3.113  0.0000E+00  0.0000E+00
     -3.044  0.0000E+00  0.0000E+00
     -2.975  0.0000E+00  0.0000E+00
     -2.906  0.0000E+00  0.0000E+00
     -2.837  0.0000E+00  0.0000E+00
     -2.768  0.0000E+00  0.0000E+00
     -2.699  0.0000E+00  0.0000E+00
     -2.630  0.0000E+00  0.0000E+00
     -2.561  0.0000E+00  0.0000E+00
     -2.492  0.3019E-05  0.1520E-08
     -2.423  0.6580E-02  0.1547E-03
     -2.354  0.2576E-01  0.1198E-02
     -2.285  0.5754E-01  0.4000E-02
     -2.216  0.1019E+00  0.9432E-02
     -2.147  0.1432E+00  0.1796E-01
     -2.078  0.1717E+00  0.2890E-01
     -2.009  0.1873E+00  0.4137E-01
     -1.940  0.1913E+00  0.5447E-01
     -1.871  0.1977E+00  0.6786E-01
     -1.802  0.2098E+00  0.8189E-01
     -1.733  0.2275E+00  0.9695E-01
     -1.664  0.2482E+00  0.1134E+00
     -1.595  0.2699E+00  0.1312E+00
     -1.526  0.2925E+00  0.1506E+00
     -1.457  0.3157E+00  0.1716E+00
     -1.388  0.3351E+00  0.1941E+00
     -1.319  0.3492E+00  0.2178E+00
     -1.250  0.3578E+00  0.2422E+00
     -1.181  0.3687E+00  0.2672E+00
     -1.112  0.3844E+00  0.2932E+00
     -1.043  0.4047E+00  0.3204E+00
     -0.974  0.4228E+00  0.3490E+00
     -0.905  0.4412E+00  0.3788E+00
     -0.836  0.4601E+00  0.4099E+00
     -0.767  0.4793E+00  0.4423E+00
     -0.698  0.4990E+00  0.4760E+00
     -0.629  0.5190E+00  0.5112E+00
     -0.560  0.5402E+00  0.5477E+00
     -0.491  0.5666E+00  0.5859E+00
     -0.422  0.5954E+00  0.6260E+00
     -0.352  0.6778E+00  0.6688E+00
     -0.283  0.8344E+00  0.7211E+00
     -0.214  0.9772E+00  0.7837E+00
     -0.145  0.1063E+01  0.8562E+00
     -0.076  0.9808E+00  0.9266E+00
     -0.007  0.9785E+00  0.9931E+00
      0.062  0.1035E+01  0.1063E+01
      0.131  0.1085E+01  0.1136E+01
      0.200  0.1126E+01  0.1212E+01
      0.269  0.1160E+01  0.1291E+01
      0.338  0.1802E+01  0.1394E+01
      0.407  0.2238E+01  0.1554E+01
      0.476  0.1742E+01  0.1694E+01
      0.545  0.1251E+01  0.1788E+01
      0.614  0.1278E+01  0.1875E+01
      0.683  0.1573E+01  0.1972E+01
      0.752  0.2173E+01  0.2100E+01
      0.821  0.3432E+01  0.2280E+01
      0.890  0.3989E+01  0.2537E+01
      0.959  0.4611E+01  0.2839E+01
      1.028  0.4950E+01  0.3168E+01
      1.097  0.5291E+01  0.3523E+01
      1.166  0.5053E+01  0.3872E+01
      1.235  0.5555E+01  0.4236E+01
      1.304  0.5912E+01  0.4635E+01
      1.373  0.6024E+01  0.5047E+01
      1.442  0.6704E+01  0.5478E+01
      1.511  0.5875E+01  0.5911E+01
      1.580  0.5641E+01  0.6305E+01
      1.649  0.5690E+01  0.6697E+01
      1.718  0.5672E+01  0.7089E+01
      1.787  0.5625E+01  0.7479E+01
      1.856  0.6111E+01  0.7876E+01
      1.925  0.6706E+01  0.8309E+01
      1.994  0.6542E+01  0.8781E+01
      2.063  0.3887E+01  0.9153E+01
      2.132  0.3541E+01  0.9405E+01
      2.201  0.3372E+01  0.9643E+01
      2.270  0.3250E+01  0.9871E+01
      2.339  0.3183E+01  0.1009E+02
      2.408  0.3289E+01  0.1031E+02
      2.477  0.3631E+01  0.1055E+02
      2.546  0.4926E+01  0.1100E+02
      2.615  0.5585E+01  0.1137E+02
      2.684  0.5895E+01  0.1176E+02
      2.753  0.5662E+01  0.1216E+02
      2.822  0.5613E+01  0.1256E+02
      2.891  0.5542E+01  0.1295E+02
      2.960  0.5533E+01  0.1333E+02
      3.029  0.5579E+01  0.1371E+02
      3.098  0.5730E+01  0.1410E+02
      3.167  0.6084E+01  0.1451E+02
      3.236  0.5638E+01  0.1492E+02
      3.305  0.5818E+01  0.1531E+02
      3.374  0.6801E+01  0.1572E+02
      3.443  0.7025E+01  0.1616E+02
      3.512  0.9172E+01  0.1679E+02
      3.582  0.6117E+01  0.1735E+02
      3.651  0.6035E+01  0.1776E+02
      3.720  0.3761E+02  0.1821E+02
      3.789  0.7849E+01  0.1880E+02
      3.858  0.1045E+02  0.1943E+02
      3.927  0.1050E+02  0.2025E+02
      3.996  0.1048E+02  0.2098E+02
      4.065  0.1032E+02  0.2169E+02
      4.134  0.7375E+01  0.2229E+02
      4.203  0.5371E+01  0.2275E+02
      4.272  0.3390E+01  0.2303E+02
      4.341  0.4352E+01  0.2330E+02
      4.410  0.4842E+01  0.2363E+02
      4.479  0.4503E+01  0.2395E+02
      4.548  0.4317E+01  0.2426E+02
      4.617  0.5418E+01  0.2458E+02
      4.686  0.8235E+01  0.2504E+02
      4.755  0.6781E+01  0.2555E+02
      4.824  0.6691E+01  0.2602E+02
      4.893  0.5713E+01  0.2649E+02
      4.962  0.5335E+01  0.2687E+02
      5.031  0.5842E+01  0.2725E+02
      5.100  0.5819E+01  0.2766E+02
      5.169  0.6789E+01  0.2810E+02
      5.238  0.5251E+01  0.2851E+02
      5.307  0.4879E+01  0.2886E+02
      5.376  0.4652E+01  0.2919E+02
      5.445  0.4474E+01  0.2951E+02
      5.514  0.5500E+01  0.2983E+02
      5.583  0.5611E+01  0.3029E+02
      5.652  0.6683E+01  0.3070E+02
      5.721  0.6545E+01  0.3122E+02
      5.790  0.6261E+01  0.3166E+02
      5.859  0.5541E+01  0.3208E+02
      5.928  0.5171E+01  0.3244E+02
      5.997  0.4820E+01  0.3279E+02
      6.066  0.4211E+01  0.3309E+02
      6.135  0.4453E+01  0.3340E+02
      6.204  0.4467E+01  0.3370E+02
      6.273  0.4551E+01  0.3402E+02
      6.342  0.4720E+01  0.3433E+02
      6.411  0.5011E+01  0.3467E+02
      6.480  0.5124E+01  0.3502E+02
      6.549  0.6355E+01  0.3539E+02
      6.618  0.5917E+01  0.3580E+02
      6.687  0.5386E+01  0.3619E+02
      6.756  0.5243E+01  0.3655E+02
      6.825  0.5309E+01  0.3691E+02
      6.894  0.5526E+01  0.3729E+02
      6.963  0.6986E+01  0.3773E+02
      7.032  0.7260E+01  0.3821E+02
      7.101  0.9398E+01  0.3883E+02
      7.170  0.8300E+01  0.3945E+02
      7.239  0.7623E+01  0.4000E+02
      7.308  0.6865E+01  0.4051E+02
      7.377  0.8595E+01  0.4099E+02
      7.446  0.4900E+01  0.4142E+02
      7.516  0.3616E+01  0.4171E+02
      7.585  0.2714E+01  0.4193E+02
      7.654  0.2112E+01  0.4209E+02
      7.723  0.1308E+01  0.4221E+02
      7.792  0.1285E+01  0.4230E+02
      7.861  0.1271E+01  0.4239E+02
      7.930  0.1800E+01  0.4250E+02
      7.999  0.1436E+01  0.4260E+02
      8.068  0.1095E+01  0.4269E+02
      8.137  0.1095E+01  0.4276E+02
      8.206  0.1110E+01  0.4284E+02
      8.275  0.1130E+01  0.4292E+02
      8.344  0.1146E+01  0.4299E+02
      8.413  0.1373E+01  0.4310E+02
      8.482  0.1396E+01  0.4319E+02
      8.551  0.1413E+01  0.4329E+02
      8.620  0.1424E+01  0.4339E+02
      8.689  0.1429E+01  0.4348E+02
      8.758  0.1427E+01  0.4358E+02
      8.827  0.1311E+01  0.4368E+02
      8.896  0.1273E+01  0.4377E+02
      8.965  0.1234E+01  0.4385E+02
      9.034  0.2120E+01  0.4397E+02
      9.103  0.8414E+00  0.4405E+02
      9.172  0.8188E+00  0.4411E+02
      9.241  0.7969E+00  0.4417E+02
      9.310  0.7806E+00  0.4422E+02
      9.379  0.7719E+00  0.4427E+02
      9.448  0.7862E+00  0.4433E+02
      9.517  0.8077E+00  0.4438E+02
      9.586  0.8291E+00  0.4444E+02
      9.655  0.8507E+00  0.4450E+02
      9.724  0.8722E+00  0.4456E+02
      9.793  0.8938E+00  0.4462E+02
      9.862  0.1045E+01  0.4468E+02
      9.931  0.1101E+01  0.4476E+02
     10.000  0.1165E+01  0.4484E+02
     10.069  0.1976E+01  0.4493E+02
     10.138  0.1255E+01  0.4504E+02
     10.207  0.1276E+01  0.4513E+02
     10.276  0.1295E+01  0.4522E+02
     10.345  0.1314E+01  0.4531E+02
     10.414  0.1298E+01  0.4540E+02
     10.483  0.1260E+01  0.4549E+02
     10.552  0.1222E+01  0.4557E+02
     10.621  0.1298E+01  0.4567E+02
     10.690  0.1177E+01  0.4575E+02
     10.759  0.1056E+01  0.4583E+02
     10.828  0.1051E+01  0.4590E+02
     10.897  0.1053E+01  0.4597E+02
     10.966  0.1054E+01  0.4605E+02
     11.035  0.1051E+01  0.4612E+02
     11.104  0.1041E+01  0.4619E+02
     11.173  0.1030E+01  0.4626E+02
     11.242  0.1017E+01  0.4633E+02
     11.311  0.1005E+01  0.4640E+02
     11.380  0.1002E+01  0.4647E+02
     11.450  0.1010E+01  0.4654E+02
     11.519  0.1033E+01  0.4661E+02
     11.588  0.1037E+01  0.4668E+02
     11.657  0.1033E+01  0.4675E+02
     11.726  0.1027E+01  0.4683E+02
     11.795  0.1019E+01  0.4690E+02
     11.864  0.1008E+01  0.4697E+02
     11.933  0.9963E+00  0.4704E+02
     12.002  0.9821E+00  0.4710E+02
     12.071  0.9659E+00  0.4717E+02
     12.140  0.9476E+00  0.4724E+02
     12.209  0.9273E+00  0.4730E+02
     12.278  0.9844E+00  0.4737E+02
     12.347  0.9254E+00  0.4744E+02
     12.416  0.8609E+00  0.4750E+02
     12.485  0.7903E+00  0.4755E+02
     12.554  0.7203E+00  0.4761E+02
     12.623  0.6716E+00  0.4765E+02
     12.692  0.6421E+00  0.4770E+02
     12.761  0.6108E+00  0.4774E+02
     12.830  0.5815E+00  0.4778E+02
     12.899  0.5474E+00  0.4782E+02
     12.968  0.4342E+00  0.4786E+02
     13.037  0.3345E+00  0.4789E+02
     13.106  0.2408E+00  0.4791E+02
     13.175  0.1868E+00  0.4792E+02
     13.244  0.1683E+00  0.4793E+02
     13.313  0.1508E+00  0.4794E+02
     13.382  0.1341E+00  0.4795E+02
     13.451  0.1182E+00  0.4796E+02
     13.520  0.1032E+00  0.4797E+02
     13.589  0.8906E-01  0.4798E+02
     13.658  0.7577E-01  0.4798E+02
     13.727  0.6332E-01  0.4799E+02
     13.796  0.5173E-01  0.4799E+02
     13.865  0.4098E-01  0.4799E+02
     13.934  0.3110E-01  0.4800E+02
     14.003  0.2206E-01  0.4800E+02
     14.072  0.1388E-01  0.4800E+02
     14.141  0.6544E-02  0.4800E+02
     14.210  0.8616E-04  0.4800E+02
     14.279  0.0000E+00  0.4800E+02
     14.348  0.0000E+00  0.4800E+02
     14.417  0.0000E+00  0.4800E+02
     14.486  0.0000E+00  0.4800E+02
     14.555  0.0000E+00  0.4800E+02
     14.624  0.0000E+00  0.4800E+02
     14.693  0.0000E+00  0.4800E+02
     14.762  0.0000E+00  0.4800E+02
     14.831  0.0000E+00  0.4800E+02
     14.900  0.0000E+00  0.4800E+02
     14.969  0.0000E+00  0.4800E+02
     15.038  0.0000E+00  0.4800E+02
     15.107  0.0000E+00  0.4800E+02
     15.176  0.0000E+00  0.4800E+02
     15.245  0.0000E+00  0.4800E+02
     15.315  0.0000E+00  0.4800E+02
     15.384  0.0000E+00  0.4800E+02
     15.453  0.0000E+00  0.4800E+02
     15.522  0.0000E+00  0.4800E+02
     15.591  0.0000E+00  0.4800E+02
     15.660  0.0000E+00  0.4800E+02
     15.729  0.0000E+00  0.4800E+02
     15.798  0.0000E+00  0.4800E+02
     15.867  0.0000E+00  0.4800E+02
     15.936  0.0000E+00  0.4800E+02
     16.005  0.0000E+00  0.4800E+02
     16.074  0.0000E+00  0.4800E+02
     16.143  0.0000E+00  0.4800E+02
     16.212  0.0000E+00  0.4800E+02
