    4    4    1    1
  0.1573250E+02  0.3977583E-09  0.3977583E-09  0.3977583E-09  0.5000000E-15
  1.000000000000000E-004
  CAR 
 unknown system                          
     40     20     24
 
  0.0000000E+00  0.0000000E+00  0.0000000E+00  0.2915452E-02
    1       -2.493552   1.000000
    2        0.641487   1.000000
    3        0.641487   1.000000
    4        0.641487   1.000000
    5        1.063254   1.000000
    6        1.063254   1.000000
    7        1.063254   1.000000
    8        3.718058   1.000000
    9        3.718058   1.000000
   10        3.718058   1.000000
   11        5.744155   1.000000
   12        5.744155   1.000000
   13        7.269182   0.999185
   14        7.269182   0.999168
   15        7.269183   0.996273
   16        7.707031   0.333943
   17        7.707031  -0.104197
   18        7.707031  -0.063652
   19        7.707031   0.000000
   20        7.707031   0.000000
   21        7.707031   0.000000
   22        9.146236   0.000000
   23        9.146236   0.000000
   24        9.146236   0.000000
 
  0.1428571E+00  0.0000000E+00  0.0000000E+00  0.1749271E-01
    1       -2.230875   1.000000
    2        0.732385   1.000000
    3        0.832048   1.000000
    4        0.832048   1.000000
    5        1.170440   1.000000
    6        1.224822   1.000000
    7        1.224822   1.000000
    8        3.552670   1.000000
    9        3.852025   1.000000
   10        3.852025   1.000000
   11        5.561906   1.000000
   12        5.812384   1.000000
   13        6.479015   1.000005
   14        6.479015   1.000006
   15        6.995232   0.999579
   16        6.995232   0.980687
   17        7.185093   0.919347
   18        7.385933   0.618702
   19        7.385933   0.168505
   20        7.707613  -0.042568
   21        7.707613   0.000000
   22        7.899079   0.000000
   23       10.520927   0.000000
   24       10.520927   0.000000
 
  0.2857143E+00  0.0000000E+00  0.0000000E+00  0.1749271E-01
    1       -1.477137   1.000000
    2        0.881371   1.000000
    3        1.339423   1.000000
    4        1.339423   1.000000
    5        1.480732   1.000000
    6        1.706803   1.000000
    7        1.706803   1.000000
    8        3.114856   1.000000
    9        4.247624   1.000000
   10        4.247624   1.000000
   11        4.929993   1.000000
   12        4.929993   1.000000
   13        5.090032   1.000000
   14        5.878738   1.000000
   15        6.007005   1.000000
   16        6.280450   1.000000
   17        6.280450   1.000000
   18        6.612110   1.004126
   19        6.612110   1.082539
   20        6.954971   0.919263
   21        7.708936  -0.000693
   22        7.708936  -0.000111
   23       12.487374   0.000000
   24       12.487374   0.000000
 
  0.4285714E+00  0.0000000E+00  0.0000000E+00  0.1749271E-01
    1       -0.378551   1.000000
    2        0.613907   1.000000
    3        1.886302   1.000000
    4        1.886302   1.000000
    5        1.958637   1.000000
    6        2.498746   1.000000
    7        2.498746   1.000000
    8        2.537877   1.000000
    9        3.582827   1.000000
   10        3.582827   1.000000
   11        4.583047   1.000000
   12        4.618204   1.000000
   13        4.882672   1.000000
   14        4.882672   1.000000
   15        5.550786   1.000000
   16        5.550786   1.000000
   17        5.706696   1.000000
   18        5.706696   1.000000
   19        6.297951   1.002082
   20        6.635668   1.071817
   21        7.710038  -0.010520
   22        7.710038  -0.010036
   23       14.209538   0.000000
   24       14.211731   0.000000
 
  0.1428571E+00  0.1428571E+00  0.0000000E+00  0.3498542E-01
    1       -1.977213   1.000000
    2        0.928164   1.000000
    3        0.928164   1.000000
    4        0.964632   1.000000
    5        1.325996   1.000000
    6        1.325996   1.000000
    7        1.420312   1.000000
    8        3.484760   1.000000
    9        3.903156   1.000000
   10        3.947892   1.000000
   11        5.520529   1.000000
   12        5.788902   1.000000
   13        5.944267   1.000040
   14        5.944267   1.000041
   15        5.947343   1.000411
   16        6.774475   1.003627
   17        6.990145   0.997577
   18        6.990145   0.984161
   19        7.384569   0.296642
   20        7.384569   0.034312
   21        7.501338  -0.009189
   22        9.382507   0.000000
   23        9.382507   0.000000
   24       11.412177   0.000000
 
  0.2857143E+00  0.1428571E+00  0.0000000E+00  0.6997085E-01
    1       -1.249212   1.000000
    2        1.088806   1.000000
    3        1.365308   1.000000
    4        1.454950   1.000000
    5        1.618119   1.000000
    6        1.788511   1.000000
    7        1.931189   1.000000
    8        3.125979   1.000000
    9        4.187575   1.000000
   10        4.255874   1.000000
   11        4.481833   1.000000
   12        4.764018   1.000000
   13        4.867188   1.000000
   14        5.184584   1.000000
   15        6.027666   1.000000
   16        6.171543   1.000000
   17        6.362267   1.000000
   18        6.607940   1.002351
   19        6.625266   1.109739
   20        7.380598   0.305453
   21        7.393630   0.038825
   22        7.868381  -0.000126
   23       10.999832   0.000000
   24       13.140277   0.000000
 
  0.4285714E+00  0.1428571E+00  0.0000000E+00  0.6997085E-01
    1       -0.182244   1.000000
    2        0.811055   1.000000
    3        1.954592   1.000000
    4        2.041066   1.000000
    5        2.065499   1.000000
    6        2.522374   1.000000
    7        2.542832   1.000000
    8        2.602416   1.000000
    9        3.277890   1.000000
   10        3.557875   1.000000
   11        4.107700   1.000000
   12        4.186135   1.000000
   13        4.880808   1.000000
   14        5.194239   1.000000
   15        5.556260   1.000000
   16        5.657457   1.000000
   17        5.701974   1.000000
   18        5.863410   1.000000
   19        6.449471   1.003177
   20        7.001868   1.010215
   21        7.373820   0.070914
   22        7.375255  -0.000723
   23       12.217984   0.000000
   24       12.960447   0.000000
 
  0.2857143E+00  0.2857143E+00  0.0000000E+00  0.3498542E-01
    1       -0.597990   1.000000
    2        1.568973   1.000000
    3        1.661188   1.000000
    4        1.661188   1.000000
    5        2.021208   1.000000
    6        2.021208   1.000000
    7        2.407674   1.000000
    8        3.038309   1.000000
    9        3.696415   1.000000
   10        3.696415   1.000000
   11        4.119427   1.000000
   12        4.235888   1.000000
   13        4.429634   1.000000
   14        5.079888   1.000000
   15        5.814137   1.000000
   16        6.166545   1.000000
   17        6.166545   1.000000
   18        6.397805   1.000000
   19        6.600737   1.044729
   20        6.600737   1.162488
   21        6.926075   1.096464
   22        9.225092  -0.000088
   23        9.225092   0.000000
   24       12.303915   0.000000
 
  0.4285714E+00  0.2857143E+00  0.0000000E+00  0.6997085E-01
    1        0.360419   1.000000
    2        1.331362   1.000000
    3        2.021793   1.000000
    4        2.365420   1.000000
    5        2.390743   1.000000
    6        2.657573   1.000000
    7        2.734983   1.000000
    8        2.742031   1.000000
    9        2.746009   1.000000
   10        3.451005   1.000000
   11        3.459731   1.000000
   12        3.867885   1.000000
   13        4.937051   1.000000
   14        5.079876   1.000000
   15        5.413985   1.000000
   16        5.581041   1.000000
   17        5.592731   1.000000
   18        5.709712   1.000000
   19        6.610624   1.003412
   20        6.686144   1.016386
   21        7.104286   0.797705
   22        7.994195  -0.003024
   23       10.370449   0.000000
   24       11.279331   0.000000
 
  0.4285714E+00  0.4285714E+00  0.0000000E+00  0.3498542E-01
    1        1.106961   1.000000
    2        1.869901   1.000000
    3        1.869901   1.000000
    4        2.025988   1.000000
    5        2.786585   1.000000
    6        2.786585   1.000000
    7        2.836038   1.000000
    8        3.068361   1.000000
    9        3.149371   1.000000
   10        3.149371   1.000000
   11        3.192721   1.000000
   12        3.648657   1.000000
   13        4.841457   1.000000
   14        5.076566   1.000000
   15        5.138721   1.000000
   16        5.138721   1.000000
   17        5.210746   1.000000
   18        5.802422   1.000000
   19        5.802422   1.000000
   20        6.103454   1.000000
   21        8.028332  -0.150574
   22        9.054421   0.000000
   23        9.054421   0.000000
   24       10.059411   0.000000
 
  0.1428571E+00  0.1428571E+00  0.1428571E+00  0.2332362E-01
    1       -1.736622   1.000000
    2        1.051540   1.000000
    3        1.051540   1.000000
    4        1.051540   1.000000
    5        1.525890   1.000000
    6        1.525890   1.000000
    7        1.525890   1.000000
    8        3.447456   1.000000
    9        3.972972   1.000000
   10        3.972972   1.000000
   11        5.495428   1.000000
   12        5.495428   1.000000
   13        5.495428   1.000028
   14        5.647093   1.000026
   15        5.647093   1.000090
   16        6.461457   1.007467
   17        6.461457   1.016810
   18        6.461457   1.029408
   19        7.510040   0.126210
   20        7.510040  -0.007350
   21        7.510040  -0.025195
   22       10.129803   0.000000
   23       10.129803   0.000000
   24       10.129803   0.000000
 
  0.2857143E+00  0.1428571E+00  0.1428571E+00  0.6997085E-01
    1       -1.048156   1.000000
    2        1.185815   1.000000
    3        1.431358   1.000000
    4        1.431358   1.000000
    5        1.829173   1.000000
    6        2.037121   1.000000
    7        2.037121   1.000000
    8        3.176213   1.000000
    9        4.152771   1.000000
   10        4.196780   1.000000
   11        4.401737   1.000000
   12        4.401737   1.000000
   13        4.515896   1.000000
   14        5.378227   1.000000
   15        5.826441   1.000000
   16        5.991162   1.000000
   17        6.003550   1.000000
   18        6.003550   1.002058
   19        7.342895   0.591708
   20        7.356905   0.286625
   21        7.356905   0.064803
   22        8.240635  -0.000070
   23       11.487894   0.000000
   24       11.487894   0.000000
 
  0.4285714E+00  0.1428571E+00  0.1428571E+00  0.6997085E-01
    1       -0.042932   1.000000
    2        0.900626   1.000000
    3        2.029356   1.000000
    4        2.029356   1.000000
    5        2.255230   1.000000
    6        2.478010   1.000000
    7        2.478010   1.000000
    8        2.728575   1.000000
    9        3.483127   1.000000
   10        3.483127   1.000000
   11        3.899246   1.000000
   12        4.061836   1.000000
   13        4.594810   1.000000
   14        5.158207   1.000000
   15        5.503981   1.000000
   16        5.503981   1.000000
   17        5.655872   1.000000
   18        6.465651   1.000000
   19        6.696766   1.021994
   20        6.958215   1.027166
   21        7.228922   0.552226
   22        7.228922   0.012487
   23       12.595098   0.000000
   24       12.595100   0.000000
 
  0.2857143E+00  0.2857143E+00  0.1428571E+00  0.6997085E-01
    1       -0.481064   1.000000
    2        1.476096   1.000000
    3        1.476096   1.000000
    4        1.546316   1.000000
    5        2.369139   1.000000
    6        2.369139   1.000000
    7        2.498029   1.000000
    8        3.208589   1.000000
    9        3.737382   1.000000
   10        3.737382   1.000000
   11        4.096266   1.000000
   12        4.101717   1.000000
   13        4.208348   1.000000
   14        5.446499   1.000000
   15        5.471594   1.000000
   16        5.471594   1.000000
   17        5.473731   1.000000
   18        6.298700   1.000000
   19        7.168331   0.880462
   20        7.178276   0.811068
   21        7.178276   0.675576
   22        9.418285  -0.000040
   23        9.418285   0.000000
   24       12.740760   0.000000
 
  0.4285714E+00  0.2857143E+00  0.1428571E+00  0.1399417E+00
    1        0.330160   1.000000
    2        1.119676   1.000000
    3        1.819871   1.000000
    4        1.851605   1.000000
    5        2.699512   1.000000
    6        2.699697   1.000000
    7        2.796829   1.000000
    8        3.065010   1.000000
    9        3.443341   1.000000
   10        3.491757   1.000000
   11        3.779161   1.000000
   12        3.859525   1.000000
   13        4.415155   1.000000
   14        4.862572   1.000000
   15        5.092500   1.000000
   16        5.169293   1.000000
   17        5.778353   1.000000
   18        6.583103   1.000000
   19        6.919005   1.016419
   20        6.919150   1.027284
   21        6.992133   0.968838
   22        7.908713  -0.001842
   23       10.558793   0.000000
   24       11.578026   0.000000
 
  0.4285714E+00  0.4285714E+00  0.1428571E+00  0.6997085E-01
    1        0.831351   1.000000
    2        1.365699   1.000000
    3        1.365699   1.000000
    4        1.584866   1.000000
    5        3.012238   1.000000
    6        3.205948   1.000000
    7        3.205948   1.000000
    8        3.371708   1.000000
    9        3.520890   1.000000
   10        3.520890   1.000000
   11        3.730135   1.000000
   12        3.907251   1.000000
   13        4.345771   1.000000
   14        4.657614   1.000000
   15        4.657614   1.000000
   16        4.684880   1.000000
   17        5.824458   1.000000
   18        6.361245   1.000000
   19        6.361245   1.010433
   20        6.516246   1.010337
   21        7.907106  -0.125096
   22        8.998190   0.000000
   23        8.998190   0.000000
   24       10.108073   0.000000
 
  0.2857143E+00  0.2857143E+00  0.2857143E+00  0.2332362E-01
    1       -0.152495   1.000000
    2        1.337993   1.000000
    3        1.337993   1.000000
    4        1.337993   1.000000
    5        2.833030   1.000000
    6        2.833030   1.000000
    7        2.833030   1.000000
    8        3.620553   1.000000
    9        3.895594   1.000000
   10        3.895594   1.000000
   11        3.895594   1.000000
   12        4.020299   1.000000
   13        4.020299   1.000000
   14        4.845033   1.000000
   15        4.845033   1.000000
   16        4.845033   1.000000
   17        6.145611   1.000000
   18        6.145611   1.000000
   19        7.384359   0.357012
   20        7.384359   0.310044
   21        7.384359   0.003674
   22       10.039870  -0.000016
   23       10.039870   0.000000
   24       10.039870   0.000000
 
  0.4285714E+00  0.2857143E+00  0.2857143E+00  0.6997085E-01
    1        0.330463   1.000000
    2        0.877952   1.000000
    3        1.304457   1.000000
    4        1.304457   1.000000
    5        2.972062   1.000000
    6        2.972062   1.000000
    7        3.365829   1.000000
    8        3.798097   1.000000
    9        3.842403   1.000000
   10        3.894338   1.000000
   11        4.061732   1.000000
   12        4.259905   1.000000
   13        4.259905   1.000000
   14        4.348564   1.000000
   15        4.562382   1.000000
   16        4.562382   1.000000
   17        6.537493   1.000000
   18        6.798339   1.000000
   19        7.178480   0.958360
   20        7.178480   0.956802
   21        7.257587   0.320602
   22        7.936173  -0.000404
   23       10.764059   0.000000
   24       10.764059   0.000000
 
  0.4285714E+00  0.4285714E+00  0.2857143E+00  0.6997085E-01
    1        0.477693   1.000000
    2        0.811577   1.000000
    3        0.811577   1.000000
    4        0.952165   1.000000
    5        3.257893   1.000000
    6        3.392104   1.000000
    7        3.392104   1.000000
    8        3.718817   1.000000
    9        3.907601   1.000000
   10        4.094169   1.000000
   11        4.094169   1.000000
   12        4.153129   1.000000
   13        4.702431   1.000000
   14        4.714769   1.000000
   15        4.714769   1.000000
   16        4.884608   1.000000
   17        6.568855   1.000000
   18        7.037404   1.000000
   19        7.037404   1.046076
   20        7.061269   1.042082
   21        7.540981  -0.028556
   22        8.771484   0.000000
   23        8.771484   0.000000
   24        9.839867   0.000000
 
  0.4285714E+00  0.4285714E+00  0.4285714E+00  0.2332362E-01
    1        0.353562   1.000000
    2        0.515418   1.000000
    3        0.515418   1.000000
    4        0.515418   1.000000
    5        3.549633   1.000000
    6        3.549633   1.000000
    7        3.549633   1.000000
    8        3.720680   1.000000
    9        3.720680   1.000000
   10        3.807700   1.000000
   11        3.807700   1.000000
   12        3.807700   1.000000
   13        5.817854   1.000000
   14        5.817854   1.000000
   15        5.817854   1.000000
   16        6.097027   1.000000
   17        7.121073   1.000000
   18        7.121072   1.000000
   19        7.304988   0.435698
   20        7.304987   0.405791
   21        7.304987   0.000000
   22        8.393355   0.000000
   23        8.393355   0.000000
   24        8.393355   0.000000
