 vasp.5.4.1 05Feb16 (build Mar 02 2016 14:09:44) complex                        
  
 executed on   Abel-impi-ifc-cuda date 2019.09.20  09:57:57
 running on    4 total cores
 distrk:  each k-point on    4 cores,    1 groups
 distr:  one band on NCORES_PER_BAND=   2 cores,    2 groups


--------------------------------------------------------------------------------------------------------


 INCAR:
 POTCAR:   PAW_PBE Pt 05Jan2001                   
 POTCAR:   PAW_PBE Pt 05Jan2001                   
   VRHFIN =Pt: s1d9                                                             
   LEXCH  = PE                                                                  
   EATOM  =   729.1171 eV,   53.5886 Ry                                         
                                                                                
   TITEL  = PAW_PBE Pt 05Jan2001                                                
   LULTRA =        F    use ultrasoft PP ?                                      
   IUNSCR =        1    unscreen: 0-lin 1-nonlin 2-no                           
   RPACOR =    2.330    partial core radius                                     
   POMASS =  195.080; ZVAL   =   10.000    mass and valenz                      
   RCORE  =    2.500    outmost cutoff radius                                   
   RWIGS  =    2.750; RWIGS  =    1.455    wigner-seitz radius (au A)           
   ENMAX  =  230.283; ENMIN  =  172.712 eV                                      
   RCLOC  =    1.896    cutoff for local pot                                    
   LCOR   =        T    correct aug charges                                     
   LPAW   =        T    paw PP                                                  
   EAUG   =  358.966                                                            
   DEXC   =    -.039                                                            
   RMAX   =    3.038    core radius for proj-oper                               
   RAUG   =    1.300    factor for augmentation sphere                          
   RDEP   =    2.590    radius for radial grids                                 
   QCUT   =   -4.114; QGAM   =    8.228    optimization parameters              
                                                                                
   Description                                                                  
     l     E      TYP  RCUT    TYP  RCUT                                        
     2   .000     23  2.500                                                     
     2   .000     23  2.500                                                     
     0   .000     23  2.500                                                     
     0   .000     23  2.500                                                     
     1  -.200     23  2.500                                                     
     1  1.500     23  2.500                                                     
     3   .000      7   .000                                                     
  local pseudopotential read in
  partial core-charges read in
  atomic valenz-charges read in
  non local Contribution for L=           2  read in
    real space projection operators read in
  non local Contribution for L=           2  read in
    real space projection operators read in
  non local Contribution for L=           0  read in
    real space projection operators read in
  non local Contribution for L=           0  read in
    real space projection operators read in
  non local Contribution for L=           1  read in
    real space projection operators read in
  non local Contribution for L=           1  read in
    real space projection operators read in
    PAW grid and wavefunctions read in
 
   number of l-projection  operators is LMAX  =           6
   number of lm-projection operators is LMMAX =          18
 

 ----------------------------------------------------------------------------- 
|                                                                             |
|  ADVICE TO THIS USER RUNNING 'VASP/VAMP'   (HEAR YOUR MASTER'S VOICE ...):  |
|                                                                             |
|      You have a (more or less) 'small supercell' and for smaller cells      |
|      it is recommended  to use the reciprocal-space projection scheme!      |
|      The real space optimization is not  efficient for small cells and it   |
|      is also less accurate ...                                              |
|      Therefore set LREAL=.FALSE. in the  INCAR file                         |
|                                                                             |
 ----------------------------------------------------------------------------- 

 Optimization of the real space projectors (new method)

 maximal supplied QI-value         = 15.12
 optimisation between [QCUT,QGAM] = [ 11.34, 22.83] = [ 36.00,145.93] Ry 
 Optimized for a Real-space Cutoff    1.43 Angstroem

   l    n(q)    QCUT    max X(q) W(low)/X(q) W(high)/X(q)  e(spline) 
   2      9    11.338     3.643    0.45E-04    0.66E-04    0.77E-07
   2      9    11.338    46.462    0.27E-03    0.14E-02    0.90E-06
   0     10    11.338    13.796    0.12E-04    0.76E-05    0.74E-08
   0     10    11.338    57.669    0.14E-03    0.20E-03    0.14E-06
   1      9    11.338     7.440    0.12E-04    0.48E-04    0.44E-07
   1      9    11.338    10.255    0.14E-03    0.98E-04    0.21E-06
 PAW_PBE Pt 05Jan2001                   :
 energy of atom  1       EATOM= -729.1171
 kinetic energy error for atom=    0.0039 (will be added to EATOM!!)
 
 
 POSCAR: Pt_fcc                                  
  positions in direct lattice
  velocities in cartesian coordinates
 exchange correlation table for  LEXCH =        8
   RHO(1)=    0.500       N(1)  =     2000
   RHO(2)=  100.500       N(2)  =     4000
 


--------------------------------------------------------------------------------------------------------


 ion  position               nearest neighbor table
   1  0.000  0.000  0.000-   2 2.81   3 2.81   4 2.81   2 2.81   3 2.81   2 2.81   4 2.81   2 2.81
                             3 2.81   4 2.81   3 2.81   4 2.81
   2  0.000  0.500  0.500-   1 2.81   3 2.81   4 2.81   1 2.81   4 2.81   1 2.81   3 2.81   1 2.81
                             3 2.81   4 2.81   4 2.81   3 2.81
   3  0.500  0.000  0.500-   1 2.81   2 2.81   4 2.81   1 2.81   4 2.81   2 2.81   4 2.81   4 2.81
                             1 2.81   2 2.81   1 2.81   2 2.81
   4  0.500  0.500  0.000-   1 2.81   2 2.81   3 2.81   2 2.81   3 2.81   1 2.81   3 2.81   3 2.81
                             1 2.81   2 2.81   2 2.81   1 2.81
 
  LATTYP: Found a simple cubic cell.
 ALAT       =     3.9775830074
  
  Lattice vectors:
  
 A1 = (   3.9775830074,   0.0000000000,   0.0000000000)
 A2 = (   0.0000000000,   3.9775830074,   0.0000000000)
 A3 = (   0.0000000000,   0.0000000000,   3.9775830074)


Analysis of symmetry for initial positions (statically):
=====================================================================
 Subroutine PRICEL returns following result:
 
  LATTYP: Found a face centered cubic cell.
 ALAT       =     3.9775830074
  
  Lattice vectors:
  
 A1 = (   1.9887915037,   1.9887915037,  -0.0000000000)
 A2 = (   1.9887915037,   0.0000000000,  -1.9887915037)
 A3 = (   0.0000000000,   1.9887915037,  -1.9887915037)
 
   4 primitive cells build up your supercell.
 

 Routine SETGRP: Setting up the symmetry group for a 
 simple cubic supercell.


 Subroutine GETGRP returns: Found 48 space group operations
 (whereof 48 operations were pure point group operations)
 out of a pool of 48 trial point group operations.


The static configuration has the point symmetry O_h .


Analysis of symmetry for dynamics (positions and initial velocities):
=====================================================================
 Subroutine PRICEL returns following result:
 
  LATTYP: Found a face centered cubic cell.
 ALAT       =     3.9775830074
  
  Lattice vectors:
  
 A1 = (   1.9887915037,   1.9887915037,  -0.0000000000)
 A2 = (   1.9887915037,   0.0000000000,  -1.9887915037)
 A3 = (   0.0000000000,   1.9887915037,  -1.9887915037)
 
   4 primitive cells build up your supercell.
 

 Routine SETGRP: Setting up the symmetry group for a 
 simple cubic supercell.


 Subroutine GETGRP returns: Found 48 space group operations
 (whereof 48 operations were pure point group operations)
 out of a pool of 48 trial point group operations.


The dynamic configuration has the point symmetry O_h .


 Subroutine INISYM returns: Found 48 space group operations
 (whereof 48 operations are pure point group operations),
 and found     4 'primitive' translations

 
 
 KPOINTS: k-density: 4.0                          

Automatic generation of k-mesh.
Space group operators:
 irot       det(A)        alpha          n_x          n_y          n_z        tau_x        tau_y        tau_z
    1     1.000000     0.000001     1.000000     0.000000     0.000000     0.000000     0.000000     0.000000
    2    -1.000000     0.000001     1.000000     0.000000     0.000000     0.000000     0.000000     0.000000
    3     1.000000   120.000000    -0.577350    -0.577350    -0.577350     0.000000     0.000000     0.000000
    4    -1.000000   120.000000    -0.577350    -0.577350    -0.577350     0.000000     0.000000     0.000000
    5     1.000000   120.000000     0.577350     0.577350     0.577350     0.000000     0.000000     0.000000
    6    -1.000000   120.000000     0.577350     0.577350     0.577350     0.000000     0.000000     0.000000
    7     1.000000    90.000000     0.000000     0.000000    -1.000000     0.000000     0.000000     0.000000
    8    -1.000000    90.000000     0.000000     0.000000    -1.000000     0.000000     0.000000     0.000000
    9     1.000000   180.000000     0.000000     0.707107     0.707107     0.000000     0.000000     0.000000
   10    -1.000000   180.000000     0.000000     0.707107     0.707107     0.000000     0.000000     0.000000
   11     1.000000    90.000000     0.000000     1.000000     0.000000     0.000000     0.000000     0.000000
   12    -1.000000    90.000000     0.000000     1.000000     0.000000     0.000000     0.000000     0.000000
   13     1.000000   180.000000     0.000000     0.000000     1.000000     0.000000     0.000000     0.000000
   14    -1.000000   180.000000     0.000000     0.000000     1.000000     0.000000     0.000000     0.000000
   15     1.000000   120.000000    -0.577350     0.577350     0.577350     0.000000     0.000000     0.000000
   16    -1.000000   120.000000    -0.577350     0.577350     0.577350     0.000000     0.000000     0.000000
   17     1.000000   120.000000    -0.577350     0.577350    -0.577350     0.000000     0.000000     0.000000
   18    -1.000000   120.000000    -0.577350     0.577350    -0.577350     0.000000     0.000000     0.000000
   19     1.000000    90.000000     0.000000     0.000000     1.000000     0.000000     0.000000     0.000000
   20    -1.000000    90.000000     0.000000     0.000000     1.000000     0.000000     0.000000     0.000000
   21     1.000000    90.000000    -1.000000     0.000000     0.000000     0.000000     0.000000     0.000000
   22    -1.000000    90.000000    -1.000000     0.000000     0.000000     0.000000     0.000000     0.000000
   23     1.000000   180.000000     0.707107     0.000000     0.707107     0.000000     0.000000     0.000000
   24    -1.000000   180.000000     0.707107     0.000000     0.707107     0.000000     0.000000     0.000000
   25     1.000000   120.000000     0.577350    -0.577350     0.577350     0.000000     0.000000     0.000000
   26    -1.000000   120.000000     0.577350    -0.577350     0.577350     0.000000     0.000000     0.000000
   27     1.000000   120.000000    -0.577350    -0.577350     0.577350     0.000000     0.000000     0.000000
   28    -1.000000   120.000000    -0.577350    -0.577350     0.577350     0.000000     0.000000     0.000000
   29     1.000000   180.000000     1.000000     0.000000     0.000000     0.000000     0.000000     0.000000
   30    -1.000000   180.000000     1.000000     0.000000     0.000000     0.000000     0.000000     0.000000
   31     1.000000    90.000000     0.000000    -1.000000     0.000000     0.000000     0.000000     0.000000
   32    -1.000000    90.000000     0.000000    -1.000000     0.000000     0.000000     0.000000     0.000000
   33     1.000000   180.000000     0.707107     0.707107     0.000000     0.000000     0.000000     0.000000
   34    -1.000000   180.000000     0.707107     0.707107     0.000000     0.000000     0.000000     0.000000
   35     1.000000    90.000000     1.000000     0.000000     0.000000     0.000000     0.000000     0.000000
   36    -1.000000    90.000000     1.000000     0.000000     0.000000     0.000000     0.000000     0.000000
   37     1.000000   120.000000     0.577350    -0.577350    -0.577350     0.000000     0.000000     0.000000
   38    -1.000000   120.000000     0.577350    -0.577350    -0.577350     0.000000     0.000000     0.000000
   39     1.000000   180.000000     0.000000     1.000000     0.000000     0.000000     0.000000     0.000000
   40    -1.000000   180.000000     0.000000     1.000000     0.000000     0.000000     0.000000     0.000000
   41     1.000000   120.000000     0.577350     0.577350    -0.577350     0.000000     0.000000     0.000000
   42    -1.000000   120.000000     0.577350     0.577350    -0.577350     0.000000     0.000000     0.000000
   43     1.000000   180.000000     0.000000    -0.707107     0.707107     0.000000     0.000000     0.000000
   44    -1.000000   180.000000     0.000000    -0.707107     0.707107     0.000000     0.000000     0.000000
   45     1.000000   180.000000     0.707107    -0.707107     0.000000     0.000000     0.000000     0.000000
   46    -1.000000   180.000000     0.707107    -0.707107     0.000000     0.000000     0.000000     0.000000
   47     1.000000   180.000000     0.707107     0.000000    -0.707107     0.000000     0.000000     0.000000
   48    -1.000000   180.000000     0.707107     0.000000    -0.707107     0.000000     0.000000     0.000000
 
 Subroutine IBZKPT returns following result:
 ===========================================
 
 Found     20 irreducible k-points:
 
 Following reciprocal coordinates:
            Coordinates               Weight
  0.000000  0.000000  0.000000      1.000000
  0.142857  0.000000  0.000000      6.000000
  0.285714  0.000000  0.000000      6.000000
  0.428571  0.000000  0.000000      6.000000
  0.142857  0.142857  0.000000     12.000000
  0.285714  0.142857  0.000000     24.000000
  0.428571  0.142857  0.000000     24.000000
  0.285714  0.285714  0.000000     12.000000
  0.428571  0.285714  0.000000     24.000000
  0.428571  0.428571  0.000000     12.000000
  0.142857  0.142857  0.142857      8.000000
  0.285714  0.142857  0.142857     24.000000
  0.428571  0.142857  0.142857     24.000000
  0.285714  0.285714  0.142857     24.000000
  0.428571  0.285714  0.142857     48.000000
  0.428571  0.428571  0.142857     24.000000
  0.285714  0.285714  0.285714      8.000000
  0.428571  0.285714  0.285714     24.000000
  0.428571  0.428571  0.285714     24.000000
  0.428571  0.428571  0.428571      8.000000
 
 Following cartesian coordinates:
            Coordinates               Weight
  0.000000  0.000000  0.000000      1.000000
  0.143662  0.000000  0.000000      6.000000
  0.287325  0.000000  0.000000      6.000000
  0.430987  0.000000  0.000000      6.000000
  0.143662  0.143662  0.000000     12.000000
  0.287325  0.143662  0.000000     24.000000
  0.430987  0.143662  0.000000     24.000000
  0.287325  0.287325  0.000000     12.000000
  0.430987  0.287325  0.000000     24.000000
  0.430987  0.430987  0.000000     12.000000
  0.143662  0.143662  0.143662      8.000000
  0.287325  0.143662  0.143662     24.000000
  0.430987  0.143662  0.143662     24.000000
  0.287325  0.287325  0.143662     24.000000
  0.430987  0.287325  0.143662     48.000000
  0.430987  0.430987  0.143662     24.000000
  0.287325  0.287325  0.287325      8.000000
  0.430987  0.287325  0.287325     24.000000
  0.430987  0.430987  0.287325     24.000000
  0.430987  0.430987  0.430987      8.000000
 
 TETIRR: Found    163 inequivalent tetrahedra from     2058


--------------------------------------------------------------------------------------------------------




 Dimension of arrays:
   k-points           NKPTS =     20   k-points in BZ     NKDIM =     20   number of bands    NBANDS=     24
   number of dos      NEDOS =    301   number of ions     NIONS =      4
   non local maximal  LDIM  =      6   non local SUM 2l+1 LMDIM =     18
   total plane-waves  NPLWV =  13824
   max r-space proj   IRMAX =   2748   max aug-charges    IRDMAX=  13503
   dimension x,y,z NGX =    24 NGY =   24 NGZ =   24
   dimension x,y,z NGXF=    48 NGYF=   48 NGZF=   48
   support grid    NGXF=    48 NGYF=   48 NGZF=   48
   ions per type =               4
 NGX,Y,Z   is equivalent  to a cutoff of  10.03, 10.03, 10.03 a.u.
 NGXF,Y,Z  is equivalent  to a cutoff of  20.06, 20.06, 20.06 a.u.


 I would recommend the setting:
   dimension x,y,z NGX =    22 NGY =   22 NGZ =   22
 SYSTEM =  unknown system                          
 POSCAR =  Pt_fcc                                  

 Startparameter for this run:
   NWRITE =      2    write-flag & timer
   PREC   = normal    normal or accurate (medium, high low for compatibility)
   ISTART =      0    job   : 0-new  1-cont  2-samecut
   ICHARG =      2    charge: 1-file 2-atom 10-const
   ISPIN  =      1    spin polarized calculation?
   LNONCOLLINEAR =      F non collinear calculations
   LSORBIT =      F    spin-orbit coupling
   INIWAV =      1    electr: 0-lowe 1-rand  2-diag
   LASPH  =      F    aspherical Exc in radial PAW
   METAGGA=      F    non-selfconsistent MetaGGA calc.

 Electronic Relaxation 1
   ENCUT  =  500.0 eV  36.75 Ry    6.06 a.u.   7.25  7.25  7.25*2*pi/ulx,y,z
   ENINI  =  500.0     initial cutoff
   ENAUG  =  359.0 eV  augmentation charge cutoff
   NELM   =     60;   NELMIN=  4; NELMDL= -5     # of ELM steps 
   EDIFF  = 0.1E-04   stopping-criterion for ELM
   LREAL  =      T    real-space projection
   NLSPLINE    = F    spline interpolate recip. space projectors
   LCOMPAT=      F    compatible to vasp.4.4
   GGA_COMPAT  = T    GGA compatible to vasp.4.4-vasp.4.6
   LMAXPAW     = -100 max onsite density
   LMAXMIX     =    2 max onsite mixed and CHGCAR
   VOSKOWN=      0    Vosko Wilk Nusair interpolation
   ROPT   =   -0.00050
 Ionic relaxation
   EDIFFG = 0.1E-03   stopping-criterion for IOM
   NSW    =      0    number of steps for IOM
   NBLOCK =      1;   KBLOCK =      1    inner block; outer block 
   IBRION =     -1    ionic relax: 0-MD 1-quasi-New 2-CG
   NFREE  =      0    steps in history (QN), initial steepest desc. (CG)
   ISIF   =      2    stress and relaxation
   IWAVPR =     10    prediction:  0-non 1-charg 2-wave 3-comb
   ISYM   =      2    0-nonsym 1-usesym 2-fastsym
   LCORR  =      T    Harris-Foulkes like correction to forces

   POTIM  = 0.5000    time-step for ionic-motion
   TEIN   =    0.0    initial temperature
   TEBEG  =    0.0;   TEEND  =   0.0 temperature during run
   SMASS  =  -3.00    Nose mass-parameter (am)
   estimated Nose-frequenzy (Omega)   =  0.10E-29 period in steps =****** mass=  -0.362E-27a.u.
   SCALEE = 1.0000    scale energy and forces
   NPACO  =    256;   APACO  = 16.0  distance and # of slots for P.C.
   PSTRESS=    0.0 pullay stress

  Mass of Ions in am
   POMASS = 195.08
  Ionic Valenz
   ZVAL   =  10.00
  Atomic Wigner-Seitz radii
   RWIGS  =  -1.00
  virtual crystal weights 
   VCA    =   1.00
   NELECT =      40.0000    total number of electrons
   NUPDOWN=      -1.0000    fix difference up-down

 DOS related values:
   EMIN   =  10.00;   EMAX   =-10.00  energy-range for DOS
   EFERMI =   0.00
   ISMEAR =    -5;   SIGMA  =   0.20  broadening in eV -4-tet -1-fermi 0-gaus

 Electronic relaxation 2 (details)
   IALGO  =     68    algorithm
   LDIAG  =      T    sub-space diagonalisation (order eigenvalues)
   LSUBROT=      F    optimize rotation matrix (better conditioning)
   TURBO    =      0    0=normal 1=particle mesh
   IRESTART =      0    0=no restart 2=restart with 2 vectors
   NREBOOT  =      0    no. of reboots
   NMIN     =      0    reboot dimension
   EREF     =   0.00    reference energy to select bands
   IMIX   =      4    mixing-type and parameters
     AMIX     =   0.40;   BMIX     =  1.00
     AMIX_MAG =   1.60;   BMIX_MAG =  1.00
     AMIN     =   0.10
     WC   =   100.;   INIMIX=   1;  MIXPRE=   1;  MAXMIX= -45

 Intra band minimization:
   WEIMIN = 0.0000     energy-eigenvalue tresh-hold
   EBREAK =  0.10E-06  absolut break condition
   DEPER  =   0.30     relativ break condition  

   TIME   =   0.40     timestep for ELM

  volume/ion in A,a.u.               =      15.73       106.17
  Fermi-wavevector in a.u.,A,eV,Ry     =   1.407588  2.659956 26.957280  1.981304
  Thomas-Fermi vector in A             =   2.529832
 
 Write flags
   LWAVE  =      F    write WAVECAR
   LCHARG =      T    write CHGCAR
   LVTOT  =      F    write LOCPOT, total local potential
   LVHAR  =      F    write LOCPOT, Hartree potential only
   LELF   =      F    write electronic localiz. function (ELF)
   LORBIT =      0    0 simple, 1 ext, 2 COOP (PROOUT)


 Dipole corrections
   LMONO  =      F    monopole corrections only (constant potential shift)
   LDIPOL =      F    correct potential (dipole corrections)
   IDIPOL =      0    1-x, 2-y, 3-z, 4-all directions 
   EPSILON=  1.0000000 bulk dielectric constant

 Exchange correlation treatment:
   GGA     =    --    GGA type
   LEXCH   =     8    internal setting for exchange type
   VOSKOWN=      0    Vosko Wilk Nusair interpolation
   LHFCALC =     F    Hartree Fock is set to
   LHFONE  =     F    Hartree Fock one center treatment
   AEXX    =    0.0000 exact exchange contribution

 Linear response parameters
   LEPSILON=     F    determine dielectric tensor
   LRPA    =     F    only Hartree local field effects (RPA)
   LNABLA  =     F    use nabla operator in PAW spheres
   LVEL    =     F    velocity operator in full k-point grid
   LINTERFAST=   F  fast interpolation
   KINTER  =     0    interpolate to denser k-point grid
   CSHIFT  =0.1000    complex shift for real part using Kramers Kronig
   OMEGAMAX=  -1.0    maximum frequency
   DEG_THRESHOLD= 0.2000000E-02 threshold for treating states as degnerate
   RTIME   =    0.100 relaxation time in fs

 Orbital magnetization related:
   ORBITALMAG=     F  switch on orbital magnetization
   LCHIMAG   =     F  perturbation theory with respect to B field
   DQ        =  0.001000  dq finite difference perturbation B field



--------------------------------------------------------------------------------------------------------


 Static calculation
 charge density and potential will be updated during run
 non-spin polarized calculation
 RMM-DIIS sequential band-by-band and
  variant of blocked Davidson during initial phase
 perform sub-space diagonalisation
    before iterative eigenvector-optimisation
 modified Broyden-mixing scheme, WC =      100.0
 initial mixing is a Kerker type mixing with AMIX =  0.4000 and BMIX =      1.0000
 Hartree-type preconditioning will be used
 using additional bands            4
 real space projection scheme for non local part
 use partial core corrections
 calculate Harris-corrections to forces 
   (improved forces if not selfconsistent)
 use gradient corrections 
 use of overlap-Matrix (Vanderbilt PP)
 Fermi weights with tetrahedron method with Bloechl corrections


--------------------------------------------------------------------------------------------------------


  energy-cutoff  :      500.00
  volume of cell :       62.93
      direct lattice vectors                 reciprocal lattice vectors
     3.977583007  0.000000000  0.000000000     0.251408958  0.000000000  0.000000000
     0.000000000  3.977583007  0.000000000     0.000000000  0.251408958  0.000000000
     0.000000000  0.000000000  3.977583007     0.000000000  0.000000000  0.251408958

  length of vectors
     3.977583007  3.977583007  3.977583007     0.251408958  0.251408958  0.251408958


 
 k-points in units of 2pi/SCALE and weight: k-density: 4.0                          
   0.00000000  0.00000000  0.00000000       0.003
   0.14366226  0.00000000  0.00000000       0.017
   0.28732452  0.00000000  0.00000000       0.017
   0.43098679  0.00000000  0.00000000       0.017
   0.14366226  0.14366226  0.00000000       0.035
   0.28732452  0.14366226  0.00000000       0.070
   0.43098679  0.14366226  0.00000000       0.070
   0.28732452  0.28732452  0.00000000       0.035
   0.43098679  0.28732452  0.00000000       0.070
   0.43098679  0.43098679  0.00000000       0.035
   0.14366226  0.14366226  0.14366226       0.023
   0.28732452  0.14366226  0.14366226       0.070
   0.43098679  0.14366226  0.14366226       0.070
   0.28732452  0.28732452  0.14366226       0.070
   0.43098679  0.28732452  0.14366226       0.140
   0.43098679  0.43098679  0.14366226       0.070
   0.28732452  0.28732452  0.28732452       0.023
   0.43098679  0.28732452  0.28732452       0.070
   0.43098679  0.43098679  0.28732452       0.070
   0.43098679  0.43098679  0.43098679       0.023
 
 k-points in reciprocal lattice and weights: k-density: 4.0                          
   0.00000000  0.00000000  0.00000000       0.003
   0.14285714  0.00000000  0.00000000       0.017
   0.28571429  0.00000000  0.00000000       0.017
   0.42857143  0.00000000  0.00000000       0.017
   0.14285714  0.14285714  0.00000000       0.035
   0.28571429  0.14285714  0.00000000       0.070
   0.42857143  0.14285714  0.00000000       0.070
   0.28571429  0.28571429  0.00000000       0.035
   0.42857143  0.28571429  0.00000000       0.070
   0.42857143  0.42857143  0.00000000       0.035
   0.14285714  0.14285714  0.14285714       0.023
   0.28571429  0.14285714  0.14285714       0.070
   0.42857143  0.14285714  0.14285714       0.070
   0.28571429  0.28571429  0.14285714       0.070
   0.42857143  0.28571429  0.14285714       0.140
   0.42857143  0.42857143  0.14285714       0.070
   0.28571429  0.28571429  0.28571429       0.023
   0.42857143  0.28571429  0.28571429       0.070
   0.42857143  0.42857143  0.28571429       0.070
   0.42857143  0.42857143  0.42857143       0.023
 
 position of ions in fractional coordinates (direct lattice) 
   0.00000000  0.00000000  0.00000000
   0.00000000  0.50000000  0.50000000
   0.50000000  0.00000000  0.50000000
   0.50000000  0.50000000  0.00000000
 
 position of ions in cartesian coordinates  (Angst):
   0.00000000  0.00000000  0.00000000
   0.00000000  1.98879150  1.98879150
   1.98879150  0.00000000  1.98879150
   1.98879150  1.98879150  0.00000000
 


--------------------------------------------------------------------------------------------------------


 k-point  1 :   0.0000 0.0000 0.0000  plane waves:    1575
 k-point  2 :   0.1429 0.0000 0.0000  plane waves:    1607
 k-point  3 :   0.2857 0.0000 0.0000  plane waves:    1598
 k-point  4 :   0.4286 0.0000 0.0000  plane waves:    1602
 k-point  5 :   0.1429 0.1429 0.0000  plane waves:    1604
 k-point  6 :   0.2857 0.1429 0.0000  plane waves:    1596
 k-point  7 :   0.4286 0.1429 0.0000  plane waves:    1595
 k-point  8 :   0.2857 0.2857 0.0000  plane waves:    1604
 k-point  9 :   0.4286 0.2857 0.0000  plane waves:    1597
 k-point 10 :   0.4286 0.4286 0.0000  plane waves:    1608
 k-point 11 :   0.1429 0.1429 0.1429  plane waves:    1602
 k-point 12 :   0.2857 0.1429 0.1429  plane waves:    1592
 k-point 13 :   0.4286 0.1429 0.1429  plane waves:    1594
 k-point 14 :   0.2857 0.2857 0.1429  plane waves:    1593
 k-point 15 :   0.4286 0.2857 0.1429  plane waves:    1601
 k-point 16 :   0.4286 0.4286 0.1429  plane waves:    1600
 k-point 17 :   0.2857 0.2857 0.2857  plane waves:    1598
 k-point 18 :   0.4286 0.2857 0.2857  plane waves:    1588
 k-point 19 :   0.4286 0.4286 0.2857  plane waves:    1606
 k-point 20 :   0.4286 0.4286 0.4286  plane waves:    1598

 maximum and minimum number of plane-waves per node :       818      774

 maximum number of plane-waves:      1608
 maximum index in each direction: 
   IXMAX=    7   IYMAX=    7   IZMAX=    7
   IXMIN=   -7   IYMIN=   -7   IZMIN=   -7

 WARNING: aliasing errors must be expected set NGX to  30 to avoid them
 WARNING: aliasing errors must be expected set NGY to  30 to avoid them
 WARNING: aliasing errors must be expected set NGZ to  30 to avoid them
 aliasing errors are usually negligible using standard VASP settings
 and one can safely disregard these warnings

 real space projection operators:
  total allocation   :       1463.06 KBytes
  max/ min on nodes  :        747.56        715.50


 parallel 3D FFT for wavefunctions:
    minimum data exchange during FFTs selected (reduces bandwidth)
 parallel 3D FFT for charge:
    minimum data exchange during FFTs selected (reduces bandwidth)


 total amount of memory used by VASP on root node    37171. kBytes
========================================================================

   base      :      30000. kBytes
   nonlr-proj:       1101. kBytes
   fftplans  :       1177. kBytes
   grid      :       1645. kBytes
   one-center:         31. kBytes
   wavefun   :       3217. kBytes
 
     INWAV:  cpu time    0.0010: real time    0.0003
 Broyden mixing: mesh for mixing (old mesh)
   NGX = 15   NGY = 15   NGZ = 15
  (NGX  = 48   NGY  = 48   NGZ  = 48)
  gives a total of   3375 points

 initial charge density was supplied:
 charge density of overlapping atoms calculated
 number of electron      40.0000000 magnetization 
 keeping initial charge density in first step


--------------------------------------------------------------------------------------------------------


 Maximum index for non-local projection operator         1329
 Maximum index for augmentation-charges         3239 (set IRDMAX)


--------------------------------------------------------------------------------------------------------


 First call to EWALD:  gamma=   0.446
 Maximum number of real-space cells 3x 3x 3
 Maximum number of reciprocal cells 3x 3x 3

 FEWALD executed in parallel
    FEWALD:  cpu time    0.0010: real time    0.0016


----------------------------------------- Iteration    1(   1)  ---------------------------------------


    POTLOK:  cpu time    0.0160: real time    0.0163
    SETDIJ:  cpu time    0.0050: real time    0.0054
     EDDAV:  cpu time    0.3649: real time    0.3663
 BZINTS: Fermi energy: 27.929730; 40.000000 electrons
         Band energy: 674.634962;  BLOECHL correction: -0.160871
       DOS:  cpu time    0.0080: real time    0.0084
    --------------------------------------------
      LOOP:  cpu time    0.3969: real time    0.4741

 eigenvalue-minimisations  :   960
 total energy-change (2. order) : 0.4678312E+03  (-0.1840786E+04)
 number of electron      40.0000000 magnetization 
 augmentation part       40.0000000 magnetization 

 Free energy of the ion-electron system (eV)
  ---------------------------------------------------
  alpha Z        PSCENC =       369.92282793
  Ewald energy   TEWEN  =     -3319.65611452
  -Hartree energ DENC   =      -301.17203411
  -exchange      EXHF   =         0.00000000
  -V(xc)+E(xc)   XCENC  =        14.51536843
  PAW double counting   =      2292.98197300    -2179.84848231
  entropy T*S    EENTRO =         0.00000000
  eigenvalues    EBANDS =       674.63496244
  atomic energy  EATOM  =      2916.45266723
  Solvation  Ediel_sol  =         0.00000000
  ---------------------------------------------------
  free energy    TOTEN  =       467.83116809 eV

  energy without entropy =      467.83116809  energy(sigma->0) =      467.83116809


--------------------------------------------------------------------------------------------------------




----------------------------------------- Iteration    1(   2)  ---------------------------------------


     EDDAV:  cpu time    0.3619: real time    0.3626
 BZINTS: Fermi energy: 10.544653; 40.000000 electrons
         Band energy: 213.783316;  BLOECHL correction: -0.138245
       DOS:  cpu time    0.0090: real time    0.0085
    --------------------------------------------
      LOOP:  cpu time    0.3719: real time    0.3746

 eigenvalue-minimisations  :   960
 total energy-change (2. order) :-0.4608516E+03  (-0.4487162E+03)
 number of electron      40.0000000 magnetization 
 augmentation part       40.0000000 magnetization 

 Free energy of the ion-electron system (eV)
  ---------------------------------------------------
  alpha Z        PSCENC =       369.92282793
  Ewald energy   TEWEN  =     -3319.65611452
  -Hartree energ DENC   =      -301.17203411
  -exchange      EXHF   =         0.00000000
  -V(xc)+E(xc)   XCENC  =        14.51536843
  PAW double counting   =      2292.98197300    -2179.84848231
  entropy T*S    EENTRO =         0.00000000
  eigenvalues    EBANDS =       213.78331632
  atomic energy  EATOM  =      2916.45266723
  Solvation  Ediel_sol  =         0.00000000
  ---------------------------------------------------
  free energy    TOTEN  =         6.97952197 eV

  energy without entropy =        6.97952197  energy(sigma->0) =        6.97952197


--------------------------------------------------------------------------------------------------------




----------------------------------------- Iteration    1(   3)  ---------------------------------------


     EDDAV:  cpu time    0.4969: real time    0.4969
 BZINTS: Fermi energy:  8.262490; 40.000000 electrons
         Band energy: 182.067474;  BLOECHL correction: -0.142949
       DOS:  cpu time    0.0080: real time    0.0084
    --------------------------------------------
      LOOP:  cpu time    0.5059: real time    0.5110

 eigenvalue-minimisations  :  1384
 total energy-change (2. order) :-0.3171584E+02  (-0.3089809E+02)
 number of electron      40.0000000 magnetization 
 augmentation part       40.0000000 magnetization 

 Free energy of the ion-electron system (eV)
  ---------------------------------------------------
  alpha Z        PSCENC =       369.92282793
  Ewald energy   TEWEN  =     -3319.65611452
  -Hartree energ DENC   =      -301.17203411
  -exchange      EXHF   =         0.00000000
  -V(xc)+E(xc)   XCENC  =        14.51536843
  PAW double counting   =      2292.98197300    -2179.84848231
  entropy T*S    EENTRO =         0.00000000
  eigenvalues    EBANDS =       182.06747374
  atomic energy  EATOM  =      2916.45266723
  Solvation  Ediel_sol  =         0.00000000
  ---------------------------------------------------
  free energy    TOTEN  =       -24.73632061 eV

  energy without entropy =      -24.73632061  energy(sigma->0) =      -24.73632061


--------------------------------------------------------------------------------------------------------




----------------------------------------- Iteration    1(   4)  ---------------------------------------


     EDDAV:  cpu time    0.3749: real time    0.3743
 BZINTS: Fermi energy:  8.228336; 40.000000 electrons
         Band energy: 181.087454;  BLOECHL correction: -0.146487
       DOS:  cpu time    0.0090: real time    0.0091
    --------------------------------------------
      LOOP:  cpu time    0.3849: real time    0.3877

 eigenvalue-minimisations  :  1000
 total energy-change (2. order) :-0.9800201E+00  (-0.9717749E+00)
 number of electron      40.0000000 magnetization 
 augmentation part       40.0000000 magnetization 

 Free energy of the ion-electron system (eV)
  ---------------------------------------------------
  alpha Z        PSCENC =       369.92282793
  Ewald energy   TEWEN  =     -3319.65611452
  -Hartree energ DENC   =      -301.17203411
  -exchange      EXHF   =         0.00000000
  -V(xc)+E(xc)   XCENC  =        14.51536843
  PAW double counting   =      2292.98197300    -2179.84848231
  entropy T*S    EENTRO =         0.00000000
  eigenvalues    EBANDS =       181.08745365
  atomic energy  EATOM  =      2916.45266723
  Solvation  Ediel_sol  =         0.00000000
  ---------------------------------------------------
  free energy    TOTEN  =       -25.71634070 eV

  energy without entropy =      -25.71634070  energy(sigma->0) =      -25.71634070


--------------------------------------------------------------------------------------------------------




----------------------------------------- Iteration    1(   5)  ---------------------------------------


     EDDAV:  cpu time    0.4349: real time    0.4344
 BZINTS: Fermi energy:  8.227043; 40.000000 electrons
         Band energy: 181.059187;  BLOECHL correction: -0.146622
       DOS:  cpu time    0.0080: real time    0.0084
    CHARGE:  cpu time    0.0290: real time    0.0285
    MIXING:  cpu time    0.0000: real time    0.0008
    --------------------------------------------
      LOOP:  cpu time    0.4719: real time    0.4776

 eigenvalue-minimisations  :  1192
 total energy-change (2. order) :-0.2826663E-01  (-0.2808233E-01)
 number of electron      39.9999978 magnetization 
 augmentation part       11.7754519 magnetization 

 Broyden mixing:
  rms(total) = 0.72797E+00    rms(broyden)= 0.72797E+00
  rms(prec ) = 0.18110E+01
  weight for this iteration     100.00

 Free energy of the ion-electron system (eV)
  ---------------------------------------------------
  alpha Z        PSCENC =       369.92282793
  Ewald energy   TEWEN  =     -3319.65611452
  -Hartree energ DENC   =      -301.17203411
  -exchange      EXHF   =         0.00000000
  -V(xc)+E(xc)   XCENC  =        14.51536843
  PAW double counting   =      2292.98197300    -2179.84848231
  entropy T*S    EENTRO =         0.00000000
  eigenvalues    EBANDS =       181.05918702
  atomic energy  EATOM  =      2916.45266723
  Solvation  Ediel_sol  =         0.00000000
  ---------------------------------------------------
  free energy    TOTEN  =       -25.74460733 eV

  energy without entropy =      -25.74460733  energy(sigma->0) =      -25.74460733


--------------------------------------------------------------------------------------------------------




----------------------------------------- Iteration    1(   6)  ---------------------------------------


    POTLOK:  cpu time    0.0150: real time    0.0146
    SETDIJ:  cpu time    0.0040: real time    0.0042
    EDDIAG:  cpu time    0.0570: real time    0.0583
  RMM-DIIS:  cpu time    0.2250: real time    0.2245
    ORTHCH:  cpu time    0.0080: real time    0.0082
 BZINTS: Fermi energy:  7.477263; 40.000000 electrons
         Band energy: 161.139340;  BLOECHL correction: -0.139032
       DOS:  cpu time    0.0090: real time    0.0092
    CHARGE:  cpu time    0.0290: real time    0.0281
    MIXING:  cpu time    0.0000: real time    0.0008
    --------------------------------------------
      LOOP:  cpu time    0.3479: real time    0.3534

 eigenvalue-minimisations  :   960
 total energy-change (2. order) : 0.1352890E+01  (-0.3017914E+00)
 number of electron      39.9999977 magnetization 
 augmentation part       12.2874266 magnetization 

 Broyden mixing:
  rms(total) = 0.24212E+00    rms(broyden)= 0.24212E+00
  rms(prec ) = 0.59714E+00
  weight for this iteration     100.00

 eigenvalues of (default mixing * dielectric matrix)
  average eigenvalue GAMMA=   1.4271
  1.4271

 Free energy of the ion-electron system (eV)
  ---------------------------------------------------
  alpha Z        PSCENC =       369.92282793
  Ewald energy   TEWEN  =     -3319.65611452
  -Hartree energ DENC   =      -273.74206008
  -exchange      EXHF   =         0.00000000
  -V(xc)+E(xc)   XCENC  =        13.50312682
  PAW double counting   =      2296.85164801    -2188.86315219
  entropy T*S    EENTRO =         0.00000000
  eigenvalues    EBANDS =       161.13933954
  atomic energy  EATOM  =      2916.45266723
  Solvation  Ediel_sol  =         0.00000000
  ---------------------------------------------------
  free energy    TOTEN  =       -24.39171725 eV

  energy without entropy =      -24.39171725  energy(sigma->0) =      -24.39171725


--------------------------------------------------------------------------------------------------------




----------------------------------------- Iteration    1(   7)  ---------------------------------------


    POTLOK:  cpu time    0.0140: real time    0.0145
    SETDIJ:  cpu time    0.0040: real time    0.0041
    EDDIAG:  cpu time    0.0570: real time    0.0572
  RMM-DIIS:  cpu time    0.2320: real time    0.2309
    ORTHCH:  cpu time    0.0070: real time    0.0082
 BZINTS: Fermi energy:  7.161932; 40.000000 electrons
         Band energy: 152.507554;  BLOECHL correction: -0.135127
       DOS:  cpu time    0.0100: real time    0.0093
    CHARGE:  cpu time    0.0280: real time    0.0278
    MIXING:  cpu time    0.0010: real time    0.0006
    --------------------------------------------
      LOOP:  cpu time    0.3539: real time    0.3561

 eigenvalue-minimisations  :   988
 total energy-change (2. order) : 0.1048720E+00  (-0.1167832E+00)
 number of electron      39.9999977 magnetization 
 augmentation part       12.5444240 magnetization 

 Broyden mixing:
  rms(total) = 0.62903E-01    rms(broyden)= 0.62902E-01
  rms(prec ) = 0.91798E-01
  weight for this iteration     100.00

 eigenvalues of (default mixing * dielectric matrix)
  average eigenvalue GAMMA=   1.7028
  1.7028  1.7028

 Free energy of the ion-electron system (eV)
  ---------------------------------------------------
  alpha Z        PSCENC =       369.92282793
  Ewald energy   TEWEN  =     -3319.65611452
  -Hartree energ DENC   =      -261.15223002
  -exchange      EXHF   =         0.00000000
  -V(xc)+E(xc)   XCENC  =        13.05096035
  PAW double counting   =      2322.50326133    -2217.91577183
  entropy T*S    EENTRO =         0.00000000
  eigenvalues    EBANDS =       152.50755433
  atomic energy  EATOM  =      2916.45266723
  Solvation  Ediel_sol  =         0.00000000
  ---------------------------------------------------
  free energy    TOTEN  =       -24.28684521 eV

  energy without entropy =      -24.28684521  energy(sigma->0) =      -24.28684521


--------------------------------------------------------------------------------------------------------




----------------------------------------- Iteration    1(   8)  ---------------------------------------


    POTLOK:  cpu time    0.0150: real time    0.0145
    SETDIJ:  cpu time    0.0030: real time    0.0041
    EDDIAG:  cpu time    0.0580: real time    0.0571
  RMM-DIIS:  cpu time    0.2370: real time    0.2376
    ORTHCH:  cpu time    0.0080: real time    0.0083
 BZINTS: Fermi energy:  7.251870; 40.000000 electrons
         Band energy: 154.961115;  BLOECHL correction: -0.136425
       DOS:  cpu time    0.0090: real time    0.0085
    CHARGE:  cpu time    0.0280: real time    0.0279
    MIXING:  cpu time    0.0010: real time    0.0007
    --------------------------------------------
      LOOP:  cpu time    0.3589: real time    0.3625

 eigenvalue-minimisations  :  1007
 total energy-change (2. order) : 0.1358028E-01  (-0.5379041E-02)
 number of electron      39.9999977 magnetization 
 augmentation part       12.5145164 magnetization 

 Broyden mixing:
  rms(total) = 0.17643E-01    rms(broyden)= 0.17642E-01
  rms(prec ) = 0.37651E-01
  weight for this iteration     100.00

 eigenvalues of (default mixing * dielectric matrix)
  average eigenvalue GAMMA=   1.6703
  1.2737  1.2737  2.4635

 Free energy of the ion-electron system (eV)
  ---------------------------------------------------
  alpha Z        PSCENC =       369.92282793
  Ewald energy   TEWEN  =     -3319.65611452
  -Hartree energ DENC   =      -262.60558985
  -exchange      EXHF   =         0.00000000
  -V(xc)+E(xc)   XCENC  =        13.09782970
  PAW double counting   =      2359.21448217    -2255.66048236
  entropy T*S    EENTRO =         0.00000000
  eigenvalues    EBANDS =       154.96111477
  atomic energy  EATOM  =      2916.45266723
  Solvation  Ediel_sol  =         0.00000000
  ---------------------------------------------------
  free energy    TOTEN  =       -24.27326493 eV

  energy without entropy =      -24.27326493  energy(sigma->0) =      -24.27326493


--------------------------------------------------------------------------------------------------------




----------------------------------------- Iteration    1(   9)  ---------------------------------------


    POTLOK:  cpu time    0.0140: real time    0.0145
    SETDIJ:  cpu time    0.0040: real time    0.0042
    EDDIAG:  cpu time    0.0580: real time    0.0571
  RMM-DIIS:  cpu time    0.2450: real time    0.2449
    ORTHCH:  cpu time    0.0080: real time    0.0082
 BZINTS: Fermi energy:  7.239677; 40.000000 electrons
         Band energy: 154.632031;  BLOECHL correction: -0.136292
       DOS:  cpu time    0.0090: real time    0.0093
    CHARGE:  cpu time    0.0280: real time    0.0279
    MIXING:  cpu time    0.0010: real time    0.0006
    --------------------------------------------
      LOOP:  cpu time    0.3679: real time    0.3719

 eigenvalue-minimisations  :  1043
 total energy-change (2. order) : 0.2078233E-04  (-0.7678926E-03)
 number of electron      39.9999977 magnetization 
 augmentation part       12.5251622 magnetization 

 Broyden mixing:
  rms(total) = 0.41590E-02    rms(broyden)= 0.41584E-02
  rms(prec ) = 0.50489E-02
  weight for this iteration     100.00

 eigenvalues of (default mixing * dielectric matrix)
  average eigenvalue GAMMA=   1.9725
  2.9605  1.0318  1.4523  2.4452

 Free energy of the ion-electron system (eV)
  ---------------------------------------------------
  alpha Z        PSCENC =       369.92282793
  Ewald energy   TEWEN  =     -3319.65611452
  -Hartree energ DENC   =      -261.80709116
  -exchange      EXHF   =         0.00000000
  -V(xc)+E(xc)   XCENC  =        13.06920473
  PAW double counting   =      2370.24222181    -2267.12899067
  entropy T*S    EENTRO =         0.00000000
  eigenvalues    EBANDS =       154.63203050
  atomic energy  EATOM  =      2916.45266723
  Solvation  Ediel_sol  =         0.00000000
  ---------------------------------------------------
  free energy    TOTEN  =       -24.27324415 eV

  energy without entropy =      -24.27324415  energy(sigma->0) =      -24.27324415


--------------------------------------------------------------------------------------------------------




----------------------------------------- Iteration    1(  10)  ---------------------------------------


    POTLOK:  cpu time    0.0150: real time    0.0145
    SETDIJ:  cpu time    0.0040: real time    0.0041
    EDDIAG:  cpu time    0.0570: real time    0.0569
  RMM-DIIS:  cpu time    0.2370: real time    0.2372
    ORTHCH:  cpu time    0.0080: real time    0.0082
 BZINTS: Fermi energy:  7.228992; 40.000000 electrons
         Band energy: 154.341807;  BLOECHL correction: -0.136150
       DOS:  cpu time    0.0100: real time    0.0093
    CHARGE:  cpu time    0.0280: real time    0.0278
    MIXING:  cpu time    0.0000: real time    0.0006
    --------------------------------------------
      LOOP:  cpu time    0.3589: real time    0.3617

 eigenvalue-minimisations  :  1012
 total energy-change (2. order) :-0.1374336E-03  (-0.1386245E-03)
 number of electron      39.9999977 magnetization 
 augmentation part       12.5344093 magnetization 

 Broyden mixing:
  rms(total) = 0.68487E-02    rms(broyden)= 0.68487E-02
  rms(prec ) = 0.15612E-01
  weight for this iteration     100.00

 eigenvalues of (default mixing * dielectric matrix)
  average eigenvalue GAMMA=   1.6957
  2.7836  2.3220  1.2228  1.2228  0.9275

 Free energy of the ion-electron system (eV)
  ---------------------------------------------------
  alpha Z        PSCENC =       369.92282793
  Ewald energy   TEWEN  =     -3319.65611452
  -Hartree energ DENC   =      -261.56725857
  -exchange      EXHF   =         0.00000000
  -V(xc)+E(xc)   XCENC  =        13.06080990
  PAW double counting   =      2372.72532076    -2269.55344094
  entropy T*S    EENTRO =         0.00000000
  eigenvalues    EBANDS =       154.34180663
  atomic energy  EATOM  =      2916.45266723
  Solvation  Ediel_sol  =         0.00000000
  ---------------------------------------------------
  free energy    TOTEN  =       -24.27338158 eV

  energy without entropy =      -24.27338158  energy(sigma->0) =      -24.27338158


--------------------------------------------------------------------------------------------------------




----------------------------------------- Iteration    1(  11)  ---------------------------------------


    POTLOK:  cpu time    0.0140: real time    0.0145
    SETDIJ:  cpu time    0.0040: real time    0.0041
    EDDIAG:  cpu time    0.0580: real time    0.0572
  RMM-DIIS:  cpu time    0.2270: real time    0.2278
    ORTHCH:  cpu time    0.0090: real time    0.0083
 BZINTS: Fermi energy:  7.240095; 40.000000 electrons
         Band energy: 154.643800;  BLOECHL correction: -0.136299
       DOS:  cpu time    0.0090: real time    0.0093
    CHARGE:  cpu time    0.0280: real time    0.0283
    MIXING:  cpu time    0.0010: real time    0.0007
    --------------------------------------------
      LOOP:  cpu time    0.3509: real time    0.3538

 eigenvalue-minimisations  :   973
 total energy-change (2. order) : 0.1132106E-03  (-0.5907847E-04)
 number of electron      39.9999977 magnetization 
 augmentation part       12.5273614 magnetization 

 Broyden mixing:
  rms(total) = 0.31807E-03    rms(broyden)= 0.31782E-03
  rms(prec ) = 0.63756E-03
  weight for this iteration     100.00

 eigenvalues of (default mixing * dielectric matrix)
  average eigenvalue GAMMA=   1.7226
  2.6422  2.6422  1.6494  0.9504  1.2256  1.2256

 Free energy of the ion-electron system (eV)
  ---------------------------------------------------
  alpha Z        PSCENC =       369.92282793
  Ewald energy   TEWEN  =     -3319.65611452
  -Hartree energ DENC   =      -261.89627383
  -exchange      EXHF   =         0.00000000
  -V(xc)+E(xc)   XCENC  =        13.07218372
  PAW double counting   =      2373.29396849    -2270.10632700
  entropy T*S    EENTRO =         0.00000000
  eigenvalues    EBANDS =       154.64379959
  atomic energy  EATOM  =      2916.45266723
  Solvation  Ediel_sol  =         0.00000000
  ---------------------------------------------------
  free energy    TOTEN  =       -24.27326837 eV

  energy without entropy =      -24.27326837  energy(sigma->0) =      -24.27326837


--------------------------------------------------------------------------------------------------------




----------------------------------------- Iteration    1(  12)  ---------------------------------------


    POTLOK:  cpu time    0.0140: real time    0.0146
    SETDIJ:  cpu time    0.0040: real time    0.0041
    EDDIAG:  cpu time    0.0570: real time    0.0571
  RMM-DIIS:  cpu time    0.1560: real time    0.1545
    ORTHCH:  cpu time    0.0070: real time    0.0083
 BZINTS: Fermi energy:  7.239755; 40.000000 electrons
         Band energy: 154.634558;  BLOECHL correction: -0.136293
       DOS:  cpu time    0.0090: real time    0.0092
    --------------------------------------------
      LOOP:  cpu time    0.2480: real time    0.2725

 eigenvalue-minimisations  :   600
 total energy-change (2. order) :-0.1919803E-05  (-0.4075641E-05)
 number of electron      39.9999977 magnetization 
 augmentation part       12.5273614 magnetization 

 Free energy of the ion-electron system (eV)
  ---------------------------------------------------
  alpha Z        PSCENC =       369.92282793
  Ewald energy   TEWEN  =     -3319.65611452
  -Hartree energ DENC   =      -261.89162990
  -exchange      EXHF   =         0.00000000
  -V(xc)+E(xc)   XCENC  =        13.07203342
  PAW double counting   =      2373.15007633    -2269.95768875
  entropy T*S    EENTRO =         0.00000000
  eigenvalues    EBANDS =       154.63455796
  atomic energy  EATOM  =      2916.45266723
  Solvation  Ediel_sol  =         0.00000000
  ---------------------------------------------------
  free energy    TOTEN  =       -24.27327029 eV

  energy without entropy =      -24.27327029  energy(sigma->0) =      -24.27327029


--------------------------------------------------------------------------------------------------------




 average (electrostatic) potential at core
  the test charge radii are     1.2059
  (the norm of the test charge is              1.0000)
       1 -49.4315       2 -49.4315       3 -49.4315       4 -49.4315
 
 
 
 E-fermi :   7.2398     XC(G=0): -13.2342     alpha+bet :-12.7076


 k-point     1 :       0.0000    0.0000    0.0000
  band No.  band energies     occupation 
      1      -2.4936      2.00000
      2       0.6415      2.00000
      3       0.6415      2.00000
      4       0.6415      2.00000
      5       1.0633      2.00000
      6       1.0633      2.00000
      7       1.0633      2.00000
      8       3.7181      2.00000
      9       3.7181      2.00000
     10       3.7181      2.00000
     11       5.7442      2.00000
     12       5.7442      2.00000
     13       7.2692      1.99837
     14       7.2692      1.99834
     15       7.2692      1.99255
     16       7.7070      0.66789
     17       7.7070     -0.20839
     18       7.7070     -0.12730
     19       7.7070      0.00000
     20       7.7070      0.00000
     21       7.7070      0.00000
     22       9.1462      0.00000
     23       9.1462      0.00000
     24       9.1462      0.00000

 k-point     2 :       0.1429    0.0000    0.0000
  band No.  band energies     occupation 
      1      -2.2309      2.00000
      2       0.7324      2.00000
      3       0.8320      2.00000
      4       0.8320      2.00000
      5       1.1704      2.00000
      6       1.2248      2.00000
      7       1.2248      2.00000
      8       3.5527      2.00000
      9       3.8520      2.00000
     10       3.8520      2.00000
     11       5.5619      2.00000
     12       5.8124      2.00000
     13       6.4790      2.00001
     14       6.4790      2.00001
     15       6.9952      1.99916
     16       6.9952      1.96137
     17       7.1851      1.83869
     18       7.3859      1.23740
     19       7.3859      0.33701
     20       7.7076     -0.08514
     21       7.7076      0.00000
     22       7.8991      0.00000
     23      10.5209      0.00000
     24      10.5209      0.00000

 k-point     3 :       0.2857    0.0000    0.0000
  band No.  band energies     occupation 
      1      -1.4771      2.00000
      2       0.8814      2.00000
      3       1.3394      2.00000
      4       1.3394      2.00000
      5       1.4807      2.00000
      6       1.7068      2.00000
      7       1.7068      2.00000
      8       3.1149      2.00000
      9       4.2476      2.00000
     10       4.2476      2.00000
     11       4.9300      2.00000
     12       4.9300      2.00000
     13       5.0900      2.00000
     14       5.8787      2.00000
     15       6.0070      2.00000
     16       6.2805      2.00000
     17       6.2805      2.00000
     18       6.6121      2.00825
     19       6.6121      2.16508
     20       6.9550      1.83853
     21       7.7089     -0.00139
     22       7.7089     -0.00022
     23      12.4874      0.00000
     24      12.4874      0.00000

 k-point     4 :       0.4286    0.0000    0.0000
  band No.  band energies     occupation 
      1      -0.3786      2.00000
      2       0.6139      2.00000
      3       1.8863      2.00000
      4       1.8863      2.00000
      5       1.9586      2.00000
      6       2.4987      2.00000
      7       2.4987      2.00000
      8       2.5379      2.00000
      9       3.5828      2.00000
     10       3.5828      2.00000
     11       4.5830      2.00000
     12       4.6182      2.00000
     13       4.8827      2.00000
     14       4.8827      2.00000
     15       5.5508      2.00000
     16       5.5508      2.00000
     17       5.7067      2.00000
     18       5.7067      2.00000
     19       6.2980      2.00416
     20       6.6357      2.14363
     21       7.7100     -0.02104
     22       7.7100     -0.02007
     23      14.2095      0.00000
     24      14.2117      0.00000

 k-point     5 :       0.1429    0.1429    0.0000
  band No.  band energies     occupation 
      1      -1.9772      2.00000
      2       0.9282      2.00000
      3       0.9282      2.00000
      4       0.9646      2.00000
      5       1.3260      2.00000
      6       1.3260      2.00000
      7       1.4203      2.00000
      8       3.4848      2.00000
      9       3.9032      2.00000
     10       3.9479      2.00000
     11       5.5205      2.00000
     12       5.7889      2.00000
     13       5.9443      2.00008
     14       5.9443      2.00008
     15       5.9473      2.00082
     16       6.7745      2.00725
     17       6.9901      1.99515
     18       6.9901      1.96832
     19       7.3846      0.59328
     20       7.3846      0.06862
     21       7.5013     -0.01838
     22       9.3825      0.00000
     23       9.3825      0.00000
     24      11.4122      0.00000

 k-point     6 :       0.2857    0.1429    0.0000
  band No.  band energies     occupation 
      1      -1.2492      2.00000
      2       1.0888      2.00000
      3       1.3653      2.00000
      4       1.4550      2.00000
      5       1.6181      2.00000
      6       1.7885      2.00000
      7       1.9312      2.00000
      8       3.1260      2.00000
      9       4.1876      2.00000
     10       4.2559      2.00000
     11       4.4818      2.00000
     12       4.7640      2.00000
     13       4.8672      2.00000
     14       5.1846      2.00000
     15       6.0277      2.00000
     16       6.1715      2.00000
     17       6.3623      2.00000
     18       6.6079      2.00470
     19       6.6253      2.21948
     20       7.3806      0.61091
     21       7.3936      0.07765
     22       7.8684     -0.00025
     23      10.9998      0.00000
     24      13.1403      0.00000

 k-point     7 :       0.4286    0.1429    0.0000
  band No.  band energies     occupation 
      1      -0.1822      2.00000
      2       0.8111      2.00000
      3       1.9546      2.00000
      4       2.0411      2.00000
      5       2.0655      2.00000
      6       2.5224      2.00000
      7       2.5428      2.00000
      8       2.6024      2.00000
      9       3.2779      2.00000
     10       3.5579      2.00000
     11       4.1077      2.00000
     12       4.1861      2.00000
     13       4.8808      2.00000
     14       5.1942      2.00000
     15       5.5563      2.00000
     16       5.6575      2.00000
     17       5.7020      2.00000
     18       5.8634      2.00000
     19       6.4495      2.00635
     20       7.0019      2.02043
     21       7.3738      0.14183
     22       7.3753     -0.00145
     23      12.2180      0.00000
     24      12.9604      0.00000

 k-point     8 :       0.2857    0.2857    0.0000
  band No.  band energies     occupation 
      1      -0.5980      2.00000
      2       1.5690      2.00000
      3       1.6612      2.00000
      4       1.6612      2.00000
      5       2.0212      2.00000
      6       2.0212      2.00000
      7       2.4077      2.00000
      8       3.0383      2.00000
      9       3.6964      2.00000
     10       3.6964      2.00000
     11       4.1194      2.00000
     12       4.2359      2.00000
     13       4.4296      2.00000
     14       5.0799      2.00000
     15       5.8141      2.00000
     16       6.1665      2.00000
     17       6.1665      2.00000
     18       6.3978      2.00000
     19       6.6007      2.08946
     20       6.6007      2.32498
     21       6.9261      2.19293
     22       9.2251     -0.00018
     23       9.2251      0.00000
     24      12.3039      0.00000

 k-point     9 :       0.4286    0.2857    0.0000
  band No.  band energies     occupation 
      1       0.3604      2.00000
      2       1.3314      2.00000
      3       2.0218      2.00000
      4       2.3654      2.00000
      5       2.3907      2.00000
      6       2.6576      2.00000
      7       2.7350      2.00000
      8       2.7420      2.00000
      9       2.7460      2.00000
     10       3.4510      2.00000
     11       3.4597      2.00000
     12       3.8679      2.00000
     13       4.9371      2.00000
     14       5.0799      2.00000
     15       5.4140      2.00000
     16       5.5810      2.00000
     17       5.5927      2.00000
     18       5.7097      2.00000
     19       6.6106      2.00682
     20       6.6861      2.03277
     21       7.1043      1.59541
     22       7.9942     -0.00605
     23      10.3704      0.00000
     24      11.2793      0.00000

 k-point    10 :       0.4286    0.4286    0.0000
  band No.  band energies     occupation 
      1       1.1070      2.00000
      2       1.8699      2.00000
      3       1.8699      2.00000
      4       2.0260      2.00000
      5       2.7866      2.00000
      6       2.7866      2.00000
      7       2.8360      2.00000
      8       3.0684      2.00000
      9       3.1494      2.00000
     10       3.1494      2.00000
     11       3.1927      2.00000
     12       3.6487      2.00000
     13       4.8415      2.00000
     14       5.0766      2.00000
     15       5.1387      2.00000
     16       5.1387      2.00000
     17       5.2107      2.00000
     18       5.8024      2.00000
     19       5.8024      2.00000
     20       6.1035      2.00000
     21       8.0283     -0.30115
     22       9.0544      0.00000
     23       9.0544      0.00000
     24      10.0594      0.00000

 k-point    11 :       0.1429    0.1429    0.1429
  band No.  band energies     occupation 
      1      -1.7366      2.00000
      2       1.0515      2.00000
      3       1.0515      2.00000
      4       1.0515      2.00000
      5       1.5259      2.00000
      6       1.5259      2.00000
      7       1.5259      2.00000
      8       3.4475      2.00000
      9       3.9730      2.00000
     10       3.9730      2.00000
     11       5.4954      2.00000
     12       5.4954      2.00000
     13       5.4954      2.00006
     14       5.6471      2.00005
     15       5.6471      2.00018
     16       6.4615      2.01493
     17       6.4615      2.03362
     18       6.4615      2.05882
     19       7.5100      0.25242
     20       7.5100     -0.01470
     21       7.5100     -0.05039
     22      10.1298      0.00000
     23      10.1298      0.00000
     24      10.1298      0.00000

 k-point    12 :       0.2857    0.1429    0.1429
  band No.  band energies     occupation 
      1      -1.0482      2.00000
      2       1.1858      2.00000
      3       1.4314      2.00000
      4       1.4314      2.00000
      5       1.8292      2.00000
      6       2.0371      2.00000
      7       2.0371      2.00000
      8       3.1762      2.00000
      9       4.1528      2.00000
     10       4.1968      2.00000
     11       4.4017      2.00000
     12       4.4017      2.00000
     13       4.5159      2.00000
     14       5.3782      2.00000
     15       5.8264      2.00000
     16       5.9912      2.00000
     17       6.0036      2.00000
     18       6.0036      2.00412
     19       7.3429      1.18342
     20       7.3569      0.57325
     21       7.3569      0.12961
     22       8.2406     -0.00014
     23      11.4879      0.00000
     24      11.4879      0.00000

 k-point    13 :       0.4286    0.1429    0.1429
  band No.  band energies     occupation 
      1      -0.0429      2.00000
      2       0.9006      2.00000
      3       2.0294      2.00000
      4       2.0294      2.00000
      5       2.2552      2.00000
      6       2.4780      2.00000
      7       2.4780      2.00000
      8       2.7286      2.00000
      9       3.4831      2.00000
     10       3.4831      2.00000
     11       3.8992      2.00000
     12       4.0618      2.00000
     13       4.5948      2.00000
     14       5.1582      2.00000
     15       5.5040      2.00000
     16       5.5040      2.00000
     17       5.6559      2.00000
     18       6.4657      2.00000
     19       6.6968      2.04399
     20       6.9582      2.05433
     21       7.2289      1.10445
     22       7.2289      0.02497
     23      12.5951      0.00000
     24      12.5951      0.00000

 k-point    14 :       0.2857    0.2857    0.1429
  band No.  band energies     occupation 
      1      -0.4811      2.00000
      2       1.4761      2.00000
      3       1.4761      2.00000
      4       1.5463      2.00000
      5       2.3691      2.00000
      6       2.3691      2.00000
      7       2.4980      2.00000
      8       3.2086      2.00000
      9       3.7374      2.00000
     10       3.7374      2.00000
     11       4.0963      2.00000
     12       4.1017      2.00000
     13       4.2083      2.00000
     14       5.4465      2.00000
     15       5.4716      2.00000
     16       5.4716      2.00000
     17       5.4737      2.00000
     18       6.2987      2.00000
     19       7.1683      1.76092
     20       7.1783      1.62214
     21       7.1783      1.35115
     22       9.4183     -0.00008
     23       9.4183      0.00000
     24      12.7408      0.00000

 k-point    15 :       0.4286    0.2857    0.1429
  band No.  band energies     occupation 
      1       0.3302      2.00000
      2       1.1197      2.00000
      3       1.8199      2.00000
      4       1.8516      2.00000
      5       2.6995      2.00000
      6       2.6997      2.00000
      7       2.7968      2.00000
      8       3.0650      2.00000
      9       3.4433      2.00000
     10       3.4918      2.00000
     11       3.7792      2.00000
     12       3.8595      2.00000
     13       4.4152      2.00000
     14       4.8626      2.00000
     15       5.0925      2.00000
     16       5.1693      2.00000
     17       5.7784      2.00000
     18       6.5831      2.00000
     19       6.9190      2.03284
     20       6.9191      2.05457
     21       6.9921      1.93768
     22       7.9087     -0.00368
     23      10.5588      0.00000
     24      11.5780      0.00000

 k-point    16 :       0.4286    0.4286    0.1429
  band No.  band energies     occupation 
      1       0.8314      2.00000
      2       1.3657      2.00000
      3       1.3657      2.00000
      4       1.5849      2.00000
      5       3.0122      2.00000
      6       3.2059      2.00000
      7       3.2059      2.00000
      8       3.3717      2.00000
      9       3.5209      2.00000
     10       3.5209      2.00000
     11       3.7301      2.00000
     12       3.9073      2.00000
     13       4.3458      2.00000
     14       4.6576      2.00000
     15       4.6576      2.00000
     16       4.6849      2.00000
     17       5.8245      2.00000
     18       6.3612      2.00000
     19       6.3612      2.02087
     20       6.5162      2.02067
     21       7.9071     -0.25019
     22       8.9982      0.00000
     23       8.9982      0.00000
     24      10.1081      0.00000

 k-point    17 :       0.2857    0.2857    0.2857
  band No.  band energies     occupation 
      1      -0.1525      2.00000
      2       1.3380      2.00000
      3       1.3380      2.00000
      4       1.3380      2.00000
      5       2.8330      2.00000
      6       2.8330      2.00000
      7       2.8330      2.00000
      8       3.6206      2.00000
      9       3.8956      2.00000
     10       3.8956      2.00000
     11       3.8956      2.00000
     12       4.0203      2.00000
     13       4.0203      2.00000
     14       4.8450      2.00000
     15       4.8450      2.00000
     16       4.8450      2.00000
     17       6.1456      2.00000
     18       6.1456      2.00000
     19       7.3844      0.71402
     20       7.3844      0.62009
     21       7.3844      0.00735
     22      10.0399     -0.00003
     23      10.0399      0.00000
     24      10.0399      0.00000

 k-point    18 :       0.4286    0.2857    0.2857
  band No.  band energies     occupation 
      1       0.3305      2.00000
      2       0.8780      2.00000
      3       1.3045      2.00000
      4       1.3045      2.00000
      5       2.9721      2.00000
      6       2.9721      2.00000
      7       3.3658      2.00000
      8       3.7981      2.00000
      9       3.8424      2.00000
     10       3.8943      2.00000
     11       4.0617      2.00000
     12       4.2599      2.00000
     13       4.2599      2.00000
     14       4.3486      2.00000
     15       4.5624      2.00000
     16       4.5624      2.00000
     17       6.5375      2.00000
     18       6.7983      2.00000
     19       7.1785      1.91672
     20       7.1785      1.91360
     21       7.2576      0.64120
     22       7.9362     -0.00081
     23      10.7641      0.00000
     24      10.7641      0.00000

 k-point    19 :       0.4286    0.4286    0.2857
  band No.  band energies     occupation 
      1       0.4777      2.00000
      2       0.8116      2.00000
      3       0.8116      2.00000
      4       0.9522      2.00000
      5       3.2579      2.00000
      6       3.3921      2.00000
      7       3.3921      2.00000
      8       3.7188      2.00000
      9       3.9076      2.00000
     10       4.0942      2.00000
     11       4.0942      2.00000
     12       4.1531      2.00000
     13       4.7024      2.00000
     14       4.7148      2.00000
     15       4.7148      2.00000
     16       4.8846      2.00000
     17       6.5689      2.00000
     18       7.0374      2.00000
     19       7.0374      2.09215
     20       7.0613      2.08416
     21       7.5410     -0.05711
     22       8.7715      0.00000
     23       8.7715      0.00000
     24       9.8399      0.00000

 k-point    20 :       0.4286    0.4286    0.4286
  band No.  band energies     occupation 
      1       0.3536      2.00000
      2       0.5154      2.00000
      3       0.5154      2.00000
      4       0.5154      2.00000
      5       3.5496      2.00000
      6       3.5496      2.00000
      7       3.5496      2.00000
      8       3.7207      2.00000
      9       3.7207      2.00000
     10       3.8077      2.00000
     11       3.8077      2.00000
     12       3.8077      2.00000
     13       5.8179      2.00000
     14       5.8179      2.00000
     15       5.8179      2.00000
     16       6.0970      2.00000
     17       7.1211      2.00000
     18       7.1211      2.00000
     19       7.3050      0.87140
     20       7.3050      0.81158
     21       7.3050      0.00000
     22       8.3934      0.00000
     23       8.3934      0.00000
     24       8.3934      0.00000


--------------------------------------------------------------------------------------------------------


 soft charge-density along one line, spin component           1
         0         1         2         3         4         5         6         7         8         9
 total charge-density along one line
 
 pseudopotential strength for first ion, spin component:           1
 -7.654  -0.000  -0.000   0.000   0.000  -0.221   0.000   0.000
 -0.000  -7.654   0.000   0.000  -0.000   0.000  -0.221  -0.000
 -0.000   0.000  -7.609   0.000  -0.000   0.000  -0.000  -0.226
  0.000   0.000   0.000  -7.654   0.000  -0.000  -0.000  -0.000
  0.000  -0.000  -0.000   0.000  -7.609  -0.000   0.000   0.000
 -0.221   0.000   0.000  -0.000  -0.000   0.224   0.000  -0.000
  0.000  -0.221  -0.000  -0.000   0.000   0.000   0.224   0.000
  0.000  -0.000  -0.226  -0.000   0.000  -0.000   0.000   0.225
 -0.000  -0.000  -0.000  -0.221  -0.000   0.000   0.000   0.000
 -0.000   0.000   0.000  -0.000  -0.226   0.000  -0.000  -0.000
 -0.000  -0.000   0.000  -0.000  -0.000   0.000   0.000  -0.000
  0.000   0.000  -0.000   0.000   0.000  -0.000  -0.000   0.000
  0.000  -0.000   0.000  -0.000   0.000  -0.000   0.000  -0.000
 -0.000  -0.000  -0.000   0.000  -0.000   0.000   0.000   0.000
 -0.000  -0.000  -0.000  -0.000   0.000   0.000   0.000   0.000
 -0.000   0.000  -0.000   0.000  -0.000   0.000  -0.000   0.000
  0.000   0.000   0.000  -0.000   0.000  -0.000  -0.000  -0.000
  0.000   0.000   0.000   0.000  -0.000  -0.000  -0.000  -0.000
 total augmentation occupancy for first ion, spin component:           1
  1.665   0.000  -0.000   0.000   0.000   0.128   0.000   0.000   0.000  -0.000  -0.000   0.000   0.000  -0.000   0.000   0.000
 -0.000   1.665  -0.000  -0.000   0.000   0.000   0.128   0.000  -0.000  -0.000   0.000   0.000   0.000   0.000  -0.000  -0.000
 -0.000   0.000   1.851  -0.000  -0.000   0.000   0.000  -0.028   0.000  -0.000  -0.000   0.000   0.000   0.000   0.000   0.000
 -0.000  -0.000  -0.000   1.665  -0.000   0.000   0.000   0.000   0.128  -0.000  -0.000   0.000  -0.000   0.000   0.000  -0.000
 -0.000   0.000   0.000   0.000   1.851   0.000   0.000  -0.000   0.000  -0.028   0.000  -0.000   0.000  -0.000  -0.000   0.000
  0.128  -0.000   0.000  -0.000   0.000   0.300  -0.000   0.000  -0.000  -0.000  -0.000  -0.000   0.000  -0.000   0.000  -0.000
  0.000   0.128  -0.000   0.000   0.000  -0.000   0.300  -0.000   0.000   0.000  -0.000  -0.000   0.000  -0.000  -0.000   0.000
  0.000  -0.000  -0.028   0.000   0.000  -0.000  -0.000   0.287  -0.000   0.000   0.000  -0.000  -0.000   0.000   0.000   0.000
  0.000  -0.000   0.000   0.128  -0.000  -0.000  -0.000  -0.000   0.300  -0.000   0.000   0.000  -0.000   0.000   0.000  -0.000
 -0.000  -0.000  -0.000  -0.000  -0.028   0.000   0.000  -0.000  -0.000   0.287  -0.000   0.000   0.000   0.000  -0.000   0.000
  0.000   0.000   0.000  -0.000   0.000   0.000  -0.000  -0.000   0.000  -0.000   1.087  -0.403  -0.000   0.000   0.000  -0.000
  0.000   0.000   0.000  -0.000  -0.000   0.000  -0.000  -0.000   0.000   0.000  -0.403   0.193   0.000   0.000   0.000  -0.000
  0.000   0.000   0.000  -0.000   0.000   0.000   0.000  -0.000  -0.000   0.000  -0.000   0.000   0.196  -0.000  -0.000  -0.009
 -0.000   0.000   0.000   0.000   0.000  -0.000   0.000   0.000  -0.000   0.000   0.000   0.000  -0.000   0.196  -0.000  -0.000
  0.000  -0.000   0.000  -0.000   0.000  -0.000   0.000  -0.000   0.000  -0.000   0.000   0.000  -0.000  -0.000   0.196  -0.000
  0.000  -0.000   0.000  -0.000   0.000  -0.000   0.000   0.000  -0.000  -0.000  -0.000  -0.000  -0.009  -0.000   0.000   0.000
  0.000   0.000   0.000   0.000  -0.000  -0.000  -0.000   0.000   0.000   0.000  -0.000   0.000   0.000  -0.009   0.000   0.000
  0.000   0.000   0.000   0.000  -0.000   0.000   0.000   0.000   0.000   0.000  -0.000   0.000   0.000  -0.000  -0.009   0.000


------------------------ aborting loop because EDIFF is reached ----------------------------------------


    CHARGE:  cpu time    0.0290: real time    0.0288
    FORLOC:  cpu time    0.0000: real time    0.0010
    FORNL :  cpu time    0.1390: real time    0.1384
    STRESS:  cpu time    0.4209: real time    0.4206
    FORCOR:  cpu time    0.0160: real time    0.0155
    FORHAR:  cpu time    0.0020: real time    0.0028
    MIXING:  cpu time    0.0010: real time    0.0007
    OFIELD:  cpu time    0.0000: real time    0.0000

  FORCE on cell =-STRESS in cart. coord.  units (eV):
  Direction    XX          YY          ZZ          XY          YZ          ZX
  --------------------------------------------------------------------------------------
  Alpha Z   369.92283   369.92283   369.92283
  Ewald   -1106.55252 -1106.55252 -1106.55252    -0.00000     0.00000    -0.00000
  Hartree    87.28780    87.28780    87.28780    -0.00000    -0.00000    -0.00000
  E(xc)    -177.95969  -177.95969  -177.95969     0.00000     0.00000    -0.00000
  Local     222.18391   222.18391   222.18391    -0.00000    -0.00000    -0.00000
  n-local  -125.78238  -139.30887  -132.13414     8.25234     5.82767     4.56497
  augment   157.03311   157.03311   157.03311     0.00000    -0.00000     0.00000
  Kinetic   589.96801   575.61873   575.14449     5.94756    -0.86507    -0.31118
  Fock        0.00000     0.00000     0.00000     0.00000     0.00000     0.00000
  -------------------------------------------------------------------------------------
  Total      -0.24928    -0.24928    -0.24928    -0.00000    -0.00000     0.00000
  in kB      -6.34668    -6.34668    -6.34668    -0.00000    -0.00000     0.00000
  external pressure =       -6.35 kB  Pullay stress =        0.00 kB


 VOLUME and BASIS-vectors are now :
 -----------------------------------------------------------------------------
  energy-cutoff  :      500.00
  volume of cell :       62.93
      direct lattice vectors                 reciprocal lattice vectors
     3.977583007  0.000000000  0.000000000     0.251408958  0.000000000  0.000000000
     0.000000000  3.977583007  0.000000000     0.000000000  0.251408958  0.000000000
     0.000000000  0.000000000  3.977583007     0.000000000  0.000000000  0.251408958

  length of vectors
     3.977583007  3.977583007  3.977583007     0.251408958  0.251408958  0.251408958


 FORCES acting on ions
    electron-ion (+dipol)            ewald-force                    non-local-force                 convergence-correction
 -----------------------------------------------------------------------------------------------
   -.770E-14 -.152E-13 -.201E-13   0.133E-13 0.806E-14 -.115E-13   -.271E-19 -.678E-20 0.000E+00   -.294E-15 0.527E-14 -.530E-14
   -.759E-14 0.124E-12 0.115E-12   0.126E-13 0.620E-15 0.316E-14   -.203E-19 -.542E-19 0.000E+00   0.282E-14 0.375E-14 -.460E-15
   0.127E-12 -.146E-13 -.180E-11   -.119E-13 0.905E-15 0.337E-14   -.474E-19 -.407E-19 0.000E+00   0.118E-13 0.565E-14 0.411E-14
   0.128E-12 -.966E-12 -.133E-11   -.126E-13 -.653E-14 0.267E-14   -.542E-19 0.000E+00 0.000E+00   0.153E-13 0.742E-14 -.377E-14
 -----------------------------------------------------------------------------------------------
   0.239E-12 -.872E-12 -.304E-11   0.131E-14 0.305E-14 -.232E-14   -.149E-18 -.102E-18 0.000E+00   0.297E-13 0.221E-13 -.542E-14
 
 
 POSITION                                       TOTAL-FORCE (eV/Angst)
 -----------------------------------------------------------------------------------
      0.00000      0.00000      0.00000         0.000000      0.000000      0.000000
      0.00000      1.98879      1.98879         0.000000     -0.000000     -0.000000
      1.98879      0.00000      1.98879         0.000000      0.000000      0.000000
      1.98879      1.98879      0.00000        -0.000000      0.000000     -0.000000
 -----------------------------------------------------------------------------------
    total drift:                                0.000000     -0.000000     -0.000000


--------------------------------------------------------------------------------------------------------



  FREE ENERGIE OF THE ION-ELECTRON SYSTEM (eV)
  ---------------------------------------------------
  free  energy   TOTEN  =       -24.27327029 eV

  energy  without entropy=      -24.27327029  energy(sigma->0) =      -24.27327029
 


--------------------------------------------------------------------------------------------------------


    POTLOK:  cpu time    0.0190: real time    0.0188


--------------------------------------------------------------------------------------------------------


     LOOP+:  cpu time    5.2602: real time    5.4359
    4ORBIT:  cpu time    0.0000: real time    0.0000
 BZINTS: Fermi energy:  7.239755; 40.000000 electrons
         Band energy: 154.634558;  BLOECHL correction: -0.136293

 total amount of memory used by VASP on root node    37171. kBytes
========================================================================

   base      :      30000. kBytes
   nonlr-proj:       1101. kBytes
   fftplans  :       1177. kBytes
   grid      :       1645. kBytes
   one-center:         31. kBytes
   wavefun   :       3217. kBytes
 
  
  
 General timing and accounting informations for this job:
 ========================================================
  
                  Total CPU time used (sec):        6.014
                            User time (sec):        5.938
                          System time (sec):        0.076
                         Elapsed time (sec):        7.682
  
                   Maximum memory used (kb):       35600.
                   Average memory used (kb):           0.
  
                          Minor page faults:         9174
                          Major page faults:          142
                 Voluntary context switches:         1858
