<?xml version="1.0" encoding="ISO-8859-1"?>
<modeling>
 <generator>
  <i name="program" type="string">vasp </i>
  <i name="version" type="string">5.4.1  </i>
  <i name="subversion" type="string">05Feb16 (build Mar 02 2016 14:09:44) complex                          parallel </i>
  <i name="platform" type="string">Abel-impi-ifc-cuda </i>
  <i name="date" type="string">2019 09 20 </i>
  <i name="time" type="string">09:57:57 </i>
 </generator>
 <incar>
  <i type="string" name="PREC">normal    ! low/normal/accurate</i>
  <i type="string" name="ALGO"> Fast      ! Algorithm for electronic re</i>
  <i type="int" name="ISPIN">     1</i>
  <i type="int" name="NELMIN">     4</i>
  <i name="EDIFF">      0.00001000</i>
  <i type="int" name="NSW">     0</i>
  <i name="ENCUT">    500.00000000</i>
  <i type="string" name="LREAL"> Auto      ! Projection in reciprocal sp</i>
  <i type="int" name="ISMEAR">    -5</i>
  <i name="SIGMA">      0.20000000</i>
  <i type="logical" name="LWAVE"> F  </i>
  <v type="int" name="KPOINT_BSE">    -1     0     0     0</v>
 </incar>
 <kpoints>
  <generation param="Gamma">
   <v type="int" name="divisions">       7        7        7 </v>
   <v name="usershift">      0.00000000       0.00000000       0.00000000 </v>
   <v name="genvec1">      0.14285714       0.00000000       0.00000000 </v>
   <v name="genvec2">      0.00000000       0.14285714       0.00000000 </v>
   <v name="genvec3">      0.00000000       0.00000000       0.14285714 </v>
   <v name="shift">      0.00000000       0.00000000       0.00000000 </v>
  </generation>
  <varray name="kpointlist" >
   <v>       0.00000000       0.00000000       0.00000000 </v>
   <v>       0.14285714       0.00000000       0.00000000 </v>
   <v>       0.28571429       0.00000000       0.00000000 </v>
   <v>       0.42857143       0.00000000       0.00000000 </v>
   <v>       0.14285714       0.14285714       0.00000000 </v>
   <v>       0.28571429       0.14285714       0.00000000 </v>
   <v>       0.42857143       0.14285714       0.00000000 </v>
   <v>       0.28571429       0.28571429       0.00000000 </v>
   <v>       0.42857143       0.28571429       0.00000000 </v>
   <v>       0.42857143       0.42857143       0.00000000 </v>
   <v>       0.14285714       0.14285714       0.14285714 </v>
   <v>       0.28571429       0.14285714       0.14285714 </v>
   <v>       0.42857143       0.14285714       0.14285714 </v>
   <v>       0.28571429       0.28571429       0.14285714 </v>
   <v>       0.42857143       0.28571429       0.14285714 </v>
   <v>       0.42857143       0.42857143       0.14285714 </v>
   <v>       0.28571429       0.28571429       0.28571429 </v>
   <v>       0.42857143       0.28571429       0.28571429 </v>
   <v>       0.42857143       0.42857143       0.28571429 </v>
   <v>       0.42857143       0.42857143       0.42857143 </v>
  </varray>
  <varray name="weights" >
   <v>       0.00291545 </v>
   <v>       0.01749271 </v>
   <v>       0.01749271 </v>
   <v>       0.01749271 </v>
   <v>       0.03498542 </v>
   <v>       0.06997085 </v>
   <v>       0.06997085 </v>
   <v>       0.03498542 </v>
   <v>       0.06997085 </v>
   <v>       0.03498542 </v>
   <v>       0.02332362 </v>
   <v>       0.06997085 </v>
   <v>       0.06997085 </v>
   <v>       0.06997085 </v>
   <v>       0.13994169 </v>
   <v>       0.06997085 </v>
   <v>       0.02332362 </v>
   <v>       0.06997085 </v>
   <v>       0.06997085 </v>
   <v>       0.02332362 </v>
  </varray>
  <varray name="tetrahedronlist"  type="int" >
   <v type="int" >       12        1        2        2        5 </v>
   <v type="int" >       12        2        2        5        5 </v>
   <v type="int" >       12        2        5        5       11 </v>
   <v type="int" >       12        2        3        5        6 </v>
   <v type="int" >       12        2        5        5        6 </v>
   <v type="int" >       12        5        5        6       11 </v>
   <v type="int" >       12        3        5        6        6 </v>
   <v type="int" >       24        5        6        6       12 </v>
   <v type="int" >       24        5        6       11       12 </v>
   <v type="int" >       12        3        4        6        7 </v>
   <v type="int" >       12        3        6        6        7 </v>
   <v type="int" >       12        6        6        7       12 </v>
   <v type="int" >       12        4        6        7        7 </v>
   <v type="int" >       12        6        7        7       13 </v>
   <v type="int" >       12        6        7       12       13 </v>
   <v type="int" >        6        4        4        7        7 </v>
   <v type="int" >       12        4        7        7        7 </v>
   <v type="int" >       12        7        7        7       13 </v>
   <v type="int" >        6        7        7       13       13 </v>
   <v type="int" >       12        5        6        8       11 </v>
   <v type="int" >       12        6        8       11       12 </v>
   <v type="int" >       12        8       11       12       14 </v>
   <v type="int" >       12        6        7        9       12 </v>
   <v type="int" >       12        6        8        9       12 </v>
   <v type="int" >       12        8        9       12       14 </v>
   <v type="int" >       12        7        9       12       13 </v>
   <v type="int" >       12        9       12       13       15 </v>
   <v type="int" >       12        9       12       14       15 </v>
   <v type="int" >       12        7        7        9       13 </v>
   <v type="int" >       12        7        9        9       13 </v>
   <v type="int" >       12        9        9       13       15 </v>
   <v type="int" >       12        7        9       13       13 </v>
   <v type="int" >       12        9       13       13       15 </v>
   <v type="int" >       12        9       13       15       15 </v>
   <v type="int" >       12        6        7        8       13 </v>
   <v type="int" >       12        7        8        9       13 </v>
   <v type="int" >       12        8        9       13       15 </v>
   <v type="int" >       12        6        8       12       13 </v>
   <v type="int" >       12        8       12       13       14 </v>
   <v type="int" >       12        8       13       14       15 </v>
   <v type="int" >       12        6        6        8       12 </v>
   <v type="int" >       12        6        8       12       14 </v>
   <v type="int" >       12        6       11       12       12 </v>
   <v type="int" >       12        6       12       12       14 </v>
   <v type="int" >       12        2        3        5       11 </v>
   <v type="int" >       12        3        5        6       11 </v>
   <v type="int" >       12        3        6       11       12 </v>
   <v type="int" >       12        8        9       10       14 </v>
   <v type="int" >       12        9       10       14       15 </v>
   <v type="int" >       12       10       14       15       16 </v>
   <v type="int" >       24        9        9       10       15 </v>
   <v type="int" >       12        9       10       10       15 </v>
   <v type="int" >       12       10       10       15       16 </v>
   <v type="int" >       12        9       10       15       15 </v>
   <v type="int" >       12       10       15       15       16 </v>
   <v type="int" >       12       10       15       16       16 </v>
   <v type="int" >       12        8        9        9       15 </v>
   <v type="int" >       12        9       10       15       16 </v>
   <v type="int" >       12        8        9       14       15 </v>
   <v type="int" >       12        9       14       15       15 </v>
   <v type="int" >       24        9       15       15       16 </v>
   <v type="int" >       12        6        7        8       14 </v>
   <v type="int" >       12        7        8        9       14 </v>
   <v type="int" >       12        7        9       14       15 </v>
   <v type="int" >       12        6        7       12       14 </v>
   <v type="int" >       12        7       12       13       14 </v>
   <v type="int" >       12        7       13       14       15 </v>
   <v type="int" >       12        3        4        6       12 </v>
   <v type="int" >       12        4        6        7       12 </v>
   <v type="int" >       12        4        7       12       13 </v>
   <v type="int" >       12       10       10       10       16 </v>
   <v type="int" >       12       10       10       16       16 </v>
   <v type="int" >       12       10       16       16       16 </v>
   <v type="int" >       12        9        9       10       16 </v>
   <v type="int" >       12        9       10       10       16 </v>
   <v type="int" >       12        9       10       16       16 </v>
   <v type="int" >       12        9        9       15       16 </v>
   <v type="int" >       12        9       15       16       16 </v>
   <v type="int" >       12        7        7        9       15 </v>
   <v type="int" >       12        7        9        9       15 </v>
   <v type="int" >       12        7        9       15       15 </v>
   <v type="int" >       12        7        7       13       15 </v>
   <v type="int" >       12        7       13       13       15 </v>
   <v type="int" >       12        7       13       15       15 </v>
   <v type="int" >       12        4        4        7       13 </v>
   <v type="int" >       12        4        7        7       13 </v>
   <v type="int" >       12        4        7       13       13 </v>
   <v type="int" >       12        8        9       10       16 </v>
   <v type="int" >       12        8        9       15       16 </v>
   <v type="int" >       12        8       14       15       16 </v>
   <v type="int" >       12        6        7        9       15 </v>
   <v type="int" >       12        6        8        9       15 </v>
   <v type="int" >       12        6        8       14       15 </v>
   <v type="int" >       12        6        7       13       15 </v>
   <v type="int" >       12        6       12       13       15 </v>
   <v type="int" >       12        6       12       14       15 </v>
   <v type="int" >       12        3        4        7       13 </v>
   <v type="int" >       12        3        6        7       13 </v>
   <v type="int" >       12        3        6       12       13 </v>
   <v type="int" >       12        5        6        8       14 </v>
   <v type="int" >       12        5        6       12       14 </v>
   <v type="int" >       12        5       11       12       14 </v>
   <v type="int" >       12        2        3        6       12 </v>
   <v type="int" >       12        2        5        6       12 </v>
   <v type="int" >       12        2        5       11       12 </v>
   <v type="int" >       12        1        2        5       11 </v>
   <v type="int" >       12       11       12       12       14 </v>
   <v type="int" >       12       12       12       14       14 </v>
   <v type="int" >       12       12       14       14       17 </v>
   <v type="int" >       12       12       13       14       15 </v>
   <v type="int" >       12       12       14       14       15 </v>
   <v type="int" >       12       14       14       15       17 </v>
   <v type="int" >       12       13       14       15       15 </v>
   <v type="int" >       24       14       15       15       18 </v>
   <v type="int" >       24       14       15       17       18 </v>
   <v type="int" >        6       13       13       15       15 </v>
   <v type="int" >       12       13       15       15       15 </v>
   <v type="int" >       12       15       15       15       18 </v>
   <v type="int" >        6       15       15       18       18 </v>
   <v type="int" >       12       14       15       16       17 </v>
   <v type="int" >       12       15       16       17       18 </v>
   <v type="int" >       12       16       17       18       19 </v>
   <v type="int" >       24       15       15       16       18 </v>
   <v type="int" >       12       15       16       16       18 </v>
   <v type="int" >       12       16       16       18       19 </v>
   <v type="int" >       12       15       16       18       18 </v>
   <v type="int" >       12       16       18       18       19 </v>
   <v type="int" >       12       16       18       19       19 </v>
   <v type="int" >       12       15       16       18       19 </v>
   <v type="int" >       12       15       17       18       18 </v>
   <v type="int" >       24       15       18       18       19 </v>
   <v type="int" >       12       12       13       14       17 </v>
   <v type="int" >       12       13       14       15       17 </v>
   <v type="int" >       12       13       15       17       18 </v>
   <v type="int" >       12       16       16       16       19 </v>
   <v type="int" >       12       16       16       19       19 </v>
   <v type="int" >       12       16       19       19       19 </v>
   <v type="int" >       12       15       15       16       19 </v>
   <v type="int" >       12       15       16       16       19 </v>
   <v type="int" >       12       15       16       19       19 </v>
   <v type="int" >       12       15       15       18       19 </v>
   <v type="int" >       12       15       18       19       19 </v>
   <v type="int" >       12       13       13       15       18 </v>
   <v type="int" >       12       13       15       15       18 </v>
   <v type="int" >       12       13       15       18       18 </v>
   <v type="int" >       12       14       15       16       19 </v>
   <v type="int" >       12       14       15       18       19 </v>
   <v type="int" >       12       14       17       18       19 </v>
   <v type="int" >       12       12       13       15       18 </v>
   <v type="int" >       12       12       14       15       18 </v>
   <v type="int" >       12       12       14       17       18 </v>
   <v type="int" >       12       11       12       14       17 </v>
   <v type="int" >       12       17       18       18       19 </v>
   <v type="int" >       18       18       18       19       19 </v>
   <v type="int" >       24       18       19       19       20 </v>
   <v type="int" >       12       18       19       19       19 </v>
   <v type="int" >       24       19       19       19       20 </v>
   <v type="int" >       18       19       19       20       20 </v>
   <v type="int" >       12       19       20       20       20 </v>
   <v type="int" >       12       18       18       19       20 </v>
   <v type="int" >       12       18       19       20       20 </v>
   <v type="int" >       12       17       18       19       20 </v>
   <v type="int" >        6       20       20       20       20 </v>
  </varray>
  <i name="volumeweight">      0.00048591 </i>
 </kpoints>
 <parameters>
  <separator name="general" >
   <i type="string" name="SYSTEM">unknown system</i>
   <i type="logical" name="LCOMPAT"> F  </i>
  </separator>
  <separator name="electronic" >
   <i type="string" name="PREC">normal</i>
   <i name="ENMAX">    500.00000000</i>
   <i name="ENAUG">    358.96600000</i>
   <i name="EDIFF">      0.00001000</i>
   <i type="int" name="IALGO">    68</i>
   <i type="int" name="IWAVPR">    10</i>
   <i type="int" name="NBANDS">    24</i>
   <i name="NELECT">     40.00000000</i>
   <i type="int" name="TURBO">     0</i>
   <i type="int" name="IRESTART">     0</i>
   <i type="int" name="NREBOOT">     0</i>
   <i type="int" name="NMIN">     0</i>
   <i name="EREF">      0.00000000</i>
   <separator name="electronic smearing" >
    <i type="int" name="ISMEAR">    -5</i>
    <i name="SIGMA">      0.20000000</i>
    <i name="KSPACING">      0.50000000</i>
    <i type="logical" name="KGAMMA"> T  </i>
   </separator>
   <separator name="electronic projectors" >
    <i type="logical" name="LREAL"> T  </i>
    <v name="ROPT">     -0.00050000</v>
    <i type="int" name="LMAXPAW">  -100</i>
    <i type="int" name="LMAXMIX">     2</i>
    <i type="logical" name="NLSPLINE"> F  </i>
   </separator>
   <separator name="electronic startup" >
    <i type="int" name="ISTART">     0</i>
    <i type="int" name="ICHARG">     2</i>
    <i type="int" name="INIWAV">     1</i>
   </separator>
   <separator name="electronic spin" >
    <i type="int" name="ISPIN">     1</i>
    <i type="logical" name="LNONCOLLINEAR"> F  </i>
    <v name="MAGMOM">      1.00000000      1.00000000      1.00000000      1.00000000</v>
    <i name="NUPDOWN">     -1.00000000</i>
    <i type="logical" name="LSORBIT"> F  </i>
    <v name="SAXIS">      0.00000000      0.00000000      1.00000000</v>
    <i type="logical" name="LSPIRAL"> F  </i>
    <v name="QSPIRAL">      0.00000000      0.00000000      0.00000000</v>
    <i type="logical" name="LZEROZ"> F  </i>
   </separator>
   <separator name="electronic exchange-correlation" >
    <i type="logical" name="LASPH"> F  </i>
    <i type="logical" name="LMETAGGA"> F  </i>
   </separator>
   <separator name="electronic convergence" >
    <i type="int" name="NELM">    60</i>
    <i type="int" name="NELMDL">    -5</i>
    <i type="int" name="NELMIN">     4</i>
    <i name="ENINI">    500.00000000</i>
    <separator name="electronic convergence detail" >
     <i type="logical" name="LDIAG"> T  </i>
     <i type="logical" name="LSUBROT"> F  </i>
     <i name="WEIMIN">      0.00000000</i>
     <i name="EBREAK">      0.00000010</i>
     <i name="DEPER">      0.30000000</i>
     <i type="int" name="NRMM">     4</i>
     <i name="TIME">      0.40000000</i>
    </separator>
   </separator>
   <separator name="electronic mixer" >
    <i name="AMIX">      0.40000000</i>
    <i name="BMIX">      1.00000000</i>
    <i name="AMIN">      0.10000000</i>
    <i name="AMIX_MAG">      1.60000000</i>
    <i name="BMIX_MAG">      1.00000000</i>
    <separator name="electronic mixer details" >
     <i type="int" name="IMIX">     4</i>
     <i type="logical" name="MIXFIRST"> F  </i>
     <i type="int" name="MAXMIX">   -45</i>
     <i name="WC">    100.00000000</i>
     <i type="int" name="INIMIX">     1</i>
     <i type="int" name="MIXPRE">     1</i>
     <i type="int" name="MREMOVE">     5</i>
    </separator>
   </separator>
   <separator name="electronic dipolcorrection" >
    <i type="logical" name="LDIPOL"> F  </i>
    <i type="logical" name="LMONO"> F  </i>
    <i type="int" name="IDIPOL">     0</i>
    <i name="EPSILON">      1.00000000</i>
    <v name="DIPOL">   -100.00000000   -100.00000000   -100.00000000</v>
    <i name="EFIELD">      0.00000000</i>
   </separator>
  </separator>
  <separator name="grids" >
   <i type="int" name="NGX">    24</i>
   <i type="int" name="NGY">    24</i>
   <i type="int" name="NGZ">    24</i>
   <i type="int" name="NGXF">    48</i>
   <i type="int" name="NGYF">    48</i>
   <i type="int" name="NGZF">    48</i>
   <i type="logical" name="ADDGRID"> F  </i>
  </separator>
  <separator name="ionic" >
   <i type="int" name="NSW">     0</i>
   <i type="int" name="IBRION">    -1</i>
   <i type="int" name="ISIF">     2</i>
   <i name="PSTRESS">      0.00000000</i>
   <i name="EDIFFG">      0.00010000</i>
   <i type="int" name="NFREE">     0</i>
   <i name="POTIM">      0.50000000</i>
   <i name="SMASS">     -3.00000000</i>
   <i name="SCALEE">      1.00000000</i>
  </separator>
  <separator name="ionic md" >
   <i name="TEBEG">      0.00010000</i>
   <i name="TEEND">      0.00010000</i>
   <i type="int" name="NBLOCK">     1</i>
   <i type="int" name="KBLOCK">     1</i>
   <i type="int" name="NPACO">   256</i>
   <i name="APACO">     16.00000000</i>
  </separator>
  <separator name="symmetry" >
   <i type="int" name="ISYM">     2</i>
   <i name="SYMPREC">      0.00001000</i>
  </separator>
  <separator name="dos" >
   <i type="logical" name="LORBIT"> F  </i>
   <v name="RWIGS">     -1.00000000</v>
   <i type="int" name="NEDOS">   301</i>
   <i name="EMIN">     10.00000000</i>
   <i name="EMAX">    -10.00000000</i>
   <i name="EFERMI">      0.00000000</i>
  </separator>
  <separator name="writing" >
   <i type="int" name="NWRITE">     2</i>
   <i type="logical" name="LWAVE"> F  </i>
   <i type="logical" name="LCHARG"> T  </i>
   <i type="logical" name="LPARD"> F  </i>
   <i type="logical" name="LVTOT"> F  </i>
   <i type="logical" name="LVHAR"> F  </i>
   <i type="logical" name="LELF"> F  </i>
   <i type="logical" name="LOPTICS"> F  </i>
   <v name="STM">      0.00000000      0.00000000      0.00000000      0.00000000      0.00000000      0.00000000      0.00000000</v>
  </separator>
  <separator name="performance" >
   <i type="int" name="NPAR">     2</i>
   <i type="int" name="NSIM">     4</i>
   <i type="int" name="NBLK">    -1</i>
   <i type="logical" name="LPLANE"> T  </i>
   <i type="logical" name="LSCALAPACK"> F  </i>
   <i type="logical" name="LSCAAWARE"> F  </i>
   <i type="logical" name="LSCALU"> F  </i>
   <i type="logical" name="LASYNC"> F  </i>
   <i type="logical" name="LORBITALREAL"> F  </i>
  </separator>
  <separator name="miscellaneous" >
   <i type="int" name="IDIOT">     3</i>
   <i type="logical" name="LMUSIC"> F  </i>
   <v name="POMASS">    195.08000000</v>
   <v name="DARWINR">      0.00000000</v>
   <v name="DARWINV">      1.00000000</v>
   <i type="logical" name="LCORR"> T  </i>
  </separator>
  <i type="logical" name="GGA_COMPAT"> T  </i>
  <i type="logical" name="LBERRY"> F  </i>
  <i type="int" name="ICORELEVEL">     0</i>
  <i type="logical" name="LDAU"> F  </i>
  <i type="int" name="I_CONSTRAINED_M">     0</i>
  <separator name="electronic exchange-correlation" >
   <i type="string" name="GGA">--</i>
   <i type="int" name="VOSKOWN">     0</i>
   <i type="logical" name="LHFCALC"> F  </i>
   <i type="string" name="PRECFOCK"></i>
   <i type="logical" name="LSYMGRAD"> F  </i>
   <i type="logical" name="LHFONE"> F  </i>
   <i type="logical" name="LRHFCALC"> F  </i>
   <i type="logical" name="LTHOMAS"> F  </i>
   <i type="logical" name="LMODELHF"> F  </i>
   <i name="ENCUT4O">     -1.00000000</i>
   <i type="int" name="EXXOEP">     0</i>
   <i type="int" name="FOURORBIT">     0</i>
   <i name="AEXX">      0.00000000</i>
   <i name="HFALPHA">      0.00000000</i>
   <i name="MCALPHA">      0.00000000</i>
   <i name="ALDAX">      1.00000000</i>
   <i name="AGGAX">      1.00000000</i>
   <i name="ALDAC">      1.00000000</i>
   <i name="AGGAC">      1.00000000</i>
   <i type="int" name="NKREDX">     1</i>
   <i type="int" name="NKREDY">     1</i>
   <i type="int" name="NKREDZ">     1</i>
   <i type="logical" name="SHIFTRED"> F  </i>
   <i type="logical" name="ODDONLY"> F  </i>
   <i type="logical" name="EVENONLY"> F  </i>
   <i type="int" name="LMAXFOCK">     0</i>
   <i type="int" name="NMAXFOCKAE">     0</i>
   <i type="logical" name="LFOCKAEDFT"> F  </i>
   <i name="HFSCREEN">      0.00000000</i>
   <i name="HFSCREENC">      0.00000000</i>
   <i type="int" name="NBANDSGWLOW">     0</i>
  </separator>
  <separator name="vdW DFT" >
   <i type="logical" name="LUSE_VDW"> F  </i>
   <i name="Zab_VDW">     -0.84910000</i>
   <i name="PARAM1">      0.12340000</i>
   <i name="PARAM2">      1.00000000</i>
   <i name="PARAM3">      0.00000000</i>
  </separator>
  <separator name="model GW" >
   <i type="int" name="MODEL_GW">     0</i>
   <i name="MODEL_EPS0">      9.43950050</i>
   <i name="MODEL_ALPHA">      1.00000000</i>
  </separator>
  <separator name="linear response parameters" >
   <i type="logical" name="LEPSILON"> F  </i>
   <i type="logical" name="LRPA"> F  </i>
   <i type="logical" name="LNABLA"> F  </i>
   <i type="logical" name="LVEL"> F  </i>
   <i type="int" name="KINTER">     0</i>
   <i name="CSHIFT">      0.10000000</i>
   <i name="OMEGAMAX">     -1.00000000</i>
   <i name="DEG_THRESHOLD">      0.00200000</i>
  </separator>
  <separator name="orbital magnetization" >
   <i type="logical" name="NUCIND"> F  </i>
   <v name="MAGPOS">      0.00000000      0.00000000      0.00000000</v>
   <i type="logical" name="LNICSALL"> T  </i>
   <i type="logical" name="ORBITALMAG"> F  </i>
   <i type="logical" name="LMAGBLOCH"> F  </i>
   <i type="logical" name="LCHIMAG"> F  </i>
   <i type="logical" name="LGAUGE"> T  </i>
   <i type="int" name="MAGATOM">     0</i>
   <v name="MAGDIPOL">      0.00000000      0.00000000      0.00000000</v>
   <v name="AVECCONST">      0.00000000      0.00000000      0.00000000</v>
  </separator>
  <separator name="response functions" >
   <i type="logical" name="LADDER"> F  </i>
   <i type="logical" name="LFXC"> F  </i>
   <i type="logical" name="LHARTREE"> T  </i>
   <i type="int" name="IBSE">     0</i>
   <v type="int" name="KPOINT">    -1     0     0     0</v>
   <i type="logical" name="LTCTE"> F  </i>
   <i type="logical" name="LTETE"> F  </i>
   <i type="logical" name="LTRIPLET"> F  </i>
   <i type="logical" name="LFXCEPS"> F  </i>
   <i type="logical" name="LFXHEG"> F  </i>
   <i type="int" name="NATURALO">     0</i>
   <i type="logical" name="L2ORDER"> F  </i>
   <i type="logical" name="LUSEW"> F  </i>
   <i name="ENCUTGW">     -2.00000000</i>
   <i name="ENCUTGWSOFT">     -2.00000000</i>
   <i name="ENCUTLF">     -1.00000000</i>
   <i type="int" name="LMAXMP2">    -1</i>
   <i name="SCISSOR">      0.00000000</i>
   <i type="int" name="NOMEGA">     0</i>
   <i type="int" name="NOMEGAR">     0</i>
   <i type="int" name="NBANDSGW">    -1</i>
   <i type="int" name="NBANDSO">    -1</i>
   <i type="int" name="NBANDSV">    -1</i>
   <i type="int" name="NELM">     1</i>
   <i type="int" name="NELMHF">     1</i>
   <i type="int" name="DIM">     3</i>
   <i type="int" name="ANTIRES">     0</i>
   <i name="OMEGAMAX">    -30.00000000</i>
   <i name="OMEGAMIN">    -30.00000000</i>
   <i name="OMEGATL">   -200.00000000</i>
   <i type="int" name="OMEGAGRID">     0</i>
   <i name="CSHIFT">     -0.10000000</i>
   <i type="logical" name="SELFENERGY"> F  </i>
   <i type="logical" name="LSPECTRAL"> F  </i>
   <i type="logical" name="LSPECTRALGW"> F  </i>
   <i type="logical" name="LSINGLES"> F  </i>
   <i type="logical" name="LFERMIGW"> F  </i>
   <i type="logical" name="ODDONLYGW"> F  </i>
   <i type="logical" name="EVENONLYGW"> F  </i>
   <i type="int" name="NKREDLFX">     1</i>
   <i type="int" name="NKREDLFY">     1</i>
   <i type="int" name="NKREDLFZ">     1</i>
   <i type="int" name="MAXMEM">  1800</i>
   <i type="int" name="TELESCOPE">     0</i>
   <i type="int" name="TAUPAR">     1</i>
   <i type="int" name="OMEGAPAR">    -1</i>
   <i name="LAMBDA">      1.00000000</i>
  </separator>
  <separator name="External order field" >
   <i name="OFIELD_KAPPA">      0.00000000</i>
   <v name="OFIELD_K">      0.00000000      0.00000000      0.00000000</v>
   <i name="OFIELD_Q6_NEAR">      0.00000000</i>
   <i name="OFIELD_Q6_FAR">      0.00000000</i>
   <i name="OFIELD_A">      0.00000000</i>
  </separator>
 </parameters>
 <atominfo>
  <atoms>       4 </atoms>
  <types>       1 </types>
  <array name="atoms" >
   <dimension dim="1">ion</dimension>
   <field type="string">element</field>
   <field type="int">atomtype</field>
   <set>
    <rc><c>Pt</c><c>   1</c></rc>
    <rc><c>Pt</c><c>   1</c></rc>
    <rc><c>Pt</c><c>   1</c></rc>
    <rc><c>Pt</c><c>   1</c></rc>
   </set>
  </array>
  <array name="atomtypes" >
   <dimension dim="1">type</dimension>
   <field type="int">atomspertype</field>
   <field type="string">element</field>
   <field>mass</field>
   <field>valence</field>
   <field type="string">pseudopotential</field>
   <set>
    <rc><c>   4</c><c>Pt</c><c>    195.08000000</c><c>     10.00000000</c><c> PAW_PBE Pt 05Jan2001                   </c></rc>
   </set>
  </array>
 </atominfo>
 <structure name="initialpos" >
  <crystal>
   <varray name="basis" >
    <v>       3.97758301       0.00000000       0.00000000 </v>
    <v>       0.00000000       3.97758301       0.00000000 </v>
    <v>       0.00000000       0.00000000       3.97758301 </v>
   </varray>
   <i name="volume">     62.93000335 </i>
   <varray name="rec_basis" >
    <v>       0.25140896       0.00000000       0.00000000 </v>
    <v>       0.00000000       0.25140896       0.00000000 </v>
    <v>       0.00000000       0.00000000       0.25140896 </v>
   </varray>
  </crystal>
  <varray name="positions" >
   <v>       0.00000000       0.00000000       0.00000000 </v>
   <v>       0.00000000       0.50000000       0.50000000 </v>
   <v>       0.50000000       0.00000000       0.50000000 </v>
   <v>       0.50000000       0.50000000       0.00000000 </v>
  </varray>
 </structure>
 <calculation>
  <scstep>
   <time name="dav">    0.36    0.37</time>
   <time name="total">    0.40    0.47</time>
   <energy>
    <i name="alphaZ">    369.92282793 </i>
    <i name="ewald">  -3319.65611452 </i>
    <i name="hartreedc">   -301.17203411 </i>
    <i name="XCdc">     14.51536843 </i>
    <i name="pawpsdc">   2292.98197300 </i>
    <i name="pawaedc">  -2179.84848231 </i>
    <i name="eentropy">      0.00000000 </i>
    <i name="bandstr">    674.63496244 </i>
    <i name="atom">   2916.45266723 </i>
    <i name="e_fr_energy">    467.83116809 </i>
    <i name="e_wo_entrp">    467.83116809 </i>
    <i name="e_0_energy">    467.83116809 </i>
   </energy>
  </scstep>
  <scstep>
   <time name="dav">    0.36    0.36</time>
   <time name="total">    0.37    0.37</time>
   <energy>
    <i name="e_fr_energy">      6.97952197 </i>
    <i name="e_wo_entrp">      6.97952197 </i>
    <i name="e_0_energy">      6.97952197 </i>
   </energy>
  </scstep>
  <scstep>
   <time name="dav">    0.50    0.50</time>
   <time name="total">    0.51    0.51</time>
   <energy>
    <i name="e_fr_energy">    -24.73632061 </i>
    <i name="e_wo_entrp">    -24.73632061 </i>
    <i name="e_0_energy">    -24.73632061 </i>
   </energy>
  </scstep>
  <scstep>
   <time name="dav">    0.37    0.37</time>
   <time name="total">    0.38    0.39</time>
   <energy>
    <i name="e_fr_energy">    -25.71634070 </i>
    <i name="e_wo_entrp">    -25.71634070 </i>
    <i name="e_0_energy">    -25.71634070 </i>
   </energy>
  </scstep>
  <scstep>
   <time name="dav">    0.43    0.43</time>
   <time name="total">    0.47    0.48</time>
   <energy>
    <i name="e_fr_energy">    -25.74460733 </i>
    <i name="e_wo_entrp">    -25.74460733 </i>
    <i name="e_0_energy">    -25.74460733 </i>
   </energy>
  </scstep>
  <scstep>
   <time name="diag">    0.06    0.06</time>
   <time name="diis">    0.22    0.22</time>
   <time name="orth">    0.01    0.01</time>
   <time name="total">    0.35    0.35</time>
   <energy>
    <i name="e_fr_energy">    -24.39171725 </i>
    <i name="e_wo_entrp">    -24.39171725 </i>
    <i name="e_0_energy">    -24.39171725 </i>
   </energy>
  </scstep>
  <scstep>
   <time name="diag">    0.06    0.06</time>
   <time name="diis">    0.23    0.23</time>
   <time name="orth">    0.01    0.01</time>
   <time name="total">    0.35    0.36</time>
   <energy>
    <i name="e_fr_energy">    -24.28684521 </i>
    <i name="e_wo_entrp">    -24.28684521 </i>
    <i name="e_0_energy">    -24.28684521 </i>
   </energy>
  </scstep>
  <scstep>
   <time name="diag">    0.06    0.06</time>
   <time name="diis">    0.24    0.24</time>
   <time name="orth">    0.01    0.01</time>
   <time name="total">    0.36    0.36</time>
   <energy>
    <i name="e_fr_energy">    -24.27326493 </i>
    <i name="e_wo_entrp">    -24.27326493 </i>
    <i name="e_0_energy">    -24.27326493 </i>
   </energy>
  </scstep>
  <scstep>
   <time name="diag">    0.06    0.06</time>
   <time name="diis">    0.24    0.24</time>
   <time name="orth">    0.01    0.01</time>
   <time name="total">    0.37    0.37</time>
   <energy>
    <i name="e_fr_energy">    -24.27324415 </i>
    <i name="e_wo_entrp">    -24.27324415 </i>
    <i name="e_0_energy">    -24.27324415 </i>
   </energy>
  </scstep>
  <scstep>
   <time name="diag">    0.06    0.06</time>
   <time name="diis">    0.24    0.24</time>
   <time name="orth">    0.01    0.01</time>
   <time name="total">    0.36    0.36</time>
   <energy>
    <i name="e_fr_energy">    -24.27338158 </i>
    <i name="e_wo_entrp">    -24.27338158 </i>
    <i name="e_0_energy">    -24.27338158 </i>
   </energy>
  </scstep>
  <scstep>
   <time name="diag">    0.06    0.06</time>
   <time name="diis">    0.23    0.23</time>
   <time name="orth">    0.01    0.01</time>
   <time name="total">    0.35    0.35</time>
   <energy>
    <i name="e_fr_energy">    -24.27326837 </i>
    <i name="e_wo_entrp">    -24.27326837 </i>
    <i name="e_0_energy">    -24.27326837 </i>
   </energy>
  </scstep>
  <scstep>
   <time name="diag">    0.06    0.06</time>
   <time name="diis">    0.16    0.15</time>
   <time name="orth">    0.01    0.01</time>
   <time name="total">    0.25    0.27</time>
   <energy>
    <i name="alphaZ">    369.92282793 </i>
    <i name="ewald">  -3319.65611452 </i>
    <i name="hartreedc">   -261.89162990 </i>
    <i name="XCdc">     13.07203342 </i>
    <i name="pawpsdc">   2373.15007633 </i>
    <i name="pawaedc">  -2269.95768875 </i>
    <i name="eentropy">      0.00000000 </i>
    <i name="bandstr">    154.63455796 </i>
    <i name="atom">   2916.45266723 </i>
    <i name="e_fr_energy">    -24.27327029 </i>
    <i name="e_wo_entrp">    -24.27327029 </i>
    <i name="e_0_energy">    -24.27327029 </i>
   </energy>
  </scstep>
  <structure>
   <crystal>
    <varray name="basis" >
     <v>       3.97758301       0.00000000       0.00000000 </v>
     <v>       0.00000000       3.97758301       0.00000000 </v>
     <v>       0.00000000       0.00000000       3.97758301 </v>
    </varray>
    <i name="volume">     62.93000335 </i>
    <varray name="rec_basis" >
     <v>       0.25140896       0.00000000       0.00000000 </v>
     <v>       0.00000000       0.25140896       0.00000000 </v>
     <v>       0.00000000       0.00000000       0.25140896 </v>
    </varray>
   </crystal>
   <varray name="positions" >
    <v>       0.00000000       0.00000000       0.00000000 </v>
    <v>       0.00000000       0.50000000       0.50000000 </v>
    <v>       0.50000000       0.00000000       0.50000000 </v>
    <v>       0.50000000       0.50000000       0.00000000 </v>
   </varray>
  </structure>
  <varray name="forces" >
   <v>       0.00000000       0.00000000       0.00000000 </v>
   <v>       0.00000000      -0.00000000      -0.00000000 </v>
   <v>       0.00000000       0.00000000       0.00000000 </v>
   <v>      -0.00000000       0.00000000      -0.00000000 </v>
  </varray>
  <varray name="stress" >
   <v>      -6.34668170      -0.00000000       0.00000000 </v>
   <v>      -0.00000000      -6.34668170       0.00000000 </v>
   <v>       0.00000000      -0.00000000      -6.34668170 </v>
  </varray>
  <energy>
   <i name="e_fr_energy">    -24.27327029 </i>
   <i name="e_wo_entrp">    -24.27327029 </i>
   <i name="e_0_energy">      0.00000000 </i>
  </energy>
  <time name="totalsc">    5.26    5.44</time>
  <eigenvalues>
   <array>
    <dimension dim="1">band</dimension>
    <dimension dim="2">kpoint</dimension>
    <dimension dim="3">spin</dimension>
    <field>eigene</field>
    <field>occ</field>
    <set>
     <set comment="spin 1">
      <set comment="kpoint 1">
       <r>   -2.4936    1.0000 </r>
       <r>    0.6415    1.0000 </r>
       <r>    0.6415    1.0000 </r>
       <r>    0.6415    1.0000 </r>
       <r>    1.0633    1.0000 </r>
       <r>    1.0633    1.0000 </r>
       <r>    1.0633    1.0000 </r>
       <r>    3.7181    1.0000 </r>
       <r>    3.7181    1.0000 </r>
       <r>    3.7181    1.0000 </r>
       <r>    5.7442    1.0000 </r>
       <r>    5.7442    1.0000 </r>
       <r>    7.2692    0.9992 </r>
       <r>    7.2692    0.9992 </r>
       <r>    7.2692    0.9963 </r>
       <r>    7.7070    0.3339 </r>
       <r>    7.7070   -0.1042 </r>
       <r>    7.7070   -0.0637 </r>
       <r>    7.7070    0.0000 </r>
       <r>    7.7070    0.0000 </r>
       <r>    7.7070    0.0000 </r>
       <r>    9.1462    0.0000 </r>
       <r>    9.1462    0.0000 </r>
       <r>    9.1462    0.0000 </r>
      </set>
      <set comment="kpoint 2">
       <r>   -2.2309    1.0000 </r>
       <r>    0.7324    1.0000 </r>
       <r>    0.8320    1.0000 </r>
       <r>    0.8320    1.0000 </r>
       <r>    1.1704    1.0000 </r>
       <r>    1.2248    1.0000 </r>
       <r>    1.2248    1.0000 </r>
       <r>    3.5527    1.0000 </r>
       <r>    3.8520    1.0000 </r>
       <r>    3.8520    1.0000 </r>
       <r>    5.5619    1.0000 </r>
       <r>    5.8124    1.0000 </r>
       <r>    6.4790    1.0000 </r>
       <r>    6.4790    1.0000 </r>
       <r>    6.9952    0.9996 </r>
       <r>    6.9952    0.9807 </r>
       <r>    7.1851    0.9193 </r>
       <r>    7.3859    0.6187 </r>
       <r>    7.3859    0.1685 </r>
       <r>    7.7076   -0.0426 </r>
       <r>    7.7076    0.0000 </r>
       <r>    7.8991    0.0000 </r>
       <r>   10.5209    0.0000 </r>
       <r>   10.5209    0.0000 </r>
      </set>
      <set comment="kpoint 3">
       <r>   -1.4771    1.0000 </r>
       <r>    0.8814    1.0000 </r>
       <r>    1.3394    1.0000 </r>
       <r>    1.3394    1.0000 </r>
       <r>    1.4807    1.0000 </r>
       <r>    1.7068    1.0000 </r>
       <r>    1.7068    1.0000 </r>
       <r>    3.1149    1.0000 </r>
       <r>    4.2476    1.0000 </r>
       <r>    4.2476    1.0000 </r>
       <r>    4.9300    1.0000 </r>
       <r>    4.9300    1.0000 </r>
       <r>    5.0900    1.0000 </r>
       <r>    5.8787    1.0000 </r>
       <r>    6.0070    1.0000 </r>
       <r>    6.2805    1.0000 </r>
       <r>    6.2805    1.0000 </r>
       <r>    6.6121    1.0041 </r>
       <r>    6.6121    1.0825 </r>
       <r>    6.9550    0.9193 </r>
       <r>    7.7089   -0.0007 </r>
       <r>    7.7089   -0.0001 </r>
       <r>   12.4874    0.0000 </r>
       <r>   12.4874    0.0000 </r>
      </set>
      <set comment="kpoint 4">
       <r>   -0.3786    1.0000 </r>
       <r>    0.6139    1.0000 </r>
       <r>    1.8863    1.0000 </r>
       <r>    1.8863    1.0000 </r>
       <r>    1.9586    1.0000 </r>
       <r>    2.4987    1.0000 </r>
       <r>    2.4987    1.0000 </r>
       <r>    2.5379    1.0000 </r>
       <r>    3.5828    1.0000 </r>
       <r>    3.5828    1.0000 </r>
       <r>    4.5830    1.0000 </r>
       <r>    4.6182    1.0000 </r>
       <r>    4.8827    1.0000 </r>
       <r>    4.8827    1.0000 </r>
       <r>    5.5508    1.0000 </r>
       <r>    5.5508    1.0000 </r>
       <r>    5.7067    1.0000 </r>
       <r>    5.7067    1.0000 </r>
       <r>    6.2980    1.0021 </r>
       <r>    6.6357    1.0718 </r>
       <r>    7.7100   -0.0105 </r>
       <r>    7.7100   -0.0100 </r>
       <r>   14.2095    0.0000 </r>
       <r>   14.2117    0.0000 </r>
      </set>
      <set comment="kpoint 5">
       <r>   -1.9772    1.0000 </r>
       <r>    0.9282    1.0000 </r>
       <r>    0.9282    1.0000 </r>
       <r>    0.9646    1.0000 </r>
       <r>    1.3260    1.0000 </r>
       <r>    1.3260    1.0000 </r>
       <r>    1.4203    1.0000 </r>
       <r>    3.4848    1.0000 </r>
       <r>    3.9032    1.0000 </r>
       <r>    3.9479    1.0000 </r>
       <r>    5.5205    1.0000 </r>
       <r>    5.7889    1.0000 </r>
       <r>    5.9443    1.0000 </r>
       <r>    5.9443    1.0000 </r>
       <r>    5.9473    1.0004 </r>
       <r>    6.7745    1.0036 </r>
       <r>    6.9901    0.9976 </r>
       <r>    6.9901    0.9842 </r>
       <r>    7.3846    0.2966 </r>
       <r>    7.3846    0.0343 </r>
       <r>    7.5013   -0.0092 </r>
       <r>    9.3825    0.0000 </r>
       <r>    9.3825    0.0000 </r>
       <r>   11.4122    0.0000 </r>
      </set>
      <set comment="kpoint 6">
       <r>   -1.2492    1.0000 </r>
       <r>    1.0888    1.0000 </r>
       <r>    1.3653    1.0000 </r>
       <r>    1.4550    1.0000 </r>
       <r>    1.6181    1.0000 </r>
       <r>    1.7885    1.0000 </r>
       <r>    1.9312    1.0000 </r>
       <r>    3.1260    1.0000 </r>
       <r>    4.1876    1.0000 </r>
       <r>    4.2559    1.0000 </r>
       <r>    4.4818    1.0000 </r>
       <r>    4.7640    1.0000 </r>
       <r>    4.8672    1.0000 </r>
       <r>    5.1846    1.0000 </r>
       <r>    6.0277    1.0000 </r>
       <r>    6.1715    1.0000 </r>
       <r>    6.3623    1.0000 </r>
       <r>    6.6079    1.0024 </r>
       <r>    6.6253    1.1097 </r>
       <r>    7.3806    0.3055 </r>
       <r>    7.3936    0.0388 </r>
       <r>    7.8684   -0.0001 </r>
       <r>   10.9998    0.0000 </r>
       <r>   13.1403    0.0000 </r>
      </set>
      <set comment="kpoint 7">
       <r>   -0.1822    1.0000 </r>
       <r>    0.8111    1.0000 </r>
       <r>    1.9546    1.0000 </r>
       <r>    2.0411    1.0000 </r>
       <r>    2.0655    1.0000 </r>
       <r>    2.5224    1.0000 </r>
       <r>    2.5428    1.0000 </r>
       <r>    2.6024    1.0000 </r>
       <r>    3.2779    1.0000 </r>
       <r>    3.5579    1.0000 </r>
       <r>    4.1077    1.0000 </r>
       <r>    4.1861    1.0000 </r>
       <r>    4.8808    1.0000 </r>
       <r>    5.1942    1.0000 </r>
       <r>    5.5563    1.0000 </r>
       <r>    5.6575    1.0000 </r>
       <r>    5.7020    1.0000 </r>
       <r>    5.8634    1.0000 </r>
       <r>    6.4495    1.0032 </r>
       <r>    7.0019    1.0102 </r>
       <r>    7.3738    0.0709 </r>
       <r>    7.3753   -0.0007 </r>
       <r>   12.2180    0.0000 </r>
       <r>   12.9604    0.0000 </r>
      </set>
      <set comment="kpoint 8">
       <r>   -0.5980    1.0000 </r>
       <r>    1.5690    1.0000 </r>
       <r>    1.6612    1.0000 </r>
       <r>    1.6612    1.0000 </r>
       <r>    2.0212    1.0000 </r>
       <r>    2.0212    1.0000 </r>
       <r>    2.4077    1.0000 </r>
       <r>    3.0383    1.0000 </r>
       <r>    3.6964    1.0000 </r>
       <r>    3.6964    1.0000 </r>
       <r>    4.1194    1.0000 </r>
       <r>    4.2359    1.0000 </r>
       <r>    4.4296    1.0000 </r>
       <r>    5.0799    1.0000 </r>
       <r>    5.8141    1.0000 </r>
       <r>    6.1665    1.0000 </r>
       <r>    6.1665    1.0000 </r>
       <r>    6.3978    1.0000 </r>
       <r>    6.6007    1.0447 </r>
       <r>    6.6007    1.1625 </r>
       <r>    6.9261    1.0965 </r>
       <r>    9.2251   -0.0001 </r>
       <r>    9.2251    0.0000 </r>
       <r>   12.3039    0.0000 </r>
      </set>
      <set comment="kpoint 9">
       <r>    0.3604    1.0000 </r>
       <r>    1.3314    1.0000 </r>
       <r>    2.0218    1.0000 </r>
       <r>    2.3654    1.0000 </r>
       <r>    2.3907    1.0000 </r>
       <r>    2.6576    1.0000 </r>
       <r>    2.7350    1.0000 </r>
       <r>    2.7420    1.0000 </r>
       <r>    2.7460    1.0000 </r>
       <r>    3.4510    1.0000 </r>
       <r>    3.4597    1.0000 </r>
       <r>    3.8679    1.0000 </r>
       <r>    4.9371    1.0000 </r>
       <r>    5.0799    1.0000 </r>
       <r>    5.4140    1.0000 </r>
       <r>    5.5810    1.0000 </r>
       <r>    5.5927    1.0000 </r>
       <r>    5.7097    1.0000 </r>
       <r>    6.6106    1.0034 </r>
       <r>    6.6861    1.0164 </r>
       <r>    7.1043    0.7977 </r>
       <r>    7.9942   -0.0030 </r>
       <r>   10.3704    0.0000 </r>
       <r>   11.2793    0.0000 </r>
      </set>
      <set comment="kpoint 10">
       <r>    1.1070    1.0000 </r>
       <r>    1.8699    1.0000 </r>
       <r>    1.8699    1.0000 </r>
       <r>    2.0260    1.0000 </r>
       <r>    2.7866    1.0000 </r>
       <r>    2.7866    1.0000 </r>
       <r>    2.8360    1.0000 </r>
       <r>    3.0684    1.0000 </r>
       <r>    3.1494    1.0000 </r>
       <r>    3.1494    1.0000 </r>
       <r>    3.1927    1.0000 </r>
       <r>    3.6487    1.0000 </r>
       <r>    4.8415    1.0000 </r>
       <r>    5.0766    1.0000 </r>
       <r>    5.1387    1.0000 </r>
       <r>    5.1387    1.0000 </r>
       <r>    5.2107    1.0000 </r>
       <r>    5.8024    1.0000 </r>
       <r>    5.8024    1.0000 </r>
       <r>    6.1035    1.0000 </r>
       <r>    8.0283   -0.1506 </r>
       <r>    9.0544    0.0000 </r>
       <r>    9.0544    0.0000 </r>
       <r>   10.0594    0.0000 </r>
      </set>
      <set comment="kpoint 11">
       <r>   -1.7366    1.0000 </r>
       <r>    1.0515    1.0000 </r>
       <r>    1.0515    1.0000 </r>
       <r>    1.0515    1.0000 </r>
       <r>    1.5259    1.0000 </r>
       <r>    1.5259    1.0000 </r>
       <r>    1.5259    1.0000 </r>
       <r>    3.4475    1.0000 </r>
       <r>    3.9730    1.0000 </r>
       <r>    3.9730    1.0000 </r>
       <r>    5.4954    1.0000 </r>
       <r>    5.4954    1.0000 </r>
       <r>    5.4954    1.0000 </r>
       <r>    5.6471    1.0000 </r>
       <r>    5.6471    1.0001 </r>
       <r>    6.4615    1.0075 </r>
       <r>    6.4615    1.0168 </r>
       <r>    6.4615    1.0294 </r>
       <r>    7.5100    0.1262 </r>
       <r>    7.5100   -0.0074 </r>
       <r>    7.5100   -0.0252 </r>
       <r>   10.1298    0.0000 </r>
       <r>   10.1298    0.0000 </r>
       <r>   10.1298    0.0000 </r>
      </set>
      <set comment="kpoint 12">
       <r>   -1.0482    1.0000 </r>
       <r>    1.1858    1.0000 </r>
       <r>    1.4314    1.0000 </r>
       <r>    1.4314    1.0000 </r>
       <r>    1.8292    1.0000 </r>
       <r>    2.0371    1.0000 </r>
       <r>    2.0371    1.0000 </r>
       <r>    3.1762    1.0000 </r>
       <r>    4.1528    1.0000 </r>
       <r>    4.1968    1.0000 </r>
       <r>    4.4017    1.0000 </r>
       <r>    4.4017    1.0000 </r>
       <r>    4.5159    1.0000 </r>
       <r>    5.3782    1.0000 </r>
       <r>    5.8264    1.0000 </r>
       <r>    5.9912    1.0000 </r>
       <r>    6.0036    1.0000 </r>
       <r>    6.0036    1.0021 </r>
       <r>    7.3429    0.5917 </r>
       <r>    7.3569    0.2866 </r>
       <r>    7.3569    0.0648 </r>
       <r>    8.2406   -0.0001 </r>
       <r>   11.4879    0.0000 </r>
       <r>   11.4879    0.0000 </r>
      </set>
      <set comment="kpoint 13">
       <r>   -0.0429    1.0000 </r>
       <r>    0.9006    1.0000 </r>
       <r>    2.0294    1.0000 </r>
       <r>    2.0294    1.0000 </r>
       <r>    2.2552    1.0000 </r>
       <r>    2.4780    1.0000 </r>
       <r>    2.4780    1.0000 </r>
       <r>    2.7286    1.0000 </r>
       <r>    3.4831    1.0000 </r>
       <r>    3.4831    1.0000 </r>
       <r>    3.8992    1.0000 </r>
       <r>    4.0618    1.0000 </r>
       <r>    4.5948    1.0000 </r>
       <r>    5.1582    1.0000 </r>
       <r>    5.5040    1.0000 </r>
       <r>    5.5040    1.0000 </r>
       <r>    5.6559    1.0000 </r>
       <r>    6.4657    1.0000 </r>
       <r>    6.6968    1.0220 </r>
       <r>    6.9582    1.0272 </r>
       <r>    7.2289    0.5522 </r>
       <r>    7.2289    0.0125 </r>
       <r>   12.5951    0.0000 </r>
       <r>   12.5951    0.0000 </r>
      </set>
      <set comment="kpoint 14">
       <r>   -0.4811    1.0000 </r>
       <r>    1.4761    1.0000 </r>
       <r>    1.4761    1.0000 </r>
       <r>    1.5463    1.0000 </r>
       <r>    2.3691    1.0000 </r>
       <r>    2.3691    1.0000 </r>
       <r>    2.4980    1.0000 </r>
       <r>    3.2086    1.0000 </r>
       <r>    3.7374    1.0000 </r>
       <r>    3.7374    1.0000 </r>
       <r>    4.0963    1.0000 </r>
       <r>    4.1017    1.0000 </r>
       <r>    4.2083    1.0000 </r>
       <r>    5.4465    1.0000 </r>
       <r>    5.4716    1.0000 </r>
       <r>    5.4716    1.0000 </r>
       <r>    5.4737    1.0000 </r>
       <r>    6.2987    1.0000 </r>
       <r>    7.1683    0.8805 </r>
       <r>    7.1783    0.8111 </r>
       <r>    7.1783    0.6756 </r>
       <r>    9.4183   -0.0000 </r>
       <r>    9.4183    0.0000 </r>
       <r>   12.7408    0.0000 </r>
      </set>
      <set comment="kpoint 15">
       <r>    0.3302    1.0000 </r>
       <r>    1.1197    1.0000 </r>
       <r>    1.8199    1.0000 </r>
       <r>    1.8516    1.0000 </r>
       <r>    2.6995    1.0000 </r>
       <r>    2.6997    1.0000 </r>
       <r>    2.7968    1.0000 </r>
       <r>    3.0650    1.0000 </r>
       <r>    3.4433    1.0000 </r>
       <r>    3.4918    1.0000 </r>
       <r>    3.7792    1.0000 </r>
       <r>    3.8595    1.0000 </r>
       <r>    4.4152    1.0000 </r>
       <r>    4.8626    1.0000 </r>
       <r>    5.0925    1.0000 </r>
       <r>    5.1693    1.0000 </r>
       <r>    5.7784    1.0000 </r>
       <r>    6.5831    1.0000 </r>
       <r>    6.9190    1.0164 </r>
       <r>    6.9191    1.0273 </r>
       <r>    6.9921    0.9688 </r>
       <r>    7.9087   -0.0018 </r>
       <r>   10.5588    0.0000 </r>
       <r>   11.5780    0.0000 </r>
      </set>
      <set comment="kpoint 16">
       <r>    0.8314    1.0000 </r>
       <r>    1.3657    1.0000 </r>
       <r>    1.3657    1.0000 </r>
       <r>    1.5849    1.0000 </r>
       <r>    3.0122    1.0000 </r>
       <r>    3.2059    1.0000 </r>
       <r>    3.2059    1.0000 </r>
       <r>    3.3717    1.0000 </r>
       <r>    3.5209    1.0000 </r>
       <r>    3.5209    1.0000 </r>
       <r>    3.7301    1.0000 </r>
       <r>    3.9073    1.0000 </r>
       <r>    4.3458    1.0000 </r>
       <r>    4.6576    1.0000 </r>
       <r>    4.6576    1.0000 </r>
       <r>    4.6849    1.0000 </r>
       <r>    5.8245    1.0000 </r>
       <r>    6.3612    1.0000 </r>
       <r>    6.3612    1.0104 </r>
       <r>    6.5162    1.0103 </r>
       <r>    7.9071   -0.1251 </r>
       <r>    8.9982    0.0000 </r>
       <r>    8.9982    0.0000 </r>
       <r>   10.1081    0.0000 </r>
      </set>
      <set comment="kpoint 17">
       <r>   -0.1525    1.0000 </r>
       <r>    1.3380    1.0000 </r>
       <r>    1.3380    1.0000 </r>
       <r>    1.3380    1.0000 </r>
       <r>    2.8330    1.0000 </r>
       <r>    2.8330    1.0000 </r>
       <r>    2.8330    1.0000 </r>
       <r>    3.6206    1.0000 </r>
       <r>    3.8956    1.0000 </r>
       <r>    3.8956    1.0000 </r>
       <r>    3.8956    1.0000 </r>
       <r>    4.0203    1.0000 </r>
       <r>    4.0203    1.0000 </r>
       <r>    4.8450    1.0000 </r>
       <r>    4.8450    1.0000 </r>
       <r>    4.8450    1.0000 </r>
       <r>    6.1456    1.0000 </r>
       <r>    6.1456    1.0000 </r>
       <r>    7.3844    0.3570 </r>
       <r>    7.3844    0.3100 </r>
       <r>    7.3844    0.0037 </r>
       <r>   10.0399   -0.0000 </r>
       <r>   10.0399    0.0000 </r>
       <r>   10.0399    0.0000 </r>
      </set>
      <set comment="kpoint 18">
       <r>    0.3305    1.0000 </r>
       <r>    0.8780    1.0000 </r>
       <r>    1.3045    1.0000 </r>
       <r>    1.3045    1.0000 </r>
       <r>    2.9721    1.0000 </r>
       <r>    2.9721    1.0000 </r>
       <r>    3.3658    1.0000 </r>
       <r>    3.7981    1.0000 </r>
       <r>    3.8424    1.0000 </r>
       <r>    3.8943    1.0000 </r>
       <r>    4.0617    1.0000 </r>
       <r>    4.2599    1.0000 </r>
       <r>    4.2599    1.0000 </r>
       <r>    4.3486    1.0000 </r>
       <r>    4.5624    1.0000 </r>
       <r>    4.5624    1.0000 </r>
       <r>    6.5375    1.0000 </r>
       <r>    6.7983    1.0000 </r>
       <r>    7.1785    0.9584 </r>
       <r>    7.1785    0.9568 </r>
       <r>    7.2576    0.3206 </r>
       <r>    7.9362   -0.0004 </r>
       <r>   10.7641    0.0000 </r>
       <r>   10.7641    0.0000 </r>
      </set>
      <set comment="kpoint 19">
       <r>    0.4777    1.0000 </r>
       <r>    0.8116    1.0000 </r>
       <r>    0.8116    1.0000 </r>
       <r>    0.9522    1.0000 </r>
       <r>    3.2579    1.0000 </r>
       <r>    3.3921    1.0000 </r>
       <r>    3.3921    1.0000 </r>
       <r>    3.7188    1.0000 </r>
       <r>    3.9076    1.0000 </r>
       <r>    4.0942    1.0000 </r>
       <r>    4.0942    1.0000 </r>
       <r>    4.1531    1.0000 </r>
       <r>    4.7024    1.0000 </r>
       <r>    4.7148    1.0000 </r>
       <r>    4.7148    1.0000 </r>
       <r>    4.8846    1.0000 </r>
       <r>    6.5689    1.0000 </r>
       <r>    7.0374    1.0000 </r>
       <r>    7.0374    1.0461 </r>
       <r>    7.0613    1.0421 </r>
       <r>    7.5410   -0.0286 </r>
       <r>    8.7715    0.0000 </r>
       <r>    8.7715    0.0000 </r>
       <r>    9.8399    0.0000 </r>
      </set>
      <set comment="kpoint 20">
       <r>    0.3536    1.0000 </r>
       <r>    0.5154    1.0000 </r>
       <r>    0.5154    1.0000 </r>
       <r>    0.5154    1.0000 </r>
       <r>    3.5496    1.0000 </r>
       <r>    3.5496    1.0000 </r>
       <r>    3.5496    1.0000 </r>
       <r>    3.7207    1.0000 </r>
       <r>    3.7207    1.0000 </r>
       <r>    3.8077    1.0000 </r>
       <r>    3.8077    1.0000 </r>
       <r>    3.8077    1.0000 </r>
       <r>    5.8179    1.0000 </r>
       <r>    5.8179    1.0000 </r>
       <r>    5.8179    1.0000 </r>
       <r>    6.0970    1.0000 </r>
       <r>    7.1211    1.0000 </r>
       <r>    7.1211    1.0000 </r>
       <r>    7.3050    0.4357 </r>
       <r>    7.3050    0.4058 </r>
       <r>    7.3050    0.0000 </r>
       <r>    8.3934    0.0000 </r>
       <r>    8.3934    0.0000 </r>
       <r>    8.3934    0.0000 </r>
      </set>
     </set>
    </set>
   </array>
  </eigenvalues>
  <separator name="orbital magnetization" >
   <v name="MAGDIPOLOUT">      0.00000000      0.00000000      0.00000000</v>
  </separator>
  <dos>
   <i name="efermi">      7.23975492 </i>
   <total>
    <array>
     <dimension dim="1">gridpoints</dimension>
     <dimension dim="2">spin</dimension>
     <field>energy</field>
     <field>total</field>
     <field>integrated</field>
     <set>
      <set comment="spin 1">
       <r>    -4.4936     0.0000     0.0000 </r>
       <r>    -4.4245     0.0000     0.0000 </r>
       <r>    -4.3555     0.0000     0.0000 </r>
       <r>    -4.2865     0.0000     0.0000 </r>
       <r>    -4.2175     0.0000     0.0000 </r>
       <r>    -4.1485     0.0000     0.0000 </r>
       <r>    -4.0794     0.0000     0.0000 </r>
       <r>    -4.0104     0.0000     0.0000 </r>
       <r>    -3.9414     0.0000     0.0000 </r>
       <r>    -3.8724     0.0000     0.0000 </r>
       <r>    -3.8034     0.0000     0.0000 </r>
       <r>    -3.7344     0.0000     0.0000 </r>
       <r>    -3.6653     0.0000     0.0000 </r>
       <r>    -3.5963     0.0000     0.0000 </r>
       <r>    -3.5273     0.0000     0.0000 </r>
       <r>    -3.4583     0.0000     0.0000 </r>
       <r>    -3.3893     0.0000     0.0000 </r>
       <r>    -3.3203     0.0000     0.0000 </r>
       <r>    -3.2512     0.0000     0.0000 </r>
       <r>    -3.1822     0.0000     0.0000 </r>
       <r>    -3.1132     0.0000     0.0000 </r>
       <r>    -3.0442     0.0000     0.0000 </r>
       <r>    -2.9752     0.0000     0.0000 </r>
       <r>    -2.9061     0.0000     0.0000 </r>
       <r>    -2.8371     0.0000     0.0000 </r>
       <r>    -2.7681     0.0000     0.0000 </r>
       <r>    -2.6991     0.0000     0.0000 </r>
       <r>    -2.6301     0.0000     0.0000 </r>
       <r>    -2.5611     0.0000     0.0000 </r>
       <r>    -2.4920     0.0000     0.0000 </r>
       <r>    -2.4230     0.0066     0.0002 </r>
       <r>    -2.3540     0.0258     0.0012 </r>
       <r>    -2.2850     0.0575     0.0040 </r>
       <r>    -2.2160     0.1019     0.0094 </r>
       <r>    -2.1470     0.1432     0.0180 </r>
       <r>    -2.0779     0.1717     0.0289 </r>
       <r>    -2.0089     0.1873     0.0414 </r>
       <r>    -1.9399     0.1913     0.0545 </r>
       <r>    -1.8709     0.1977     0.0679 </r>
       <r>    -1.8019     0.2098     0.0819 </r>
       <r>    -1.7328     0.2275     0.0970 </r>
       <r>    -1.6638     0.2482     0.1134 </r>
       <r>    -1.5948     0.2699     0.1312 </r>
       <r>    -1.5258     0.2925     0.1506 </r>
       <r>    -1.4568     0.3157     0.1716 </r>
       <r>    -1.3878     0.3351     0.1941 </r>
       <r>    -1.3187     0.3492     0.2178 </r>
       <r>    -1.2497     0.3578     0.2422 </r>
       <r>    -1.1807     0.3687     0.2672 </r>
       <r>    -1.1117     0.3844     0.2932 </r>
       <r>    -1.0427     0.4047     0.3204 </r>
       <r>    -0.9737     0.4228     0.3490 </r>
       <r>    -0.9046     0.4412     0.3788 </r>
       <r>    -0.8356     0.4601     0.4099 </r>
       <r>    -0.7666     0.4793     0.4423 </r>
       <r>    -0.6976     0.4990     0.4760 </r>
       <r>    -0.6286     0.5190     0.5112 </r>
       <r>    -0.5595     0.5402     0.5477 </r>
       <r>    -0.4905     0.5666     0.5859 </r>
       <r>    -0.4215     0.5954     0.6260 </r>
       <r>    -0.3525     0.6778     0.6688 </r>
       <r>    -0.2835     0.8344     0.7211 </r>
       <r>    -0.2145     0.9772     0.7837 </r>
       <r>    -0.1454     1.0629     0.8562 </r>
       <r>    -0.0764     0.9808     0.9266 </r>
       <r>    -0.0074     0.9785     0.9931 </r>
       <r>     0.0616     1.0355     1.0626 </r>
       <r>     0.1306     1.0848     1.1358 </r>
       <r>     0.1996     1.1263     1.2122 </r>
       <r>     0.2687     1.1602     1.2911 </r>
       <r>     0.3377     1.8018     1.3936 </r>
       <r>     0.4067     2.2379     1.5542 </r>
       <r>     0.4757     1.7421     1.6935 </r>
       <r>     0.5447     1.2511     1.7880 </r>
       <r>     0.6138     1.2782     1.8750 </r>
       <r>     0.6828     1.5728     1.9718 </r>
       <r>     0.7518     2.1732     2.1001 </r>
       <r>     0.8208     3.4323     2.2803 </r>
       <r>     0.8898     3.9890     2.5369 </r>
       <r>     0.9588     4.6107     2.8387 </r>
       <r>     1.0279     4.9497     3.1685 </r>
       <r>     1.0969     5.2910     3.5231 </r>
       <r>     1.1659     5.0532     3.8715 </r>
       <r>     1.2349     5.5545     4.2361 </r>
       <r>     1.3039     5.9117     4.6346 </r>
       <r>     1.3729     6.0241     5.0467 </r>
       <r>     1.4420     6.7037     5.4784 </r>
       <r>     1.5110     5.8751     5.9109 </r>
       <r>     1.5800     5.6413     6.3047 </r>
       <r>     1.6490     5.6900     6.6969 </r>
       <r>     1.7180     5.6723     7.0890 </r>
       <r>     1.7871     5.6249     7.4792 </r>
       <r>     1.8561     6.1113     7.8761 </r>
       <r>     1.9251     6.7060     8.3090 </r>
       <r>     1.9941     6.5424     8.7808 </r>
       <r>     2.0631     3.8871     9.1527 </r>
       <r>     2.1321     3.5410     9.4045 </r>
       <r>     2.2012     3.3715     9.6428 </r>
       <r>     2.2702     3.2505     9.8710 </r>
       <r>     2.3392     3.1827    10.0927 </r>
       <r>     2.4082     3.2886    10.3140 </r>
       <r>     2.4772     3.6314    10.5515 </r>
       <r>     2.5462     4.9262    10.9960 </r>
       <r>     2.6153     5.5850    11.3685 </r>
       <r>     2.6843     5.8948    11.7629 </r>
       <r>     2.7533     5.6619    12.1625 </r>
       <r>     2.8223     5.6130    12.5641 </r>
       <r>     2.8913     5.5424    12.9464 </r>
       <r>     2.9604     5.5331    13.3287 </r>
       <r>     3.0294     5.5787    13.7121 </r>
       <r>     3.0984     5.7295    14.1019 </r>
       <r>     3.1674     6.0839    14.5063 </r>
       <r>     3.2364     5.6376    14.9173 </r>
       <r>     3.3054     5.8185    15.3090 </r>
       <r>     3.3745     6.8014    15.7167 </r>
       <r>     3.4435     7.0254    16.1596 </r>
       <r>     3.5125     9.1721    16.7915 </r>
       <r>     3.5815     6.1174    17.3516 </r>
       <r>     3.6505     6.0349    17.7623 </r>
       <r>     3.7195    37.6095    18.2140 </r>
       <r>     3.7886     7.8491    18.7989 </r>
       <r>     3.8576    10.4454    19.4269 </r>
       <r>     3.9266    10.4995    20.2498 </r>
       <r>     3.9956    10.4753    20.9764 </r>
       <r>     4.0646    10.3166    21.6920 </r>
       <r>     4.1336     7.3754    22.2916 </r>
       <r>     4.2027     5.3713    22.7470 </r>
       <r>     4.2717     3.3902    23.0341 </r>
       <r>     4.3407     4.3517    23.3010 </r>
       <r>     4.4097     4.8421    23.6294 </r>
       <r>     4.4787     4.5030    23.9513 </r>
       <r>     4.5478     4.3168    24.2553 </r>
       <r>     4.6168     5.4176    24.5815 </r>
       <r>     4.6858     8.2351    25.0421 </r>
       <r>     4.7548     6.7811    25.5533 </r>
       <r>     4.8238     6.6906    26.0184 </r>
       <r>     4.8928     5.7125    26.4937 </r>
       <r>     4.9619     5.3352    26.8652 </r>
       <r>     5.0309     5.8420    27.2492 </r>
       <r>     5.0999     5.8190    27.6598 </r>
       <r>     5.1689     6.7889    28.0972 </r>
       <r>     5.2379     5.2514    28.5127 </r>
       <r>     5.3069     4.8785    28.8614 </r>
       <r>     5.3760     4.6521    29.1895 </r>
       <r>     5.4450     4.4742    29.5131 </r>
       <r>     5.5140     5.5003    29.8344 </r>
       <r>     5.5830     5.6107    30.2850 </r>
       <r>     5.6520     6.6828    30.7018 </r>
       <r>     5.7211     6.5455    31.2207 </r>
       <r>     5.7901     6.2607    31.6579 </r>
       <r>     5.8591     5.5411    32.0781 </r>
       <r>     5.9281     5.1710    32.4439 </r>
       <r>     5.9971     4.8205    32.7888 </r>
       <r>     6.0661     4.2106    33.0917 </r>
       <r>     6.1352     4.4530    33.3952 </r>
       <r>     6.2042     4.4672    33.7042 </r>
       <r>     6.2732     4.5512    34.0159 </r>
       <r>     6.3422     4.7203    34.3339 </r>
       <r>     6.4112     5.0114    34.6701 </r>
       <r>     6.4802     5.1242    35.0201 </r>
       <r>     6.5493     6.3554    35.3916 </r>
       <r>     6.6183     5.9172    35.8025 </r>
       <r>     6.6873     5.3859    36.1868 </r>
       <r>     6.7563     5.2430    36.5524 </r>
       <r>     6.8253     5.3095    36.9148 </r>
       <r>     6.8944     5.5258    37.2884 </r>
       <r>     6.9634     6.9857    37.7280 </r>
       <r>     7.0324     7.2602    38.2114 </r>
       <r>     7.1014     9.3979    38.8285 </r>
       <r>     7.1704     8.3003    39.4476 </r>
       <r>     7.2394     7.6229    39.9976 </r>
       <r>     7.3085     6.8651    40.5135 </r>
       <r>     7.3775     8.5947    40.9864 </r>
       <r>     7.4465     4.8995    41.4209 </r>
       <r>     7.5155     3.6158    41.7113 </r>
       <r>     7.5845     2.7137    41.9264 </r>
       <r>     7.6535     2.1119    42.0933 </r>
       <r>     7.7226     1.3077    42.2133 </r>
       <r>     7.7916     1.2852    42.3028 </r>
       <r>     7.8606     1.2707    42.3909 </r>
       <r>     7.9296     1.7998    42.4988 </r>
       <r>     7.9986     1.4359    42.6021 </r>
       <r>     8.0677     1.0950    42.6872 </r>
       <r>     8.1367     1.0951    42.7627 </r>
       <r>     8.2057     1.1096    42.8387 </r>
       <r>     8.2747     1.1305    42.9161 </r>
       <r>     8.3437     1.1459    42.9947 </r>
       <r>     8.4127     1.3731    43.0958 </r>
       <r>     8.4818     1.3962    43.1914 </r>
       <r>     8.5508     1.4131    43.2884 </r>
       <r>     8.6198     1.4240    43.3864 </r>
       <r>     8.6888     1.4287    43.4848 </r>
       <r>     8.7578     1.4273    43.5834 </r>
       <r>     8.8268     1.3106    43.6763 </r>
       <r>     8.8959     1.2726    43.7654 </r>
       <r>     8.9649     1.2339    43.8519 </r>
       <r>     9.0339     2.1196    43.9690 </r>
       <r>     9.1029     0.8414    44.0535 </r>
       <r>     9.1719     0.8188    44.1108 </r>
       <r>     9.2410     0.7969    44.1665 </r>
       <r>     9.3100     0.7806    44.2209 </r>
       <r>     9.3790     0.7719    44.2744 </r>
       <r>     9.4480     0.7862    44.3281 </r>
       <r>     9.5170     0.8077    44.3831 </r>
       <r>     9.5860     0.8291    44.4396 </r>
       <r>     9.6551     0.8507    44.4975 </r>
       <r>     9.7241     0.8722    44.5570 </r>
       <r>     9.7931     0.8938    44.6179 </r>
       <r>     9.8621     1.0446    44.6831 </r>
       <r>     9.9311     1.1006    44.7571 </r>
       <r>    10.0001     1.1653    44.8352 </r>
       <r>    10.0692     1.9759    44.9252 </r>
       <r>    10.1382     1.2550    45.0421 </r>
       <r>    10.2072     1.2759    45.1294 </r>
       <r>    10.2762     1.2954    45.2182 </r>
       <r>    10.3452     1.3135    45.3082 </r>
       <r>    10.4143     1.2976    45.3987 </r>
       <r>    10.4833     1.2595    45.4870 </r>
       <r>    10.5523     1.2217    45.5726 </r>
       <r>    10.6213     1.2977    45.6650 </r>
       <r>    10.6903     1.1775    45.7504 </r>
       <r>    10.7593     1.0565    45.8275 </r>
       <r>    10.8284     1.0505    45.9000 </r>
       <r>    10.8974     1.0526    45.9726 </r>
       <r>    10.9664     1.0544    46.0453 </r>
       <r>    11.0354     1.0509    46.1180 </r>
       <r>    11.1044     1.0414    46.1902 </r>
       <r>    11.1734     1.0303    46.2617 </r>
       <r>    11.2425     1.0174    46.3324 </r>
       <r>    11.3115     1.0053    46.4021 </r>
       <r>    11.3805     1.0019    46.4714 </r>
       <r>    11.4495     1.0099    46.5407 </r>
       <r>    11.5185     1.0328    46.6111 </r>
       <r>    11.5876     1.0368    46.6829 </r>
       <r>    11.6566     1.0327    46.7543 </r>
       <r>    11.7256     1.0267    46.8254 </r>
       <r>    11.7946     1.0186    46.8960 </r>
       <r>    11.8636     1.0085    46.9659 </r>
       <r>    11.9326     0.9963    47.0351 </r>
       <r>    12.0017     0.9821    47.1034 </r>
       <r>    12.0707     0.9659    47.1707 </r>
       <r>    12.1397     0.9476    47.2367 </r>
       <r>    12.2087     0.9273    47.3014 </r>
       <r>    12.2777     0.9844    47.3703 </r>
       <r>    12.3467     0.9254    47.4362 </r>
       <r>    12.4158     0.8609    47.4979 </r>
       <r>    12.4848     0.7903    47.5549 </r>
       <r>    12.5538     0.7203    47.6070 </r>
       <r>    12.6228     0.6716    47.6547 </r>
       <r>    12.6918     0.6421    47.7001 </r>
       <r>    12.7609     0.6108    47.7433 </r>
       <r>    12.8299     0.5815    47.7845 </r>
       <r>    12.8989     0.5474    47.8234 </r>
       <r>    12.9679     0.4342    47.8594 </r>
       <r>    13.0369     0.3345    47.8859 </r>
       <r>    13.1059     0.2408    47.9057 </r>
       <r>    13.1750     0.1868    47.9198 </r>
       <r>    13.2440     0.1683    47.9321 </r>
       <r>    13.3130     0.1508    47.9431 </r>
       <r>    13.3820     0.1341    47.9529 </r>
       <r>    13.4510     0.1182    47.9616 </r>
       <r>    13.5200     0.1032    47.9693 </r>
       <r>    13.5891     0.0891    47.9759 </r>
       <r>    13.6581     0.0758    47.9816 </r>
       <r>    13.7271     0.0633    47.9864 </r>
       <r>    13.7961     0.0517    47.9903 </r>
       <r>    13.8651     0.0410    47.9935 </r>
       <r>    13.9341     0.0311    47.9960 </r>
       <r>    14.0032     0.0221    47.9978 </r>
       <r>    14.0722     0.0139    47.9991 </r>
       <r>    14.1412     0.0065    47.9998 </r>
       <r>    14.2102     0.0001    48.0000 </r>
       <r>    14.2792     0.0000    48.0000 </r>
       <r>    14.3483     0.0000    48.0000 </r>
       <r>    14.4173     0.0000    48.0000 </r>
       <r>    14.4863     0.0000    48.0000 </r>
       <r>    14.5553     0.0000    48.0000 </r>
       <r>    14.6243     0.0000    48.0000 </r>
       <r>    14.6933     0.0000    48.0000 </r>
       <r>    14.7624     0.0000    48.0000 </r>
       <r>    14.8314     0.0000    48.0000 </r>
       <r>    14.9004     0.0000    48.0000 </r>
       <r>    14.9694     0.0000    48.0000 </r>
       <r>    15.0384     0.0000    48.0000 </r>
       <r>    15.1074     0.0000    48.0000 </r>
       <r>    15.1765     0.0000    48.0000 </r>
       <r>    15.2455     0.0000    48.0000 </r>
       <r>    15.3145     0.0000    48.0000 </r>
       <r>    15.3835     0.0000    48.0000 </r>
       <r>    15.4525     0.0000    48.0000 </r>
       <r>    15.5216     0.0000    48.0000 </r>
       <r>    15.5906     0.0000    48.0000 </r>
       <r>    15.6596     0.0000    48.0000 </r>
       <r>    15.7286     0.0000    48.0000 </r>
       <r>    15.7976     0.0000    48.0000 </r>
       <r>    15.8666     0.0000    48.0000 </r>
       <r>    15.9357     0.0000    48.0000 </r>
       <r>    16.0047     0.0000    48.0000 </r>
       <r>    16.0737     0.0000    48.0000 </r>
       <r>    16.1427     0.0000    48.0000 </r>
       <r>    16.2117     0.0000    48.0000 </r>
      </set>
     </set>
    </array>
   </total>
  </dos>
 </calculation>
 <structure name="finalpos" >
  <crystal>
   <varray name="basis" >
    <v>       3.97758301       0.00000000       0.00000000 </v>
    <v>       0.00000000       3.97758301       0.00000000 </v>
    <v>       0.00000000       0.00000000       3.97758301 </v>
   </varray>
   <i name="volume">     62.93000335 </i>
   <varray name="rec_basis" >
    <v>       0.25140896       0.00000000       0.00000000 </v>
    <v>       0.00000000       0.25140896       0.00000000 </v>
    <v>       0.00000000       0.00000000       0.25140896 </v>
   </varray>
  </crystal>
  <varray name="positions" >
   <v>       0.00000000       0.00000000       0.00000000 </v>
   <v>       0.00000000       0.50000000       0.50000000 </v>
   <v>       0.50000000       0.00000000       0.50000000 </v>
   <v>       0.50000000       0.50000000       0.00000000 </v>
  </varray>
 </structure>
</modeling>
