unknown system                          
           1
     3.977583    0.000000    0.000000
     0.000000    3.977583    0.000000
     0.000000    0.000000    3.977583
   Pt
   4
Direct configuration=     1
   0.00000000  0.00000000  0.00000000
   0.00000000  0.50000000  0.50000000
   0.50000000  0.00000000  0.50000000
   0.50000000  0.50000000  0.00000000
