<?xml version="1.0" encoding="ISO-8859-1"?>
<modeling>
 <generator>
  <i name="program" type="string">vasp </i>
  <i name="version" type="string">5.4.4.18Apr17-6-g9f103f2a35  </i>
  <i name="subversion" type="string">(build Jun 30 2017 11:15:00) complex            parallel </i>
  <i name="platform" type="string">STALLO_VASP_5.4.4 </i>
  <i name="date" type="string">2019 11 04 </i>
  <i name="time" type="string">15:06:25 </i>
 </generator>
 <incar>
  <i type="string" name="PREC">normal    ! low/normal/accurate</i>
  <i type="string" name="ALGO"> Fast      ! Algorithm for electronic re</i>
  <i type="int" name="ISPIN">     1</i>
  <i type="int" name="NELMIN">     4</i>
  <i name="EDIFF">      0.00001000</i>
  <i type="int" name="NSW">     0</i>
  <i name="ENCUT">    500.00000000</i>
  <i type="logical" name="LREAL"> F  </i>
  <i type="int" name="ISMEAR">    -5</i>
  <i name="SIGMA">      0.20000000</i>
  <i type="logical" name="LWAVE"> F  </i>
  <v type="int" name="KPOINT_BSE">    -1     0     0     0</v>
 </incar>
 <structure name="primitive_cell" >
  <crystal>
   <varray name="basis" >
    <v>       3.94684634       0.00000000       0.00000000 </v>
    <v>       0.00000000       3.94684634       0.00000000 </v>
    <v>       0.00000000       0.00000000      25.81396220 </v>
   </varray>
   <i name="volume">    402.11947539 </i>
   <varray name="rec_basis" >
    <v>       0.25336684       0.00000000       0.00000000 </v>
    <v>       0.00000000       0.25336684       0.00000000 </v>
    <v>       0.00000000       0.00000000       0.03873873 </v>
   </varray>
  </crystal>
  <varray name="positions" >
   <v>      -0.50000000      -0.50000000       0.23243235 </v>
   <v>      -0.50000000      -0.50000000       0.30888025 </v>
   <v>       0.00000000       0.00000000       0.23243235 </v>
   <v>      -0.50000000       0.00000000       0.30888025 </v>
   <v>       0.00000000      -0.50000000       0.30888025 </v>
   <v>      -0.50000000      -0.50000000       0.38532815 </v>
   <v>       0.00000000       0.00000000       0.38532815 </v>
   <v>      -0.50000000      -0.50000000       0.46177605 </v>
   <v>      -0.50000000       0.00000000       0.46177605 </v>
   <v>       0.00000000      -0.50000000       0.46177605 </v>
   <v>      -0.50000000      -0.50000000      -0.46177605 </v>
   <v>       0.00000000       0.00000000      -0.46177605 </v>
   <v>      -0.50000000      -0.50000000      -0.38532815 </v>
   <v>      -0.50000000       0.00000000      -0.38532815 </v>
   <v>       0.00000000      -0.50000000      -0.38532815 </v>
   <v>      -0.50000000      -0.50000000      -0.30888025 </v>
   <v>      -0.50000000      -0.50000000      -0.23243235 </v>
   <v>      -0.50000000       0.00000000      -0.23243235 </v>
   <v>       0.00000000      -0.50000000      -0.23243235 </v>
   <v>       0.00000000       0.00000000      -0.30888025 </v>
  </varray>
 </structure>
 <varray name="primitive_index" >
  <v type="int" >        1 </v>
  <v type="int" >       17 </v>
  <v type="int" >       13 </v>
  <v type="int" >        2 </v>
  <v type="int" >        3 </v>
  <v type="int" >        4 </v>
  <v type="int" >       14 </v>
  <v type="int" >       18 </v>
  <v type="int" >        5 </v>
  <v type="int" >        6 </v>
  <v type="int" >        7 </v>
  <v type="int" >       15 </v>
  <v type="int" >       19 </v>
  <v type="int" >        8 </v>
  <v type="int" >        9 </v>
  <v type="int" >       10 </v>
  <v type="int" >       20 </v>
  <v type="int" >       11 </v>
  <v type="int" >       12 </v>
  <v type="int" >       16 </v>
 </varray>
 <kpoints>
  <generation param="Gamma">
   <v type="int" name="divisions">       7        7        1 </v>
   <v name="usershift">      0.00000000       0.00000000       0.00000000 </v>
   <v name="genvec1">      0.14285714       0.00000000       0.00000000 </v>
   <v name="genvec2">      0.00000000       0.14285714       0.00000000 </v>
   <v name="genvec3">      0.00000000       0.00000000       1.00000000 </v>
   <v name="shift">      0.00000000       0.00000000       0.00000000 </v>
  </generation>
  <varray name="kpointlist" >
   <v>       0.00000000       0.00000000       0.00000000 </v>
   <v>       0.14285714       0.00000000       0.00000000 </v>
   <v>       0.28571429       0.00000000       0.00000000 </v>
   <v>       0.42857143       0.00000000       0.00000000 </v>
   <v>       0.14285714       0.14285714       0.00000000 </v>
   <v>       0.28571429       0.14285714       0.00000000 </v>
   <v>       0.42857143       0.14285714       0.00000000 </v>
   <v>       0.28571429       0.28571429       0.00000000 </v>
   <v>       0.42857143       0.28571429       0.00000000 </v>
   <v>       0.42857143       0.42857143       0.00000000 </v>
  </varray>
  <varray name="weights" >
   <v>       0.02040816 </v>
   <v>       0.08163265 </v>
   <v>       0.08163265 </v>
   <v>       0.08163265 </v>
   <v>       0.08163265 </v>
   <v>       0.16326531 </v>
   <v>       0.16326531 </v>
   <v>       0.08163265 </v>
   <v>       0.16326531 </v>
   <v>       0.08163265 </v>
  </varray>
  <varray name="tetrahedronlist"  type="int" >
   <v type="int" >        4        1        1        2        5 </v>
   <v type="int" >        4        1        2        2        5 </v>
   <v type="int" >        4        1        2        5        5 </v>
   <v type="int" >        4        2        2        3        6 </v>
   <v type="int" >        4        2        2        5        6 </v>
   <v type="int" >        4        2        5        5        6 </v>
   <v type="int" >        4        2        3        3        6 </v>
   <v type="int" >        4        2        3        6        6 </v>
   <v type="int" >        4        2        5        6        6 </v>
   <v type="int" >        4        3        3        4        7 </v>
   <v type="int" >        4        3        3        6        7 </v>
   <v type="int" >        4        3        6        6        7 </v>
   <v type="int" >        4        3        4        4        7 </v>
   <v type="int" >        4        3        4        7        7 </v>
   <v type="int" >        4        3        6        7        7 </v>
   <v type="int" >        8        4        4        4        7 </v>
   <v type="int" >        8        4        4        7        7 </v>
   <v type="int" >        8        4        7        7        7 </v>
   <v type="int" >        4        3        4        4        6 </v>
   <v type="int" >        4        4        4        6        7 </v>
   <v type="int" >        4        4        6        7        7 </v>
   <v type="int" >        4        3        3        4        6 </v>
   <v type="int" >        4        3        4        6        6 </v>
   <v type="int" >        4        4        6        6        7 </v>
   <v type="int" >        4        2        3        3        5 </v>
   <v type="int" >        4        3        3        5        6 </v>
   <v type="int" >        4        3        5        6        6 </v>
   <v type="int" >        4        2        2        3        5 </v>
   <v type="int" >        4        2        3        5        5 </v>
   <v type="int" >        4        3        5        5        6 </v>
   <v type="int" >        4        1        2        2        2 </v>
   <v type="int" >        4        2        2        2        5 </v>
   <v type="int" >        2        2        2        5        5 </v>
   <v type="int" >        2        1        1        2        2 </v>
   <v type="int" >        4        5        5        6        8 </v>
   <v type="int" >        4        5        6        6        8 </v>
   <v type="int" >        4        5        6        8        8 </v>
   <v type="int" >        4        6        6        7        9 </v>
   <v type="int" >        4        6        6        8        9 </v>
   <v type="int" >        4        6        8        8        9 </v>
   <v type="int" >        4        6        7        7        9 </v>
   <v type="int" >        4        6        7        9        9 </v>
   <v type="int" >        4        6        8        9        9 </v>
   <v type="int" >        8        7        7        7        9 </v>
   <v type="int" >        8        7        7        9        9 </v>
   <v type="int" >        8        7        9        9        9 </v>
   <v type="int" >        4        6        7        7        8 </v>
   <v type="int" >        4        7        7        8        9 </v>
   <v type="int" >        4        7        8        9        9 </v>
   <v type="int" >        4        6        6        7        8 </v>
   <v type="int" >        4        6        7        8        8 </v>
   <v type="int" >        4        7        8        8        9 </v>
   <v type="int" >        4        5        6        6        6 </v>
   <v type="int" >        4        6        6        6        8 </v>
   <v type="int" >        2        6        6        8        8 </v>
   <v type="int" >        2        5        5        6        6 </v>
   <v type="int" >        4        8        8        9       10 </v>
   <v type="int" >        4        8        9        9       10 </v>
   <v type="int" >        4        8        9       10       10 </v>
   <v type="int" >       12        9        9        9       10 </v>
   <v type="int" >       10        9        9       10       10 </v>
   <v type="int" >        8        9       10       10       10 </v>
   <v type="int" >        4        8        9        9        9 </v>
   <v type="int" >        2        8        8        9        9 </v>
   <v type="int" >        6       10       10       10       10 </v>
  </varray>
  <i name="volumeweight">      0.00340136 </i>
 </kpoints>
 <parameters>
  <separator name="general" >
   <i type="string" name="SYSTEM">unknown system</i>
   <i type="logical" name="LCOMPAT"> F  </i>
  </separator>
  <separator name="electronic" >
   <i type="string" name="PREC">normal</i>
   <i name="ENMAX">    500.00000000</i>
   <i name="ENAUG">    605.39200000</i>
   <i name="EDIFF">      0.00001000</i>
   <i type="int" name="IALGO">    68</i>
   <i type="int" name="IWAVPR">    10</i>
   <i type="int" name="NBANDS">    76</i>
   <i name="NELECT">    128.00000000</i>
   <i type="int" name="TURBO">     0</i>
   <i type="int" name="IRESTART">     0</i>
   <i type="int" name="NREBOOT">     0</i>
   <i type="int" name="NMIN">     0</i>
   <i name="EREF">      0.00000000</i>
   <separator name="electronic smearing" >
    <i type="int" name="ISMEAR">    -5</i>
    <i name="SIGMA">      0.20000000</i>
    <i name="KSPACING">      0.50000000</i>
    <i type="logical" name="KGAMMA"> T  </i>
   </separator>
   <separator name="electronic projectors" >
    <i type="logical" name="LREAL"> F  </i>
    <v name="ROPT">      0.00000000      0.00000000      0.00000000</v>
    <i type="int" name="LMAXPAW">  -100</i>
    <i type="int" name="LMAXMIX">     2</i>
    <i type="logical" name="NLSPLINE"> F  </i>
   </separator>
   <separator name="electronic startup" >
    <i type="int" name="ISTART">     0</i>
    <i type="int" name="ICHARG">     2</i>
    <i type="int" name="INIWAV">     1</i>
   </separator>
   <separator name="electronic spin" >
    <i type="int" name="ISPIN">     1</i>
    <i type="logical" name="LNONCOLLINEAR"> F  </i>
    <v name="MAGMOM">      1.00000000      1.00000000      1.00000000      1.00000000      1.00000000      1.00000000      1.00000000      1.00000000      1.00000000      1.00000000      1.00000000      1.00000000      1.00000000      1.00000000      1.00000000      1.00000000      1.00000000      1.00000000      1.00000000      1.00000000
</v>
    <i name="NUPDOWN">     -1.00000000</i>
    <i type="logical" name="LSORBIT"> F  </i>
    <v name="SAXIS">      0.00000000      0.00000000      1.00000000</v>
    <i type="logical" name="LSPIRAL"> F  </i>
    <v name="QSPIRAL">      0.00000000      0.00000000      0.00000000</v>
    <i type="logical" name="LZEROZ"> F  </i>
   </separator>
   <separator name="electronic exchange-correlation" >
    <i type="logical" name="LASPH"> F  </i>
    <i type="logical" name="LMETAGGA"> F  </i>
   </separator>
   <separator name="electronic convergence" >
    <i type="int" name="NELM">    60</i>
    <i type="int" name="NELMDL">    -5</i>
    <i type="int" name="NELMIN">     4</i>
    <i name="ENINI">    500.00000000</i>
    <separator name="electronic convergence detail" >
     <i type="logical" name="LDIAG"> T  </i>
     <i type="logical" name="LSUBROT"> F  </i>
     <i name="WEIMIN">      0.00000000</i>
     <i name="EBREAK">      0.00000003</i>
     <i name="DEPER">      0.30000000</i>
     <i type="int" name="NRMM">     4</i>
     <i name="TIME">      0.40000000</i>
    </separator>
   </separator>
   <separator name="electronic mixer" >
    <i name="AMIX">      0.40000000</i>
    <i name="BMIX">      1.00000000</i>
    <i name="AMIN">      0.10000000</i>
    <i name="AMIX_MAG">      1.60000000</i>
    <i name="BMIX_MAG">      1.00000000</i>
    <separator name="electronic mixer details" >
     <i type="int" name="IMIX">     4</i>
     <i type="logical" name="MIXFIRST"> F  </i>
     <i type="int" name="MAXMIX">   -45</i>
     <i name="WC">    100.00000000</i>
     <i type="int" name="INIMIX">     1</i>
     <i type="int" name="MIXPRE">     1</i>
     <i type="int" name="MREMOVE">     5</i>
    </separator>
   </separator>
   <separator name="electronic dipolcorrection" >
    <i type="logical" name="LDIPOL"> F  </i>
    <i type="logical" name="LMONO"> F  </i>
    <i type="int" name="IDIPOL">     0</i>
    <i name="EPSILON">      1.00000000</i>
    <v name="DIPOL">   -100.00000000   -100.00000000   -100.00000000</v>
    <i name="EFIELD">      0.00000000</i>
   </separator>
  </separator>
  <separator name="grids" >
   <i type="int" name="NGX">    24</i>
   <i type="int" name="NGY">    24</i>
   <i type="int" name="NGZ">   144</i>
   <i type="int" name="NGXF">    48</i>
   <i type="int" name="NGYF">    48</i>
   <i type="int" name="NGZF">   288</i>
   <i type="logical" name="ADDGRID"> F  </i>
  </separator>
  <separator name="ionic" >
   <i type="int" name="NSW">     0</i>
   <i type="int" name="IBRION">    -1</i>
   <i type="int" name="MDALGO">     0</i>
   <i type="int" name="ISIF">     2</i>
   <i name="PSTRESS">      0.00000000</i>
   <i name="EDIFFG">      0.00010000</i>
   <i type="int" name="NFREE">     0</i>
   <i name="POTIM">      0.50000000</i>
   <i name="SMASS">     -3.00000000</i>
   <i name="SCALEE">      1.00000000</i>
  </separator>
  <separator name="ionic md" >
   <i name="TEBEG">      0.00010000</i>
   <i name="TEEND">      0.00010000</i>
   <i type="int" name="NBLOCK">     1</i>
   <i type="int" name="KBLOCK">     1</i>
   <i type="int" name="NPACO">   256</i>
   <i name="APACO">     16.00000000</i>
  </separator>
  <separator name="symmetry" >
   <i type="int" name="ISYM">     2</i>
   <i name="SYMPREC">      0.00001000</i>
  </separator>
  <separator name="dos" >
   <i type="int" name="LORBIT">     0</i>
   <v name="RWIGS">     -1.00000000     -1.00000000     -1.00000000</v>
   <i type="int" name="NEDOS">   301</i>
   <i name="EMIN">     10.00000000</i>
   <i name="EMAX">    -10.00000000</i>
   <i name="EFERMI">      0.00000000</i>
  </separator>
  <separator name="writing" >
   <i type="int" name="NWRITE">     2</i>
   <i type="logical" name="LWAVE"> F  </i>
   <i type="logical" name="LDOWNSAMPLE"> F  </i>
   <i type="logical" name="LCHARG"> T  </i>
   <i type="logical" name="LPARD"> F  </i>
   <i type="logical" name="LVTOT"> F  </i>
   <i type="logical" name="LVHAR"> F  </i>
   <i type="logical" name="LELF"> F  </i>
   <i type="logical" name="LOPTICS"> F  </i>
   <v name="STM">      0.00000000      0.00000000      0.00000000      0.00000000      0.00000000      0.00000000      0.00000000</v>
  </separator>
  <separator name="performance" >
   <i type="int" name="NPAR">     2</i>
   <i type="int" name="NSIM">     4</i>
   <i type="int" name="NBLK">    -1</i>
   <i type="logical" name="LPLANE"> T  </i>
   <i type="logical" name="LSCALAPACK"> T  </i>
   <i type="logical" name="LSCAAWARE"> F  </i>
   <i type="logical" name="LSCALU"> F  </i>
   <i type="logical" name="LASYNC"> F  </i>
   <i type="logical" name="LORBITALREAL"> F  </i>
  </separator>
  <separator name="miscellaneous" >
   <i type="int" name="IDIOT">     3</i>
   <i type="int" name="ISPECIAL">     0</i>
   <i type="logical" name="LMUSIC"> F  </i>
   <v name="POMASS">     16.00000000     87.62000000     47.88000000</v>
   <v name="DARWINR">      0.00000000      0.00000000      0.00000000</v>
   <v name="DARWINV">      1.00000000      1.00000000      1.00000000</v>
   <i type="logical" name="LCORR"> T  </i>
  </separator>
  <i type="logical" name="GGA_COMPAT"> T  </i>
  <i type="logical" name="LBERRY"> F  </i>
  <i type="int" name="ICORELEVEL">     0</i>
  <i type="logical" name="LDAU"> F  </i>
  <i type="int" name="I_CONSTRAINED_M">     0</i>
  <separator name="electronic exchange-correlation" >
   <i type="string" name="GGA">--</i>
   <i type="int" name="VOSKOWN">     0</i>
   <i type="logical" name="LHFCALC"> F  </i>
   <i type="string" name="PRECFOCK"></i>
   <i type="logical" name="LSYMGRAD"> F  </i>
   <i type="logical" name="LHFONE"> F  </i>
   <i type="logical" name="LRHFCALC"> F  </i>
   <i type="logical" name="LTHOMAS"> F  </i>
   <i type="logical" name="LMODELHF"> F  </i>
   <i name="ENCUT4O">     -1.00000000</i>
   <i type="int" name="EXXOEP">     0</i>
   <i type="int" name="FOURORBIT">     0</i>
   <i name="AEXX">      0.00000000</i>
   <i name="HFALPHA">      0.00000000</i>
   <i name="MCALPHA">      0.00000000</i>
   <i name="ALDAX">      1.00000000</i>
   <i name="AGGAX">      1.00000000</i>
   <i name="ALDAC">      1.00000000</i>
   <i name="AGGAC">      1.00000000</i>
   <i type="int" name="NKREDX">     1</i>
   <i type="int" name="NKREDY">     1</i>
   <i type="int" name="NKREDZ">     1</i>
   <i type="logical" name="SHIFTRED"> F  </i>
   <i type="logical" name="ODDONLY"> F  </i>
   <i type="logical" name="EVENONLY"> F  </i>
   <i type="int" name="LMAXFOCK">     0</i>
   <i type="int" name="NMAXFOCKAE">     0</i>
   <i type="logical" name="LFOCKAEDFT"> F  </i>
   <i name="HFSCREEN">      0.00000000</i>
   <i name="HFSCREENC">      0.00000000</i>
   <i type="int" name="NBANDSGWLOW">     0</i>
  </separator>
  <separator name="vdW DFT" >
   <i type="logical" name="LUSE_VDW"> F  </i>
   <i name="Zab_VDW">     -0.84910000</i>
   <i name="PARAM1">      0.12340000</i>
   <i name="PARAM2">      1.00000000</i>
   <i name="PARAM3">      0.00000000</i>
  </separator>
  <separator name="model GW" >
   <i type="int" name="MODEL_GW">     0</i>
   <i name="MODEL_EPS0">     12.06358426</i>
   <i name="MODEL_ALPHA">      1.00000000</i>
  </separator>
  <separator name="linear response parameters" >
   <i type="logical" name="LEPSILON"> F  </i>
   <i type="logical" name="LRPA"> F  </i>
   <i type="logical" name="LNABLA"> F  </i>
   <i type="logical" name="LVEL"> F  </i>
   <i type="int" name="KINTER">     0</i>
   <i name="CSHIFT">      0.10000000</i>
   <i name="OMEGAMAX">     -1.00000000</i>
   <i name="DEG_THRESHOLD">      0.00200000</i>
   <i name="RTIME">     -0.10000000</i>
   <i name="WPLASMAI">      0.00000000</i>
   <v name="DFIELD">      0.00000000      0.00000000      0.00000000</v>
   <v name="WPLASMA">      0.00000000      0.00000000      0.00000000      0.00000000      0.00000000      0.00000000      0.00000000      0.00000000      0.00000000</v>
  </separator>
  <separator name="orbital magnetization" >
   <i type="logical" name="NUCIND"> F  </i>
   <v name="MAGPOS">      0.00000000      0.00000000      0.00000000</v>
   <i type="logical" name="LNICSALL"> T  </i>
   <i type="logical" name="ORBITALMAG"> F  </i>
   <i type="logical" name="LMAGBLOCH"> F  </i>
   <i type="logical" name="LCHIMAG"> F  </i>
   <i type="logical" name="LGAUGE"> T  </i>
   <i type="int" name="MAGATOM">     0</i>
   <v name="MAGDIPOL">      0.00000000      0.00000000      0.00000000</v>
   <v name="AVECCONST">      0.00000000      0.00000000      0.00000000</v>
  </separator>
  <separator name="response functions" >
   <i type="logical" name="LADDER"> F  </i>
   <i type="logical" name="LRPAFORCE"> F  </i>
   <i type="logical" name="LFXC"> F  </i>
   <i type="logical" name="LHARTREE"> T  </i>
   <i type="int" name="IBSE">     0</i>
   <v type="int" name="KPOINT">    -1     0     0     0</v>
   <i type="logical" name="LTCTE"> F  </i>
   <i type="logical" name="LTETE"> F  </i>
   <i type="logical" name="LTRIPLET"> F  </i>
   <i type="logical" name="LFXCEPS"> F  </i>
   <i type="logical" name="LFXHEG"> F  </i>
   <i type="int" name="NATURALO">     2</i>
   <i type="logical" name="L2ORDER"> F  </i>
   <i type="logical" name="LMP2LT"> F  </i>
   <i type="logical" name="LUSEW"> F  </i>
   <i name="ENCUTGW">     -2.00000000</i>
   <i name="ENCUTGWSOFT">     -2.00000000</i>
   <i name="ENCUTLF">     -1.00000000</i>
   <i type="int" name="LMAXMP2">    -1</i>
   <i name="SCISSOR">      0.00000000</i>
   <i type="int" name="NOMEGA">     0</i>
   <i type="int" name="NOMEGAR">     0</i>
   <i type="int" name="NBANDSGW">    -1</i>
   <i type="int" name="NBANDSO">    -1</i>
   <i type="int" name="NBANDSV">    -1</i>
   <i type="int" name="NELM">     1</i>
   <i type="int" name="NELMHF">     1</i>
   <i type="int" name="DIM">     3</i>
   <i type="int" name="ANTIRES">     0</i>
   <i name="OMEGAMAX">    -30.00000000</i>
   <i name="OMEGAMIN">    -30.00000000</i>
   <i name="OMEGATL">   -200.00000000</i>
   <i type="int" name="OMEGAGRID">   140</i>
   <i name="CSHIFT">     -0.10000000</i>
   <i type="logical" name="SELFENERGY"> F  </i>
   <i type="logical" name="LSPECTRAL"> F  </i>
   <i type="logical" name="LSPECTRALGW"> F  </i>
   <i type="logical" name="LSINGLES"> F  </i>
   <i type="logical" name="LFERMIGW"> F  </i>
   <i type="logical" name="ODDONLYGW"> F  </i>
   <i type="logical" name="EVENONLYGW"> F  </i>
   <i type="int" name="NKREDLFX">     1</i>
   <i type="int" name="NKREDLFY">     1</i>
   <i type="int" name="NKREDLFZ">     1</i>
   <i type="int" name="MAXMEM">  2800</i>
   <i type="int" name="TELESCOPE">     0</i>
   <i type="int" name="TAUPAR">     1</i>
   <i type="int" name="OMEGAPAR">    -1</i>
   <i name="LAMBDA">      1.00000000</i>
  </separator>
  <separator name="External order field" >
   <i name="OFIELD_KAPPA">      0.00000000</i>
   <v name="OFIELD_K">      0.00000000      0.00000000      0.00000000</v>
   <i name="OFIELD_Q6_NEAR">      0.00000000</i>
   <i name="OFIELD_Q6_FAR">      0.00000000</i>
   <i name="OFIELD_A">      0.00000000</i>
  </separator>
 </parameters>
 <atominfo>
  <atoms>      20 </atoms>
  <types>       3 </types>
  <array name="atoms" >
   <dimension dim="1">ion</dimension>
   <field type="string">element</field>
   <field type="int">atomtype</field>
   <set>
    <rc><c>O </c><c>   1</c></rc>
    <rc><c>O </c><c>   1</c></rc>
    <rc><c>O </c><c>   1</c></rc>
    <rc><c>O </c><c>   1</c></rc>
    <rc><c>O </c><c>   1</c></rc>
    <rc><c>O </c><c>   1</c></rc>
    <rc><c>O </c><c>   1</c></rc>
    <rc><c>O </c><c>   1</c></rc>
    <rc><c>O </c><c>   1</c></rc>
    <rc><c>O </c><c>   1</c></rc>
    <rc><c>O </c><c>   1</c></rc>
    <rc><c>O </c><c>   1</c></rc>
    <rc><c>Sr</c><c>   2</c></rc>
    <rc><c>Sr</c><c>   2</c></rc>
    <rc><c>Sr</c><c>   2</c></rc>
    <rc><c>Sr</c><c>   2</c></rc>
    <rc><c>Ti</c><c>   3</c></rc>
    <rc><c>Ti</c><c>   3</c></rc>
    <rc><c>Ti</c><c>   3</c></rc>
    <rc><c>Ti</c><c>   3</c></rc>
   </set>
  </array>
  <array name="atomtypes" >
   <dimension dim="1">type</dimension>
   <field type="int">atomspertype</field>
   <field type="string">element</field>
   <field>mass</field>
   <field>valence</field>
   <field type="string">pseudopotential</field>
   <set>
    <rc><c>  12</c><c>O </c><c>     16.00000000</c><c>      6.00000000</c><c> PAW_PBE O 08Apr2002                    </c></rc>
    <rc><c>   4</c><c>Sr</c><c>     87.62000000</c><c>     10.00000000</c><c> PAW_PBE Sr_sv 07Sep2000                </c></rc>
    <rc><c>   4</c><c>Ti</c><c>     47.88000000</c><c>      4.00000000</c><c> PAW_PBE Ti 08Apr2002                   </c></rc>
   </set>
  </array>
 </atominfo>
 <structure name="initialpos" >
  <crystal>
   <varray name="basis" >
    <v>       3.94684634       0.00000000       0.00000000 </v>
    <v>       0.00000000       3.94684634       0.00000000 </v>
    <v>       0.00000000       0.00000000      25.81396220 </v>
   </varray>
   <i name="volume">    402.11947539 </i>
   <varray name="rec_basis" >
    <v>       0.25336684       0.00000000       0.00000000 </v>
    <v>       0.00000000       0.25336684       0.00000000 </v>
    <v>       0.00000000       0.00000000       0.03873873 </v>
   </varray>
  </crystal>
  <varray name="positions" >
   <v>       0.50000000       0.50000000       0.23243235 </v>
   <v>       0.50000000       0.00000000       0.30888025 </v>
   <v>       0.00000000       0.50000000       0.30888025 </v>
   <v>       0.50000000       0.50000000       0.38532815 </v>
   <v>       0.50000000       0.00000000       0.46177605 </v>
   <v>       0.00000000       0.50000000       0.46177605 </v>
   <v>       0.50000000       0.50000000       0.53822395 </v>
   <v>       0.50000000       0.00000000       0.61467185 </v>
   <v>       0.00000000       0.50000000       0.61467185 </v>
   <v>       0.50000000       0.50000000       0.69111975 </v>
   <v>       0.50000000       0.00000000       0.76756765 </v>
   <v>       0.00000000       0.50000000       0.76756765 </v>
   <v>       0.00000000       0.00000000       0.23243235 </v>
   <v>       0.00000000       0.00000000       0.38532815 </v>
   <v>       0.00000000       0.00000000       0.53822395 </v>
   <v>       0.00000000       0.00000000       0.69111975 </v>
   <v>       0.50000000       0.50000000       0.30888025 </v>
   <v>       0.50000000       0.50000000       0.46177605 </v>
   <v>       0.50000000       0.50000000       0.61467185 </v>
   <v>       0.50000000       0.50000000       0.76756765 </v>
  </varray>
 </structure>
 <calculation>
  <scstep>
   <time name="dav">    4.66    4.67</time>
   <time name="total">    4.78    4.85</time>
   <energy>
    <i name="alphaZ">    439.36635759 </i>
    <i name="ewald">  24009.29738432 </i>
    <i name="hartreedc"> -32447.97142679 </i>
    <i name="XCdc">    325.52666266 </i>
    <i name="pawpsdc">   5334.45189010 </i>
    <i name="pawaedc">  -5139.13784255 </i>
    <i name="eentropy">      0.00000000 </i>
    <i name="bandstr">    140.04035222 </i>
    <i name="atom">   8937.26825017 </i>
    <i name="e_fr_energy">   1598.84162772 </i>
    <i name="e_wo_entrp">   1598.84162772 </i>
    <i name="e_0_energy">   1598.84162772 </i>
   </energy>
  </scstep>
  <scstep>
   <time name="dav">    5.25    5.26</time>
   <time name="total">    5.26    5.26</time>
   <energy>
    <i name="e_fr_energy">    181.32219893 </i>
    <i name="e_wo_entrp">    181.32219893 </i>
    <i name="e_0_energy">    181.32219893 </i>
   </energy>
  </scstep>
  <scstep>
   <time name="dav">    5.97    5.98</time>
   <time name="total">    5.97    5.98</time>
   <energy>
    <i name="e_fr_energy">   -174.83398586 </i>
    <i name="e_wo_entrp">   -174.83398586 </i>
    <i name="e_0_energy">   -174.83398586 </i>
   </energy>
  </scstep>
  <scstep>
   <time name="dav">    5.61    5.61</time>
   <time name="total">    5.61    5.61</time>
   <energy>
    <i name="e_fr_energy">   -200.71175748 </i>
    <i name="e_wo_entrp">   -200.71175748 </i>
    <i name="e_0_energy">   -200.71175748 </i>
   </energy>
  </scstep>
  <scstep>
   <time name="dav">    7.12    7.12</time>
   <time name="total">    7.32    7.32</time>
   <energy>
    <i name="e_fr_energy">   -202.29370046 </i>
    <i name="e_wo_entrp">   -202.29370046 </i>
    <i name="e_0_energy">   -202.29370046 </i>
   </energy>
  </scstep>
  <scstep>
   <time name="diag">    0.54    0.54</time>
   <time name="diis">    3.65    3.65</time>
   <time name="orth">    0.10    0.10</time>
   <time name="total">    4.60    4.60</time>
   <energy>
    <i name="e_fr_energy">   -161.82190724 </i>
    <i name="e_wo_entrp">   -161.82190724 </i>
    <i name="e_0_energy">   -161.82190724 </i>
   </energy>
  </scstep>
  <scstep>
   <time name="diag">    0.53    0.53</time>
   <time name="diis">    3.80    3.80</time>
   <time name="orth">    0.10    0.10</time>
   <time name="total">    4.73    4.74</time>
   <energy>
    <i name="e_fr_energy">   -157.73954125 </i>
    <i name="e_wo_entrp">   -157.73954125 </i>
    <i name="e_0_energy">   -157.73954125 </i>
   </energy>
  </scstep>
  <scstep>
   <time name="diag">    0.53    0.53</time>
   <time name="diis">    4.49    4.49</time>
   <time name="orth">    0.10    0.10</time>
   <time name="total">    5.42    5.42</time>
   <energy>
    <i name="e_fr_energy">   -156.99490403 </i>
    <i name="e_wo_entrp">   -156.99490403 </i>
    <i name="e_0_energy">   -156.99490403 </i>
   </energy>
  </scstep>
  <scstep>
   <time name="diag">    0.54    0.54</time>
   <time name="diis">    4.36    4.36</time>
   <time name="orth">    0.10    0.10</time>
   <time name="total">    5.30    5.30</time>
   <energy>
    <i name="e_fr_energy">   -156.74774650 </i>
    <i name="e_wo_entrp">   -156.74774650 </i>
    <i name="e_0_energy">   -156.74774650 </i>
   </energy>
  </scstep>
  <scstep>
   <time name="diag">    0.53    0.53</time>
   <time name="diis">    5.01    5.01</time>
   <time name="orth">    0.10    0.10</time>
   <time name="total">    5.95    5.95</time>
   <energy>
    <i name="e_fr_energy">   -156.70130568 </i>
    <i name="e_wo_entrp">   -156.70130568 </i>
    <i name="e_0_energy">   -156.70130568 </i>
   </energy>
  </scstep>
  <scstep>
   <time name="diag">    0.53    0.53</time>
   <time name="diis">    4.83    4.83</time>
   <time name="orth">    0.10    0.10</time>
   <time name="total">    5.76    5.76</time>
   <energy>
    <i name="e_fr_energy">   -156.67823924 </i>
    <i name="e_wo_entrp">   -156.67823924 </i>
    <i name="e_0_energy">   -156.67823924 </i>
   </energy>
  </scstep>
  <scstep>
   <time name="diag">    0.53    0.53</time>
   <time name="diis">    5.16    5.16</time>
   <time name="orth">    0.10    0.10</time>
   <time name="total">    6.09    6.09</time>
   <energy>
    <i name="e_fr_energy">   -156.66858646 </i>
    <i name="e_wo_entrp">   -156.66858646 </i>
    <i name="e_0_energy">   -156.66858646 </i>
   </energy>
  </scstep>
  <scstep>
   <time name="diag">    0.53    0.53</time>
   <time name="diis">    5.61    5.60</time>
   <time name="orth">    0.10    0.10</time>
   <time name="total">    6.54    6.54</time>
   <energy>
    <i name="e_fr_energy">   -156.66245753 </i>
    <i name="e_wo_entrp">   -156.66245753 </i>
    <i name="e_0_energy">   -156.66245753 </i>
   </energy>
  </scstep>
  <scstep>
   <time name="diag">    0.54    0.54</time>
   <time name="diis">    4.71    4.70</time>
   <time name="orth">    0.10    0.10</time>
   <time name="total">    5.65    5.65</time>
   <energy>
    <i name="e_fr_energy">   -156.65706535 </i>
    <i name="e_wo_entrp">   -156.65706535 </i>
    <i name="e_0_energy">   -156.65706535 </i>
   </energy>
  </scstep>
  <scstep>
   <time name="diag">    0.53    0.53</time>
   <time name="diis">    5.30    5.30</time>
   <time name="orth">    0.10    0.11</time>
   <time name="total">    6.24    6.24</time>
   <energy>
    <i name="e_fr_energy">   -156.65578175 </i>
    <i name="e_wo_entrp">   -156.65578175 </i>
    <i name="e_0_energy">   -156.65578175 </i>
   </energy>
  </scstep>
  <scstep>
   <time name="diag">    0.54    0.54</time>
   <time name="diis">    4.93    4.93</time>
   <time name="orth">    0.11    0.11</time>
   <time name="total">    5.88    5.88</time>
   <energy>
    <i name="e_fr_energy">   -156.65660841 </i>
    <i name="e_wo_entrp">   -156.65660841 </i>
    <i name="e_0_energy">   -156.65660841 </i>
   </energy>
  </scstep>
  <scstep>
   <time name="diag">    0.54    0.54</time>
   <time name="diis">    4.79    4.79</time>
   <time name="orth">    0.10    0.10</time>
   <time name="total">    5.73    5.73</time>
   <energy>
    <i name="e_fr_energy">   -156.65703830 </i>
    <i name="e_wo_entrp">   -156.65703830 </i>
    <i name="e_0_energy">   -156.65703830 </i>
   </energy>
  </scstep>
  <scstep>
   <time name="diag">    0.53    0.53</time>
   <time name="diis">    4.77    4.77</time>
   <time name="orth">    0.10    0.11</time>
   <time name="total">    5.71    5.71</time>
   <energy>
    <i name="e_fr_energy">   -156.65750249 </i>
    <i name="e_wo_entrp">   -156.65750249 </i>
    <i name="e_0_energy">   -156.65750249 </i>
   </energy>
  </scstep>
  <scstep>
   <time name="diag">    0.54    0.54</time>
   <time name="diis">    4.62    4.62</time>
   <time name="orth">    0.11    0.11</time>
   <time name="total">    5.57    5.57</time>
   <energy>
    <i name="e_fr_energy">   -156.65877890 </i>
    <i name="e_wo_entrp">   -156.65877890 </i>
    <i name="e_0_energy">   -156.65877890 </i>
   </energy>
  </scstep>
  <scstep>
   <time name="diag">    0.54    0.54</time>
   <time name="diis">    4.13    4.13</time>
   <time name="orth">    0.10    0.11</time>
   <time name="total">    5.08    5.08</time>
   <energy>
    <i name="e_fr_energy">   -156.65950989 </i>
    <i name="e_wo_entrp">   -156.65950989 </i>
    <i name="e_0_energy">   -156.65950989 </i>
   </energy>
  </scstep>
  <scstep>
   <time name="diag">    0.54    0.54</time>
   <time name="diis">    3.97    3.97</time>
   <time name="orth">    0.10    0.11</time>
   <time name="total">    4.91    4.92</time>
   <energy>
    <i name="e_fr_energy">   -156.65977404 </i>
    <i name="e_wo_entrp">   -156.65977404 </i>
    <i name="e_0_energy">   -156.65977404 </i>
   </energy>
  </scstep>
  <scstep>
   <time name="diag">    0.54    0.54</time>
   <time name="diis">    3.29    3.29</time>
   <time name="orth">    0.10    0.11</time>
   <time name="total">    4.24    4.25</time>
   <energy>
    <i name="e_fr_energy">   -156.65987915 </i>
    <i name="e_wo_entrp">   -156.65987915 </i>
    <i name="e_0_energy">   -156.65987915 </i>
   </energy>
  </scstep>
  <scstep>
   <time name="diag">    0.54    0.54</time>
   <time name="diis">    2.89    2.89</time>
   <time name="orth">    0.11    0.11</time>
   <time name="total">    3.83    3.84</time>
   <energy>
    <i name="e_fr_energy">   -156.65992747 </i>
    <i name="e_wo_entrp">   -156.65992747 </i>
    <i name="e_0_energy">   -156.65992747 </i>
   </energy>
  </scstep>
  <scstep>
   <time name="diag">    0.54    0.54</time>
   <time name="diis">    2.67    2.67</time>
   <time name="orth">    0.11    0.11</time>
   <time name="total">    3.62    3.62</time>
   <energy>
    <i name="e_fr_energy">   -156.65993809 </i>
    <i name="e_wo_entrp">   -156.65993809 </i>
    <i name="e_0_energy">   -156.65993809 </i>
   </energy>
  </scstep>
  <scstep>
   <time name="diag">    0.54    0.54</time>
   <time name="diis">    2.63    2.63</time>
   <time name="orth">    0.11    0.11</time>
   <time name="total">    3.39    3.39</time>
   <energy>
    <i name="alphaZ">    439.36635759 </i>
    <i name="ewald">  24009.29738432 </i>
    <i name="hartreedc"> -32855.10507100 </i>
    <i name="XCdc">    341.54651625 </i>
    <i name="pawpsdc">   6145.18182309 </i>
    <i name="pawaedc">  -5975.11991574 </i>
    <i name="eentropy">      0.00000000 </i>
    <i name="bandstr">  -1199.09529004 </i>
    <i name="atom">   8937.26825017 </i>
    <i name="e_fr_energy">   -156.65994536 </i>
    <i name="e_wo_entrp">   -156.65994536 </i>
    <i name="e_0_energy">   -156.65994536 </i>
   </energy>
  </scstep>
  <structure>
   <crystal>
    <varray name="basis" >
     <v>       3.94684634       0.00000000       0.00000000 </v>
     <v>       0.00000000       3.94684634       0.00000000 </v>
     <v>       0.00000000       0.00000000      25.81396220 </v>
    </varray>
    <i name="volume">    402.11947539 </i>
    <varray name="rec_basis" >
     <v>       0.25336684       0.00000000       0.00000000 </v>
     <v>       0.00000000       0.25336684       0.00000000 </v>
     <v>       0.00000000       0.00000000       0.03873873 </v>
    </varray>
   </crystal>
   <varray name="positions" >
    <v>       0.50000000       0.50000000       0.23243235 </v>
    <v>       0.50000000       0.00000000       0.30888025 </v>
    <v>       0.00000000       0.50000000       0.30888025 </v>
    <v>       0.50000000       0.50000000       0.38532815 </v>
    <v>       0.50000000       0.00000000       0.46177605 </v>
    <v>       0.00000000       0.50000000       0.46177605 </v>
    <v>       0.50000000       0.50000000       0.53822395 </v>
    <v>       0.50000000       0.00000000       0.61467185 </v>
    <v>       0.00000000       0.50000000       0.61467185 </v>
    <v>       0.50000000       0.50000000       0.69111975 </v>
    <v>       0.50000000       0.00000000       0.76756765 </v>
    <v>       0.00000000       0.50000000       0.76756765 </v>
    <v>       0.00000000       0.00000000       0.23243235 </v>
    <v>       0.00000000       0.00000000       0.38532815 </v>
    <v>       0.00000000       0.00000000       0.53822395 </v>
    <v>       0.00000000       0.00000000       0.69111975 </v>
    <v>       0.50000000       0.50000000       0.30888025 </v>
    <v>       0.50000000       0.50000000       0.46177605 </v>
    <v>       0.50000000       0.50000000       0.61467185 </v>
    <v>       0.50000000       0.50000000       0.76756765 </v>
   </varray>
  </structure>
  <varray name="forces" >
   <v>       0.00000000       0.00000000      -0.67070346 </v>
   <v>       0.00000000      -0.00000000      -0.00718686 </v>
   <v>       0.00000000      -0.00000000      -0.00718686 </v>
   <v>       0.00000000      -0.00000000       0.37646709 </v>
   <v>      -0.00000000      -0.00000000       0.06705825 </v>
   <v>       0.00000000       0.00000000       0.06705825 </v>
   <v>       0.00000000      -0.00000000       0.30309753 </v>
   <v>       0.00000000      -0.00000000       0.02421215 </v>
   <v>       0.00000000      -0.00000000       0.02421215 </v>
   <v>       0.00000000      -0.00000000       1.00355390 </v>
   <v>       0.00000000      -0.00000000       0.38337543 </v>
   <v>       0.00000000       0.00000000       0.38337543 </v>
   <v>       0.00000000      -0.00000000       1.34497545 </v>
   <v>       0.00000000      -0.00000000      -0.00724821 </v>
   <v>       0.00000000      -0.00000000      -0.05945992 </v>
   <v>       0.00000000       0.00000000       0.63322943 </v>
   <v>       0.00000000      -0.00000000      -0.99274163 </v>
   <v>       0.00000000      -0.00000000      -0.31124702 </v>
   <v>       0.00000000      -0.00000000      -0.36959962 </v>
   <v>       0.00000000       0.00000000      -2.18524147 </v>
  </varray>
  <varray name="stress" >
   <v>     -22.73629454       0.00000000      -0.00000000 </v>
   <v>       0.00000000     -22.73629454       0.00000000 </v>
   <v>      -0.00000000       0.00000000     -13.90770669 </v>
  </varray>
  <energy>
   <i name="e_fr_energy">   -156.65994536 </i>
   <i name="e_wo_entrp">   -156.65994536 </i>
   <i name="e_0_energy">      0.00000000 </i>
  </energy>
  <time name="totalsc">  140.30  140.47</time>
  <eigenvalues>
   <array>
    <dimension dim="1">band</dimension>
    <dimension dim="2">kpoint</dimension>
    <dimension dim="3">spin</dimension>
    <field>eigene</field>
    <field>occ</field>
    <set>
     <set comment="spin 1">
      <set comment="kpoint 1">
       <r>  -34.0140    1.0000 </r>
       <r>  -33.0089    1.0000 </r>
       <r>  -32.9173    1.0000 </r>
       <r>  -32.8806    1.0000 </r>
       <r>  -17.6925    1.0000 </r>
       <r>  -17.6153    1.0000 </r>
       <r>  -17.5144    1.0000 </r>
       <r>  -17.0661    1.0000 </r>
       <r>  -16.5939    1.0000 </r>
       <r>  -16.5541    1.0000 </r>
       <r>  -16.5323    1.0000 </r>
       <r>  -16.4901    1.0000 </r>
       <r>  -16.4422    1.0000 </r>
       <r>  -16.4272    1.0000 </r>
       <r>  -16.0032    1.0000 </r>
       <r>  -15.9417    1.0000 </r>
       <r>  -15.9272    1.0000 </r>
       <r>  -15.9272    1.0000 </r>
       <r>  -15.6756    1.0000 </r>
       <r>  -15.0530    1.0000 </r>
       <r>  -15.0530    1.0000 </r>
       <r>  -14.9558    1.0000 </r>
       <r>  -14.9558    1.0000 </r>
       <r>  -14.9403    1.0000 </r>
       <r>  -14.9403    1.0000 </r>
       <r>  -14.9050    1.0000 </r>
       <r>  -14.6271    1.0000 </r>
       <r>  -14.5011    1.0000 </r>
       <r>   -4.2834    1.0000 </r>
       <r>   -3.7620    1.0000 </r>
       <r>   -3.2480    1.0000 </r>
       <r>   -3.0760    1.0000 </r>
       <r>   -3.0760    1.0000 </r>
       <r>   -2.9711    1.0000 </r>
       <r>   -2.9711    1.0000 </r>
       <r>   -2.9047    1.0000 </r>
       <r>   -2.9047    1.0000 </r>
       <r>   -2.6001    1.0000 </r>
       <r>   -2.6001    1.0000 </r>
       <r>   -2.5799    1.0000 </r>
       <r>   -2.3296    1.0000 </r>
       <r>   -2.2122    1.0000 </r>
       <r>   -2.2122    1.0000 </r>
       <r>   -1.9709    1.0000 </r>
       <r>   -1.9065    1.0000 </r>
       <r>   -1.8394    1.0000 </r>
       <r>   -1.8394    1.0000 </r>
       <r>   -1.7331    1.0000 </r>
       <r>   -1.5125    1.0000 </r>
       <r>   -1.5125    1.0000 </r>
       <r>   -1.4384    1.0000 </r>
       <r>   -1.4194    1.0000 </r>
       <r>   -1.1415    1.0000 </r>
       <r>   -1.1415    1.0000 </r>
       <r>   -0.9334    1.0000 </r>
       <r>   -0.8633    1.0000 </r>
       <r>   -0.8633    1.0000 </r>
       <r>   -0.7615    1.0000 </r>
       <r>   -0.7170    1.0000 </r>
       <r>   -0.7170    1.0000 </r>
       <r>   -0.4930    1.0000 </r>
       <r>   -0.4930    1.0000 </r>
       <r>   -0.1938    1.0000 </r>
       <r>   -0.1938    1.0000 </r>
       <r>    1.4266    0.0000 </r>
       <r>    1.5254    0.0000 </r>
       <r>    1.5254    0.0000 </r>
       <r>    1.5677    0.0000 </r>
       <r>    1.7000    0.0000 </r>
       <r>    1.7923    0.0000 </r>
       <r>    2.0770    0.0000 </r>
       <r>    2.0786    0.0000 </r>
       <r>    2.1811    0.0000 </r>
       <r>    2.6990    0.0000 </r>
       <r>    5.2047    0.0000 </r>
       <r>    5.4634    0.0000 </r>
      </set>
      <set comment="kpoint 2">
       <r>  -34.0111    1.0000 </r>
       <r>  -33.0054    1.0000 </r>
       <r>  -32.9139    1.0000 </r>
       <r>  -32.8771    1.0000 </r>
       <r>  -17.6227    1.0000 </r>
       <r>  -17.5546    1.0000 </r>
       <r>  -17.4950    1.0000 </r>
       <r>  -17.0637    1.0000 </r>
       <r>  -16.6146    1.0000 </r>
       <r>  -16.5829    1.0000 </r>
       <r>  -16.5449    1.0000 </r>
       <r>  -16.4999    1.0000 </r>
       <r>  -16.4801    1.0000 </r>
       <r>  -16.4483    1.0000 </r>
       <r>  -16.1726    1.0000 </r>
       <r>  -15.9993    1.0000 </r>
       <r>  -15.9204    1.0000 </r>
       <r>  -15.9118    1.0000 </r>
       <r>  -15.4080    1.0000 </r>
       <r>  -15.0445    1.0000 </r>
       <r>  -14.9549    1.0000 </r>
       <r>  -14.9473    1.0000 </r>
       <r>  -14.9314    1.0000 </r>
       <r>  -14.9244    1.0000 </r>
       <r>  -14.8506    1.0000 </r>
       <r>  -14.8367    1.0000 </r>
       <r>  -14.6454    1.0000 </r>
       <r>  -14.5336    1.0000 </r>
       <r>   -4.2954    1.0000 </r>
       <r>   -3.8064    1.0000 </r>
       <r>   -3.4053    1.0000 </r>
       <r>   -3.3213    1.0000 </r>
       <r>   -3.2781    1.0000 </r>
       <r>   -3.1668    1.0000 </r>
       <r>   -3.0799    1.0000 </r>
       <r>   -3.0579    1.0000 </r>
       <r>   -2.9749    1.0000 </r>
       <r>   -2.9028    1.0000 </r>
       <r>   -2.8576    1.0000 </r>
       <r>   -2.6566    1.0000 </r>
       <r>   -2.5640    1.0000 </r>
       <r>   -2.3411    1.0000 </r>
       <r>   -2.2893    1.0000 </r>
       <r>   -2.0939    1.0000 </r>
       <r>   -2.0672    1.0000 </r>
       <r>   -1.9242    1.0000 </r>
       <r>   -1.7827    1.0000 </r>
       <r>   -1.6667    1.0000 </r>
       <r>   -1.5661    1.0000 </r>
       <r>   -1.4555    1.0000 </r>
       <r>   -1.3944    1.0000 </r>
       <r>   -1.3547    1.0000 </r>
       <r>   -1.3011    1.0000 </r>
       <r>   -1.2421    1.0000 </r>
       <r>   -1.1802    1.0000 </r>
       <r>   -1.1128    1.0000 </r>
       <r>   -1.0511    1.0000 </r>
       <r>   -1.0316    1.0000 </r>
       <r>   -0.9410    1.0000 </r>
       <r>   -0.9202    1.0000 </r>
       <r>   -0.6220    1.0000 </r>
       <r>   -0.6153    1.0000 </r>
       <r>   -0.5624    1.0000 </r>
       <r>   -0.4996    1.0000 </r>
       <r>    1.5411    0.0000 </r>
       <r>    1.8326    0.0000 </r>
       <r>    1.8782    0.0000 </r>
       <r>    1.9688    0.0000 </r>
       <r>    2.0720    0.0000 </r>
       <r>    2.1144    0.0000 </r>
       <r>    2.2107    0.0000 </r>
       <r>    2.2500    0.0000 </r>
       <r>    2.5134    0.0000 </r>
       <r>    2.9549    0.0000 </r>
       <r>    5.6581    0.0000 </r>
       <r>    5.7538    0.0000 </r>
      </set>
      <set comment="kpoint 3">
       <r>  -34.0045    1.0000 </r>
       <r>  -32.9976    1.0000 </r>
       <r>  -32.9062    1.0000 </r>
       <r>  -32.8692    1.0000 </r>
       <r>  -17.5900    1.0000 </r>
       <r>  -17.4533    1.0000 </r>
       <r>  -17.3691    1.0000 </r>
       <r>  -17.0592    1.0000 </r>
       <r>  -16.7250    1.0000 </r>
       <r>  -16.6403    1.0000 </r>
       <r>  -16.6041    1.0000 </r>
       <r>  -16.5613    1.0000 </r>
       <r>  -16.4595    1.0000 </r>
       <r>  -16.3904    1.0000 </r>
       <r>  -16.2644    1.0000 </r>
       <r>  -15.9801    1.0000 </r>
       <r>  -15.9049    1.0000 </r>
       <r>  -15.9022    1.0000 </r>
       <r>  -15.1045    1.0000 </r>
       <r>  -15.0254    1.0000 </r>
       <r>  -14.9278    1.0000 </r>
       <r>  -14.9179    1.0000 </r>
       <r>  -14.9114    1.0000 </r>
       <r>  -14.7873    1.0000 </r>
       <r>  -14.6848    1.0000 </r>
       <r>  -14.6703    1.0000 </r>
       <r>  -14.6463    1.0000 </r>
       <r>  -14.5878    1.0000 </r>
       <r>   -4.3366    1.0000 </r>
       <r>   -4.1406    1.0000 </r>
       <r>   -3.9252    1.0000 </r>
       <r>   -3.8830    1.0000 </r>
       <r>   -3.7497    1.0000 </r>
       <r>   -3.6364    1.0000 </r>
       <r>   -3.5565    1.0000 </r>
       <r>   -3.3116    1.0000 </r>
       <r>   -3.2002    1.0000 </r>
       <r>   -3.0799    1.0000 </r>
       <r>   -2.9799    1.0000 </r>
       <r>   -2.9160    1.0000 </r>
       <r>   -2.8927    1.0000 </r>
       <r>   -2.7902    1.0000 </r>
       <r>   -2.4922    1.0000 </r>
       <r>   -2.3397    1.0000 </r>
       <r>   -2.2280    1.0000 </r>
       <r>   -2.1918    1.0000 </r>
       <r>   -1.9271    1.0000 </r>
       <r>   -1.8980    1.0000 </r>
       <r>   -1.8744    1.0000 </r>
       <r>   -1.8337    1.0000 </r>
       <r>   -1.8050    1.0000 </r>
       <r>   -1.6698    1.0000 </r>
       <r>   -1.5445    1.0000 </r>
       <r>   -1.5071    1.0000 </r>
       <r>   -1.4478    1.0000 </r>
       <r>   -1.3402    1.0000 </r>
       <r>   -1.2124    1.0000 </r>
       <r>   -1.0751    1.0000 </r>
       <r>   -0.9556    1.0000 </r>
       <r>   -0.9549    1.0000 </r>
       <r>   -0.8036    1.0000 </r>
       <r>   -0.7754    1.0000 </r>
       <r>   -0.7257    1.0000 </r>
       <r>   -0.5274    1.0000 </r>
       <r>    1.5836    0.0000 </r>
       <r>    2.1146    0.0000 </r>
       <r>    2.5825    0.0000 </r>
       <r>    2.5890    0.0000 </r>
       <r>    2.6560    0.0000 </r>
       <r>    2.7295    0.0000 </r>
       <r>    2.7351    0.0000 </r>
       <r>    2.8242    0.0000 </r>
       <r>    2.8979    0.0000 </r>
       <r>    3.1023    0.0000 </r>
       <r>    3.2137    0.0000 </r>
       <r>    6.7160    0.0000 </r>
      </set>
      <set comment="kpoint 4">
       <r>  -33.9991    1.0000 </r>
       <r>  -32.9913    1.0000 </r>
       <r>  -32.8999    1.0000 </r>
       <r>  -32.8629    1.0000 </r>
       <r>  -17.6541    1.0000 </r>
       <r>  -17.4561    1.0000 </r>
       <r>  -17.2289    1.0000 </r>
       <r>  -16.9583    1.0000 </r>
       <r>  -16.7806    1.0000 </r>
       <r>  -16.7332    1.0000 </r>
       <r>  -16.6206    1.0000 </r>
       <r>  -16.5347    1.0000 </r>
       <r>  -16.4828    1.0000 </r>
       <r>  -16.2982    1.0000 </r>
       <r>  -16.2821    1.0000 </r>
       <r>  -15.9631    1.0000 </r>
       <r>  -15.8924    1.0000 </r>
       <r>  -15.8632    1.0000 </r>
       <r>  -15.0100    1.0000 </r>
       <r>  -14.9348    1.0000 </r>
       <r>  -14.9121    1.0000 </r>
       <r>  -14.9116    1.0000 </r>
       <r>  -14.8952    1.0000 </r>
       <r>  -14.7150    1.0000 </r>
       <r>  -14.6631    1.0000 </r>
       <r>  -14.6131    1.0000 </r>
       <r>  -14.5517    1.0000 </r>
       <r>  -14.5104    1.0000 </r>
       <r>   -4.5224    1.0000 </r>
       <r>   -4.4927    1.0000 </r>
       <r>   -4.3763    1.0000 </r>
       <r>   -4.2695    1.0000 </r>
       <r>   -4.1893    1.0000 </r>
       <r>   -4.0747    1.0000 </r>
       <r>   -3.9630    1.0000 </r>
       <r>   -3.6822    1.0000 </r>
       <r>   -3.4351    1.0000 </r>
       <r>   -3.1595    1.0000 </r>
       <r>   -3.0555    1.0000 </r>
       <r>   -2.9907    1.0000 </r>
       <r>   -2.8909    1.0000 </r>
       <r>   -2.8543    1.0000 </r>
       <r>   -2.6947    1.0000 </r>
       <r>   -2.6775    1.0000 </r>
       <r>   -2.4836    1.0000 </r>
       <r>   -2.3702    1.0000 </r>
       <r>   -2.2218    1.0000 </r>
       <r>   -2.1979    1.0000 </r>
       <r>   -2.0272    1.0000 </r>
       <r>   -1.9373    1.0000 </r>
       <r>   -1.7953    1.0000 </r>
       <r>   -1.7576    1.0000 </r>
       <r>   -1.7317    1.0000 </r>
       <r>   -1.6979    1.0000 </r>
       <r>   -1.4474    1.0000 </r>
       <r>   -1.4260    1.0000 </r>
       <r>   -1.3461    1.0000 </r>
       <r>   -1.2076    1.0000 </r>
       <r>   -1.1649    1.0000 </r>
       <r>   -1.0441    1.0000 </r>
       <r>   -0.8792    1.0000 </r>
       <r>   -0.8400    1.0000 </r>
       <r>   -0.6121    1.0000 </r>
       <r>   -0.3450    1.0000 </r>
       <r>    1.6188    0.0000 </r>
       <r>    2.1448    0.0000 </r>
       <r>    2.6873    0.0000 </r>
       <r>    3.0982    0.0000 </r>
       <r>    3.1472    0.0000 </r>
       <r>    3.1649    0.0000 </r>
       <r>    3.2267    0.0000 </r>
       <r>    3.2976    0.0000 </r>
       <r>    3.3412    0.0000 </r>
       <r>    3.4066    0.0000 </r>
       <r>    3.5022    0.0000 </r>
       <r>    7.2888    0.0000 </r>
      </set>
      <set comment="kpoint 5">
       <r>  -34.0082    1.0000 </r>
       <r>  -33.0020    1.0000 </r>
       <r>  -32.9105    1.0000 </r>
       <r>  -32.8737    1.0000 </r>
       <r>  -17.5655    1.0000 </r>
       <r>  -17.4840    1.0000 </r>
       <r>  -17.4560    1.0000 </r>
       <r>  -17.0441    1.0000 </r>
       <r>  -16.6187    1.0000 </r>
       <r>  -16.6032    1.0000 </r>
       <r>  -16.5295    1.0000 </r>
       <r>  -16.5252    1.0000 </r>
       <r>  -16.4737    1.0000 </r>
       <r>  -16.4576    1.0000 </r>
       <r>  -16.2953    1.0000 </r>
       <r>  -16.0005    1.0000 </r>
       <r>  -15.9110    1.0000 </r>
       <r>  -15.8957    1.0000 </r>
       <r>  -15.3015    1.0000 </r>
       <r>  -15.0434    1.0000 </r>
       <r>  -14.9391    1.0000 </r>
       <r>  -14.9367    1.0000 </r>
       <r>  -14.9124    1.0000 </r>
       <r>  -14.9047    1.0000 </r>
       <r>  -14.7905    1.0000 </r>
       <r>  -14.7712    1.0000 </r>
       <r>  -14.6608    1.0000 </r>
       <r>  -14.5704    1.0000 </r>
       <r>   -4.3051    1.0000 </r>
       <r>   -3.8615    1.0000 </r>
       <r>   -3.5566    1.0000 </r>
       <r>   -3.4474    1.0000 </r>
       <r>   -3.3988    1.0000 </r>
       <r>   -3.2428    1.0000 </r>
       <r>   -3.1832    1.0000 </r>
       <r>   -3.1141    1.0000 </r>
       <r>   -3.1088    1.0000 </r>
       <r>   -3.0501    1.0000 </r>
       <r>   -2.9413    1.0000 </r>
       <r>   -2.9291    1.0000 </r>
       <r>   -2.7121    1.0000 </r>
       <r>   -2.6079    1.0000 </r>
       <r>   -2.4407    1.0000 </r>
       <r>   -2.3430    1.0000 </r>
       <r>   -2.1135    1.0000 </r>
       <r>   -2.1109    1.0000 </r>
       <r>   -1.9222    1.0000 </r>
       <r>   -1.8425    1.0000 </r>
       <r>   -1.7494    1.0000 </r>
       <r>   -1.6518    1.0000 </r>
       <r>   -1.5053    1.0000 </r>
       <r>   -1.3787    1.0000 </r>
       <r>   -1.2687    1.0000 </r>
       <r>   -1.2251    1.0000 </r>
       <r>   -1.1818    1.0000 </r>
       <r>   -1.1741    1.0000 </r>
       <r>   -1.1269    1.0000 </r>
       <r>   -1.1091    1.0000 </r>
       <r>   -1.0831    1.0000 </r>
       <r>   -0.9796    1.0000 </r>
       <r>   -0.9107    1.0000 </r>
       <r>   -0.7712    1.0000 </r>
       <r>   -0.6523    1.0000 </r>
       <r>   -0.3825    1.0000 </r>
       <r>    1.8114    0.0000 </r>
       <r>    1.9702    0.0000 </r>
       <r>    2.0818    0.0000 </r>
       <r>    2.2194    0.0000 </r>
       <r>    2.2371    0.0000 </r>
       <r>    2.3170    0.0000 </r>
       <r>    2.3521    0.0000 </r>
       <r>    2.4631    0.0000 </r>
       <r>    2.5150    0.0000 </r>
       <r>    2.7588    0.0000 </r>
       <r>    3.1402    0.0000 </r>
       <r>    5.9587    0.0000 </r>
      </set>
      <set comment="kpoint 6">
       <r>  -34.0017    1.0000 </r>
       <r>  -32.9944    1.0000 </r>
       <r>  -32.9029    1.0000 </r>
       <r>  -32.8660    1.0000 </r>
       <r>  -17.5249    1.0000 </r>
       <r>  -17.3838    1.0000 </r>
       <r>  -17.2885    1.0000 </r>
       <r>  -17.0048    1.0000 </r>
       <r>  -16.6833    1.0000 </r>
       <r>  -16.6327    1.0000 </r>
       <r>  -16.5833    1.0000 </r>
       <r>  -16.5654    1.0000 </r>
       <r>  -16.4764    1.0000 </r>
       <r>  -16.3411    1.0000 </r>
       <r>  -16.3235    1.0000 </r>
       <r>  -15.9888    1.0000 </r>
       <r>  -15.9523    1.0000 </r>
       <r>  -15.8499    1.0000 </r>
       <r>  -15.1274    1.0000 </r>
       <r>  -15.0409    1.0000 </r>
       <r>  -14.9702    1.0000 </r>
       <r>  -14.9075    1.0000 </r>
       <r>  -14.8725    1.0000 </r>
       <r>  -14.8157    1.0000 </r>
       <r>  -14.7060    1.0000 </r>
       <r>  -14.6714    1.0000 </r>
       <r>  -14.6502    1.0000 </r>
       <r>  -14.6279    1.0000 </r>
       <r>   -4.3391    1.0000 </r>
       <r>   -4.1212    1.0000 </r>
       <r>   -3.9531    1.0000 </r>
       <r>   -3.9079    1.0000 </r>
       <r>   -3.7514    1.0000 </r>
       <r>   -3.6265    1.0000 </r>
       <r>   -3.5405    1.0000 </r>
       <r>   -3.3235    1.0000 </r>
       <r>   -3.2972    1.0000 </r>
       <r>   -3.2324    1.0000 </r>
       <r>   -3.1954    1.0000 </r>
       <r>   -3.1480    1.0000 </r>
       <r>   -3.0455    1.0000 </r>
       <r>   -2.9094    1.0000 </r>
       <r>   -2.8231    1.0000 </r>
       <r>   -2.7386    1.0000 </r>
       <r>   -2.5494    1.0000 </r>
       <r>   -2.4591    1.0000 </r>
       <r>   -2.3348    1.0000 </r>
       <r>   -2.2702    1.0000 </r>
       <r>   -2.1371    1.0000 </r>
       <r>   -1.9088    1.0000 </r>
       <r>   -1.7520    1.0000 </r>
       <r>   -1.6106    1.0000 </r>
       <r>   -1.4561    1.0000 </r>
       <r>   -1.3439    1.0000 </r>
       <r>   -1.3109    1.0000 </r>
       <r>   -1.2196    1.0000 </r>
       <r>   -1.1821    1.0000 </r>
       <r>   -1.1753    1.0000 </r>
       <r>   -1.0881    1.0000 </r>
       <r>   -0.9091    1.0000 </r>
       <r>   -0.7871    1.0000 </r>
       <r>   -0.7356    1.0000 </r>
       <r>   -0.5452    1.0000 </r>
       <r>   -0.4581    1.0000 </r>
       <r>    1.9087    0.0000 </r>
       <r>    2.3243    0.0000 </r>
       <r>    2.5948    0.0000 </r>
       <r>    2.6801    0.0000 </r>
       <r>    2.7578    0.0000 </r>
       <r>    2.8130    0.0000 </r>
       <r>    2.8275    0.0000 </r>
       <r>    2.9045    0.0000 </r>
       <r>    2.9788    0.0000 </r>
       <r>    3.0387    0.0000 </r>
       <r>    3.1670    0.0000 </r>
       <r>    3.2827    0.0000 </r>
      </set>
      <set comment="kpoint 7">
       <r>  -33.9965    1.0000 </r>
       <r>  -32.9882    1.0000 </r>
       <r>  -32.8969    1.0000 </r>
       <r>  -32.8598    1.0000 </r>
       <r>  -17.5627    1.0000 </r>
       <r>  -17.3666    1.0000 </r>
       <r>  -17.1467    1.0000 </r>
       <r>  -16.8874    1.0000 </r>
       <r>  -16.7404    1.0000 </r>
       <r>  -16.6941    1.0000 </r>
       <r>  -16.5896    1.0000 </r>
       <r>  -16.5454    1.0000 </r>
       <r>  -16.4753    1.0000 </r>
       <r>  -16.2640    1.0000 </r>
       <r>  -16.2241    1.0000 </r>
       <r>  -16.0101    1.0000 </r>
       <r>  -15.9814    1.0000 </r>
       <r>  -15.8053    1.0000 </r>
       <r>  -15.0401    1.0000 </r>
       <r>  -15.0236    1.0000 </r>
       <r>  -15.0006    1.0000 </r>
       <r>  -14.8849    1.0000 </r>
       <r>  -14.8271    1.0000 </r>
       <r>  -14.7621    1.0000 </r>
       <r>  -14.7252    1.0000 </r>
       <r>  -14.6656    1.0000 </r>
       <r>  -14.6038    1.0000 </r>
       <r>  -14.5575    1.0000 </r>
       <r>   -4.5164    1.0000 </r>
       <r>   -4.4020    1.0000 </r>
       <r>   -4.3501    1.0000 </r>
       <r>   -4.2728    1.0000 </r>
       <r>   -4.1814    1.0000 </r>
       <r>   -4.0255    1.0000 </r>
       <r>   -3.9305    1.0000 </r>
       <r>   -3.6813    1.0000 </r>
       <r>   -3.5154    1.0000 </r>
       <r>   -3.3311    1.0000 </r>
       <r>   -3.2545    1.0000 </r>
       <r>   -3.2064    1.0000 </r>
       <r>   -3.1836    1.0000 </r>
       <r>   -3.1227    1.0000 </r>
       <r>   -3.0903    1.0000 </r>
       <r>   -3.0145    1.0000 </r>
       <r>   -2.6940    1.0000 </r>
       <r>   -2.6240    1.0000 </r>
       <r>   -2.5101    1.0000 </r>
       <r>   -2.4236    1.0000 </r>
       <r>   -2.2841    1.0000 </r>
       <r>   -2.0068    1.0000 </r>
       <r>   -1.7871    1.0000 </r>
       <r>   -1.7660    1.0000 </r>
       <r>   -1.4798    1.0000 </r>
       <r>   -1.4149    1.0000 </r>
       <r>   -1.3390    1.0000 </r>
       <r>   -1.3212    1.0000 </r>
       <r>   -1.2934    1.0000 </r>
       <r>   -1.1895    1.0000 </r>
       <r>   -1.1634    1.0000 </r>
       <r>   -1.0478    1.0000 </r>
       <r>   -0.8358    1.0000 </r>
       <r>   -0.6678    1.0000 </r>
       <r>   -0.5188    1.0000 </r>
       <r>   -0.3345    1.0000 </r>
       <r>    1.9438    0.0000 </r>
       <r>    2.3718    0.0000 </r>
       <r>    2.8212    0.0000 </r>
       <r>    3.1529    0.0000 </r>
       <r>    3.1690    0.0000 </r>
       <r>    3.2392    0.0000 </r>
       <r>    3.2859    0.0000 </r>
       <r>    3.3262    0.0000 </r>
       <r>    3.3846    0.0000 </r>
       <r>    3.4258    0.0000 </r>
       <r>    3.5400    0.0000 </r>
       <r>    7.4019    0.0000 </r>
      </set>
      <set comment="kpoint 8">
       <r>  -33.9954    1.0000 </r>
       <r>  -32.9871    1.0000 </r>
       <r>  -32.8957    1.0000 </r>
       <r>  -32.8587    1.0000 </r>
       <r>  -17.3933    1.0000 </r>
       <r>  -17.2332    1.0000 </r>
       <r>  -17.0972    1.0000 </r>
       <r>  -16.8748    1.0000 </r>
       <r>  -16.6964    1.0000 </r>
       <r>  -16.6289    1.0000 </r>
       <r>  -16.5739    1.0000 </r>
       <r>  -16.4869    1.0000 </r>
       <r>  -16.4805    1.0000 </r>
       <r>  -16.3828    1.0000 </r>
       <r>  -16.2168    1.0000 </r>
       <r>  -15.9876    1.0000 </r>
       <r>  -15.9397    1.0000 </r>
       <r>  -15.8537    1.0000 </r>
       <r>  -15.1885    1.0000 </r>
       <r>  -15.0802    1.0000 </r>
       <r>  -15.0004    1.0000 </r>
       <r>  -14.9253    1.0000 </r>
       <r>  -14.8765    1.0000 </r>
       <r>  -14.8007    1.0000 </r>
       <r>  -14.7978    1.0000 </r>
       <r>  -14.7053    1.0000 </r>
       <r>  -14.6697    1.0000 </r>
       <r>  -14.6573    1.0000 </r>
       <r>   -4.3548    1.0000 </r>
       <r>   -4.1841    1.0000 </r>
       <r>   -4.0528    1.0000 </r>
       <r>   -4.0389    1.0000 </r>
       <r>   -3.7803    1.0000 </r>
       <r>   -3.7230    1.0000 </r>
       <r>   -3.6153    1.0000 </r>
       <r>   -3.5948    1.0000 </r>
       <r>   -3.5573    1.0000 </r>
       <r>   -3.5080    1.0000 </r>
       <r>   -3.4974    1.0000 </r>
       <r>   -3.4634    1.0000 </r>
       <r>   -3.3356    1.0000 </r>
       <r>   -3.2978    1.0000 </r>
       <r>   -3.2624    1.0000 </r>
       <r>   -3.1831    1.0000 </r>
       <r>   -3.1557    1.0000 </r>
       <r>   -3.1299    1.0000 </r>
       <r>   -2.8190    1.0000 </r>
       <r>   -2.7785    1.0000 </r>
       <r>   -2.6276    1.0000 </r>
       <r>   -2.2995    1.0000 </r>
       <r>   -2.1634    1.0000 </r>
       <r>   -1.6650    1.0000 </r>
       <r>   -1.5435    1.0000 </r>
       <r>   -1.3133    1.0000 </r>
       <r>   -1.0753    1.0000 </r>
       <r>   -1.0329    1.0000 </r>
       <r>   -0.9171    1.0000 </r>
       <r>   -0.9054    1.0000 </r>
       <r>   -0.7957    1.0000 </r>
       <r>   -0.7878    1.0000 </r>
       <r>   -0.6769    1.0000 </r>
       <r>   -0.6460    1.0000 </r>
       <r>   -0.4901    1.0000 </r>
       <r>   -0.0665    1.0000 </r>
       <r>    2.4751    0.0000 </r>
       <r>    2.7174    0.0000 </r>
       <r>    2.8104    0.0000 </r>
       <r>    2.9161    0.0000 </r>
       <r>    2.9992    0.0000 </r>
       <r>    3.0799    0.0000 </r>
       <r>    3.1376    0.0000 </r>
       <r>    3.1515    0.0000 </r>
       <r>    3.2543    0.0000 </r>
       <r>    3.3702    0.0000 </r>
       <r>    3.4189    0.0000 </r>
       <r>    3.4477    0.0000 </r>
      </set>
      <set comment="kpoint 9">
       <r>  -33.9904    1.0000 </r>
       <r>  -32.9812    1.0000 </r>
       <r>  -32.8899    1.0000 </r>
       <r>  -32.8528    1.0000 </r>
       <r>  -17.3249    1.0000 </r>
       <r>  -17.1353    1.0000 </r>
       <r>  -16.9411    1.0000 </r>
       <r>  -16.7237    1.0000 </r>
       <r>  -16.6954    1.0000 </r>
       <r>  -16.6738    1.0000 </r>
       <r>  -16.5482    1.0000 </r>
       <r>  -16.5269    1.0000 </r>
       <r>  -16.4327    1.0000 </r>
       <r>  -16.2311    1.0000 </r>
       <r>  -16.0965    1.0000 </r>
       <r>  -16.0431    1.0000 </r>
       <r>  -15.9912    1.0000 </r>
       <r>  -15.8142    1.0000 </r>
       <r>  -15.2504    1.0000 </r>
       <r>  -15.1141    1.0000 </r>
       <r>  -15.0640    1.0000 </r>
       <r>  -14.9477    1.0000 </r>
       <r>  -14.8806    1.0000 </r>
       <r>  -14.8268    1.0000 </r>
       <r>  -14.7812    1.0000 </r>
       <r>  -14.7571    1.0000 </r>
       <r>  -14.7059    1.0000 </r>
       <r>  -14.6431    1.0000 </r>
       <r>   -4.5224    1.0000 </r>
       <r>   -4.4120    1.0000 </r>
       <r>   -4.3053    1.0000 </r>
       <r>   -4.1869    1.0000 </r>
       <r>   -4.0925    1.0000 </r>
       <r>   -4.0625    1.0000 </r>
       <r>   -4.0045    1.0000 </r>
       <r>   -3.9176    1.0000 </r>
       <r>   -3.7743    1.0000 </r>
       <r>   -3.7493    1.0000 </r>
       <r>   -3.6680    1.0000 </r>
       <r>   -3.6359    1.0000 </r>
       <r>   -3.5631    1.0000 </r>
       <r>   -3.5058    1.0000 </r>
       <r>   -3.4721    1.0000 </r>
       <r>   -3.3156    1.0000 </r>
       <r>   -3.1907    1.0000 </r>
       <r>   -3.1537    1.0000 </r>
       <r>   -3.0740    1.0000 </r>
       <r>   -3.0006    1.0000 </r>
       <r>   -2.7099    1.0000 </r>
       <r>   -2.5844    1.0000 </r>
       <r>   -2.2028    1.0000 </r>
       <r>   -1.6207    1.0000 </r>
       <r>   -1.5229    1.0000 </r>
       <r>   -1.3972    1.0000 </r>
       <r>   -1.0879    1.0000 </r>
       <r>   -1.0299    1.0000 </r>
       <r>   -0.8330    1.0000 </r>
       <r>   -0.7580    1.0000 </r>
       <r>   -0.6935    1.0000 </r>
       <r>   -0.6593    1.0000 </r>
       <r>   -0.6408    1.0000 </r>
       <r>   -0.5481    1.0000 </r>
       <r>   -0.3157    1.0000 </r>
       <r>    0.0908    1.0000 </r>
       <r>    2.5967    0.0000 </r>
       <r>    2.8999    0.0000 </r>
       <r>    3.1619    0.0000 </r>
       <r>    3.1911    0.0000 </r>
       <r>    3.3354    0.0000 </r>
       <r>    3.3619    0.0000 </r>
       <r>    3.4847    0.0000 </r>
       <r>    3.4942    0.0000 </r>
       <r>    3.5069    0.0000 </r>
       <r>    3.5863    0.0000 </r>
       <r>    3.6746    0.0000 </r>
       <r>    7.6181    0.0000 </r>
      </set>
      <set comment="kpoint 10">
       <r>  -33.9856    1.0000 </r>
       <r>  -32.9756    1.0000 </r>
       <r>  -32.8843    1.0000 </r>
       <r>  -32.8471    1.0000 </r>
       <r>  -17.0612    1.0000 </r>
       <r>  -16.8826    1.0000 </r>
       <r>  -16.7665    1.0000 </r>
       <r>  -16.7385    1.0000 </r>
       <r>  -16.6892    1.0000 </r>
       <r>  -16.6309    1.0000 </r>
       <r>  -16.5030    1.0000 </r>
       <r>  -16.4812    1.0000 </r>
       <r>  -16.4318    1.0000 </r>
       <r>  -16.2146    1.0000 </r>
       <r>  -16.0022    1.0000 </r>
       <r>  -15.9733    1.0000 </r>
       <r>  -15.9406    1.0000 </r>
       <r>  -15.8349    1.0000 </r>
       <r>  -15.5161    1.0000 </r>
       <r>  -15.1595    1.0000 </r>
       <r>  -15.1075    1.0000 </r>
       <r>  -15.1029    1.0000 </r>
       <r>  -14.9714    1.0000 </r>
       <r>  -14.9063    1.0000 </r>
       <r>  -14.8260    1.0000 </r>
       <r>  -14.7792    1.0000 </r>
       <r>  -14.7016    1.0000 </r>
       <r>  -14.6837    1.0000 </r>
       <r>   -4.6388    1.0000 </r>
       <r>   -4.5329    1.0000 </r>
       <r>   -4.4580    1.0000 </r>
       <r>   -4.4167    1.0000 </r>
       <r>   -4.2724    1.0000 </r>
       <r>   -4.2202    1.0000 </r>
       <r>   -4.1921    1.0000 </r>
       <r>   -4.1567    1.0000 </r>
       <r>   -4.0724    1.0000 </r>
       <r>   -4.0605    1.0000 </r>
       <r>   -3.9190    1.0000 </r>
       <r>   -3.8682    1.0000 </r>
       <r>   -3.8041    1.0000 </r>
       <r>   -3.7476    1.0000 </r>
       <r>   -3.5459    1.0000 </r>
       <r>   -3.4923    1.0000 </r>
       <r>   -3.4853    1.0000 </r>
       <r>   -3.3934    1.0000 </r>
       <r>   -3.1593    1.0000 </r>
       <r>   -3.1227    1.0000 </r>
       <r>   -2.7945    1.0000 </r>
       <r>   -2.6808    1.0000 </r>
       <r>   -2.4780    1.0000 </r>
       <r>   -1.4992    1.0000 </r>
       <r>   -1.4475    1.0000 </r>
       <r>   -1.4316    1.0000 </r>
       <r>   -1.0314    1.0000 </r>
       <r>   -0.9893    1.0000 </r>
       <r>   -0.6402    1.0000 </r>
       <r>   -0.5994    1.0000 </r>
       <r>   -0.3953    1.0000 </r>
       <r>   -0.3534    1.0000 </r>
       <r>   -0.3275    1.0000 </r>
       <r>   -0.2826    1.0000 </r>
       <r>   -0.2555    1.0000 </r>
       <r>    0.4205    1.0000 </r>
       <r>    3.1291    0.0000 </r>
       <r>    3.1853    0.0000 </r>
       <r>    3.3669    0.0000 </r>
       <r>    3.3927    0.0000 </r>
       <r>    3.5544    0.0000 </r>
       <r>    3.5862    0.0000 </r>
       <r>    3.6991    0.0000 </r>
       <r>    3.7393    0.0000 </r>
       <r>    3.7881    0.0000 </r>
       <r>    6.9589    0.0000 </r>
       <r>    7.1021    0.0000 </r>
       <r>    7.1322    0.0000 </r>
      </set>
     </set>
    </set>
   </array>
  </eigenvalues>
  <separator name="orbital magnetization" >
   <v name="MAGDIPOLOUT">      0.00000000      0.00000000      0.00000000</v>
  </separator>
  <dos>
   <i name="efermi">      0.46429153 </i>
   <total>
    <array>
     <dimension dim="1">gridpoints</dimension>
     <dimension dim="2">spin</dimension>
     <field>energy</field>
     <field>total</field>
     <field>integrated</field>
     <set>
      <set comment="spin 1">
       <r>   -36.0956     0.0000     0.0000 </r>
       <r>   -35.9429     0.0000     0.0000 </r>
       <r>   -35.7903     0.0000     0.0000 </r>
       <r>   -35.6376     0.0000     0.0000 </r>
       <r>   -35.4850     0.0000     0.0000 </r>
       <r>   -35.3323     0.0000     0.0000 </r>
       <r>   -35.1797     0.0000     0.0000 </r>
       <r>   -35.0270     0.0000     0.0000 </r>
       <r>   -34.8744     0.0000     0.0000 </r>
       <r>   -34.7217     0.0000     0.0000 </r>
       <r>   -34.5691     0.0000     0.0000 </r>
       <r>   -34.4164     0.0000     0.0000 </r>
       <r>   -34.2638     0.0000     0.0000 </r>
       <r>   -34.1111     0.0000     0.0000 </r>
       <r>   -33.9585     0.0000     2.0000 </r>
       <r>   -33.8058     0.0000     2.0000 </r>
       <r>   -33.6532     0.0000     2.0000 </r>
       <r>   -33.5005     0.0000     2.0000 </r>
       <r>   -33.3479     0.0000     2.0000 </r>
       <r>   -33.1952     0.0000     2.0000 </r>
       <r>   -33.0426     0.0000     2.0000 </r>
       <r>   -32.8899    51.9158     5.7138 </r>
       <r>   -32.7373     0.0000     8.0000 </r>
       <r>   -32.5846     0.0000     8.0000 </r>
       <r>   -32.4320     0.0000     8.0000 </r>
       <r>   -32.2793     0.0000     8.0000 </r>
       <r>   -32.1267     0.0000     8.0000 </r>
       <r>   -31.9740     0.0000     8.0000 </r>
       <r>   -31.8214     0.0000     8.0000 </r>
       <r>   -31.6687     0.0000     8.0000 </r>
       <r>   -31.5161     0.0000     8.0000 </r>
       <r>   -31.3634     0.0000     8.0000 </r>
       <r>   -31.2108     0.0000     8.0000 </r>
       <r>   -31.0581     0.0000     8.0000 </r>
       <r>   -30.9055     0.0000     8.0000 </r>
       <r>   -30.7528     0.0000     8.0000 </r>
       <r>   -30.6002     0.0000     8.0000 </r>
       <r>   -30.4475     0.0000     8.0000 </r>
       <r>   -30.2949     0.0000     8.0000 </r>
       <r>   -30.1422     0.0000     8.0000 </r>
       <r>   -29.9896     0.0000     8.0000 </r>
       <r>   -29.8369     0.0000     8.0000 </r>
       <r>   -29.6843     0.0000     8.0000 </r>
       <r>   -29.5316     0.0000     8.0000 </r>
       <r>   -29.3790     0.0000     8.0000 </r>
       <r>   -29.2263     0.0000     8.0000 </r>
       <r>   -29.0737     0.0000     8.0000 </r>
       <r>   -28.9210     0.0000     8.0000 </r>
       <r>   -28.7684     0.0000     8.0000 </r>
       <r>   -28.6157     0.0000     8.0000 </r>
       <r>   -28.4630     0.0000     8.0000 </r>
       <r>   -28.3104     0.0000     8.0000 </r>
       <r>   -28.1577     0.0000     8.0000 </r>
       <r>   -28.0051     0.0000     8.0000 </r>
       <r>   -27.8524     0.0000     8.0000 </r>
       <r>   -27.6998     0.0000     8.0000 </r>
       <r>   -27.5471     0.0000     8.0000 </r>
       <r>   -27.3945     0.0000     8.0000 </r>
       <r>   -27.2418     0.0000     8.0000 </r>
       <r>   -27.0892     0.0000     8.0000 </r>
       <r>   -26.9365     0.0000     8.0000 </r>
       <r>   -26.7839     0.0000     8.0000 </r>
       <r>   -26.6312     0.0000     8.0000 </r>
       <r>   -26.4786     0.0000     8.0000 </r>
       <r>   -26.3259     0.0000     8.0000 </r>
       <r>   -26.1733     0.0000     8.0000 </r>
       <r>   -26.0206     0.0000     8.0000 </r>
       <r>   -25.8680     0.0000     8.0000 </r>
       <r>   -25.7153     0.0000     8.0000 </r>
       <r>   -25.5627     0.0000     8.0000 </r>
       <r>   -25.4100     0.0000     8.0000 </r>
       <r>   -25.2574     0.0000     8.0000 </r>
       <r>   -25.1047     0.0000     8.0000 </r>
       <r>   -24.9521     0.0000     8.0000 </r>
       <r>   -24.7994     0.0000     8.0000 </r>
       <r>   -24.6468     0.0000     8.0000 </r>
       <r>   -24.4941     0.0000     8.0000 </r>
       <r>   -24.3415     0.0000     8.0000 </r>
       <r>   -24.1888     0.0000     8.0000 </r>
       <r>   -24.0362     0.0000     8.0000 </r>
       <r>   -23.8835     0.0000     8.0000 </r>
       <r>   -23.7309     0.0000     8.0000 </r>
       <r>   -23.5782     0.0000     8.0000 </r>
       <r>   -23.4256     0.0000     8.0000 </r>
       <r>   -23.2729     0.0000     8.0000 </r>
       <r>   -23.1203     0.0000     8.0000 </r>
       <r>   -22.9676     0.0000     8.0000 </r>
       <r>   -22.8150     0.0000     8.0000 </r>
       <r>   -22.6623     0.0000     8.0000 </r>
       <r>   -22.5097     0.0000     8.0000 </r>
       <r>   -22.3570     0.0000     8.0000 </r>
       <r>   -22.2044     0.0000     8.0000 </r>
       <r>   -22.0517     0.0000     8.0000 </r>
       <r>   -21.8991     0.0000     8.0000 </r>
       <r>   -21.7464     0.0000     8.0000 </r>
       <r>   -21.5938     0.0000     8.0000 </r>
       <r>   -21.4411     0.0000     8.0000 </r>
       <r>   -21.2885     0.0000     8.0000 </r>
       <r>   -21.1358     0.0000     8.0000 </r>
       <r>   -20.9832     0.0000     8.0000 </r>
       <r>   -20.8305     0.0000     8.0000 </r>
       <r>   -20.6779     0.0000     8.0000 </r>
       <r>   -20.5252     0.0000     8.0000 </r>
       <r>   -20.3726     0.0000     8.0000 </r>
       <r>   -20.2199     0.0000     8.0000 </r>
       <r>   -20.0673     0.0000     8.0000 </r>
       <r>   -19.9146     0.0000     8.0000 </r>
       <r>   -19.7619     0.0000     8.0000 </r>
       <r>   -19.6093     0.0000     8.0000 </r>
       <r>   -19.4566     0.0000     8.0000 </r>
       <r>   -19.3040     0.0000     8.0000 </r>
       <r>   -19.1513     0.0000     8.0000 </r>
       <r>   -18.9987     0.0000     8.0000 </r>
       <r>   -18.8460     0.0000     8.0000 </r>
       <r>   -18.6934     0.0000     8.0000 </r>
       <r>   -18.5407     0.0000     8.0000 </r>
       <r>   -18.3881     0.0000     8.0000 </r>
       <r>   -18.2354     0.0000     8.0000 </r>
       <r>   -18.0828     0.0000     8.0000 </r>
       <r>   -17.9301     0.0000     8.0000 </r>
       <r>   -17.7775     0.0000     8.0000 </r>
       <r>   -17.6248     5.9620     8.1590 </r>
       <r>   -17.4722    10.2117     9.7753 </r>
       <r>   -17.3195     7.5706    11.5088 </r>
       <r>   -17.1669     7.3639    12.6811 </r>
       <r>   -17.0142     9.8739    13.9891 </r>
       <r>   -16.8616     4.5374    15.2084 </r>
       <r>   -16.7089    21.8909    16.8058 </r>
       <r>   -16.5563    47.4910    21.5034 </r>
       <r>   -16.4036     5.0104    26.3900 </r>
       <r>   -16.2510    20.8061    28.4204 </r>
       <r>   -16.0983     3.3232    29.6865 </r>
       <r>   -15.9457    25.9634    32.9922 </r>
       <r>   -15.7930     0.0000    36.0000 </r>
       <r>   -15.6404     0.0975    36.0017 </r>
       <r>   -15.4877     1.2210    36.1084 </r>
       <r>   -15.3351     2.4493    36.3917 </r>
       <r>   -15.1824     5.9496    36.9861 </r>
       <r>   -15.0298    36.7377    40.0378 </r>
       <r>   -14.8771    51.6630    45.6743 </r>
       <r>   -14.7245    26.3646    50.1728 </r>
       <r>   -14.5718    18.1065    55.2768 </r>
       <r>   -14.4192     0.0000    56.0000 </r>
       <r>   -14.2665     0.0000    56.0000 </r>
       <r>   -14.1139     0.0000    56.0000 </r>
       <r>   -13.9612     0.0000    56.0000 </r>
       <r>   -13.8086     0.0000    56.0000 </r>
       <r>   -13.6559     0.0000    56.0000 </r>
       <r>   -13.5033     0.0000    56.0000 </r>
       <r>   -13.3506     0.0000    56.0000 </r>
       <r>   -13.1980     0.0000    56.0000 </r>
       <r>   -13.0453     0.0000    56.0000 </r>
       <r>   -12.8927     0.0000    56.0000 </r>
       <r>   -12.7400     0.0000    56.0000 </r>
       <r>   -12.5874     0.0000    56.0000 </r>
       <r>   -12.4347     0.0000    56.0000 </r>
       <r>   -12.2821     0.0000    56.0000 </r>
       <r>   -12.1294     0.0000    56.0000 </r>
       <r>   -11.9768     0.0000    56.0000 </r>
       <r>   -11.8241     0.0000    56.0000 </r>
       <r>   -11.6715     0.0000    56.0000 </r>
       <r>   -11.5188     0.0000    56.0000 </r>
       <r>   -11.3662     0.0000    56.0000 </r>
       <r>   -11.2135     0.0000    56.0000 </r>
       <r>   -11.0608     0.0000    56.0000 </r>
       <r>   -10.9082     0.0000    56.0000 </r>
       <r>   -10.7555     0.0000    56.0000 </r>
       <r>   -10.6029     0.0000    56.0000 </r>
       <r>   -10.4502     0.0000    56.0000 </r>
       <r>   -10.2976     0.0000    56.0000 </r>
       <r>   -10.1449     0.0000    56.0000 </r>
       <r>    -9.9923     0.0000    56.0000 </r>
       <r>    -9.8396     0.0000    56.0000 </r>
       <r>    -9.6870     0.0000    56.0000 </r>
       <r>    -9.5343     0.0000    56.0000 </r>
       <r>    -9.3817     0.0000    56.0000 </r>
       <r>    -9.2290     0.0000    56.0000 </r>
       <r>    -9.0764     0.0000    56.0000 </r>
       <r>    -8.9237     0.0000    56.0000 </r>
       <r>    -8.7711     0.0000    56.0000 </r>
       <r>    -8.6184     0.0000    56.0000 </r>
       <r>    -8.4658     0.0000    56.0000 </r>
       <r>    -8.3131     0.0000    56.0000 </r>
       <r>    -8.1605     0.0000    56.0000 </r>
       <r>    -8.0078     0.0000    56.0000 </r>
       <r>    -7.8552     0.0000    56.0000 </r>
       <r>    -7.7025     0.0000    56.0000 </r>
       <r>    -7.5499     0.0000    56.0000 </r>
       <r>    -7.3972     0.0000    56.0000 </r>
       <r>    -7.2446     0.0000    56.0000 </r>
       <r>    -7.0919     0.0000    56.0000 </r>
       <r>    -6.9393     0.0000    56.0000 </r>
       <r>    -6.7866     0.0000    56.0000 </r>
       <r>    -6.6340     0.0000    56.0000 </r>
       <r>    -6.4813     0.0000    56.0000 </r>
       <r>    -6.3287     0.0000    56.0000 </r>
       <r>    -6.1760     0.0000    56.0000 </r>
       <r>    -6.0234     0.0000    56.0000 </r>
       <r>    -5.8707     0.0000    56.0000 </r>
       <r>    -5.7181     0.0000    56.0000 </r>
       <r>    -5.5654     0.0000    56.0000 </r>
       <r>    -5.4128     0.0000    56.0000 </r>
       <r>    -5.2601     0.0000    56.0000 </r>
       <r>    -5.1075     0.0000    56.0000 </r>
       <r>    -4.9548     0.0000    56.0000 </r>
       <r>    -4.8022     0.0000    56.0000 </r>
       <r>    -4.6495     0.0000    56.0000 </r>
       <r>    -4.4969     6.2869    56.8088 </r>
       <r>    -4.3442    18.3234    58.7016 </r>
       <r>    -4.1916    13.3321    61.1380 </r>
       <r>    -4.0389    20.6948    63.7585 </r>
       <r>    -3.8863    13.0376    66.2273 </r>
       <r>    -3.7336    14.8642    68.6274 </r>
       <r>    -3.5810    15.6827    71.1667 </r>
       <r>    -3.4283    19.0784    74.1675 </r>
       <r>    -3.2757    22.0025    77.3748 </r>
       <r>    -3.1230    25.2580    81.1631 </r>
       <r>    -2.9704    20.0263    84.9429 </r>
       <r>    -2.8177    12.6339    87.4351 </r>
       <r>    -2.6651    14.2488    89.6425 </r>
       <r>    -2.5124    12.3778    91.7020 </r>
       <r>    -2.3597    13.1398    93.7405 </r>
       <r>    -2.2071    11.2586    95.7336 </r>
       <r>    -2.0544    10.5055    97.4239 </r>
       <r>    -1.9018    10.1441    99.0656 </r>
       <r>    -1.7491     9.8470   100.9330 </r>
       <r>    -1.5965    11.3431   102.8853 </r>
       <r>    -1.4438    13.0899   105.5271 </r>
       <r>    -1.2912    18.3207   108.9528 </r>
       <r>    -1.1385    23.6636   112.3275 </r>
       <r>    -0.9859    14.2752   116.1453 </r>
       <r>    -0.8332    18.0619   118.5495 </r>
       <r>    -0.6806    19.1695   121.6356 </r>
       <r>    -0.5279    12.2557   124.2455 </r>
       <r>    -0.3753     8.6491   126.1238 </r>
       <r>    -0.2226     1.6262   127.3010 </r>
       <r>    -0.0700     1.1819   127.5059 </r>
       <r>     0.0827     1.2349   127.6898 </r>
       <r>     0.2353     0.8226   127.8372 </r>
       <r>     0.3880     0.5527   127.9422 </r>
       <r>     0.5406     0.0000   128.0000 </r>
       <r>     0.6933     0.0000   128.0000 </r>
       <r>     0.8459     0.0000   128.0000 </r>
       <r>     0.9986     0.0000   128.0000 </r>
       <r>     1.1512     0.0000   128.0000 </r>
       <r>     1.3039     0.0000   128.0000 </r>
       <r>     1.4565     0.2971   128.0044 </r>
       <r>     1.6092     2.7301   128.1834 </r>
       <r>     1.7618     3.8735   128.7367 </r>
       <r>     1.9145     4.4166   129.4172 </r>
       <r>     2.0671     4.3253   130.0546 </r>
       <r>     2.2198     8.4236   131.0825 </r>
       <r>     2.3724     6.8665   132.3086 </r>
       <r>     2.5251     7.7638   133.4490 </r>
       <r>     2.6777     9.9882   134.8441 </r>
       <r>     2.8304    11.7564   136.6329 </r>
       <r>     2.9830    13.3992   138.5894 </r>
       <r>     3.1357    16.1279   140.8327 </r>
       <r>     3.2883    16.3318   143.9391 </r>
       <r>     3.4410    12.5394   146.6958 </r>
       <r>     3.5936     5.7524   148.4696 </r>
       <r>     3.7463     1.2834   149.1341 </r>
       <r>     3.8989     0.6140   149.2948 </r>
       <r>     4.0516     0.6138   149.3885 </r>
       <r>     4.2042     0.6137   149.4822 </r>
       <r>     4.3569     0.6135   149.5758 </r>
       <r>     4.5095     0.6134   149.6695 </r>
       <r>     4.6622     0.6132   149.7631 </r>
       <r>     4.8148     0.6131   149.8567 </r>
       <r>     4.9675     0.6129   149.9503 </r>
       <r>     5.1201     0.6127   150.0438 </r>
       <r>     5.2728     0.6278   150.1379 </r>
       <r>     5.4254     0.6616   150.2363 </r>
       <r>     5.5781     0.9366   150.3537 </r>
       <r>     5.7307     1.0655   150.5078 </r>
       <r>     5.8834     0.8326   150.6667 </r>
       <r>     6.0360     0.5751   150.7661 </r>
       <r>     6.1887     0.5250   150.8501 </r>
       <r>     6.3414     0.4749   150.9264 </r>
       <r>     6.4940     0.4248   150.9951 </r>
       <r>     6.6467     0.3747   151.0561 </r>
       <r>     6.7993     0.3745   151.1116 </r>
       <r>     6.9520     0.4159   151.1719 </r>
       <r>     7.1046     0.3644   151.3132 </r>
       <r>     7.2573     0.7798   151.4573 </r>
       <r>     7.4099     1.2985   151.7317 </r>
       <r>     7.5626     1.2841   151.9289 </r>
       <r>     7.7152     0.0000   152.0000 </r>
       <r>     7.8679     0.0000   152.0000 </r>
       <r>     8.0205     0.0000   152.0000 </r>
       <r>     8.1732     0.0000   152.0000 </r>
       <r>     8.3258     0.0000   152.0000 </r>
       <r>     8.4785     0.0000   152.0000 </r>
       <r>     8.6311     0.0000   152.0000 </r>
       <r>     8.7838     0.0000   152.0000 </r>
       <r>     8.9364     0.0000   152.0000 </r>
       <r>     9.0891     0.0000   152.0000 </r>
       <r>     9.2417     0.0000   152.0000 </r>
       <r>     9.3944     0.0000   152.0000 </r>
       <r>     9.5470     0.0000   152.0000 </r>
       <r>     9.6997     0.0000   152.0000 </r>
      </set>
     </set>
    </array>
   </total>
  </dos>
 </calculation>
 <structure name="finalpos" >
  <crystal>
   <varray name="basis" >
    <v>       3.94684634       0.00000000       0.00000000 </v>
    <v>       0.00000000       3.94684634       0.00000000 </v>
    <v>       0.00000000       0.00000000      25.81396220 </v>
   </varray>
   <i name="volume">    402.11947539 </i>
   <varray name="rec_basis" >
    <v>       0.25336684       0.00000000       0.00000000 </v>
    <v>       0.00000000       0.25336684       0.00000000 </v>
    <v>       0.00000000       0.00000000       0.03873873 </v>
   </varray>
  </crystal>
  <varray name="positions" >
   <v>       0.50000000       0.50000000       0.23243235 </v>
   <v>       0.50000000       0.00000000       0.30888025 </v>
   <v>       0.00000000       0.50000000       0.30888025 </v>
   <v>       0.50000000       0.50000000       0.38532815 </v>
   <v>       0.50000000       0.00000000       0.46177605 </v>
   <v>       0.00000000       0.50000000       0.46177605 </v>
   <v>       0.50000000       0.50000000       0.53822395 </v>
   <v>       0.50000000       0.00000000       0.61467185 </v>
   <v>       0.00000000       0.50000000       0.61467185 </v>
   <v>       0.50000000       0.50000000       0.69111975 </v>
   <v>       0.50000000       0.00000000       0.76756765 </v>
   <v>       0.00000000       0.50000000       0.76756765 </v>
   <v>       0.00000000       0.00000000       0.23243235 </v>
   <v>       0.00000000       0.00000000       0.38532815 </v>
   <v>       0.00000000       0.00000000       0.53822395 </v>
   <v>       0.00000000       0.00000000       0.69111975 </v>
   <v>       0.50000000       0.50000000       0.30888025 </v>
   <v>       0.50000000       0.50000000       0.46177605 </v>
   <v>       0.50000000       0.50000000       0.61467185 </v>
   <v>       0.50000000       0.50000000       0.76756765 </v>
  </varray>
 </structure>
</modeling>
