unknown system                          
   1.00000000000000     
     4.913700    0.000000    0.000000
    -2.456850    4.255389    0.000000
     0.000000    0.000000    5.405130
   Si   O 
     3     6
Direct
  0.469800  0.000000  0.666670
  0.000000  0.469800  0.333330
  0.530200  0.530200  0.000000
  0.414500  0.266200  0.785600
  0.733800  0.148300  0.452270
  0.851700  0.585500  0.118930
  0.148300  0.733800  0.547730
  0.266200  0.414500  0.214400
  0.585500  0.851700  0.881070
 
   48   48   56
 0.14529314002E+01 0.13839815423E+01 0.13879495517E+01 0.14429886148E+01 0.15325765337E+01
 0.16470973593E+01 0.17814056703E+01 0.19322720107E+01 0.20967421823E+01 0.22705362800E+01
 0.24469887828E+01 0.26178657011E+01 0.27762410006E+01 0.29206395452E+01 0.30589974801E+01
 0.32096070675E+01 0.33971212361E+01 0.36479505945E+01 0.39948950164E+01 0.44949662132E+01
 0.52487264722E+01 0.64011648919E+01 0.81156519687E+01 0.10534438282E+02 0.13749211039E+02
 0.17791694354E+02 0.22627421195E+02 0.28120889224E+02 0.33960699445E+02 0.39587437710E+02
 0.44212739344E+02 0.46994861021E+02 0.47330594129E+02 0.45110458939E+02 0.40774080416E+02
 0.35125766184E+02 0.29029363526E+02 0.23161646054E+02 0.17926431317E+02 0.13503604978E+02
 0.99390747373E+01 0.72042493294E+01 0.52151355346E+01 0.38397583420E+01 0.29196660785E+01
 0.23060911796E+01 0.18912515024E+01 0.16159301412E+01 0.13839815423E+01 0.13092989515E+01
 0.13167224768E+01 0.13870812156E+01 0.15030407760E+01 0.16536713279E+01 0.18333588015E+01
 0.20380034646E+01 0.22629123077E+01 0.25022743350E+01 0.27479079071E+01 0.29878450559E+01
 0.32075535217E+01 0.33945772463E+01 0.35444487053E+01 0.36650208954E+01 0.37767843422E+01
 0.39083342659E+01 0.40911145126E+01 0.43621503301E+01 0.47783485315E+01 0.54313901775E+01
 0.64446850780E+01 0.79463369968E+01 0.10033204221E+02 0.12746226181E+02 0.16059961671E+02
 0.19870869011E+02 0.23972005256E+02 0.28025446096E+02 0.31566245849E+02 0.34071106958E+02
 0.35093056259E+02 0.34413747657E+02 0.32132987758E+02 0.28636831415E+02 0.24458047509E+02
 0.20110802021E+02 0.15985297449E+02 0.12327845427E+02 0.92689993271E+01 0.68516774078E+01
 0.50449025592E+01 0.37582487383E+01 0.28696411105E+01 0.22601290372E+01 0.18399419363E+01
 0.15562351956E+01 0.13879495517E+01 0.13167224768E+01 0.13313691692E+01 0.14166881808E+01
 0.15566153736E+01 0.17395654511E+01 0.19596756048E+01 0.22137321994E+01 0.24979036397E+01
 0.28062332011E+01 0.31292379663E+01 0.34519067300E+01 0.37534684630E+01 0.40110565784E+01
 0.42063986268E+01 0.43329338197E+01 0.44005659900E+01 0.44351704536E+01 0.44722213035E+01
 0.45498489862E+01 0.47097684028E+01 0.50074680280E+01 0.55211256674E+01 0.63463266319E+01
 0.75748298813E+01 0.92674633063E+01 0.11431405218E+02 0.14004442549E+02 0.16844984302E+02
 0.19729755948E+02 0.22365555206E+02 0.24422951598E+02 0.25596179501E+02 0.25680594744E+02
 0.24639147801E+02 0.22620531025E+02 0.19912713558E+02 0.16856308104E+02 0.13765204447E+02
 0.10884606128E+02 0.83806183779E+01 0.63400780325E+01 0.47730091222E+01 0.36259444250E+01
 0.28103220146E+01 0.22355027315E+01 0.18315689210E+01 0.15560067809E+01 0.14429886147E+01
 0.13870812156E+01 0.14166881808E+01 0.15200286540E+01 0.16840817333E+01 0.18981239966E+01
 0.21561976804E+01 0.24568182692E+01 0.27997495581E+01 0.31816658502E+01 0.35928411937E+01
 0.40154286424E+01 0.44231209916E+01 0.47832060367E+01 0.50626276562E+01 0.52374123656E+01
 0.53016619431E+01 0.52716270347E+01 0.51827064967E+01 0.50809121774E+01 0.50139475532E+01
 0.50283597390E+01 0.51749919698E+01 0.55161388378E+01 0.61228260930E+01 0.70571150369E+01
 0.83473422560E+01 0.99696770248E+01 0.11841778995E+02 0.13824625953E+02 0.15729489998E+02
 0.17335438383E+02 0.18424123036E+02 0.18827362898E+02 0.18470029892E+02 0.17389489286E+02
 0.15724182972E+02 0.13678030368E+02 0.11475339764E+02 0.93206754650E+01 0.73719053959E+01
 0.57270994191E+01 0.44223725419E+01 0.34395048554E+01 0.27239426212E+01 0.22100119581E+01
 0.18436818780E+01 0.15927855472E+01 0.15325765337E+01 0.15030407760E+01 0.15566153736E+01
 0.16840817333E+01 0.18750512965E+01 0.21207214510E+01 0.24164997308E+01 0.27633082467E+01
 0.31653914969E+01 0.36246353719E+01 0.41344655466E+01 0.46760965659E+01 0.52175495556E+01
 0.57155439624E+01 0.61215826219E+01 0.63924992063E+01 0.65024455456E+01 0.64515969049E+01
 0.62681327638E+01 0.60023980404E+01 0.57150391160E+01 0.54647880686E+01 0.53030308293E+01
 0.52768495673E+01 0.54334311919E+01 0.58169107521E+01 0.64568030273E+01 0.73549936731E+01
 0.84767376030E+01 0.97455542660E+01 0.11042739078E+02 0.12217425684E+02 0.13111287343E+02
 0.13591459797E+02 0.13578423541E+02 0.13060280890E+02 0.12093256605E+02 0.10790279057E+02
 0.92981785858E+01 0.77676881418E+01 0.63264080163E+01 0.50633378557E+01 0.40248150057E+01
 0.32170954030E+01 0.26146602809E+01 0.21759663229E+01 0.18625484804E+01 0.16511174327E+01
 0.16470973593E+01 0.16536713279E+01 0.17395654511E+01 0.18981239966E+01 0.21207214510E+01
 0.24004256907E+01 0.27351113736E+01 0.31287892631E+01 0.35903708557E+01 0.41287375313E+01
 0.47444858712E+01 0.54217296368E+01 0.61242071717E+01 0.67974728417E+01 0.73763508121E+01
 0.77964312103E+01 0.80082006766E+01 0.79903485551E+01 0.77570825798E+01 0.73561199505E+01
 0.68582623358E+01 0.63424168738E+01 0.58807466044E+01 0.55288385610E+01 0.53244795478E+01
 0.52935708672E+01 0.54555579353E+01 0.58206347800E+01 0.63789067965E+01 0.70898622487E+01
 0.78804362484E+01 0.86531770983E+01 0.93009106297E+01 0.97243347268E+01 0.98499821376E+01
 0.96446794326E+01 0.91217531523E+01 0.83369552004E+01 0.73762249539E+01 0.63390368409E+01
 0.53205218428E+01 0.43957142076E+01 0.36100294811E+01 0.29786543222E+01 0.24937765885E+01
 0.21356983365E+01 0.18836349598E+01 0.17229933161E+01 0.17814056703E+01 0.18333588015E+01
 0.19596756048E+01 0.21561976804E+01 0.24164997308E+01 0.27351113736E+01 0.31114518790E+01
 0.35524360202E+01 0.40724711226E+01 0.46889509741E+01 0.54123476417E+01 0.62340982988E+01
 0.71183964239E+01 0.80019670446E+01 0.88017519153E+01 0.94286566887E+01 0.98052751909E+01
 0.98837098304E+01 0.96577432893E+01 0.91653466985E+01 0.84815340831E+01 0.77035625404E+01
 0.69309466261E+01 0.62456006116E+01 0.57005953520E+01 0.53223069383E+01 0.51205001116E+01
 0.50953292514E+01 0.52363583281E+01 0.55182799806E+01 0.58992781480E+01 0.63225417205E+01
 0.67197593136E+01 0.70188572821E+01 0.71576871751E+01 0.70984078988E+01 0.68340725023E+01
 0.63856955175E+01 0.57958080802E+01 0.51224976341E+01 0.44309440753E+01 0.37800609945E+01
 0.32099337509E+01 0.27384805020E+01 0.23678915757E+01 0.20933420912E+01 0.19080791472E+01
 0.18056103639E+01 0.19322720107E+01 0.20380034646E+01 0.22137321994E+01 0.24568182692E+01
 0.27633082467E+01 0.31287892631E+01 0.35524360202E+01 0.40426021397E+01 0.46191943313E+01
 0.53090309197E+01 0.61344291599E+01 0.70986730058E+01 0.81732989860E+01 0.92921937743E+01
 0.10356314094E+02 0.11249470574E+02 0.11861160894E+02 0.12109909745E+02 0.11961158687E+02
 0.11435676046E+02 0.10606294152E+02 0.95832692565E+01 0.84919934854E+01 0.74491830213E+01
 0.65434650128E+01 0.58246934606E+01 0.53046320749E+01 0.49684271703E+01 0.47907136107E+01
 0.47464986304E+01 0.48108564889E+01 0.49513224321E+01 0.51232076241E+01 0.52743137108E+01
 0.53562709049E+01 0.53348451566E+01 0.51944953282E+01 0.49378897190E+01 0.45831630438E+01
 0.41603069835E+01 0.37064942936E+01 0.32600880921E+01 0.28541505358E+01 0.25114749799E+01
 0.22433652604E+01 0.20525897126E+01 0.19381330560E+01 0.18984699720E+01 0.20967421823E+01
 0.22629123077E+01 0.24979036397E+01 0.27997495581E+01 0.31653914969E+01 0.35903708557E+01
 0.40724711226E+01 0.46191943313E+01 0.52531671631E+01 0.60095094986E+01 0.69242672961E+01
 0.80172624685E+01 0.92743008506E+01 0.10634814411E+02 0.11991260735E+02 0.13203211738E+02
 0.14123099153E+02 0.14626549535E+02 0.14639618454E+02 0.14155873000E+02 0.13238060975E+02
 0.12004050602E+02 0.10602715643E+02 0.91868792944E+01 0.78873355667E+01 0.67912674470E+01
 0.59321051737E+01 0.52974944143E+01 0.48516271295E+01 0.45570019863E+01 0.43827775944E+01
 0.43007400294E+01 0.42794579812E+01 0.42837000655E+01 0.42781670333E+01 0.42325561819E+01
 0.41269088504E+01 0.39553996865E+01 0.37252485226E+01 0.34510944508E+01 0.31504683114E+01
 0.28440492364E+01 0.25566830388E+01 0.23133033311E+01 0.21315074032E+01 0.20184414284E+01
 0.19748488064E+01 0.20007082639E+01 0.22705362800E+01 0.25022743350E+01 0.28062332011E+01
 0.31816658502E+01 0.36246353719E+01 0.41287375313E+01 0.46889509741E+01 0.53090309197E+01
 0.60095094986E+01 0.68298797793E+01 0.78195090836E+01 0.90179426061E+01 0.10431562158E+02
 0.12015224055E+02 0.13665137284E+02 0.15226468118E+02 0.16516731107E+02 0.17361757060E+02
 0.17635038839E+02 0.17287833633E+02 0.16360199890E+02 0.14970650993E+02 0.13289409048E+02
 0.11503944846E+02 0.97855021838E+01 0.82631870957E+01 0.70095930260E+01 0.60398439067E+01
 0.53238828879E+01 0.48082528716E+01 0.44389161045E+01 0.41750405817E+01 0.39890441174E+01
 0.38578443848E+01 0.37557333121E+01 0.36553659534E+01 0.35344910634E+01 0.33814042741E+01
 0.31951789724E+01 0.29825144258E+01 0.27550627332E+01 0.25285406947E+01 0.23218933509E+01
 0.21546400927E+01 0.20428587170E+01 0.19962629355E+01 0.20184228166E+01 0.21097250772E+01
 0.24469887828E+01 0.27479079071E+01 0.31292379663E+01 0.35928411937E+01 0.41344655466E+01
 0.47444858712E+01 0.54123476417E+01 0.61344291599E+01 0.69242672961E+01 0.78195090836E+01
 0.88773459718E+01 0.10155622043E+02 0.11685960520E+02 0.13448971719E+02 0.15358821723E+02
 0.17261676847E+02 0.18952152604E+02 0.20209035208E+02 0.20843626734E+02 0.20746163292E+02
 0.19914203891E+02 0.18452768047E+02 0.16546609045E+02 0.14416226312E+02 0.12274654172E+02
 0.10296736404E+02 0.86013215991E+01 0.72421237467E+01 0.62089011389E+01 0.54449228069E+01
 0.48778930791E+01 0.44479868440E+01 0.41172628505E+01 0.38614706241E+01 0.36588286493E+01
 0.34864568036E+01 0.33228873456E+01 0.31510750648E+01 0.29610577240E+01 0.27532276417E+01
 0.25394065876E+01 0.23385149694E+01 0.21695472159E+01 0.20477823805E+01 0.19852241677E+01
 0.19909771958E+01 0.20697375552E+01 0.22218386396E+01 0.26178657011E+01 0.29878450559E+01
 0.34519067300E+01 0.40154286424E+01 0.46760965659E+01 0.54217296368E+01 0.62340982988E+01
 0.70986730058E+01 0.80172624685E+01 0.90179426061E+01 0.10155622043E+02 0.11498777421E+02
 0.13103699818E+02 0.14983959972E+02 0.17085279775E+02 0.19273771555E+02 0.21342333853E+02
 0.23038408002E+02 0.24112968895E+02 0.24381255546E+02 0.23774352438E+02 0.22358983738E+02
 0.20316917402E+02 0.17895986387E+02 0.15355336256E+02 0.12921785736E+02 0.10761822161E+02
 0.89676167207E+01 0.75571180018E+01 0.64893985144E+01 0.56916051488E+01 0.50873929236E+01
 0.46159954390E+01 0.42373444678E+01 0.39265100883E+01 0.36647461443E+01 0.34335236197E+01
 0.32142605550E+01 0.29925342956E+01 0.27631826717E+01 0.25327628694E+01 0.23178898241E+01
 0.21403681637E+01 0.20212875751E+01 0.19762175506E+01 0.20130164732E+01 0.21329315808E+01
 0.23344459896E+01 0.27762410006E+01 0.32075535217E+01 0.37534684630E+01 0.44231209916E+01
 0.52175495556E+01 0.61242071717E+01 0.71183964239E+01 0.81732989860E+01 0.92743008506E+01
 0.10431562158E+02 0.11685960520E+02 0.13103699818E+02 0.14756321931E+02 0.16689343252E+02
 0.18889852220E+02 0.21263668463E+02 0.23628149178E+02 0.25725773548E+02 0.27264937321E+02
 0.27986608924E+02 0.27737061794E+02 0.26514818685E+02 0.24470056754E+02 0.21860230558E+02
 0.18984968953E+02 0.16124875643E+02 0.13499036409E+02 0.11245244234E+02 0.94194009460E+01
 0.80074584786E+01 0.69452440838E+01 0.61444190597E+01 0.55202433154E+01 0.50110067339E+01
 0.45807075189E+01 0.42085661722E+01 0.38783139537E+01 0.35753969758E+01 0.32887940440E+01
 0.30117340903E+01 0.27424958207E+01 0.24885824701E+01 0.22703459868E+01 0.21163294582E+01
 0.20509918140E+01 0.20854604775E+01 0.22192393702E+01 0.24491183571E+01 0.29206395452E+01
 0.33945772463E+01 0.40110565784E+01 0.47832060367E+01 0.57155439624E+01 0.67974728417E+01
 0.80019670446E+01 0.92921937743E+01 0.10634814411E+02 0.12015224055E+02 0.13448971719E+02
 0.14983959972E+02 0.16689343252E+02 0.18630844835E+02 0.20837769410E+02 0.23270401686E+02
 0.25796574379E+02 0.28186751441E+02 0.30138771444E+02 0.31338510468E+02 0.31544706814E+02
 0.30664810825E+02 0.28785219933E+02 0.26142391818E+02 0.23053938499E+02 0.19844345771E+02
 0.16790030998E+02 0.14088549203E+02 0.11846158386E+02 0.10080103653E+02 0.87362047620E+01
 0.77195972832E+01 0.69290274278E+01 0.62818737210E+01 0.57228983263E+01 0.52200363048E+01
 0.47561773565E+01 0.43230252702E+01 0.39171667191E+01 0.35370164286E+01 0.31822060181E+01
 0.28573142246E+01 0.25768666960E+01 0.23649029256E+01 0.22468099561E+01 0.22395961269E+01
 0.23490163828E+01 0.25751741113E+01 0.30589974801E+01 0.35444487053E+01 0.42063986268E+01
 0.50626276562E+01 0.61215826219E+01 0.73763508121E+01 0.88017519153E+01 0.10356314094E+02
 0.11991260735E+02 0.13665137284E+02 0.15358821723E+02 0.17085279775E+02 0.18889852220E+02
 0.20837769410E+02 0.22987897991E+02 0.25356818901E+02 0.27882179764E+02 0.30397104853E+02
 0.32630532457E+02 0.34248711499E+02 0.34939453461E+02 0.34511684891E+02 0.32961724603E+02
 0.30471690426E+02 0.27348068815E+02 0.23940316951E+02 0.20573769161E+02 0.17504920570E+02
 0.14894075586E+02 0.12796547991E+02 0.11177561682E+02 0.99458946232E+01 0.89906554692E+01
 0.82085728845E+01 0.75195572244E+01 0.68727624931E+01 0.62442244095E+01 0.56286610512E+01
 0.50313371612E+01 0.44637625769E+01 0.39411205889E+01 0.34787241937E+01 0.30896905645E+01
 0.27867499476E+01 0.25851846914E+01 0.25013368150E+01 0.25476127314E+01 0.27311232798E+01
 0.32096070675E+01 0.36650208954E+01 0.43329338197E+01 0.52374123656E+01 0.63924992063E+01
 0.77964312103E+01 0.94286566887E+01 0.11249470574E+02 0.13203211738E+02 0.15226468118E+02
 0.17261676847E+02 0.19273771555E+02 0.21263668463E+02 0.23270401686E+02 0.25356818901E+02
 0.27579909162E+02 0.29950838418E+02 0.32392437483E+02 0.34704807015E+02 0.36580195877E+02
 0.37684433783E+02 0.37748838789E+02 0.36660268354E+02 0.34505477043E+02 0.31551104983E+02
 0.28160664997E+02 0.24688428774E+02 0.21426796814E+02 0.18575835127E+02 0.16231614472E+02
 0.14392565120E+02 0.12983333559E+02 0.11889079752E+02 0.10988769664E+02 0.10179134349E+02
 0.93871007276E+01 0.85726515668E+01 0.77257789865E+01 0.68608460959E+01 0.60093002630E+01
 0.52099598571E+01 0.44981845042E+01 0.38986913571E+01 0.34255504339E+01 0.30869522168E+01
 0.28891935189E+01 0.28380851299E+01 0.29407628959E+01 0.33971212361E+01 0.37767843422E+01
 0.44005659900E+01 0.53016619431E+01 0.65024455456E+01 0.80082006766E+01 0.98052751909E+01
 0.11861160894E+02 0.14123099153E+02 0.16516731107E+02 0.18952152604E+02 0.21342333853E+02
 0.23628149178E+02 0.25796574379E+02 0.27882179764E+02 0.29950838418E+02 0.32066515240E+02
 0.34212232268E+02 0.36271433117E+02 0.38059934197E+02 0.39323292972E+02 0.39787992940E+02
 0.39255757505E+02 0.37686908787E+02 0.35224159165E+02 0.32153965273E+02 0.28842083183E+02
 0.25644138080E+02 0.22785305229E+02 0.20384704023E+02 0.18468032862E+02 0.16979276223E+02
 0.15808735542E+02 0.14829419639E+02 0.13924704190E+02 0.13001234618E+02 0.11995986083E+02
 0.10884655478E+02 0.96856374331E+01 0.84509341795E+01 0.72470175793E+01 0.61376586860E+01
 0.51751428777E+01 0.43960374632E+01 0.38174807464E+01 0.34373853382E+01 0.32433731215E+01
 0.32274474754E+01 0.36479505945E+01 0.39083342659E+01 0.44351704537E+01 0.52716270347E+01
 0.64515969049E+01 0.79903485551E+01 0.98837098304E+01 0.12109909745E+02 0.14626549535E+02
 0.17361757060E+02 0.20209035208E+02 0.23038408002E+02 0.25725773548E+02 0.28186751441E+02
 0.30397104853E+02 0.32392437483E+02 0.34212232268E+02 0.35822542777E+02 0.37227333345E+02
 0.38435112663E+02 0.39383210749E+02 0.39912957095E+02 0.39826806308E+02 0.38989116740E+02
 0.37397091329E+02 0.35182720662E+02 0.32570352777E+02 0.29837870546E+02 0.27290841670E+02
 0.25128776850E+02 0.23378824062E+02 0.21993671344E+02 0.20877162762E+02 0.19910321186E+02
 0.18973313802E+02 0.17958194399E+02 0.16780119143E+02 0.15394266868E+02 0.13811095799E+02
 0.12095394668E+02 0.10346294532E+02 0.86709880984E+01 0.71652439551E+01 0.59018794392E+01
 0.49222394318E+01 0.42318776539E+01 0.38077133794E+01 0.36184082900E+01 0.39948950164E+01
 0.40911145126E+01 0.44722213035E+01 0.51827064967E+01 0.62681327638E+01 0.77570825798E+01
 0.96577432893E+01 0.11961158687E+02 0.14639618454E+02 0.17635038839E+02 0.20843626734E+02
 0.24112968895E+02 0.27264937321E+02 0.30138771444E+02 0.32630532457E+02 0.34704807015E+02
 0.36271433116E+02 0.37227333344E+02 0.37645136167E+02 0.37736736210E+02 0.37725824629E+02
 0.37719577628E+02 0.37670140995E+02 0.37441957385E+02 0.36914598507E+02 0.36039316394E+02
 0.34834128186E+02 0.33365917241E+02 0.31760896954E+02 0.30225874571E+02 0.28960458548E+02
 0.27951207594E+02 0.27116363509E+02 0.26348938284E+02 0.25525616584E+02 0.24521962688E+02
 0.23230675665E+02 0.21583765500E+02 0.19576999996E+02 0.17283805265E+02 0.14843038837E+02
 0.12421625011E+02 0.10173511710E+02 0.82161691545E+01 0.66251657990E+01 0.54331308360E+01
 0.46286257191E+01 0.41662053856E+01 0.44949662132E+01 0.43621503301E+01 0.45498489862E+01
 0.50809121774E+01 0.60023980404E+01 0.73561199505E+01 0.91653466985E+01 0.11435676046E+02
 0.14155873000E+02 0.17287833633E+02 0.20746163292E+02 0.24381255546E+02 0.27986608924E+02
 0.31338510468E+02 0.34248711499E+02 0.36580195876E+02 0.38059934195E+02 0.38435112660E+02
 0.37736736207E+02 0.36308124942E+02 0.34681491152E+02 0.33357708974E+02 0.32625154412E+02
 0.32522290038E+02 0.32922820800E+02 0.33633476257E+02 0.34432508441E+02 0.35081724401E+02
 0.35383841196E+02 0.35287400370E+02 0.34953894924E+02 0.34655324385E+02 0.34422831427E+02
 0.34163070381E+02 0.33739321262E+02 0.32986535003E+02 0.31745456847E+02 0.29905195660E+02
 0.27445671374E+02 0.24462902762E+02 0.21155723455E+02 0.17771867159E+02 0.14542865646E+02
 0.11645305403E+02 0.91975703585E+01 0.72682307536E+01 0.58738952280E+01 0.49751320275E+01
 0.52487264722E+01 0.47783485315E+01 0.47097684028E+01 0.50139475532E+01 0.57150391160E+01
 0.68582623358E+01 0.84815340832E+01 0.10606294152E+02 0.13238060975E+02 0.16360199890E+02
 0.19914203891E+02 0.23774352438E+02 0.27737061794E+02 0.31544706814E+02 0.34939453461E+02
 0.37684433782E+02 0.39323292969E+02 0.39383210743E+02 0.37725824623E+02 0.34681491148E+02
 0.31004023611E+02 0.27622143707E+02 0.25316351103E+02 0.24513867550E+02 0.25278562958E+02
 0.27401405409E+02 0.30465923514E+02 0.33888182849E+02 0.37028964330E+02 0.39409376362E+02
 0.40913410841E+02 0.41817864191E+02 0.42556949744E+02 0.43214104404E+02 0.43641222702E+02
 0.43592171365E+02 0.42782145885E+02 0.40983164839E+02 0.38119898574E+02 0.34320400511E+02
 0.29889874007E+02 0.25217595564E+02 0.20668281230E+02 0.16513773144E+02 0.12924548326E+02
 0.99951856668E+01 0.77632351517E+01 0.62075445236E+01 0.64011648919E+01 0.54313901775E+01
 0.50074680280E+01 0.50283597390E+01 0.54647880686E+01 0.63424168738E+01 0.77035625404E+01
 0.95832692565E+01 0.12004050602E+02 0.14970650993E+02 0.18452768047E+02 0.22358983738E+02
 0.26514818685E+02 0.30664810825E+02 0.34511684891E+02 0.37748838788E+02 0.39787992936E+02
 0.39912957088E+02 0.37719577619E+02 0.33357708966E+02 0.27622143703E+02 0.21771712012E+02
 0.17124641475E+02 0.14664864432E+02 0.14865488910E+02 0.17710641047E+02 0.22751901157E+02
 0.29140867593E+02 0.35760188621E+02 0.41551755614E+02 0.45916254937E+02 0.48913859596E+02
 0.51114397425E+02 0.53126188391E+02 0.54968422302E+02 0.56296433386E+02 0.56609762390E+02
 0.55422591397E+02 0.52466784801E+02 0.47832899881E+02 0.41965949531E+02 0.35512557893E+02
 0.29108302118E+02 0.23220213515E+02 0.18105587547E+02 0.13865827117E+02 0.10523098521E+02
 0.80576804712E+01 0.81156519687E+01 0.64446850780E+01 0.55211256674E+01 0.51749919698E+01
 0.53030308293E+01 0.58807466044E+01 0.69309466261E+01 0.84919934854E+01 0.10602715643E+02
 0.13289409048E+02 0.16546609045E+02 0.20316917402E+02 0.24470056754E+02 0.28785219933E+02
 0.32961724603E+02 0.36660268353E+02 0.39255757501E+02 0.39826806300E+02 0.37670140984E+02
 0.32625154401E+02 0.25316351095E+02 0.17124641471E+02 0.98009930661E+01 0.49247661152E+01
 0.35316611522E+01 0.60180964308E+01 0.12149578848E+02 0.21033020955E+02 0.31186357688E+02
 0.40921593610E+02 0.48969882062E+02 0.54958227194E+02 0.59398348912E+02 0.63215070753E+02
 0.67007749956E+02 0.70477619126E+02 0.72866518294E+02 0.73277711590E+02 0.71020566739E+02
 0.65933841778E+02 0.58511842893E+02 0.49740817642E+02 0.40732441712E+02 0.32366180961E+02
 0.25120926408E+02 0.19130026877E+02 0.14352205859E+02 0.10709194726E+02 0.10534438282E+02
 0.79463369968E+01 0.63463266319E+01 0.55161388378E+01 0.52768495673E+01 0.55288385610E+01
 0.62456006116E+01 0.74491830213E+01 0.91868792944E+01 0.11503944846E+02 0.14416226312E+02
 0.17895986387E+02 0.21860230558E+02 0.26142391818E+02 0.30471690426E+02 0.34505477043E+02
 0.37686908784E+02 0.38989116732E+02 0.37441957373E+02 0.32522290025E+02 0.24513867539E+02
 0.14664864424E+02 0.49247661119E+01 -.26457587612E+01 -.64178338927E+01 -.54398812769E+01
 0.49393448482E+00 0.10732432766E+02 0.23703405504E+02 0.37229922984E+02 0.49306293167E+02
 0.58908177593E+02 0.66268880079E+02 0.72453061190E+02 0.78553386244E+02 0.84769113149E+02
 0.90185442863E+02 0.93431101258E+02 0.93178098129E+02 0.88690298422E+02 0.80210646206E+02
 0.68945322856E+02 0.56612460703E+02 0.44803882088E+02 0.34520934667E+02 0.26096065778E+02
 0.19432182503E+02 0.14307728662E+02 0.13749211039E+02 0.10033204221E+02 0.75748298814E+01
 0.61228260930E+01 0.54334311919E+01 0.53244795478E+01 0.57005953520E+01 0.65434650128E+01
 0.78873355667E+01 0.97855021838E+01 0.12274654172E+02 0.15355336256E+02 0.18984968953E+02
 0.23053938499E+02 0.27348068815E+02 0.31551104983E+02 0.35224159163E+02 0.37397091322E+02
 0.36914598496E+02 0.32922820787E+02 0.25278562945E+02 0.14865488900E+02 0.35316611466E+01
 -.64178338949E+01 -.12862646288E+02 -.14276146999E+02 -.98891556238E+01 0.13668844001E+00
 0.14495751507E+02 0.30855420442E+02 0.46604220279E+02 0.59938933061E+02 0.70555506286E+02
 0.79457185924E+02 0.88067334524E+02 0.97208868199E+02 0.10622495516E+03 0.11337520603E+03
 0.11663077189E+03 0.11440223969E+03 0.10624391547E+03 0.93177563912E+02 0.77377787797E+02
 0.61334530795E+02 0.46965730954E+02 0.35170298090E+02 0.25967355328E+02 0.18962921982E+02
 0.17791694354E+02 0.12746226181E+02 0.92674633063E+01 0.70571150369E+01 0.58169107521E+01
 0.52935708672E+01 0.53223069383E+01 0.58246934606E+01 0.67912674470E+01 0.82631870957E+01
 0.10296736404E+02 0.12921785736E+02 0.16124875643E+02 0.19844345771E+02 0.23940316951E+02
 0.28160664997E+02 0.32153965272E+02 0.35182720658E+02 0.36039316386E+02 0.33633476245E+02
 0.27401405396E+02 0.17710641036E+02 0.60180964240E+01 -.54398812803E+01 -.14276147000E+02
 -.18492224340E+02 -.16745928131E+02 -.85632025162E+01 0.53313006321E+01 0.22865792891E+02
 0.41152108284E+02 0.57673135170E+02 0.71388543541E+02 0.82957617032E+02 0.93963769068E+02
 0.10572601901E+03 0.11823114482E+03 0.12971702112E+03 0.13760751926E+03 0.13941903494E+03
 0.13360993778E+03 0.12048832947E+03 0.10221048022E+03 0.81966319823E+02 0.62826951187E+02
 0.46720045959E+02 0.34170023040E+02 0.24755340760E+02 0.22627421195E+02 0.16059961671E+02
 0.11431405218E+02 0.83473422560E+01 0.64568030273E+01 0.54555579353E+01 0.51205001116E+01
 0.53046320749E+01 0.59321051737E+01 0.70095930260E+01 0.86013215991E+01 0.10761822161E+02
 0.13499036409E+02 0.16790030998E+02 0.20573769161E+02 0.24688428774E+02 0.28842083183E+02
 0.32570352775E+02 0.34834128180E+02 0.34432508432E+02 0.30465923503E+02 0.22751901148E+02
 0.12149578842E+02 0.49393448131E+00 -.98891556250E+01 -.16745928131E+02 -.18247475777E+02
 -.13251502211E+02 -.17159739912E+01 0.14916588368E+02 0.33929852553E+02 0.52387400653E+02
 0.68481507715E+02 0.82239591797E+02 0.95111520764E+02 0.10877973870E+03 0.12391968475E+03
 0.13924992526E+03 0.15203299916E+03 0.15920943873E+03 0.15788511177E+03 0.14697452069E+03
 0.12820103175E+03 0.10509558148E+03 0.81513158726E+02 0.60675342003E+02 0.44095614497E+02
 0.31694294598E+02 0.28120889224E+02 0.19870869011E+02 0.14004442549E+02 0.99696770248E+01
 0.73549936731E+01 0.58206347800E+01 0.50953292514E+01 0.49684271703E+01 0.52974944143E+01
 0.60398439067E+01 0.72421237467E+01 0.89676167207E+01 0.11245244234E+02 0.14088549203E+02
 0.17504920570E+02 0.21426796814E+02 0.25644138080E+02 0.29837870546E+02 0.33365917238E+02
 0.35081724395E+02 0.33888182842E+02 0.29140867586E+02 0.21033020950E+02 0.10732432764E+02
 0.13668844000E+00 -.85632025150E+01 -.13251502210E+02 -.12210801072E+02 -.45955189579E+01
 0.90287297178E+01 0.26570853369E+02 0.45133917263E+02 0.62335031193E+02 0.77404147306E+02
 0.91311263766E+02 0.10584743589E+03 0.12226497866E+03 0.14007286416E+03 0.15680845971E+03
 0.16933583866E+03 0.17389857876E+03 0.16772158562E+03 0.15105025196E+03 0.12729855623E+03
 0.10094947481E+03 0.76032711829E+02 0.55334361688E+02 0.39588911524E+02 0.33960699445E+02
 0.23972005256E+02 0.16844984302E+02 0.11841778995E+02 0.84767376030E+01 0.63789067965E+01
 0.52363583281E+01 0.47907136107E+01 0.48516271295E+01 0.53238828879E+01 0.62089011389E+01
 0.75571180018E+01 0.94194009460E+01 0.11846158386E+02 0.14894075586E+02 0.18575835127E+02
 0.22785305229E+02 0.27290841670E+02 0.31760896953E+02 0.35383841193E+02 0.37028964326E+02
 0.35760188616E+02 0.31186357685E+02 0.23703405504E+02 0.14495751510E+02 0.53313006356E+01
 -.17159739877E+01 -.45955189556E+01 -.17691232619E+01 0.71691669788E+01 0.21095961178E+02
 0.37643598572E+02 0.54247189636E+02 0.69412935002E+02 0.83372610414E+02 0.97652188196E+02
 0.11383554978E+03 0.13223839403E+03 0.15105370982E+03 0.16737963838E+03 0.17750447314E+03
 0.17751633730E+03 0.16576515523E+03 0.14429722752E+03 0.11774460532E+03 0.90651264632E+02
 0.66740403317E+02 0.47872011569E+02 0.39587437710E+02 0.28025446096E+02 0.19729755948E+02
 0.13824625953E+02 0.97455542660E+01 0.70898622487E+01 0.55182799806E+01 0.47464986304E+01
 0.45570019863E+01 0.48082528716E+01 0.54449228069E+01 0.64893985144E+01 0.80074584786E+01
 0.10080103653E+02 0.12796547991E+02 0.16231614472E+02 0.20384704023E+02 0.25128776850E+02
 0.30225874571E+02 0.35287400369E+02 0.39409376360E+02 0.41551755612E+02 0.40921593610E+02
 0.37229922987E+02 0.30855420447E+02 0.22865792898E+02 0.14916588375E+02 0.90287297235E+01
 0.71691669822E+01 0.10615761404E+02 0.19346237178E+02 0.31905349567E+02 0.46042179228E+02
 0.59873866900E+02 0.72857082673E+02 0.85900384153E+02 0.10053642933E+03 0.11767477293E+03
 0.13642813378E+03 0.15426291467E+03 0.16800065884E+03 0.17368327665E+03 0.16830324743E+03
 0.15198889831E+03 0.12822574828E+03 0.10167339755E+03 0.76471930348E+02 0.55512396526E+02
 0.44212739344E+02 0.31566245849E+02 0.22365555206E+02 0.15729489998E+02 0.11042739078E+02
 0.78804362484E+01 0.58992781480E+01 0.48108564889E+01 0.43827775944E+01 0.44389161045E+01
 0.48778930791E+01 0.56916051488E+01 0.69452440838E+01 0.87362047620E+01 0.11177561682E+02
 0.14392565120E+02 0.18468032862E+02 0.23378824062E+02 0.28960458548E+02 0.34953894924E+02
 0.40913410841E+02 0.45916254937E+02 0.48969882064E+02 0.49306293172E+02 0.46604220287E+02
 0.41152108293E+02 0.33929852564E+02 0.26570853379E+02 0.21095961186E+02 0.19346237182E+02
 0.22275191638E+02 0.29509969194E+02 0.39554140146E+02 0.50618957718E+02 0.61615189648E+02
 0.72683032991E+02 0.84917172377E+02 0.99444908779E+02 0.11619805312E+03 0.13344633877E+03
 0.14834873590E+03 0.15764271825E+03 0.15806626368E+03 0.14822942538E+03 0.12979677804E+03
 0.10651724360E+03 0.82486665076E+02 0.61169451739E+02 0.46994861021E+02 0.34071106958E+02
 0.24422951598E+02 0.17335438383E+02 0.12217425684E+02 0.86531770983E+01 0.63225417205E+01
 0.49513224321E+01 0.43007400294E+01 0.41750405817E+01 0.44479868440E+01 0.50873929236E+01
 0.61444190597E+01 0.77195972832E+01 0.99458946232E+01 0.12983333559E+02 0.16979276223E+02
 0.21993671344E+02 0.27951207594E+02 0.34655324385E+02 0.41817864191E+02 0.48913859597E+02
 0.54958227196E+02 0.58908177597E+02 0.59938933069E+02 0.57673135181E+02 0.52387400666E+02
 0.45133917276E+02 0.37643598583E+02 0.31905349575E+02 0.29509969198E+02 0.31069127513E+02
 0.36057297501E+02 0.43214307966E+02 0.51316890704E+02 0.59881322399E+02 0.69360298499E+02
 0.80680052386E+02 0.94213994407E+02 0.10907937244E+03 0.12323601745E+03 0.13387157999E+03
 0.13818427873E+03 0.13422131194E+03 0.12206573886E+03 0.10395107391E+03 0.83324624713E+02
 0.63615668077E+02 0.47330594129E+02 0.35093056259E+02 0.25596179501E+02 0.18424123036E+02
 0.13111287343E+02 0.93009106297E+01 0.67197593136E+01 0.51232076241E+01 0.42794579812E+01
 0.39890441174E+01 0.41172628505E+01 0.46159954390E+01 0.55202433154E+01 0.69290274278E+01
 0.89906554692E+01 0.11889079752E+02 0.15808735542E+02 0.20877162762E+02 0.27116363509E+02
 0.34422831427E+02 0.42556949744E+02 0.51114397425E+02 0.59398348912E+02 0.66268880081E+02
 0.70555506292E+02 0.71388543550E+02 0.68481507727E+02 0.62335031206E+02 0.54247189649E+02
 0.46042179239E+02 0.39554140154E+02 0.36057297505E+02 0.35906058201E+02 0.38579683579E+02
 0.43132961706E+02 0.48819460841E+02 0.55518424322E+02 0.63682713882E+02 0.73679568078E+02
 0.85188444131E+02 0.97041491848E+02 0.10725305710E+03 0.11344911506E+03 0.11363628189E+03
 0.10705038523E+03 0.94632383588E+02 0.78750789926E+02 0.62240593885E+02 0.45110458939E+02
 0.34413747657E+02 0.25680594744E+02 0.18827362898E+02 0.13591459797E+02 0.97243347268E+01
 0.70188572821E+01 0.52743137108E+01 0.42837000655E+01 0.38578443848E+01 0.38614706241E+01
 0.42373444678E+01 0.50110067339E+01 0.62818737210E+01 0.82085728845E+01 0.10988769664E+02
 0.14829419639E+02 0.19910321186E+02 0.26348938284E+02 0.34163070381E+02 0.43214104404E+02
 0.53126188391E+02 0.63215070753E+02 0.72453061191E+02 0.79457185927E+02 0.82957617037E+02
 0.82239591806E+02 0.77404147317E+02 0.69412935014E+02 0.59873866911E+02 0.50618957726E+02
 0.43214307972E+02 0.38579683581E+02 0.36863019135E+02 0.37619710593E+02 0.40210712884E+02