unknown system                          
   1.00000000000000     
     2.573869    0.000000    0.000000
     1.286934    2.229036    0.000000
     0.000000    0.000000   30.304665
   Cu   H 
     4     1
Direct
  0.000000  0.000000  0.395979
  0.333333  0.333333  0.465326
  0.666667  0.666667  0.534674
  0.000000  0.000000  0.604021
  0.333333  0.333333  0.637020
 
   20   20  240
 -.78510E-02 -.73298E-02 -.57716E-02 -.34883E-02 -.10719E-02 0.77515E-03 0.14517E-02 0.71044E-03 -.10857E-02 -.29627E-02
 -.38008E-02 -.30398E-02 -.10856E-02 0.91675E-03 0.17891E-02 0.10107E-02 -.10722E-02 -.36130E-02 -.58361E-02 -.73136E-02
 -.73298E-02 -.62732E-02 -.41339E-02 -.17382E-02 0.94731E-04 0.83204E-03 0.62592E-04 -.21874E-02 -.48879E-02 -.64316E-02
 -.59361E-02 -.38557E-02 -.13667E-02 0.41792E-03 0.77039E-03 -.40899E-03 -.24651E-02 -.45006E-02 -.60800E-02 -.71261E-02
 -.57716E-02 -.41339E-02 -.19683E-02 -.42769E-03 -.18361E-03 -.16482E-02 -.50903E-02 -.97495E-02 -.13540E-01 -.14560E-01
 -.12645E-01 -.90229E-02 -.50766E-02 -.19467E-02 -.53474E-03 -.97163E-03 -.24178E-02 -.39521E-02 -.52541E-02 -.60691E-02
 -.34883E-02 -.17382E-02 -.42769E-03 -.61687E-03 -.28798E-02 -.77450E-02 -.14997E-01 -.22495E-01 -.27038E-01 -.26839E-01
 -.22482E-01 -.15729E-01 -.85161E-02 -.28640E-02 -.20951E-03 -.29940E-03 -.16111E-02 -.29833E-02 -.40554E-02 -.43945E-02
 -.10719E-02 0.94731E-04 -.18361E-03 -.28798E-02 -.87848E-02 -.18305E-01 -.29839E-01 -.39360E-01 -.42952E-01 -.39532E-01
 -.30747E-01 -.19416E-01 -.87866E-02 -.17967E-02 0.62032E-03 0.10778E-03 -.10773E-02 -.19943E-02 -.25267E-02 -.22685E-02
 0.77515E-03 0.83204E-03 -.16482E-02 -.77450E-02 -.18305E-01 -.32663E-01 -.46997E-01 -.55768E-01 -.55574E-01 -.46992E-01
 -.33230E-01 -.18449E-01 -.68181E-02 -.78367E-03 0.52488E-03 0.68557E-05 -.45919E-03 -.77768E-03 -.90980E-03 -.30111E-03
 0.14517E-02 0.62592E-04 -.50903E-02 -.14997E-01 -.29839E-01 -.46997E-01 -.60654E-01 -.65345E-01 -.59722E-01 -.46441E-01
 -.29863E-01 -.14667E-01 -.46209E-02 -.49462E-03 0.17844E-03 0.12828E-03 -.29504E-05 -.42215E-03 -.41835E-03 0.59347E-03
 0.71044E-03 -.21874E-02 -.97495E-02 -.22495E-01 -.39360E-01 -.55768E-01 -.65345E-01 -.64559E-01 -.54614E-01 -.39284E-01
 -.22877E-01 -.96865E-02 -.24199E-02 -.31548E-03 -.46932E-03 -.11459E-02 -.22157E-02 -.29655E-02 -.20763E-02 -.89541E-05
 -.10857E-02 -.48879E-02 -.13540E-01 -.27038E-01 -.42952E-01 -.55574E-01 -.59722E-01 -.54614E-01 -.42953E-01 -.28158E-01
 -.13986E-01 -.43987E-02 -.10802E-02 -.21042E-02 -.45872E-02 -.72444E-02 -.92125E-02 -.87709E-02 -.54454E-02 -.17733E-02
 -.29627E-02 -.64316E-02 -.14560E-01 -.26839E-01 -.39532E-01 -.46992E-01 -.46441E-01 -.39284E-01 -.28158E-01 -.15672E-01
 -.56344E-02 -.17490E-02 -.41339E-02 -.95181E-02 -.14953E-01 -.18962E-01 -.19759E-01 -.15931E-01 -.92712E-02 -.40272E-02
 -.38008E-02 -.59361E-02 -.12645E-01 -.22482E-01 -.30747E-01 -.33230E-01 -.29863E-01 -.22877E-01 -.13986E-01 -.56344E-02
 -.20167E-02 -.55568E-02 -.13976E-01 -.23011E-01 -.30021E-01 -.33228E-01 -.30567E-01 -.22285E-01 -.12570E-01 -.59517E-02
 -.30398E-02 -.38557E-02 -.90229E-02 -.15729E-01 -.19416E-01 -.18449E-01 -.14667E-01 -.96865E-02 -.43987E-02 -.17490E-02
 -.55568E-02 -.15783E-01 -.28210E-01 -.38876E-01 -.45642E-01 -.46167E-01 -.38852E-01 -.26347E-01 -.14384E-01 -.65477E-02
 -.10856E-02 -.13667E-02 -.50766E-02 -.85161E-02 -.87866E-02 -.68181E-02 -.46209E-02 -.24199E-02 -.10802E-02 -.41339E-02
 -.13976E-01 -.28210E-01 -.42270E-01 -.53114E-01 -.58219E-01 -.54577E-01 -.42269E-01 -.26606E-01 -.13594E-01 -.52158E-02
 0.91675E-03 0.41792E-03 -.19467E-02 -.28640E-02 -.17967E-02 -.78367E-03 -.49462E-03 -.31548E-03 -.21042E-02 -.95181E-02
 -.23011E-01 -.38876E-01 -.53114E-01 -.62760E-01 -.64221E-01 -.55182E-01 -.38836E-01 -.22285E-01 -.10127E-01 -.25664E-02
 0.17891E-02 0.77039E-03 -.53474E-03 -.20951E-03 0.62032E-03 0.52488E-03 0.17844E-03 -.46932E-03 -.45872E-02 -.14953E-01
 -.30021E-01 -.45642E-01 -.58219E-01 -.64221E-01 -.60163E-01 -.46511E-01 -.29323E-01 -.15082E-01 -.56676E-02 -.13465E-03
 0.10107E-02 -.40899E-03 -.97163E-03 -.29940E-03 0.10778E-03 0.68557E-05 0.12828E-03 -.11459E-02 -.72444E-02 -.18962E-01
 -.33228E-01 -.46167E-01 -.54577E-01 -.55182E-01 -.46511E-01 -.32010E-01 -.18050E-01 -.82523E-02 -.22200E-02 0.86690E-03
 -.10722E-02 -.24651E-02 -.24178E-02 -.16111E-02 -.10773E-02 -.45919E-03 -.29504E-05 -.22157E-02 -.92125E-02 -.19759E-01
 -.30567E-01 -.38852E-01 -.42269E-01 -.38836E-01 -.29323E-01 -.18050E-01 -.92099E-02 -.36553E-02 -.53384E-03 0.21826E-03
 -.36130E-02 -.45006E-02 -.39521E-02 -.29833E-02 -.19943E-02 -.77768E-03 -.42215E-03 -.29655E-02 -.87709E-02 -.15931E-01
 -.22285E-01 -.26347E-01 -.26606E-01 -.22285E-01 -.15082E-01 -.82523E-02 -.36553E-02 -.11465E-02 -.47677E-03 -.16691E-02
 -.58361E-02 -.60800E-02 -.52541E-02 -.40554E-02 -.25267E-02 -.90980E-03 -.41835E-03 -.20763E-02 -.54454E-02 -.92712E-02
 -.12570E-01 -.14384E-01 -.13594E-01 -.10127E-01 -.56676E-02 -.22200E-02 -.53384E-03 -.47677E-03 -.18832E-02 -.41287E-02
 -.73136E-02 -.71261E-02 -.60691E-02 -.43945E-02 -.22685E-02 -.30111E-03 0.59347E-03 -.89541E-05 -.17733E-02 -.40272E-02
 -.59517E-02 -.65477E-02 -.52158E-02 -.25664E-02 -.13465E-03 0.86690E-03 0.21826E-03 -.16691E-02 -.41287E-02 -.62696E-02
 -.10140E-04 0.23526E-03 -.21266E-04 -.27420E-03 -.18451E-04 0.36635E-03 0.33725E-03 0.70456E-04 -.89484E-04 -.31363E-03
 -.69108E-03 -.70663E-03 -.88877E-04 0.52334E-03 0.50509E-03 0.15140E-03 -.20298E-04 -.12405E-03 -.35819E-03 -.38375E-03
 0.23526E-03 0.14274E-03 -.65378E-05 0.78090E-04 0.27886E-03 0.16837E-03 -.32112E-03 -.79825E-03 -.98373E-03 -.91778E-03
 -.63398E-03 -.14181E-03 0.26703E-03 0.21981E-03 -.17750E-03 -.43796E-03 -.36422E-03 -.18079E-03 -.37704E-04 0.12393E-03
 -.21266E-04 -.65378E-05 0.11946E-03 0.12083E-03 -.14099E-03 -.60087E-03 -.10537E-02 -.12692E-02 -.11351E-02 -.77982E-03
 -.50301E-03 -.50087E-03 -.68330E-03 -.79809E-03 -.67849E-03 -.33943E-03 0.72708E-04 0.35518E-03 0.36478E-03 0.15992E-03
 -.27420E-03 0.78090E-04 0.12083E-03 -.29190E-03 -.74085E-03 -.99599E-03 -.12177E-02 -.14215E-02 -.14344E-02 -.13909E-02
 -.15862E-02 -.18173E-02 -.15497E-02 -.77143E-03 -.39306E-04 0.32521E-03 0.44899E-03 0.37335E-03 0.16529E-04 -.34360E-03
 -.18451E-04 0.27886E-03 -.14099E-03 -.74085E-03 -.92455E-03 -.10743E-02 -.16937E-02 -.24012E-02 -.26694E-02 -.27003E-02
 -.26964E-02 -.21742E-02 -.92564E-03 0.20777E-03 0.44643E-03 0.15181E-03 -.22860E-04 -.16869E-03 -.47463E-03 -.49918E-03
 0.36635E-03 0.16837E-03 -.60087E-03 -.99599E-03 -.10743E-02 -.18057E-02 -.31178E-02 -.38301E-02 -.35809E-02 -.30792E-02
 -.24789E-02 -.13112E-02 -.24056E-04 0.26806E-03 -.33676E-03 -.63561E-03 -.32614E-03 -.18928E-03 -.33835E-03 -.10100E-03
 0.33725E-03 -.32112E-03 -.10537E-02 -.12177E-02 -.16937E-02 -.31178E-02 -.42990E-02 -.40566E-02 -.30957E-02 -.24881E-02
 -.18935E-02 -.86724E-03 -.26876E-03 -.68568E-03 -.10348E-02 -.38070E-03 0.38939E-03 0.27341E-03 -.68020E-04 0.18103E-03
 0.70456E-04 -.79825E-03 -.12692E-02 -.14215E-02 -.24012E-02 -.38301E-02 -.40566E-02 -.30498E-02 -.24019E-02 -.24423E-02
 -.20047E-02 -.10298E-02 -.67871E-03 -.84276E-03 -.25715E-03 0.86539E-03 0.10014E-02 0.14690E-03 -.18042E-03 0.22429E-03
 -.89484E-04 -.98373E-03 -.11351E-02 -.14344E-02 -.26694E-02 -.35809E-02 -.30957E-02 -.24019E-02 -.26695E-02 -.28242E-02
 -.17216E-02 -.40951E-03 -.85576E-04 0.74363E-04 0.92851E-03 0.13741E-02 0.50583E-03 -.35934E-03 0.13471E-04 0.52687E-03
 -.31363E-03 -.91778E-03 -.77982E-03 -.13909E-02 -.27003E-02 -.30792E-02 -.24881E-02 -.24423E-02 -.28242E-02 -.20051E-02
 -.16751E-03 0.75336E-03 0.48643E-03 0.57886E-03 0.11767E-02 0.91499E-03 -.41073E-05 0.65505E-04 0.96900E-03 0.87685E-03
 -.69108E-03 -.63398E-03 -.50301E-03 -.15862E-02 -.26964E-02 -.24789E-02 -.18935E-02 -.20047E-02 -.17216E-02 -.16751E-03
 0.11116E-02 0.76205E-03 0.99862E-04 0.59538E-03 0.12664E-02 0.93420E-03 0.62722E-03 0.13107E-02 0.16546E-02 0.52298E-03
 -.70663E-03 -.14181E-03 -.50087E-03 -.18173E-02 -.21742E-02 -.13112E-02 -.86724E-03 -.10298E-02 -.40951E-03 0.75336E-03
 0.76205E-03 -.12177E-03 0.99054E-04 0.14781E-02 0.20798E-02 0.15861E-02 0.15119E-02 0.18780E-02 0.11847E-02 -.29466E-03
 -.88877E-04 0.26703E-03 -.68330E-03 -.15497E-02 -.92564E-03 -.24056E-04 -.26876E-03 -.67871E-03 -.85576E-04 0.48643E-03
 0.99862E-04 0.99054E-04 0.15433E-02 0.28557E-02 0.24938E-02 0.15896E-02 0.15456E-02 0.14577E-02 0.34976E-03 -.52295E-03
 0.52334E-03 0.21981E-03 -.79809E-03 -.77143E-03 0.20777E-03 0.26806E-03 -.68568E-03 -.84276E-03 0.74363E-04 0.57886E-03
 0.59538E-03 0.14781E-02 0.28557E-02 0.28649E-02 0.16035E-02 0.10294E-02 0.14017E-02 0.11329E-02 0.14121E-03 -.38722E-04
 0.50509E-03 -.17750E-03 -.67849E-03 -.39306E-04 0.44643E-03 -.33676E-03 -.10348E-02 -.25715E-03 0.92851E-03 0.11767E-02
 0.12664E-02 0.20798E-02 0.24938E-02 0.16035E-02 0.79059E-03 0.12705E-02 0.17972E-02 0.10659E-02 0.14678E-03 0.27594E-03
 0.15140E-03 -.43796E-03 -.33943E-03 0.32521E-03 0.15181E-03 -.63561E-03 -.38070E-03 0.86539E-03 0.13741E-02 0.91499E-03
 0.93420E-03 0.15861E-02 0.15896E-02 0.10294E-02 0.12705E-02 0.20618E-02 0.17439E-02 0.39220E-03 -.22259E-03 0.17128E-03
 -.20298E-04 -.36422E-03 0.72708E-04 0.44899E-03 -.22860E-04 -.32614E-03 0.38939E-03 0.10014E-02 0.50583E-03 -.41073E-05
 0.62722E-03 0.15119E-02 0.15456E-02 0.14017E-02 0.17972E-02 0.17439E-02 0.50931E-03 -.59685E-03 -.36991E-03 0.21753E-03
 -.12405E-03 -.18079E-03 0.35518E-03 0.37335E-03 -.16869E-03 -.18928E-03 0.27341E-03 0.14690E-03 -.35934E-03 0.65505E-04
 0.13107E-02 0.18780E-02 0.14577E-02 0.11329E-02 0.10659E-02 0.39220E-03 -.59685E-03 -.61985E-03 0.18780E-03 0.40274E-03
 -.35819E-03 -.37704E-04 0.36478E-03 0.16529E-04 -.47463E-03 -.33835E-03 -.68020E-04 -.18042E-03 0.13471E-04 0.96900E-03
 0.16546E-02 0.11847E-02 0.34976E-03 0.14121E-03 0.14678E-03 -.22259E-03 -.36991E-03 0.18780E-03 0.58504E-03 0.12350E-03
 -.38375E-03 0.12393E-03 0.15992E-03 -.34360E-03 -.49918E-03 -.10100E-03 0.18103E-03 0.22429E-03 0.52687E-03 0.87685E-03
 0.52298E-03 -.29466E-03 -.52295E-03 -.38722E-04 0.27594E-03 0.17128E-03 0.21753E-03 0.40274E-03 0.12350E-03 -.41924E-03
 0.77984E-02 0.77610E-02 0.56786E-02 0.28927E-02 0.10145E-02 -.21824E-04 -.71936E-03 -.49223E-03 0.98515E-03 0.24070E-02
 0.24868E-02 0.16986E-02 0.98565E-03 0.20485E-03 -.72344E-03 -.68778E-03 0.10120E-02 0.33189E-02 0.50701E-02 0.65071E-02
 0.77610E-02 0.64561E-02 0.39505E-02 0.17263E-02 0.41010E-03 -.32787E-03 -.26033E-03 0.13066E-02 0.38470E-02 0.56373E-02
 0.57101E-02 0.44998E-02 0.26172E-02 0.46688E-03 -.95720E-03 -.51995E-03 0.15671E-02 0.39674E-02 0.59019E-02 0.73348E-02
 0.56786E-02 0.39505E-02 0.19714E-02 0.53532E-03 0.84512E-04 0.11250E-02 0.42353E-02 0.89908E-02 0.13418E-01 0.15281E-01
 0.13789E-01 0.98020E-02 0.49628E-02 0.10305E-02 -.63711E-03 0.15926E-03 0.23256E-02 0.44903E-02 0.59326E-02 0.63951E-02
 0.28927E-02 0.17263E-02 0.53532E-03 0.21151E-03 0.21942E-02 0.73860E-02 0.15080E-01 0.22908E-01 0.27844E-01 0.27732E-01
 0.22566E-01 0.14612E-01 0.70485E-02 0.21185E-02 0.31076E-03 0.81533E-03 0.23404E-02 0.36842E-02 0.41596E-02 0.37773E-02
 0.10145E-02 0.41010E-03 0.84512E-04 0.21942E-02 0.87081E-02 0.19115E-01 0.30555E-01 0.39489E-01 0.42848E-01 0.39063E-01
 0.29456E-01 0.18024E-01 0.87074E-02 0.30085E-02 0.45340E-03 0.14114E-03 0.10138E-02 0.17688E-02 0.17511E-02 0.13774E-02
 -.21824E-04 -.32787E-03 0.11250E-02 0.73860E-02 0.19115E-01 0.33473E-01 0.46448E-01 0.54531E-01 0.54837E-01 0.46522E-01
 0.32692E-01 0.18784E-01 0.84041E-02 0.19989E-02 -.10334E-02 -.12591E-02 -.11775E-03 0.55603E-03 0.38816E-03 0.17242E-03
 -.71936E-03 -.26033E-03 0.42353E-02 0.15080E-01 0.30555E-01 0.46448E-01 0.58925E-01 0.64542E-01 0.60403E-01 0.47153E-01
 0.30176E-01 0.15451E-01 0.53396E-02 -.42978E-03 -.21921E-02 -.94354E-03 0.74009E-03 0.94501E-03 0.24139E-03 -.28265E-03
 -.49223E-03 0.13066E-02 0.89908E-02 0.22908E-01 0.39489E-01 0.54531E-01 0.64542E-01 0.65772E-01 0.56236E-01 0.39330E-01
 0.22122E-01 0.94082E-02 0.17809E-02 -.12927E-02 -.29500E-03 0.24821E-02 0.37704E-02 0.28103E-02 0.13205E-02 0.20893E-03
 0.98515E-03 0.38470E-02 0.13418E-01 0.27844E-01 0.42848E-01 0.54837E-01 0.60403E-01 0.56236E-01 0.42849E-01 0.26182E-01
 0.12691E-01 0.45067E-02 0.98569E-03 0.17802E-02 0.56222E-02 0.89626E-02 0.91206E-02 0.70186E-02 0.46486E-02 0.23565E-02
 0.24070E-02 0.56373E-02 0.15281E-01 0.27732E-01 0.39063E-01 0.46522E-01 0.47153E-01 0.39330E-01 0.26182E-01 0.13943E-01
 0.63421E-02 0.33270E-02 0.44455E-02 0.94537E-02 0.15672E-01 0.18928E-01 0.17886E-01 0.14426E-01 0.99885E-02 0.51223E-02
 0.24868E-02 0.57101E-02 0.13789E-01 0.22566E-01 0.29456E-01 0.32692E-01 0.30176E-01 0.22122E-01 0.12691E-01 0.63421E-02
 0.43100E-02 0.63169E-02 0.12680E-01 0.22084E-01 0.29999E-01 0.32382E-01 0.29267E-01 0.22790E-01 0.14384E-01 0.62326E-02
 0.16986E-02 0.44998E-02 0.98020E-02 0.14612E-01 0.18024E-01 0.18784E-01 0.15451E-01 0.94082E-02 0.45067E-02 0.33270E-02
 0.63169E-02 0.13949E-01 0.26030E-01 0.38808E-01 0.46408E-01 0.45946E-01 0.38851E-01 0.27723E-01 0.15161E-01 0.51937E-02
 0.98565E-03 0.26172E-02 0.49628E-02 0.70485E-02 0.87074E-02 0.84041E-02 0.53396E-02 0.17809E-02 0.98569E-03 0.44455E-02
 0.12680E-01 0.26030E-01 0.42169E-01 0.55061E-01 0.59234E-01 0.53992E-01 0.42171E-01 0.27142E-01 0.12798E-01 0.35112E-02
 0.20485E-03 0.46688E-03 0.10305E-02 0.21185E-02 0.30085E-02 0.19989E-02 -.42978E-03 -.12927E-02 0.17802E-02 0.94537E-02
 0.22084E-01 0.38808E-01 0.55061E-01 0.64312E-01 0.63250E-01 0.53479E-01 0.38616E-01 0.22435E-01 0.91890E-02 0.20165E-02
 -.72344E-03 -.95720E-03 -.63711E-03 0.31076E-03 0.45340E-03 -.10334E-02 -.21921E-02 -.29500E-03 0.56222E-02 0.15672E-01
 0.29999E-01 0.46408E-01 0.59234E-01 0.63250E-01 0.57774E-01 0.45659E-01 0.30362E-01 0.15579E-01 0.51390E-02 0.43526E-03
 -.68778E-03 -.51995E-03 0.15926E-03 0.81533E-03 0.14114E-03 -.12591E-02 -.94354E-03 0.24821E-02 0.89626E-02 0.18928E-01
 0.32382E-01 0.45946E-01 0.53992E-01 0.53479E-01 0.45659E-01 0.33416E-01 0.19670E-01 0.80058E-02 0.13819E-02 -.57668E-03
 0.10120E-02 0.15671E-02 0.23256E-02 0.23404E-02 0.10138E-02 -.11775E-03 0.74009E-03 0.37704E-02 0.91206E-02 0.17886E-01
 0.29267E-01 0.38851E-01 0.42171E-01 0.38616E-01 0.30362E-01 0.19670E-01 0.91241E-02 0.20151E-02 -.24622E-03 0.29120E-03
 0.33189E-02 0.39674E-02 0.44903E-02 0.36842E-02 0.17688E-02 0.55603E-03 0.94501E-03 0.28103E-02 0.70186E-02 0.14426E-01
 0.22790E-01 0.27723E-01 0.27142E-01 0.22435E-01 0.15579E-01 0.80058E-02 0.20151E-02 -.11754E-03 0.10059E-02 0.25837E-02
 0.50701E-02 0.59019E-02 0.59326E-02 0.41596E-02 0.17511E-02 0.38816E-03 0.24139E-03 0.13205E-02 0.46486E-02 0.99885E-02
 0.14384E-01 0.15161E-01 0.12798E-01 0.91890E-02 0.51390E-02 0.13819E-02 -.24622E-03 0.10059E-02 0.32251E-02 0.44471E-02
 0.65071E-02 0.73348E-02 0.63951E-02 0.37773E-02 0.13774E-02 0.17242E-03 -.28265E-03 0.20893E-03 0.23565E-02 0.51223E-02
 0.62326E-02 0.51937E-02 0.35112E-02 0.20165E-02 0.43526E-03 -.57668E-03 0.29120E-03 0.25837E-02 0.44471E-02 0.54379E-02
 -.17966E-03 0.71014E-03 0.11613E-03 -.64857E-03 -.74709E-04 0.80601E-03 0.54494E-03 -.95574E-04 0.19404E-04 0.12723E-03
 -.56030E-03 -.89603E-03 0.19443E-04 0.84390E-03 0.36700E-03 -.31146E-03 -.76841E-04 0.54810E-04 -.76337E-03 -.11784E-02
 0.71014E-03 0.44627E-03 -.48295E-03 -.47799E-03 0.43028E-03 0.63188E-03 -.12535E-03 -.42747E-03 0.12100E-03 0.44350E-03
 0.30591E-03 0.58567E-03 0.11281E-02 0.78623E-03 -.28247E-03 -.71309E-03 -.35307E-03 -.27399E-03 -.48118E-03 -.30652E-04
 0.11613E-03 -.48295E-03 -.69085E-03 -.14732E-03 0.29667E-03 0.42379E-04 -.12208E-03 0.60502E-03 0.16192E-02 0.19555E-02
 0.17300E-02 0.14602E-02 0.96287E-03 0.50761E-04 -.60888E-03 -.43909E-03 0.64378E-04 0.23525E-03 0.23864E-03 0.32635E-03
 -.64857E-03 -.47799E-03 -.14732E-03 0.81816E-04 0.23023E-03 0.65827E-03 0.15882E-02 0.26654E-02 0.32223E-02 0.29556E-02
 0.21461E-02 0.12523E-02 0.53829E-03 0.11097E-03 0.28152E-04 0.20748E-03 0.37904E-03 0.28761E-03 -.77030E-04 -.48204E-03
 -.74709E-04 0.43028E-03 0.29667E-03 0.23023E-03 0.10682E-02 0.24218E-02 0.33658E-02 0.37030E-02 0.36655E-02 0.31503E-02
 0.21694E-02 0.13398E-02 0.10688E-02 0.91136E-03 0.44623E-03 0.17702E-04 -.72028E-04 -.21710E-03 -.61655E-03 -.67024E-03
 0.80601E-03 0.63188E-03 0.42379E-04 0.65827E-03 0.24218E-02 0.36081E-02 0.36969E-02 0.37919E-02 0.41541E-02 0.38055E-02
 0.27177E-02 0.19952E-02 0.17229E-02 0.92156E-03 -.27522E-03 -.66821E-03 -.23652E-03 -.94412E-04 -.28119E-03 0.11919E-03
 0.54494E-03 -.12535E-03 -.12208E-03 0.15882E-02 0.33658E-02 0.36969E-02 0.37459E-02 0.47764E-02 0.55001E-02 0.44762E-02
 0.28067E-02 0.19791E-02 0.13023E-02 -.99061E-04 -.10288E-02 -.39898E-03 0.52144E-03 0.36281E-03 -.18823E-04 0.36129E-03
 -.95574E-04 -.42747E-03 0.60502E-03 0.26654E-02 0.37030E-02 0.37919E-02 0.47764E-02 0.62305E-02 0.57746E-02 0.34256E-02
 0.16759E-02 0.12010E-02 0.40281E-03 -.78262E-03 -.64405E-03 0.60306E-03 0.79941E-03 -.26714E-03 -.67590E-03 -.11861E-03
 0.19404E-04 0.12100E-03 0.16192E-02 0.32223E-02 0.36655E-02 0.41541E-02 0.55001E-02 0.57746E-02 0.36685E-02 0.12898E-02
 0.75349E-03 0.86684E-03 0.16684E-04 -.65499E-03 0.83093E-04 0.67570E-03 -.36165E-03 -.14798E-02 -.94960E-03 0.45130E-04
 0.12723E-03 0.44350E-03 0.19555E-02 0.29556E-02 0.31503E-02 0.38055E-02 0.44762E-02 0.34256E-02 0.12898E-02 0.50322E-03
 0.11026E-02 0.89989E-03 -.30480E-03 -.60995E-03 0.14189E-04 -.32140E-03 -.14873E-02 -.13667E-02 0.70877E-04 0.65935E-03
 -.56030E-03 0.30591E-03 0.17300E-02 0.21461E-02 0.21694E-02 0.27177E-02 0.28067E-02 0.16759E-02 0.75349E-03 0.11026E-02
 0.12826E-02 0.84926E-04 -.10713E-02 -.81538E-03 -.34466E-03 -.87392E-03 -.11676E-02 -.11893E-03 0.78240E-03 0.15585E-03
 -.89603E-03 0.58567E-03 0.14602E-02 0.12523E-02 0.13398E-02 0.19952E-02 0.19791E-02 0.12010E-02 0.86684E-03 0.89989E-03
 0.84926E-04 -.12140E-02 -.13672E-02 -.47775E-03 -.18976E-03 -.62007E-03 -.42470E-03 0.23742E-03 -.97994E-04 -.11045E-02
 0.19443E-04 0.11281E-02 0.96287E-03 0.53829E-03 0.10688E-02 0.17229E-02 0.13023E-02 0.40281E-03 0.16684E-04 -.30480E-03
 -.10713E-02 -.13672E-02 -.55965E-03 0.19337E-03 -.12884E-03 -.67867E-03 -.55792E-03 -.50424E-03 -.10851E-02 -.11632E-02
 0.84390E-03 0.78623E-03 0.50761E-04 0.11097E-03 0.91136E-03 0.92156E-03 -.99061E-04 -.78262E-03 -.65499E-03 -.60995E-03
 -.81538E-03 -.47775E-03 0.19337E-03 0.56288E-04 -.80478E-03 -.11439E-02 -.78430E-03 -.65082E-03 -.70027E-03 -.69385E-04
 0.36700E-03 -.28247E-03 -.60888E-03 0.28152E-04 0.44623E-03 -.27522E-03 -.10288E-02 -.64405E-03 0.83093E-04 0.14189E-04
 -.34466E-03 -.18976E-03 -.12884E-03 -.80478E-03 -.13445E-02 -.87739E-03 -.14915E-03 -.60522E-04 -.10042E-03 0.28297E-03
 -.31146E-03 -.71309E-03 -.43909E-03 0.20748E-03 0.17702E-04 -.66821E-03 -.39898E-03 0.60306E-03 0.67570E-03 -.32140E-03
 -.87392E-03 -.62007E-03 -.67867E-03 -.11439E-02 -.87739E-03 0.65605E-04 0.33102E-03 -.25646E-03 -.50795E-03 -.21603E-03
 -.76841E-04 -.35307E-03 0.64378E-04 0.37904E-03 -.72028E-04 -.23652E-03 0.52144E-03 0.79941E-03 -.36165E-03 -.14873E-02
 -.11676E-02 -.42470E-03 -.55792E-03 -.78430E-03 -.14915E-03 0.33102E-03 -.36015E-03 -.11125E-02 -.69065E-03 0.38706E-04
 0.54810E-04 -.27399E-03 0.23525E-03 0.28761E-03 -.21710E-03 -.94412E-04 0.36281E-03 -.26714E-03 -.14798E-02 -.13667E-02
 -.11893E-03 0.23742E-03 -.50424E-03 -.65082E-03 -.60522E-04 -.25646E-03 -.11125E-02 -.86891E-03 0.42676E-03 0.83996E-03
 -.76337E-03 -.48118E-03 0.23864E-03 -.77030E-04 -.61655E-03 -.28119E-03 -.18823E-04 -.67590E-03 -.94960E-03 0.70877E-04
 0.78240E-03 -.97994E-04 -.10851E-02 -.70027E-03 -.10042E-03 -.50795E-03 -.69065E-03 0.42676E-03 0.12691E-02 0.38950E-03
 -.11784E-02 -.30652E-04 0.32635E-03 -.48204E-03 -.67024E-03 0.11919E-03 0.36129E-03 -.11861E-03 0.45130E-04 0.65935E-03
 0.15585E-03 -.11045E-02 -.11632E-02 -.69385E-04 0.28297E-03 -.21603E-03 0.38706E-04 0.83996E-03 0.38950E-03 -.10093E-02
 -.79067E-02 -.61057E-02 -.52559E-02 -.40559E-02 -.10802E-02 0.16775E-02 0.18104E-02 0.24245E-03 -.10806E-02 -.23542E-02
 -.38368E-02 -.36927E-02 -.10805E-02 0.14254E-02 0.14589E-02 0.10806E-03 -.10817E-02 -.30747E-02 -.64071E-02 -.86304E-02
 -.61057E-02 -.53062E-02 -.46456E-02 -.24488E-02 0.55884E-03 0.14679E-02 -.44174E-03 -.29846E-02 -.47582E-02 -.60991E-02
 -.64469E-02 -.44812E-02 -.11840E-02 0.65289E-03 0.26640E-03 -.79820E-03 -.20378E-02 -.42430E-02 -.66076E-02 -.71620E-02
 -.52559E-02 -.46456E-02 -.30503E-02 -.64835E-03 0.33959E-03 -.18007E-02 -.59940E-02 -.10054E-01 -.13019E-01 -.14421E-01
 -.13169E-01 -.91540E-02 -.45508E-02 -.16905E-02 -.75239E-03 -.85672E-03 -.18923E-02 -.37467E-02 -.52640E-02 -.55906E-02
 -.40559E-02 -.24488E-02 -.64835E-03 -.22511E-03 -.26651E-02 -.81083E-02 -.15208E-01 -.22000E-01 -.26482E-01 -.26904E-01
 -.22697E-01 -.15411E-01 -.80090E-02 -.28283E-02 -.43311E-03 -.21857E-03 -.13475E-02 -.29742E-02 -.42767E-02 -.47045E-02
 -.10802E-02 0.55884E-03 0.33959E-03 -.26651E-02 -.88070E-02 -.18201E-01 -.29481E-01 -.39040E-01 -.42959E-01 -.39721E-01
 -.30775E-01 -.19274E-01 -.88042E-02 -.21168E-02 0.27136E-03 0.36472E-05 -.10764E-02 -.22433E-02 -.30823E-02 -.27547E-02
 0.16775E-02 0.14679E-02 -.18007E-02 -.81083E-02 -.18201E-01 -.32383E-01 -.47148E-01 -.56209E-01 -.55791E-01 -.47005E-01
 -.33382E-01 -.18723E-01 -.69980E-02 -.91626E-03 0.36046E-03 -.34431E-04 -.37761E-03 -.85471E-03 -.10580E-02 0.47407E-04
 0.18104E-02 -.44174E-03 -.59940E-02 -.15208E-01 -.29481E-01 -.47148E-01 -.61381E-01 -.65633E-01 -.59352E-01 -.46294E-01
 -.30218E-01 -.14798E-01 -.42524E-02 -.22154E-03 0.13639E-03 0.23528E-03 0.34606E-03 -.20756E-03 -.23554E-03 0.10941E-02
 0.24245E-03 -.29846E-02 -.10054E-01 -.22000E-01 -.39040E-01 -.56209E-01 -.65633E-01 -.63957E-01 -.53951E-01 -.39435E-01
 -.23191E-01 -.92797E-02 -.18001E-02 -.33068E-03 -.75598E-03 -.97663E-03 -.18781E-02 -.30516E-02 -.23748E-02 -.21142E-03
 -.10806E-02 -.47582E-02 -.13019E-01 -.26482E-01 -.42959E-01 -.55791E-01 -.59352E-01 -.53951E-01 -.42955E-01 -.28685E-01
 -.14023E-01 -.39258E-02 -.10848E-02 -.27285E-02 -.49045E-02 -.70009E-02 -.92205E-02 -.93670E-02 -.59970E-02 -.19069E-02
 -.23542E-02 -.60991E-02 -.14421E-01 -.26904E-01 -.39721E-01 -.47005E-01 -.46294E-01 -.39435E-01 -.28685E-01 -.15986E-01
 -.54866E-02 -.17288E-02 -.46218E-02 -.99480E-02 -.14800E-01 -.18685E-01 -.19972E-01 -.16313E-01 -.91212E-02 -.33716E-02
 -.38368E-02 -.64469E-02 -.13169E-01 -.22697E-01 -.30775E-01 -.33382E-01 -.30218E-01 -.23191E-01 -.14023E-01 -.54866E-02
 -.19761E-02 -.56901E-02 -.14015E-01 -.22760E-01 -.29680E-01 -.33109E-01 -.30593E-01 -.22071E-01 -.12011E-01 -.54626E-02
 -.36927E-02 -.44812E-02 -.91540E-02 -.15411E-01 -.19274E-01 -.18723E-01 -.14798E-01 -.92797E-02 -.39258E-02 -.17288E-02
 -.56901E-02 -.15550E-01 -.27782E-01 -.38744E-01 -.45773E-01 -.46172E-01 -.38682E-01 -.26265E-01 -.14529E-01 -.69454E-02
 -.10805E-02 -.11840E-02 -.45508E-02 -.80090E-02 -.88042E-02 -.69980E-02 -.42524E-02 -.18001E-02 -.10848E-02 -.46218E-02
 -.14015E-01 -.27782E-01 -.42280E-01 -.53709E-01 -.58552E-01 -.54386E-01 -.42281E-01 -.27168E-01 -.14162E-01 -.54068E-02
 0.14254E-02 0.65289E-03 -.16905E-02 -.28283E-02 -.21168E-02 -.91626E-03 -.22154E-03 -.33068E-03 -.27285E-02 -.99480E-02
 -.22760E-01 -.38744E-01 -.53709E-01 -.63302E-01 -.63964E-01 -.54803E-01 -.39167E-01 -.22782E-01 -.98652E-02 -.17944E-02
 0.14589E-02 0.26640E-03 -.75239E-03 -.43311E-03 0.27136E-03 0.36046E-03 0.13639E-03 -.75598E-03 -.49045E-02 -.14800E-01
 -.29680E-01 -.45773E-01 -.58552E-01 -.63964E-01 -.59524E-01 -.46398E-01 -.29650E-01 -.14855E-01 -.47882E-02 0.36836E-03
 0.10806E-03 -.79820E-03 -.85672E-03 -.21857E-03 0.36472E-05 -.34431E-04 0.23528E-03 -.97663E-03 -.70009E-02 -.18685E-01
 -.33109E-01 -.46172E-01 -.54386E-01 -.54803E-01 -.46398E-01 -.32262E-01 -.18119E-01 -.79088E-02 -.20995E-02 0.23473E-03
 -.10817E-02 -.20378E-02 -.18923E-02 -.13475E-02 -.10764E-02 -.37761E-03 0.34606E-03 -.18781E-02 -.92205E-02 -.19972E-01
 -.30593E-01 -.38682E-01 -.42281E-01 -.39167E-01 -.29650E-01 -.18119E-01 -.92222E-02 -.39490E-02 -.10918E-02 -.23326E-03
 -.30747E-02 -.42430E-02 -.37467E-02 -.29742E-02 -.22433E-02 -.85471E-03 -.20756E-03 -.30516E-02 -.93670E-02 -.16313E-01
 -.22071E-01 -.26265E-01 -.27168E-01 -.22782E-01 -.14855E-01 -.79088E-02 -.39490E-02 -.16088E-02 -.26001E-03 -.94197E-03
 -.64071E-02 -.66076E-02 -.52640E-02 -.42767E-02 -.30823E-02 -.10580E-02 -.23554E-03 -.23748E-02 -.59970E-02 -.91212E-02
 -.12011E-01 -.14529E-01 -.14162E-01 -.98652E-02 -.47882E-02 -.20995E-02 -.10918E-02 -.26001E-03 -.78500E-03 -.36322E-02
 -.86304E-02 -.71620E-02 -.55906E-02 -.47045E-02 -.27547E-02 0.47407E-04 0.10941E-02 -.21142E-03 -.19069E-02 -.33716E-02
 -.54626E-02 -.69454E-02 -.54068E-02 -.17944E-02 0.36836E-03 0.23473E-03 -.23326E-03 -.94197E-03 -.36322E-02 -.73060E-02
 0.17293E-03 0.16737E-02 0.64753E-03 -.74676E-03 0.43039E-04 0.13393E-02 0.75945E-03 -.37631E-03 -.13580E-03 0.17330E-03
 -.87794E-03 -.14814E-02 -.13521E-03 0.10522E-02 0.23538E-03 -.68243E-03 0.42130E-04 0.51254E-03 -.77654E-03 -.14892E-02
 0.16737E-02 0.12807E-02 -.40733E-03 -.56136E-03 0.80313E-03 0.85329E-03 -.82675E-03 -.16968E-02 -.10728E-02 -.88304E-03
 -.14412E-02 -.98312E-03 0.35002E-03 0.45144E-03 -.63604E-03 -.76741E-03 0.13722E-03 0.18902E-03 -.39694E-03 0.30036E-03
 0.64753E-03 -.40733E-03 -.88813E-03 -.46687E-04 0.40107E-03 -.82922E-03 -.22116E-02 -.20560E-02 -.12935E-02 -.13979E-02
 -.17054E-02 -.11119E-02 -.40804E-03 -.61690E-03 -.87982E-03 -.17384E-03 0.67310E-03 0.67392E-03 0.51006E-03 0.81119E-03
 -.74676E-03 -.56136E-03 -.46687E-04 0.10796E-03 -.65325E-03 -.17558E-02 -.22033E-02 -.20802E-02 -.22721E-02 -.28525E-02
 -.29582E-02 -.22722E-02 -.14361E-02 -.86149E-03 -.25660E-03 0.45771E-03 0.78592E-03 0.48198E-03 -.84451E-04 -.53560E-03
 0.43039E-04 0.80313E-03 0.40107E-03 -.65325E-03 -.13983E-02 -.19301E-02 -.28776E-02 -.40950E-02 -.48716E-02 -.49055E-02
 -.42703E-02 -.29935E-02 -.13948E-02 -.23712E-03 0.11842E-03 0.10809E-03 0.46457E-04 -.34078E-03 -.94740E-03 -.90693E-03
 0.13393E-02 0.85329E-03 -.82922E-03 -.17558E-02 -.19301E-02 -.32185E-02 -.56657E-02 -.71019E-02 -.66277E-02 -.54878E-02
 -.43251E-02 -.25471E-02 -.60057E-03 0.61748E-04 -.45169E-03 -.61005E-03 -.18948E-03 -.21827E-03 -.43582E-03 0.30829E-03
 0.75945E-03 -.82675E-03 -.22116E-02 -.22033E-02 -.28776E-02 -.56657E-02 -.81016E-02 -.76775E-02 -.57989E-02 -.47348E-02
 -.37906E-02 -.17720E-02 -.15514E-03 -.41568E-03 -.10157E-02 -.23424E-03 0.74214E-03 0.47649E-03 0.11861E-03 0.72245E-03
 -.37631E-03 -.16968E-02 -.20560E-02 -.20802E-02 -.40950E-02 -.71019E-02 -.76775E-02 -.57804E-02 -.45707E-02 -.46075E-02
 -.34714E-02 -.11044E-02 -.16064E-03 -.83763E-03 -.55463E-03 0.94362E-03 0.11889E-02 -.92140E-04 -.57496E-03 0.89641E-05
 -.13580E-03 -.10728E-02 -.12935E-02 -.22721E-02 -.48716E-02 -.66277E-02 -.57989E-02 -.45707E-02 -.48696E-02 -.47477E-02
 -.24372E-02 -.15278E-03 -.13965E-03 -.65634E-03 0.34570E-03 0.12043E-02 0.24687E-04 -.13717E-02 -.80651E-03 0.28538E-03
 0.17330E-03 -.88304E-03 -.13979E-02 -.28525E-02 -.49055E-02 -.54878E-02 -.47348E-02 -.46075E-02 -.47477E-02 -.30789E-02
 -.31794E-03 0.65282E-03 -.21920E-03 -.33747E-03 0.54821E-03 0.22341E-03 -.11861E-02 -.10976E-02 0.63397E-03 0.13149E-02
 -.87794E-03 -.14412E-02 -.17054E-02 -.29582E-02 -.42703E-02 -.43251E-02 -.37906E-02 -.34714E-02 -.24372E-02 -.31794E-03
 0.99976E-03 0.33302E-03 -.61533E-03 -.30348E-03 0.70357E-04 -.63124E-03 -.93397E-03 0.37749E-03 0.15408E-02 0.71831E-03
 -.14814E-02 -.98312E-03 -.11119E-02 -.22722E-02 -.29935E-02 -.25471E-02 -.17720E-02 -.11044E-02 -.15278E-03 0.65282E-03
 0.33302E-03 -.63998E-03 -.85472E-03 -.38262E-03 -.41842E-03 -.78662E-03 -.31096E-03 0.57907E-03 0.28992E-03 -.98861E-03
 -.13521E-03 0.35002E-03 -.40804E-03 -.14361E-02 -.13948E-02 -.60057E-03 -.15514E-03 -.16064E-03 -.13965E-03 -.21920E-03
 -.61533E-03 -.85472E-03 -.63408E-03 -.52454E-03 -.86124E-03 -.10080E-02 -.63591E-03 -.48679E-03 -.89601E-03 -.93487E-03
 0.10522E-02 0.45144E-03 -.61690E-03 -.86149E-03 -.23712E-03 0.61748E-04 -.41568E-03 -.83763E-03 -.65634E-03 -.33747E-03
 -.30348E-03 -.38262E-03 -.52454E-03 -.94651E-03 -.14110E-02 -.13791E-02 -.92172E-03 -.51309E-03 -.84053E-04 0.62604E-03
 0.23538E-03 -.63604E-03 -.87982E-03 -.25660E-03 0.11842E-03 -.45169E-03 -.10157E-02 -.55463E-03 0.34570E-03 0.54821E-03
 0.70357E-04 -.41842E-03 -.86124E-03 -.14110E-02 -.15920E-02 -.98351E-03 -.64833E-04 0.51229E-03 0.76138E-03 0.76900E-03
 -.68243E-03 -.76741E-03 -.17384E-03 0.45771E-03 0.10809E-03 -.61005E-03 -.23424E-03 0.94362E-03 0.12043E-02 0.22341E-03
 -.63124E-03 -.78662E-03 -.10080E-02 -.13791E-02 -.98351E-03 0.12862E-03 0.70617E-03 0.32040E-03 -.19417E-03 -.41945E-03
 0.42130E-04 0.13722E-03 0.67310E-03 0.78592E-03 0.46457E-04 -.18948E-03 0.74214E-03 0.11889E-02 0.24687E-04 -.11861E-02
 -.93397E-03 -.31096E-03 -.63591E-03 -.92172E-03 -.64833E-04 0.70617E-03 0.21006E-04 -.10444E-02 -.92363E-03 -.17443E-03
 0.51254E-03 0.18902E-03 0.67392E-03 0.48198E-03 -.34078E-03 -.21827E-03 0.47649E-03 -.92140E-04 -.13717E-02 -.10976E-02
 0.37749E-03 0.57907E-03 -.48679E-03 -.51309E-03 0.51229E-03 0.32040E-03 -.10444E-02 -.10945E-02 0.45385E-03 0.12080E-02
 -.77654E-03 -.39694E-03 0.51006E-03 -.84451E-04 -.94740E-03 -.43582E-03 0.11861E-03 -.57496E-03 -.80651E-03 0.63397E-03
 0.15408E-02 0.28992E-03 -.89601E-03 -.84053E-04 0.76138E-03 -.19417E-03 -.92363E-03 0.45385E-03 0.17645E-02 0.73793E-03
 -.14892E-02 0.30036E-03 0.81119E-03 -.53560E-03 -.90693E-03 0.30829E-03 0.72245E-03 0.89641E-05 0.28538E-03 0.13149E-02
 0.71831E-03 -.98861E-03 -.93487E-03 0.62604E-03 0.76900E-03 -.41945E-03 -.17443E-03 0.12080E-02 0.73793E-03 -.12840E-02
 0.78097E-02 0.90482E-02 0.62382E-02 0.23523E-02 0.10310E-02 0.90865E-03 -.33627E-03 -.94206E-03 0.10122E-02 0.30486E-02
 0.24885E-02 0.10768E-02 0.10129E-02 0.73201E-03 -.10334E-02 -.15661E-02 0.10312E-02 0.38907E-02 0.45407E-02 0.52456E-02
 0.90482E-02 0.74771E-02 0.34729E-02 0.10354E-02 0.89322E-03 0.33205E-03 -.73841E-03 0.53703E-03 0.40092E-02 0.60081E-02
 0.52396E-02 0.39118E-02 0.28307E-02 0.72387E-03 -.14446E-02 -.88974E-03 0.20226E-02 0.42622E-02 0.54207E-02 0.73562E-02