unknown system                          
   1.00000000000000     
     2.573869    0.000000    0.000000
     1.286934    2.229036    0.000000
     0.000000    0.000000   30.304665
   Cu   H 
     4     1
Direct
  0.000000 -0.000000  0.396440
  0.333333  0.333333  0.465152
  0.666667  0.666667  0.533916
 -0.000000  0.000000  0.606744
  0.333333  0.333333  0.634767
 
   20   20  240
 0.47484045772E-01 0.43688438242E-01 0.34248280849E-01 0.22734746015E-01 0.12668045249E-01
 0.60110154050E-02 0.25157813799E-02 0.47187550587E-03 -.14982313904E-02 -.33175711526E-02
 -.40599864295E-02 -.32897865164E-02 -.15019563117E-02 0.56854335310E-03 0.28518805850E-02
 0.63525926469E-02 0.12680632201E-01 0.22555493490E-01 0.34274802030E-01 0.43887946944E-01
 0.43688438242E-01 0.37169147975E-01 0.27100058834E-01 0.16665146548E-01 0.84269456343E-02
 0.33125943037E-02 0.22905832757E-03 -.25166924973E-02 -.52080780368E-02 -.66754465124E-02
 -.61198509382E-02 -.41281697741E-02 -.17851655168E-02 0.50909651709E-03 0.33290785036E-02
 0.80102578914E-02 0.15894878546E-01 0.26701090220E-01 0.37469928827E-01 0.43978267751E-01
 0.34248280849E-01 0.27100058834E-01 0.18258046713E-01 0.99279005625E-02 0.35652980240E-02
 -.10501207945E-02 -.54444552509E-02 -.10265654920E-01 -.14088938445E-01 -.15079663468E-01
 -.13123419094E-01 -.95533707859E-02 -.55191410942E-02 -.13418788541E-02 0.33087584294E-02
 0.93820818592E-02 0.17690708463E-01 0.27219128034E-01 0.34797103288E-01 0.37353761415E-01
 0.22734746014E-01 0.16665146548E-01 0.99279005625E-02 0.36484553329E-02 -.19766618338E-02
 -.81191056311E-02 -.15739766914E-01 -.23442563964E-01 -.28113086838E-01 -.27866979241E-01
 -.23376463184E-01 -.16504231354E-01 -.89258711827E-02 -.19135637116E-02 0.40976763067E-02
 0.99871590255E-02 0.16680419743E-01 0.23196363336E-01 0.27047694016E-01 0.26705906349E-01
 0.12668045249E-01 0.84269456341E-02 0.35652980238E-02 -.19766618339E-02 -.91621609270E-02
 -.19184983978E-01 -.31091729746E-01 -.40962303601E-01 -.44679677768E-01 -.41081003227E-01
 -.31975703489E-01 -.20321567433E-01 -.91735837331E-02 -.86864831442E-03 0.43760004923E-02
 0.84196713247E-02 0.12665430963E-01 0.16240782198E-01 0.17439524768E-01 0.15939213063E-01
 0.60110154050E-02 0.33125943037E-02 -.10501207944E-02 -.81191056312E-02 -.19184983978E-01
 -.34026301645E-01 -.48910600771E-01 -.58068869618E-01 -.57862111278E-01 -.48886398287E-01
 -.34594949663E-01 -.19352494388E-01 -.72166869767E-02 -.19022595125E-03 0.30364961676E-02
 0.53141920505E-02 0.77554789875E-02 0.92927361030E-02 0.91221593889E-02 0.78295695519E-02
 0.25157813800E-02 0.22905832751E-03 -.54444552509E-02 -.15739766915E-01 -.31091729745E-01
 -.48910600771E-01 -.63173609906E-01 -.68124524511E-01 -.62259375634E-01 -.48360881019E-01
 -.31110150774E-01 -.15426579360E-01 -.50123898141E-02 -.34127283632E-03 0.12809237550E-02
 0.24738111632E-02 0.34348354961E-02 0.34415293583E-02 0.29794688547E-02 0.28785249234E-02
 0.47187550591E-03 -.25166924972E-02 -.10265654920E-01 -.23442563964E-01 -.40962303601E-01
 -.58068869618E-01 -.68124524511E-01 -.67366588140E-01 -.56948949624E-01 -.40867540115E-01
 -.23783447143E-01 -.10199354046E-01 -.27761260109E-02 -.57566977711E-03 -.56738402488E-03
 -.10140721390E-02 -.18918041209E-02 -.26176471023E-02 -.19030360045E-02 -.82357054211E-04
 -.14982313905E-02 -.52080780369E-02 -.14088938445E-01 -.28113086838E-01 -.44679677768E-01
 -.57862111278E-01 -.62259375634E-01 -.56948949624E-01 -.44691184296E-01 -.29180876362E-01
 -.14483020245E-01 -.47014668731E-02 -.14924104301E-02 -.28199740547E-02 -.56522074556E-02
 -.85452366458E-02 -.10552516506E-01 -.99841381290E-02 -.64287582745E-02 -.24624026035E-02
 -.33175711527E-02 -.66754465124E-02 -.15079663468E-01 -.27866979241E-01 -.41081003227E-01
 -.48886398287E-01 -.48360881019E-01 -.40867540115E-01 -.29180876362E-01 -.16169797896E-01
 -.58694328988E-02 -.20826688826E-02 -.49161514457E-02 -.10973678681E-01 -.17058891582E-01
 -.21430564755E-01 -.22187763920E-01 -.17977227178E-01 -.10728456824E-01 -.48503903528E-02
 -.40599864297E-02 -.61198509384E-02 -.13123419094E-01 -.23376463184E-01 -.31975703489E-01
 -.34594949663E-01 -.31110150774E-01 -.23783447143E-01 -.14483020245E-01 -.58694328986E-02
 -.23205220110E-02 -.63558221880E-02 -.15658676307E-01 -.25735104132E-01 -.33570850185E-01
 -.37079836655E-01 -.34114224055E-01 -.25053576616E-01 -.14329570101E-01 -.67776392720E-02
 -.32897865163E-02 -.41281697741E-02 -.95533707859E-02 -.16504231354E-01 -.20321567433E-01
 -.19352494388E-01 -.15426579360E-01 -.10199354046E-01 -.47014668730E-02 -.20826688824E-02
 -.63558221879E-02 -.17567331568E-01 -.31358553028E-01 -.43365883527E-01 -.50961240115E-01
 -.51494774271E-01 -.43384227327E-01 -.29564358996E-01 -.16195349454E-01 -.72886962750E-02
 -.15019563118E-02 -.17851655168E-02 -.55191410943E-02 -.89258711827E-02 -.91735837330E-02
 -.72166869766E-02 -.50123898139E-02 -.27761260109E-02 -.14924104300E-02 -.49161514457E-02
 -.15658676307E-01 -.31358553028E-01 -.47146413547E-01 -.59398733779E-01 -.65039910735E-01
 -.60856619791E-01 -.47156683689E-01 -.29760356350E-01 -.15237712506E-01 -.59446140852E-02
 0.56854335295E-03 0.50909651708E-03 -.13418788543E-02 -.19135637116E-02 -.86864831448E-03
 -.19022595119E-03 -.34127283645E-03 -.57566977722E-03 -.28199740549E-02 -.10973678681E-01
 -.25735104133E-01 -.43365883527E-01 -.59398733779E-01 -.70167575839E-01 -.71598863098E-01
 -.61418843061E-01 -.43303541981E-01 -.24997065385E-01 -.11570521358E-01 -.33165856403E-02
 0.28518805847E-02 0.33290785034E-02 0.33087584292E-02 0.40976763067E-02 0.43760004922E-02
 0.30364961677E-02 0.12809237550E-02 -.56738402496E-03 -.56522074555E-02 -.17058891582E-01
 -.33570850185E-01 -.50961240115E-01 -.65039910735E-01 -.71598863098E-01 -.66918933466E-01
 -.51795021021E-01 -.32894766768E-01 -.17207254922E-01 -.67440327644E-02 -.27773432852E-03
 0.63525926468E-02 0.80102578912E-02 0.93820818589E-02 0.99871590253E-02 0.84196713246E-02
 0.53141920506E-02 0.24738111632E-02 -.10140721390E-02 -.85452366458E-02 -.21430564755E-01
 -.37079836655E-01 -.51494774271E-01 -.60856619791E-01 -.61418843061E-01 -.51795021021E-01
 -.35912131673E-01 -.20583009403E-01 -.95324523910E-02 -.20387955552E-02 0.32208672449E-02
 0.12680632201E-01 0.15894878546E-01 0.17690708463E-01 0.16680419743E-01 0.12665430963E-01
 0.77554789874E-02 0.34348354961E-02 -.18918041209E-02 -.10552516506E-01 -.22187763920E-01
 -.34114224055E-01 -.43384227328E-01 -.47156683689E-01 -.43303541981E-01 -.32894766768E-01
 -.20583009403E-01 -.10554745776E-01 -.32207294195E-02 0.29619143831E-02 0.84008836067E-02
 0.22555493490E-01 0.26701090220E-01 0.27219128034E-01 0.23196363336E-01 0.16240782198E-01
 0.92927361031E-02 0.34415293580E-02 -.26176471024E-02 -.99841381292E-02 -.17977227178E-01
 -.25053576616E-01 -.29564358996E-01 -.29760356350E-01 -.24997065385E-01 -.17207254922E-01
 -.95324523910E-02 -.32207294193E-02 0.28073671182E-02 0.95172395058E-02 0.16439311425E-01
 0.34274802030E-01 0.37469928827E-01 0.34797103288E-01 0.27047694016E-01 0.17439524768E-01
 0.91221593890E-02 0.29794688545E-02 -.19030360045E-02 -.64287582745E-02 -.10728456824E-01
 -.14329570101E-01 -.16195349454E-01 -.15237712506E-01 -.11570521358E-01 -.67440327644E-02
 -.20387955552E-02 0.29619143832E-02 0.95172395059E-02 0.17910817510E-01 0.26902694644E-01
 0.43887946945E-01 0.43978267751E-01 0.37353761415E-01 0.26705906349E-01 0.15939213063E-01
 0.78295695519E-02 0.28785249234E-02 -.82357054147E-04 -.24624026034E-02 -.48503903526E-02
 -.67776392718E-02 -.72886962748E-02 -.59446140850E-02 -.33165856401E-02 -.27773432810E-03
 0.32208672452E-02 0.84008836072E-02 0.16439311425E-01 0.26902694644E-01 0.37264741309E-01
 -.22979524397E-01 -.21120387634E-01 -.16850677755E-01 -.11362827835E-01 -.59973767092E-02
 -.21160692201E-02 -.29063198053E-03 0.93351211220E-04 -.53055682560E-04 -.36945073356E-03
 -.70711647403E-03 -.65275779969E-03 -.52343576431E-04 0.43278880212E-03 -.13688356364E-03
 -.22414622765E-02 -.59988946965E-02 -.11271125321E-01 -.17093585577E-01 -.21552149606E-01
 -.21120387634E-01 -.18115816009E-01 -.13138714373E-01 -.77434814443E-02 -.34433444044E-02
 -.10772885218E-02 -.43645015147E-03 -.63100330643E-03 -.85948070828E-03 -.79878567823E-03
 -.45264756443E-03 0.34195852397E-04 0.34595075124E-03 0.23944725356E-04 -.13544564383E-02
 -.40810417720E-02 -.82299777420E-02 -.13338459681E-01 -.18178933375E-01 -.21140705805E-01
 -.16850677755E-01 -.13138714373E-01 -.84145889076E-02 -.43832397398E-02 -.19188038078E-02
 -.91285747119E-03 -.77232883735E-03 -.83593312313E-03 -.64150318603E-03 -.20705932796E-03
 0.63804607016E-04 -.78817143233E-04 -.48791747174E-03 -.11004441933E-02 -.23571274385E-02
 -.48392585553E-02 -.85709445244E-02 -.12830587332E-01 -.16427184143E-01 -.18050360205E-01
 -.11362827835E-01 -.77434814446E-02 -.43832397400E-02 -.22811429369E-02 -.12031836323E-02
 -.66526393200E-03 -.49018786044E-03 -.43628185523E-03 -.24803057017E-03 -.15804432753E-03
 -.54843751573E-03 -.11201943545E-02 -.12480187079E-02 -.11745914498E-02 -.19744645405E-02
 -.42409119018E-02 -.74821348810E-02 -.10757724860E-01 -.13098901491E-01 -.13461789712E-01
 -.59973767094E-02 -.34433444047E-02 -.19188038077E-02 -.12031836325E-02 -.58491815428E-03
 -.17437626963E-03 -.29091869291E-03 -.55895068998E-03 -.61546615338E-03 -.80920566259E-03
 -.12762424731E-02 -.13014896349E-02 -.58851502717E-03 -.21907372896E-03 -.13199860205E-02
 -.35965346873E-02 -.60101716973E-02 -.79667266249E-02 -.89877862473E-02 -.83172996481E-02
 -.21160692202E-02 -.10772885218E-02 -.91285747112E-03 -.66526393206E-03 -.17437626950E-03
 -.23937150704E-03 -.84593723031E-03 -.10747208980E-02 -.81549275601E-03 -.79557894040E-03
 -.92314086439E-03 -.43930749178E-03 0.28395409605E-03 -.48552538829E-04 -.15598228470E-02
 -.30599753104E-02 -.39704171979E-02 -.46329489098E-02 -.48158025016E-02 -.38169542119E-02
 -.29063198055E-03 -.43645015155E-03 -.77232883741E-03 -.49018786062E-03 -.29091869286E-03
 -.84593723013E-03 -.12655470795E-02 -.72885419093E-03 -.80942625640E-04 -.22620385923E-03
 -.49156266033E-03 -.16099508378E-03 -.29129209924E-04 -.81995427864E-03 -.16336764614E-02
 -.15660040600E-02 -.13285261726E-02 -.16741661717E-02 -.18235807142E-02 -.10580915484E-02
 0.93351211319E-04 -.63100330633E-03 -.83593312313E-03 -.43628185526E-03 -.55895068994E-03
 -.10747208981E-02 -.72885419065E-03 0.25337171088E-03 0.32502447330E-03 -.57843139499E-03
 -.97954077844E-03 -.59610750147E-03 -.54177939720E-03 -.84179081693E-03 -.40495320311E-03
 0.52048778004E-03 0.52069608736E-03 -.31431707050E-03 -.49226993838E-03 0.95583804324E-04
 -.53055682677E-04 -.85948070838E-03 -.64150318616E-03 -.24803057035E-03 -.61546615365E-03
 -.81549275571E-03 -.80942625619E-04 0.32502447323E-03 -.61627249886E-03 -.15813942509E-02
 -.11749697399E-02 -.26717102624E-03 -.44801682119E-04 0.16857220243E-03 0.10847024291E-02
 0.15736465359E-02 0.75517768408E-03 -.83907959624E-04 0.23689652895E-03 0.63799913283E-03
 -.36945073370E-03 -.79878567830E-03 -.20705932811E-03 -.15804432784E-03 -.80920566282E-03
 -.79557894034E-03 -.22620385926E-03 -.57843139504E-03 -.15813942509E-02 -.14093122714E-02
 -.39374208988E-04 0.72132046676E-03 0.56304862215E-03 0.88164651076E-03 0.17012963852E-02
 0.15994939808E-02 0.71603507907E-03 0.63931751934E-03 0.12604961079E-02 0.90656228532E-03
 -.70711647413E-03 -.45264756461E-03 0.63804606736E-04 -.54843751592E-03 -.12762424733E-02
 -.92314086449E-03 -.49156266032E-03 -.97954077849E-03 -.11749697400E-02 -.39374208942E-04
 0.10487641886E-02 0.80673746015E-03 0.47110389184E-03 0.13594111715E-02 0.23527670075E-02
 0.21569308132E-02 0.17165912802E-02 0.20315309586E-02 0.19518348892E-02 0.54350504566E-03
 -.65275779972E-03 0.34195852383E-04 -.78817143351E-04 -.11201943545E-02 -.13014896351E-02
 -.43930749169E-03 -.16099508380E-03 -.59610750140E-03 -.26717102621E-03 0.72132046684E-03
 0.80673746022E-03 0.27856966071E-03 0.10265465967E-02 0.29263419736E-02 0.38576109636E-02
 0.33583494102E-02 0.29262779882E-02 0.27466514955E-02 0.15668459615E-02 -.18703122966E-03
 -.52343576524E-04 0.34595075114E-03 -.48791747187E-03 -.12480187080E-02 -.58851502724E-03
 0.28395409603E-03 -.29129209917E-04 -.54177939727E-03 -.44801682193E-04 0.56304862204E-03
 0.47110389173E-03 0.10265465964E-02 0.31441026301E-02 0.50209981779E-02 0.48905344193E-02
 0.37672537827E-02 0.31453767466E-02 0.23868868440E-02 0.76208539070E-03 -.39434465408E-03
 0.43278880202E-03 0.23944725335E-04 -.11004441934E-02 -.11745914498E-02 -.21907372901E-03
 -.48552538800E-04 -.81995427875E-03 -.84179081701E-03 0.16857220220E-03 0.88164651054E-03
 0.13594111711E-02 0.29263419732E-02 0.50209981777E-02 0.55174005371E-02 0.42875373826E-02
 0.32482542173E-02 0.28747232658E-02 0.19054380745E-02 0.44739650800E-03 0.13864075701E-04
 -.13688356370E-03 -.13544564385E-02 -.23571274386E-02 -.19744645404E-02 -.13199860207E-02
 -.15598228469E-02 -.16336764615E-02 -.40495320326E-03 0.10847024291E-02 0.17012963851E-02
 0.23527670075E-02 0.38576109634E-02 0.48905344192E-02 0.42875373825E-02 0.32518546269E-02
 0.30802558607E-02 0.28550117764E-02 0.15610228190E-02 0.28148067770E-03 0.74651069923E-04
 -.22414622767E-02 -.40810417723E-02 -.48392585555E-02 -.42409119021E-02 -.35965346873E-02
 -.30599753102E-02 -.15660040600E-02 0.52048777999E-03 0.15736465358E-02 0.15994939808E-02
 0.21569308130E-02 0.33583494098E-02 0.37672537824E-02 0.32482542171E-02 0.30802558609E-02
 0.32275242922E-02 0.23594966609E-02 0.60948456475E-03 -.51967185139E-03 -.10070130380E-02
 -.59988946965E-02 -.82299777423E-02 -.85709445244E-02 -.74821348811E-02 -.60101716970E-02
 -.39704171978E-02 -.13285261726E-02 0.52069608725E-03 0.75517768396E-03 0.71603507903E-03
 0.17165912800E-02 0.29262779878E-02 0.31453767464E-02 0.28747232657E-02 0.28550117762E-02
 0.23594966607E-02 0.76056758408E-03 -.95612105210E-03 -.20213606229E-02 -.34557508505E-02
 -.11271125322E-01 -.13338459681E-01 -.12830587333E-01 -.10757724860E-01 -.79667266251E-02
 -.46329489097E-02 -.16741661720E-02 -.31431707070E-03 -.83907960011E-04 0.63931751916E-03
 0.20315309583E-02 0.27466514954E-02 0.23868868440E-02 0.19054380744E-02 0.15610228189E-02
 0.60948456459E-03 -.95612105196E-03 -.24626838522E-02 -.43240199100E-02 -.75219710330E-02
 -.17093585577E-01 -.18178933375E-01 -.16427184143E-01 -.13098901491E-01 -.89877862473E-02
 -.48158025013E-02 -.18235807144E-02 -.49226993847E-03 0.23689652879E-03 0.12604961078E-02
 0.19518348890E-02 0.15668459614E-02 0.76208539058E-03 0.44739650798E-03 0.28148067755E-03
 -.51967185144E-03 -.20213606228E-02 -.43240199101E-02 -.81012115411E-02 -.13067550869E-01
 -.21552149605E-01 -.21140705804E-01 -.18050360205E-01 -.13461789712E-01 -.83172996476E-02
 -.38169542117E-02 -.10580915484E-02 0.95583804317E-04 0.63799913287E-03 0.90656228551E-03
 0.54350504572E-03 -.18703122947E-03 -.39434465393E-03 0.13864075886E-04 0.74651070214E-04
 -.10070130377E-02 -.34557508503E-02 -.75219710328E-02 -.13067550869E-01 -.18519937268E-01
 -.47749728608E-01 -.43640084763E-01 -.34594146520E-01 -.23398219007E-01 -.12848676551E-01
 -.54876079273E-02 -.19207391112E-02 -.28777465459E-03 0.12716808719E-02 0.25514094233E-02
 0.26555756563E-02 0.19571134523E-02 0.12758304299E-02 0.29230802968E-03 -.19516793923E-02
 -.60809548305E-02 -.12863569059E-01 -.23034521910E-01 -.35105743180E-01 -.44702863277E-01
 -.43640084763E-01 -.37310446896E-01 -.27364678747E-01 -.16692609077E-01 -.80840215054E-02
 -.29998954612E-02 -.48960972081E-03 0.15850621800E-02 0.39915832278E-02 0.57040133458E-02
 0.58400451313E-02 0.46977051151E-02 0.28065437002E-02 0.15153811809E-03 -.35703808656E-02
 -.89464979325E-02 -.16905709314E-01 -.27378462374E-01 -.37749033557E-01 -.43975753431E-01
 -.34594146521E-01 -.27364678747E-01 -.18222415766E-01 -.99028346314E-02 -.38714829194E-02
 0.38724186632E-03 0.45366687508E-02 0.93766641917E-02 0.13744080978E-01 0.15645187223E-01
 0.14186413277E-01 0.10175407341E-01 0.51802072306E-02 0.30794024123E-03 -.44881993891E-02
 -.10272509262E-01 -.17980800900E-01 -.26883649777E-01 -.34305853449E-01 -.37284297152E-01
 -.23398219007E-01 -.16692609077E-01 -.99028346314E-02 -.42608384517E-02 0.10859286348E-02
 0.76494692480E-02 0.15711473364E-01 0.23646515051E-01 0.28701035846E-01 0.28633440247E-01
 0.23352184677E-01 0.15212511425E-01 0.72922128782E-02 0.10874818613E-02 -.40897361084E-02
 -.96757054784E-02 -.16189250505E-01 -.22655248232E-01 -.27049608983E-01 -.27431830429E-01
 -.12848676551E-01 -.80840215056E-02 -.38714829195E-02 0.10859286347E-02 0.89406052767E-02
 0.19879326811E-01 0.31641655125E-01 0.40890254220E-01 0.44422006399E-01 0.40508446331E-01
 0.30553914772E-01 0.18761179681E-01 0.89469509961E-02 0.19519594819E-02 -.34783037492E-02
 -.83747367387E-02 -.12859487585E-01 -.16502393465E-01 -.18241679431E-01 -.16910441116E-01
 -.54876079275E-02 -.29998954613E-02 0.38724186631E-03 0.76494692479E-02 0.19879326811E-01
 0.34693558016E-01 0.48203093642E-01 0.56689651715E-01 0.57003564937E-01 0.48284102775E-01
 0.33895365666E-01 0.19515554053E-01 0.86433483143E-02 0.12568497452E-02 -.36835600223E-02
 -.66697258505E-02 -.83912372411E-02 -.95813135206E-02 -.97827361988E-02 -.81714508732E-02
 -.19207391112E-02 -.48960972088E-03 0.45366687508E-02 0.15711473364E-01 0.31641655125E-01
 0.48203093642E-01 0.61314718483E-01 0.67186146564E-01 0.62775883044E-01 0.48896705753E-01
 0.31255483462E-01 0.16049815151E-01 0.55859540072E-02 -.69085847457E-03 -.33705181730E-02
 -.33826206999E-02 -.28482241321E-02 -.31247162651E-02 -.33871126208E-02 -.27756604781E-02
 -.28777465455E-03 0.15850621800E-02 0.93766641916E-02 0.23646515051E-01 0.40890254221E-01
 0.56689651715E-01 0.67186146564E-01 0.68395383632E-01 0.58373368956E-01 0.40755782507E-01
 0.22895236007E-01 0.97826717873E-02 0.20165779781E-02 -.11184101061E-02 -.30365284145E-03
 0.21672302153E-02 0.32225031544E-02 0.22786199510E-02 0.10329029352E-02 0.21971957840E-03
 0.12716808718E-02 0.39915832278E-02 0.13744080978E-01 0.28701035845E-01 0.44422006399E-01
 0.57003564937E-01 0.62775883044E-01 0.58373368955E-01 0.44432989209E-01 0.27101976264E-01
 0.13071108180E-01 0.46672319844E-02 0.12762735311E-02 0.23857050958E-02 0.65280139743E-02
 0.10072476881E-01 0.10333670131E-01 0.81975078533E-02 0.56131412080E-02 0.29743964834E-02
 0.25514094232E-02 0.57040133458E-02 0.15645187222E-01 0.28633440247E-01 0.40508446331E-01
 0.48284102775E-01 0.48896705753E-01 0.40755782507E-01 0.27101976264E-01 0.14336326595E-01
 0.64247959773E-02 0.35023646190E-02 0.51072534416E-02 0.10793360070E-01 0.17642074539E-01
 0.21298428066E-01 0.20288488236E-01 0.16438366197E-01 0.11309643601E-01 0.57297963655E-02
 0.26555756562E-02 0.58400451311E-02 0.14186413276E-01 0.23352184677E-01 0.30553914772E-01
 0.33895365665E-01 0.31255483462E-01 0.22895236006E-01 0.13071108180E-01 0.64247959773E-02
 0.44400550330E-02 0.69823837500E-02 0.14273470247E-01 0.24715873512E-01 0.33449720452E-01
 0.36156608903E-01 0.32722252211E-01 0.25379311870E-01 0.15902263756E-01 0.68684515524E-02
 0.19571134523E-02 0.46977051150E-02 0.10175407340E-01 0.15212511425E-01 0.18761179681E-01
 0.19515554053E-01 0.16049815150E-01 0.97826717872E-02 0.46672319844E-02 0.35023646190E-02
 0.69823837500E-02 0.15650512056E-01 0.29105621089E-01 0.43192045679E-01 0.51599704329E-01
 0.51136087693E-01 0.43211568704E-01 0.30749421433E-01 0.16848574847E-01 0.59197264664E-02
 0.12758304298E-02 0.28065437001E-02 0.51802072304E-02 0.72922128781E-02 0.89469509959E-02
 0.86433483141E-02 0.55859540070E-02 0.20165779779E-02 0.12762735309E-02 0.51072534413E-02
 0.14273470246E-01 0.29105621088E-01 0.46935950292E-01 0.61195404375E-01 0.65906988418E-01
 0.60146465423E-01 0.46949345758E-01 0.30228085045E-01 0.14435039933E-01 0.42244985990E-02
 0.29230802959E-03 0.15153811812E-03 0.30794024101E-03 0.10874818612E-02 0.19519594818E-02
 0.12568497452E-02 -.69085847471E-03 -.11184101062E-02 0.23857050955E-02 0.10793360070E-01
 0.24715873512E-01 0.43192045679E-01 0.61195404375E-01 0.71573605356E-01 0.70544482650E-01
 0.59669302257E-01 0.43027977864E-01 0.25075719488E-01 0.10530862082E-01 0.25801623887E-02
 -.19516793922E-02 -.35703808658E-02 -.44881993893E-02 -.40897361083E-02 -.34783037492E-02
 -.36835600222E-02 -.33705181731E-02 -.30365284159E-03 0.65280139742E-02 0.17642074538E-01
 0.33449720451E-01 0.51599704328E-01 0.65906988418E-01 0.70544482651E-01 0.64505395169E-01
 0.50875054001E-01 0.33778706266E-01 0.17516140396E-01 0.60206976898E-02 0.37069518918E-03
 -.60809548306E-02 -.89464979327E-02 -.10272509263E-01 -.96757054786E-02 -.83747367387E-02
 -.66697258504E-02 -.33826207000E-02 0.21672302151E-02 0.10072476881E-01 0.21298428066E-01
 0.36156608903E-01 0.51136087693E-01 0.60146465423E-01 0.59669302257E-01 0.50875054001E-01
 0.37124891455E-01 0.21967750198E-01 0.91335672907E-02 0.11129582158E-02 -.30170856261E-02
 -.12863569059E-01 -.16905709314E-01 -.17980800900E-01 -.16189250506E-01 -.12859487585E-01
 -.83912372411E-02 -.28482241322E-02 0.32225031543E-02 0.10333670131E-01 0.20288488236E-01
 0.32722252210E-01 0.43211568704E-01 0.46949345758E-01 0.43027977864E-01 0.33778706266E-01
 0.21967750198E-01 0.10344027470E-01 0.15939715266E-02 -.37665177394E-02 -.80166602021E-02
 -.23034521910E-01 -.27378462374E-01 -.26883649777E-01 -.22655248232E-01 -.16502393465E-01
 -.95813135204E-02 -.31247162654E-02 0.22786199507E-02 0.81975078530E-02 0.16438366197E-01
 0.25379311869E-01 0.30749421433E-01 0.30228085045E-01 0.25075719488E-01 0.17516140396E-01
 0.91335672905E-02 0.15939715266E-02 -.40735951778E-02 -.91919774306E-02 -.15809317214E-01
 -.35105743180E-01 -.37749033557E-01 -.34305853449E-01 -.27049608983E-01 -.18241679431E-01
 -.97827361988E-02 -.33871126210E-02 0.10329029350E-02 0.56131412078E-02 0.11309643601E-01
 0.15902263755E-01 0.16848574847E-01 0.14435039933E-01 0.10530862082E-01 0.60206976895E-02
 0.11129582156E-02 -.37665177394E-02 -.91919774306E-02 -.16929323113E-01 -.26826672458E-01
 -.44702863277E-01 -.43975753431E-01 -.37284297152E-01 -.27431830429E-01 -.16910441116E-01
 -.81714508731E-02 -.27756604781E-02 0.21971957836E-03 0.29743964834E-02 0.57297963655E-02
 0.68684515525E-02 0.59197264666E-02 0.42244985992E-02 0.25801623889E-02 0.37069518941E-03
 -.30170856258E-02 -.80166602017E-02 -.15809317214E-01 -.26826672458E-01 -.38122520085E-01
 0.21230342710E-01 0.20431915041E-01 0.15705401387E-01 0.97244086622E-02 0.54631222638E-02
 0.29833817828E-02 0.10807302676E-02 -.67089060732E-04 -.58132094924E-04 0.49341789921E-04
 -.55821544395E-03 -.85950452031E-03 -.54475246678E-04 0.75450930247E-03 0.87482578840E-03
 0.19376228975E-02 0.54478732534E-02 0.10365162485E-01 0.14923162449E-01 0.18734886954E-01
 0.20431915041E-01 0.17291851090E-01 0.11754189764E-01 0.68272016547E-02 0.37765589552E-02
 0.16608826649E-02 -.40238004146E-05 -.54790335210E-03 -.87230203530E-04 0.23052391866E-03
 0.15544890688E-03 0.42883998017E-03 0.91676986970E-03 0.82100417835E-03 0.80455126952E-03
 0.26964059098E-02 0.68887797420E-02 0.11919974743E-01 0.16469982626E-01 0.19778161384E-01
 0.15705401388E-01 0.11754189764E-01 0.73006262191E-02 0.39591766462E-02 0.17644189452E-02
 0.24656703800E-03 -.35552493378E-03 0.15612251751E-03 0.10103147652E-02 0.13278516615E-02
 0.11892345437E-02 0.99502783642E-03 0.64494764061E-03 0.27348079495E-03 0.96631494738E-03
 0.36689668946E-02 0.79307416287E-02 0.12398929860E-01 0.15852200769E-01 0.17228362899E-01
 0.97244086620E-02 0.68272016548E-02 0.39591766461E-02 0.17270669622E-02 0.48723944019E-03
 0.30909261552E-03 0.87946984256E-03 0.16045309826E-02 0.19426489936E-02 0.17183556782E-02
 0.11292220366E-02 0.51016695709E-03 0.17208579734E-03 0.45266975734E-03 0.17524547689E-02
 0.42623110537E-02 0.75693095804E-02 0.10607361212E-01 0.12201287933E-01 0.11798546826E-01
 0.54631222632E-02 0.37765589549E-02 0.17644189451E-02 0.48723944010E-03 0.67005380356E-03
 0.15433186913E-02 0.19481407364E-02 0.18037436595E-02 0.15957328151E-02 0.12951555116E-02
 0.76241036033E-03 0.43321754112E-03 0.68057626436E-03 0.12271339838E-02 0.19482649786E-02
 0.33516254669E-02 0.54624217806E-02 0.71532675137E-02 0.74551797093E-02 0.66790608939E-02
 0.29833817825E-02 0.16608826648E-02 0.24656703794E-03 0.30909261550E-03 0.15433186913E-02
 0.20550119532E-02 0.14226548652E-02 0.10451121811E-02 0.14177848411E-02 0.15419624731E-02
 0.11486510696E-02 0.10815033188E-02 0.13471578439E-02 0.11222452042E-02 0.78201305837E-03
 0.15770965318E-02 0.32342410981E-02 0.41464960253E-02 0.39209268817E-02 0.35072942024E-02
 0.10807302674E-02 -.40238005070E-05 -.35552493384E-03 0.87946984236E-03 0.19481407367E-02
 0.14226548653E-02 0.73885440748E-03 0.14703479041E-02 0.24799790441E-02 0.21945080710E-02
 0.13802406058E-02 0.12310028229E-02 0.10045303145E-02 -.15454665110E-04 -.47088376209E-03
 0.72391059082E-03 0.21210249653E-02 0.21344434644E-02 0.15340839103E-02 0.14243164599E-02
 -.67089060682E-04 -.54790335201E-03 0.15612251750E-03 0.16045309827E-02 0.18037436596E-02
 0.10451121811E-02 0.14703479044E-02 0.29054119690E-02 0.30096661866E-02 0.15515334515E-02
 0.64592515448E-03 0.73328008863E-03 0.22955233301E-03 -.79315826482E-03 -.52157503058E-03
 0.85595622529E-03 0.11529677851E-02 0.10272813130E-03 -.39379198613E-03 0.28378051198E-04
 -.58132095020E-04 -.87230203533E-04 0.10103147650E-02 0.19426489935E-02 0.15957328148E-02
 0.14177848413E-02 0.24799790439E-02 0.30096661865E-02 0.16094402716E-02 0.72612660528E-04
 0.19766047274E-03 0.67322460330E-03 -.60972075492E-04 -.76894284607E-03 -.12708751337E-03
 0.40255368736E-03 -.62018011897E-03 -.16803597957E-02 -.10943748467E-02 -.49577408337E-04
 0.49341789847E-04 0.23052391863E-03 0.13278516613E-02 0.17183556779E-02 0.12951555112E-02
 0.15419624730E-02 0.21945080706E-02 0.15515334513E-02 0.72612660546E-04 -.89507291861E-04
 0.91287235384E-03 0.85903844161E-03 -.40927986405E-03 -.91987527847E-03 -.52054257558E-03
 -.97011342053E-03 -.21019849060E-02 -.18561127756E-02 -.25590310696E-03 0.49882639863E-03
 -.55821544405E-03 0.15544890672E-03 0.11892345433E-02 0.11292220363E-02 0.76241035999E-03
 0.11486510694E-02 0.13802406055E-02 0.64592515417E-03 0.19766047267E-03 0.91287235376E-03
 0.12563959275E-02 -.39005809427E-06 -.14179847280E-02 -.15307743011E-02 -.13656963226E-02
 -.19999458722E-02 -.21837152911E-02 -.87612165078E-03 0.35716578157E-03 0.32608266611E-04
 -.85950452048E-03 0.42883997999E-03 0.99502783607E-03 0.51016695685E-03 0.43321754074E-03
 0.10815033186E-02 0.12310028225E-02 0.73328008850E-03 0.67322460320E-03 0.85903844161E-03
 -.39005803742E-06 -.15811227535E-02 -.22145472054E-02 -.18382884752E-02 -.18736172441E-02
 -.23049636775E-02 -.18080123697E-02 -.65880855636E-03 -.48305011284E-03 -.11362940312E-02
 -.54475246838E-04 0.91676986956E-03 0.64494764031E-03 0.17208579711E-03 0.68057626403E-03
 0.13471578437E-02 0.10045303142E-02 0.22955233278E-03 -.60972075694E-04 -.40927986439E-03
 -.14179847282E-02 -.22145472056E-02 -.20643029672E-02 -.18705715288E-02 -.23998834270E-02
 -.27222719207E-02 -.20506599257E-02 -.13391723659E-02 -.13875740730E-02 -.12155211823E-02
 0.75450930249E-03 0.82100417838E-03 0.27348079490E-03 0.45266975731E-03 0.12271339837E-02
 0.11222452042E-02 -.15454665231E-04 -.79315826482E-03 -.76894284628E-03 -.91987527874E-03
 -.15307743014E-02 -.18382884756E-02 -.18705715290E-02 -.24500999066E-02 -.32801838602E-02
 -.31541510560E-02 -.21169648275E-02 -.13530490453E-02 -.10016087520E-02 -.21667381336E-03
 0.87482578856E-03 0.80455126944E-03 0.96631494741E-03 0.17524547689E-02 0.19482649786E-02
 0.78201305847E-03 -.47088376213E-03 -.52157503071E-03 -.12708751357E-03 -.52054257592E-03
 -.13656963228E-02 -.18736172443E-02 -.23998834270E-02 -.32801838601E-02 -.35614600052E-02
 -.25410923054E-02 -.12038484462E-02 -.62250732951E-03 -.32670279913E-03 0.35434268702E-03
 0.19376228976E-02 0.26964059097E-02 0.36689668943E-02 0.42623110536E-02 0.33516254669E-02
 0.15770965318E-02 0.72391059074E-03 0.85595622523E-03 0.40255368713E-03 -.97011342081E-03
 -.19999458726E-02 -.23049636780E-02 -.27222719210E-02 -.31541510564E-02 -.25410923053E-02
 -.11290788687E-02 -.38857470704E-03 -.50954638071E-03 -.20963222045E-03 0.89924619394E-03
 0.54478732533E-02 0.68887797416E-02 0.79307416287E-02 0.75693095804E-02 0.54624217808E-02
 0.32342410981E-02 0.21210249653E-02 0.11529677849E-02 -.62018011925E-03 -.21019849062E-02
 -.21837152914E-02 -.18080123700E-02 -.20506599258E-02 -.21169648275E-02 -.12038484463E-02
 -.38857470717E-03 -.61384688419E-03 -.63765830447E-03 0.96850248991E-03 0.34662103611E-02
 0.10365162484E-01 0.11919974743E-01 0.12398929860E-01 0.10607361212E-01 0.71532675138E-02
 0.41464960255E-02 0.21344434642E-02 0.10272813103E-03 -.16803597962E-02 -.18561127759E-02
 -.87612165119E-03 -.65880855640E-03 -.13391723660E-02 -.13530490454E-02 -.62250732978E-03
 -.50954638085E-03 -.63765830438E-03 0.10108488906E-02 0.46067031815E-02 0.80927948131E-02
 0.14923162449E-01 0.16469982626E-01 0.15852200769E-01 0.12201287933E-01 0.74551797091E-02
 0.39209268819E-02 0.15340839101E-02 -.39379198624E-03 -.10943748470E-02 -.25590310722E-03
 0.35716578131E-03 -.48305011292E-03 -.13875740730E-02 -.10016087522E-02 -.32670279936E-03
 -.20963222067E-03 0.96850248988E-03 0.46067031815E-02 0.91913783986E-02 0.12618107344E-01
 0.18734886954E-01 0.19778161384E-01 0.17228362899E-01 0.11798546826E-01 0.66790608942E-02
 0.35072942026E-02 0.14243164599E-02 0.28378051169E-04 -.49577408429E-04 0.49882639866E-03
 0.32608266654E-04 -.11362940309E-02 -.12155211821E-02 -.21667381320E-03 0.35434268705E-03
 0.89924619402E-03 0.34662103614E-02 0.80927948133E-02 0.12618107345E-01 0.16022517251E-01
 0.47744806217E-01 0.45201818271E-01 0.34996681532E-01 0.22348162449E-01 0.12816336835E-01
 0.70719135297E-02 0.30439833313E-02 0.17584030480E-03 -.13307746305E-02 -.25586433934E-02
 -.39480179390E-02 -.37863141572E-02 -.13307831814E-02 0.12430825130E-02 0.26754162423E-02
 0.55899349886E-02 0.12813947532E-01 0.23270621537E-01 0.33940778625E-01 0.42865958519E-01
 0.45201818271E-01 0.38368271618E-01 0.26743612835E-01 0.16059279663E-01 0.89928610867E-02