    5    5   50    1
  0.3477306E+02  0.2573869E-09  0.2573869E-09  0.3030466E-08  0.5000000E-15
  1.000000000000000E-004
  CAR 
 unknown system                          
     45     14     28
 
  0.0000000E+00  0.0000000E+00  0.0000000E+00  0.1000000E-01
    1      -11.793394   1.000000
    2      -10.683369   1.000000
    3       -8.978064   1.000000
    4       -7.487723   1.000000
    5       -5.864861   1.000000
    6       -5.641665   1.000000
    7       -5.641401   1.000000
    8       -5.568326   1.000000
    9       -5.264102   1.000000
   10       -5.232992   1.000000
   11       -5.232681   1.000000
   12       -5.199084   1.000000
   13       -5.198821   1.000000
   14       -4.944992   1.000000
   15       -4.944701   1.000000
   16       -4.822549   1.000000
   17       -4.767978   1.000000
   18       -4.767927   1.000000
   19       -4.454182   1.000000
   20       -4.454104   1.000000
   21       -4.228440   1.000000
   22       -4.228402   1.000000
   23       -3.945286   1.000000
   24       -3.945218   1.000000
   25       -2.849477   0.999951
   26        1.597696   0.000000
   27        1.916618   0.000000
   28        2.322369   0.000000
 
  0.1000000E+00  0.6938894E-17  0.0000000E+00  0.6000000E-01
    1      -11.497598   1.000000
    2      -10.382906   1.000000
    3       -8.710250   1.000000
    4       -7.265670   1.000000
    5       -5.963453   1.000000
    6       -5.740296   1.000000
    7       -5.613211   1.000000
    8       -5.534223   1.000000
    9       -5.344355   1.000000
   10       -5.300443   1.000000
   11       -5.276814   1.000000
   12       -5.131515   1.000000
   13       -5.123238   1.000000
   14       -5.055789   1.000000
   15       -4.964795   1.000000
   16       -4.868932   1.000000
   17       -4.770053   1.000000
   18       -4.658225   1.000000
   19       -4.470468   1.000000
   20       -4.430295   1.000000
   21       -4.251215   1.000000
   22       -4.224851   1.000000
   23       -3.940761   1.000000
   24       -3.726648   1.000000
   25       -2.167831   0.177725
   26        1.848202   0.000000
   27        2.217040   0.000000
   28        2.624404   0.000000
 
  0.2000000E+00 -0.1387779E-16  0.0000000E+00  0.6000000E-01
    1      -10.660269   1.000000
    2       -9.529354   1.000000
    3       -8.009352   1.000000
    4       -6.739165   1.000000
    5       -6.236888   1.000000
    6       -5.878401   1.000000
    7       -5.742650   1.000000
    8       -5.639253   1.000000
    9       -5.462905   1.000000
   10       -5.257768   1.000000
   11       -5.247443   1.000000
   12       -5.159474   1.000000
   13       -5.025304   1.000000
   14       -4.967540   1.000000
   15       -4.881791   1.000000
   16       -4.818078   1.000000
   17       -4.747102   1.000000
   18       -4.578267   1.000000
   19       -4.523243   1.000000
   20       -4.414291   1.000000
   21       -4.227198   1.000000
   22       -4.045628   1.000000
   23       -3.935314   1.000000
   24       -2.841006   0.999937
   25       -0.840193   0.000000
   26        2.592095   0.000000
   27        3.117749   0.000000
   28        3.527793   0.000000
 
  0.3000000E+00 -0.2775558E-16  0.0000000E+00  0.6000000E-01
    1       -9.500170   1.000000
    2       -8.330353   1.000000
    3       -7.295655   1.000000
    4       -6.526932   1.000000
    5       -6.319939   1.000000
    6       -6.122204   1.000000
    7       -5.830529   1.000000
    8       -5.624248   1.000000
    9       -5.529732   1.000000
   10       -5.254883   1.000000
   11       -5.138625   1.000000
   12       -5.016359   1.000000
   13       -4.898786   1.000000
   14       -4.806043   1.000000
   15       -4.785795   1.000000
   16       -4.623191   1.000000
   17       -4.507809   1.000000
   18       -4.333556   1.000000
   19       -4.292900   1.000000
   20       -4.222254   1.000000
   21       -4.094844   1.000000
   22       -3.921483   1.000000
   23       -3.574312   1.000000
   24       -1.660131   0.000003
   25        0.824097   0.000000
   26        3.780035   0.000000
   27        4.550376   0.000000
   28        4.911217   0.000000
 
  0.4000000E+00 -0.2775558E-16  0.0000000E+00  0.6000000E-01
    1       -8.635514   1.000000
    2       -7.305072   1.000000
    3       -6.976762   1.000000
    4       -6.591518   1.000000
    5       -6.436086   1.000000
    6       -6.250956   1.000000
    7       -5.891347   1.000000
    8       -5.452172   1.000000
    9       -5.305915   1.000000
   10       -5.229030   1.000000
   11       -5.212018   1.000000
   12       -4.946357   1.000000
   13       -4.747649   1.000000
   14       -4.502637   1.000000
   15       -4.406687   1.000000
   16       -4.342804   1.000000
   17       -4.071495   1.000000
   18       -4.060392   1.000000
   19       -4.005293   1.000000
   20       -3.926869   1.000000
   21       -3.776730   1.000000
   22       -3.538705   1.000000
   23       -2.514730   0.936852
   24       -0.282981   0.000000
   25        1.624034   0.000000
   26        2.857846   0.000000
   27        3.639390   0.000000
   28        4.716033   0.000000
 
  0.5000000E+00 -0.2775558E-16  0.0000000E+00  0.3000000E-01
    1       -8.414914   1.000000
    2       -6.986944   1.000000
    3       -6.934846   1.000000
    4       -6.569284   1.000000
    5       -6.505536   1.000000
    6       -6.305679   1.000000
    7       -5.878956   1.000000
    8       -5.373864   1.000000
    9       -5.243888   1.000000
   10       -5.206478   1.000000
   11       -5.146869   1.000000
   12       -4.967703   1.000000
   13       -4.437013   1.000000
   14       -4.422275   1.000000
   15       -4.355128   1.000000
   16       -4.232215   1.000000
   17       -4.006850   1.000000
   18       -3.914934   1.000000
   19       -3.850004   1.000000
   20       -3.661004   1.000000
   21       -3.601509   1.000000
   22       -2.215188   0.277861
   23       -1.316293   0.000000
   24       -0.767613   0.000000
   25        0.424241   0.000000
   26        2.170532   0.000000
   27        3.336986   0.000000
   28        4.186943   0.000000
 
  0.2000000E+00  0.1000000E+00  0.0000000E+00  0.6000000E-01
    1      -10.929062   1.000000
    2       -9.803756   1.000000
    3       -8.220183   1.000000
    4       -6.878461   1.000000
    5       -6.158496   1.000000
    6       -5.801972   1.000000
    7       -5.744713   1.000000
    8       -5.578631   1.000000
    9       -5.424148   1.000000
   10       -5.333972   1.000000
   11       -5.294912   1.000000
   12       -5.120638   1.000000
   13       -5.064920   1.000000
   14       -5.032514   1.000000
   15       -4.922355   1.000000
   16       -4.841470   1.000000
   17       -4.665240   1.000000
   18       -4.584237   1.000000
   19       -4.554215   1.000000
   20       -4.423965   1.000000
   21       -4.313012   1.000000
   22       -4.046392   1.000000
   23       -3.980124   1.000000
   24       -3.094872   1.000000
   25       -1.229732   0.000000
   26        2.346375   0.000000
   27        2.818089   0.000000
   28        3.227445   0.000000
 
  0.3000000E+00  0.1000000E+00  0.0000000E+00  0.1200000E+00
    1       -9.911290   1.000000
    2       -8.756999   1.000000
    3       -7.481016   1.000000
    4       -6.460629   1.000000
    5       -6.263944   1.000000
    6       -6.009569   1.000000
    7       -5.842618   1.000000
    8       -5.743234   1.000000
    9       -5.576107   1.000000
   10       -5.269767   1.000000
   11       -5.235849   1.000000
   12       -5.148803   1.000000
   13       -5.040731   1.000000
   14       -4.906403   1.000000
   15       -4.858763   1.000000
   16       -4.735814   1.000000
   17       -4.591084   1.000000
   18       -4.446390   1.000000
   19       -4.325492   1.000000
   20       -4.256592   1.000000
   21       -4.106124   1.000000
   22       -4.001567   1.000000
   23       -3.686017   1.000000
   24       -2.086587   0.066995
   25        0.221815   0.000000
   26        3.343260   0.000000
   27        4.012166   0.000000
   28        4.417284   0.000000
 
  0.4000000E+00  0.1000000E+00  0.0000000E+00  0.1200000E+00
    1       -8.852879   1.000000
    2       -7.590002   1.000000
    3       -6.977765   1.000000
    4       -6.506516   1.000000
    5       -6.288140   1.000000
    6       -6.146131   1.000000
    7       -5.884784   1.000000
    8       -5.629431   1.000000
    9       -5.542239   1.000000
   10       -5.285359   1.000000
   11       -5.211602   1.000000
   12       -5.069063   1.000000
   13       -4.904080   1.000000
   14       -4.705049   1.000000
   15       -4.614712   1.000000
   16       -4.491165   1.000000
   17       -4.387289   1.000000
   18       -4.240994   1.000000
   19       -4.133424   1.000000
   20       -3.945092   1.000000
   21       -3.906252   1.000000
   22       -3.593934   1.000000
   23       -2.808109   0.999843
   24       -0.688790   0.000000
   25        1.904055   0.000000
   26        3.817974   0.000000
   27        4.666570   0.000000
   28        5.264124   0.000000
 
  0.5000000E+00  0.1000000E+00  0.0000000E+00  0.1200000E+00
    1       -8.373003   1.000000
    2       -6.921371   1.000000
    3       -6.832815   1.000000
    4       -6.496673   1.000000
    5       -6.407401   1.000000
    6       -6.202539   1.000000
    7       -5.881483   1.000000
    8       -5.535958   1.000000
    9       -5.366196   1.000000
   10       -5.297865   1.000000
   11       -5.186055   1.000000
   12       -4.957351   1.000000
   13       -4.815643   1.000000
   14       -4.499866   1.000000
   15       -4.381798   1.000000
   16       -4.220868   1.000000
   17       -4.118270   1.000000
   18       -4.058524   1.000000
   19       -3.985050   1.000000
   20       -3.829943   1.000000
   21       -3.401767   1.000000
   22       -2.314013   0.543635
   23       -1.297824   0.000000
   24        0.161821   0.000000
   25        0.874065   0.000000
   26        2.498983   0.000000
   27        3.540206   0.000000
   28        4.710798   0.000000
 
  0.4000000E+00  0.2000000E+00  0.0000000E+00  0.6000000E-01
    1       -8.941481   1.000000
    2       -7.692127   1.000000
    3       -6.940117   1.000000
    4       -6.388598   1.000000
    5       -6.170448   1.000000
    6       -5.992799   1.000000
    7       -5.931492   1.000000
    8       -5.823896   1.000000
    9       -5.538489   1.000000
   10       -5.410482   1.000000
   11       -5.309485   1.000000
   12       -5.258776   1.000000
   13       -4.979938   1.000000
   14       -4.897446   1.000000
   15       -4.748262   1.000000
   16       -4.590659   1.000000
   17       -4.420146   1.000000
   18       -4.268588   1.000000
   19       -4.170150   1.000000
   20       -3.946706   1.000000
   21       -3.901255   1.000000
   22       -3.537632   1.000000
   23       -2.805349   0.999831
   24       -0.817466   0.000000
   25        1.763655   0.000000
   26        4.593765   0.000000
   27        5.147865   0.000000
   28        5.672426   0.000000
 
  0.5000000E+00  0.2000000E+00  0.0000000E+00  0.1200000E+00
    1       -8.298001   1.000000
    2       -6.797090   1.000000
    3       -6.604358   1.000000
    4       -6.375829   1.000000
    5       -6.180199   1.000000
    6       -6.079963   1.000000
    7       -5.872947   1.000000
    8       -5.771578   1.000000
    9       -5.540883   1.000000
   10       -5.468096   1.000000
   11       -5.385962   1.000000
   12       -5.031968   1.000000
   13       -4.946844   1.000000
   14       -4.800040   1.000000
   15       -4.629772   1.000000
   16       -4.510655   1.000000
   17       -4.348420   1.000000
   18       -4.170247   1.000000
   19       -4.001638   1.000000
   20       -3.851261   1.000000
   21       -3.208598   1.000000
   22       -2.323619   0.570449
   23       -1.178883   0.000000
   24        0.822219   0.000000
   25        2.423448   0.000000
   26        3.570107   0.000000
   27        4.384797   0.000000
   28        5.055464   0.000000
 
 -0.4000000E+00  0.2000000E+00  0.0000000E+00  0.6000000E-01
    1       -8.138810   1.000000
    2       -6.567389   1.000000
    3       -6.538396   1.000000
    4       -6.284873   1.000000
    5       -6.234244   1.000000
    6       -6.021564   1.000000
    7       -5.869340   1.000000
    8       -5.810186   1.000000
    9       -5.548291   1.000000
   10       -5.413098   1.000000
   11       -5.330548   1.000000
   12       -5.065025   1.000000
   13       -4.898031   1.000000
   14       -4.661111   1.000000
   15       -4.533731   1.000000
   16       -4.469713   1.000000
   17       -4.241505   1.000000
   18       -4.095116   1.000000
   19       -4.015021   1.000000
   20       -3.917092   1.000000
   21       -2.378579   0.714352
   22       -0.637221   0.000000
   23       -0.048567   0.000000
   24        0.712156   0.000000
   25        0.919190   0.000000
   26        2.762412   0.000000
   27        4.126656   0.000000
   28        4.532783   0.000000
 
 -0.4000000E+00  0.3000000E+00  0.0000000E+00  0.6000000E-01
    1       -8.034039   1.000000
    2       -6.352449   1.000000
    3       -6.292394   1.000000
    4       -6.211407   1.000000
    5       -6.114390   1.000000
    6       -5.970006   1.000000
    7       -5.937137   1.000000
    8       -5.821008   1.000000
    9       -5.700506   1.000000
   10       -5.601241   1.000000
   11       -5.389562   1.000000
   12       -5.003157   1.000000
   13       -4.951592   1.000000
   14       -4.845529   1.000000
   15       -4.647763   1.000000
   16       -4.494031   1.000000
   17       -4.410611   1.000000
   18       -4.123437   1.000000
   19       -4.031315   1.000000
   20       -3.941035   1.000000
   21       -1.921835   0.003866
   22       -0.320788   0.000000
   23        0.852140   0.000000
   24        1.773168   0.000000
   25        2.402946   0.000000
   26        2.422002   0.000000
   27        3.266286   0.000000
   28        4.101791   0.000000
