       N       E                     dE             d eps       ncg     rms          rms(c)
DAV:   1     0.195742910297E+03    0.19574E+03   -0.13872E+04   808   0.915E+02
DAV:   2    -0.112285159228E+02   -0.20697E+03   -0.20188E+03   828   0.266E+02
DAV:   3    -0.210279688912E+02   -0.97995E+01   -0.96870E+01   880   0.775E+01
DAV:   4    -0.211222300987E+02   -0.94261E-01   -0.94207E-01   872   0.707E+00
DAV:   5    -0.211232202006E+02   -0.99010E-03   -0.99007E-03   904   0.495E-01    0.146E+01
RMM:   6    -0.190545459952E+02    0.20687E+01   -0.43199E+01   790   0.642E+01    0.738E+00
RMM:   7    -0.173374297279E+02    0.17171E+01   -0.70662E+00   786   0.268E+01    0.167E+00
RMM:   8    -0.173195234574E+02    0.17906E-01   -0.12315E-01   792   0.274E+00    0.178E+00
RMM:   9    -0.172284644072E+02    0.91059E-01   -0.61188E-02   788   0.216E+00    0.694E-01
RMM:  10    -0.172183687529E+02    0.10096E-01   -0.17877E-02   791   0.112E+00    0.380E-01
RMM:  11    -0.172147377047E+02    0.36310E-02   -0.67321E-03   792   0.663E-01    0.145E-01
RMM:  12    -0.172137318340E+02    0.10059E-02   -0.18199E-03   790   0.359E-01    0.784E-02
RMM:  13    -0.172134986347E+02    0.23320E-03   -0.42013E-04   784   0.167E-01    0.468E-02
RMM:  14    -0.172134416721E+02    0.56963E-04   -0.22436E-04   772   0.106E-01    0.324E-02
RMM:  15    -0.172136122030E+02   -0.17053E-03   -0.14624E-04   777   0.950E-02    0.168E-02
RMM:  16    -0.172139504096E+02   -0.33821E-03   -0.12470E-04   606   0.388E-02    0.854E-03
RMM:  17    -0.172140118441E+02   -0.61434E-04   -0.97019E-06   467   0.120E-02    0.733E-03
RMM:  18    -0.172140668846E+02   -0.55040E-04   -0.67518E-06   461   0.120E-02    0.590E-03
RMM:  19    -0.172141103008E+02   -0.43416E-04   -0.19963E-06   432   0.820E-03    0.570E-03
RMM:  20    -0.172141386163E+02   -0.28315E-04   -0.13880E-06   358   0.611E-03    0.547E-03
RMM:  21    -0.172141471699E+02   -0.85536E-05   -0.26162E-07   200   0.435E-03
   1 F= -.17214147E+02 E0= -.17188735E+02  d E =-.172141E+02
       N       E                     dE             d eps       ncg     rms          rms(c)
DAV:   1    -0.172538288541E+02   -0.39690E-01   -0.94870E+00   812   0.193E+01    0.258E-01
RMM:   2    -0.172558278256E+02   -0.19990E-02   -0.32900E-02   794   0.147E+00    0.172E-01
RMM:   3    -0.172553380690E+02    0.48976E-03   -0.18271E-03   787   0.296E-01    0.111E-01
RMM:   4    -0.172557785677E+02   -0.44050E-03   -0.95438E-04   793   0.270E-01    0.138E-02
RMM:   5    -0.172558876162E+02   -0.10905E-03   -0.70128E-05   718   0.609E-02    0.126E-02
RMM:   6    -0.172559422178E+02   -0.54602E-04   -0.17892E-05   456   0.405E-02    0.579E-03
RMM:   7    -0.172559742291E+02   -0.32011E-04   -0.21973E-06   440   0.133E-02    0.594E-03
RMM:   8    -0.172559784092E+02   -0.41801E-05   -0.13390E-06   427   0.109E-02
   2 F= -.17255978E+02 E0= -.17231512E+02  d E =-.418312E-01
       N       E                     dE             d eps       ncg     rms          rms(c)
DAV:   1    -0.172718309814E+02   -0.15857E-01   -0.11747E+01   784   0.214E+01    0.295E-01
RMM:   2    -0.172732073778E+02   -0.13764E-02   -0.35882E-02   792   0.155E+00    0.754E-02
RMM:   3    -0.172733683691E+02   -0.16099E-03   -0.14057E-03   784   0.261E-01    0.524E-02
RMM:   4    -0.172733936978E+02   -0.25329E-04   -0.13132E-04   703   0.877E-02    0.206E-02
RMM:   5    -0.172733875148E+02    0.61830E-05   -0.23921E-05   489   0.389E-02
   3 F= -.17273388E+02 E0= -.17250107E+02  d E =-.174091E-01
