<?xml version="1.0" encoding="ISO-8859-1"?>
<modeling>
 <generator>
  <i name="program" type="string">vasp </i>
  <i name="version" type="string">5.4.4.18Apr17-6-g9f103f2a35  </i>
  <i name="subversion" type="string">(build Jun 30 2017 11:15:00) complex            parallel </i>
  <i name="platform" type="string">STALLO_VASP_5.4.4 </i>
  <i name="date" type="string">2019 10 11 </i>
  <i name="time" type="string">09:38:21 </i>
 </generator>
 <incar>
  <i type="string" name="PREC">normal    ! low/normal/accurate</i>
  <i type="string" name="ALGO"> Fast      ! Algorithm for electronic re</i>
  <i type="int" name="ISPIN">     1</i>
  <i type="int" name="MAXMIX">    80</i>
  <i type="int" name="NELMIN">     4</i>
  <i type="int" name="IBRION">     1</i>
  <i name="EDIFF">      0.00001000</i>
  <i name="EDIFFG">     -0.05000000</i>
  <i type="int" name="NSW">    50</i>
  <i type="int" name="ISIF">     2</i>
  <i name="ENCUT">    250.00000000</i>
  <i type="string" name="LREAL"> Auto      ! Projection in reciprocal sp</i>
  <i type="int" name="ISMEAR">     0</i>
  <i name="SIGMA">      0.20000000</i>
  <i type="logical" name="LWAVE"> F  </i>
  <v type="int" name="KPOINT_BSE">    -1     0     0     0</v>
 </incar>
 <structure name="primitive_cell" >
  <crystal>
   <varray name="basis" >
    <v>       2.57386868       0.00000000       0.00000000 </v>
    <v>       1.28693434       2.22903567       0.00000000 </v>
    <v>       0.00000000       0.00000000      30.30466494 </v>
   </varray>
   <i name="volume">    173.86529028 </i>
   <varray name="rec_basis" >
    <v>       0.38852021      -0.22431225       0.00000000 </v>
    <v>       0.00000000       0.44862450       0.00000000 </v>
    <v>       0.00000000       0.00000000       0.03299822 </v>
   </varray>
  </crystal>
  <varray name="positions" >
   <v>       0.00000000       0.00000000       0.39597864 </v>
   <v>       0.33333333       0.33333333       0.46532621 </v>
   <v>      -0.33333333      -0.33333333      -0.46532621 </v>
   <v>       0.00000000       0.00000000      -0.39597864 </v>
   <v>       0.33333333       0.33333333      -0.36298042 </v>
  </varray>
 </structure>
 <varray name="primitive_index" >
  <v type="int" >        1 </v>
  <v type="int" >        2 </v>
  <v type="int" >        3 </v>
  <v type="int" >        4 </v>
  <v type="int" >        5 </v>
 </varray>
 <kpoints>
  <generation param="Gamma">
   <v type="int" name="divisions">      10       10        1 </v>
   <v name="usershift">      0.00000000       0.00000000       0.00000000 </v>
   <v name="genvec1">      0.10000000       0.00000000       0.00000000 </v>
   <v name="genvec2">      0.00000000       0.10000000       0.00000000 </v>
   <v name="genvec3">      0.00000000       0.00000000       1.00000000 </v>
   <v name="shift">      0.00000000       0.00000000       0.00000000 </v>
  </generation>
  <varray name="kpointlist" >
   <v>       0.00000000       0.00000000       0.00000000 </v>
   <v>       0.10000000       0.00000000       0.00000000 </v>
   <v>       0.20000000      -0.00000000       0.00000000 </v>
   <v>       0.30000000      -0.00000000       0.00000000 </v>
   <v>       0.40000000      -0.00000000       0.00000000 </v>
   <v>       0.50000000      -0.00000000       0.00000000 </v>
   <v>       0.20000000       0.10000000       0.00000000 </v>
   <v>       0.30000000       0.10000000       0.00000000 </v>
   <v>       0.40000000       0.10000000       0.00000000 </v>
   <v>       0.50000000       0.10000000       0.00000000 </v>
   <v>       0.40000000       0.20000000       0.00000000 </v>
   <v>       0.50000000       0.20000000       0.00000000 </v>
   <v>      -0.40000000       0.20000000       0.00000000 </v>
   <v>      -0.40000000       0.30000000       0.00000000 </v>
  </varray>
  <varray name="weights" >
   <v>       0.01000000 </v>
   <v>       0.06000000 </v>
   <v>       0.06000000 </v>
   <v>       0.06000000 </v>
   <v>       0.06000000 </v>
   <v>       0.03000000 </v>
   <v>       0.06000000 </v>
   <v>       0.12000000 </v>
   <v>       0.12000000 </v>
   <v>       0.12000000 </v>
   <v>       0.06000000 </v>
   <v>       0.12000000 </v>
   <v>       0.06000000 </v>
   <v>       0.06000000 </v>
  </varray>
 </kpoints>
 <parameters>
  <separator name="general" >
   <i type="string" name="SYSTEM">unknown system</i>
   <i type="logical" name="LCOMPAT"> F  </i>
  </separator>
  <separator name="electronic" >
   <i type="string" name="PREC">normal</i>
   <i name="ENMAX">    250.00000000</i>
   <i name="ENAUG">    516.45600000</i>
   <i name="EDIFF">      0.00001000</i>
   <i type="int" name="IALGO">    68</i>
   <i type="int" name="IWAVPR">    11</i>
   <i type="int" name="NBANDS">    28</i>
   <i name="NELECT">     45.00000000</i>
   <i type="int" name="TURBO">     0</i>
   <i type="int" name="IRESTART">     0</i>
   <i type="int" name="NREBOOT">     0</i>
   <i type="int" name="NMIN">     0</i>
   <i name="EREF">      0.00000000</i>
   <separator name="electronic smearing" >
    <i type="int" name="ISMEAR">     0</i>
    <i name="SIGMA">      0.20000000</i>
    <i name="KSPACING">      0.50000000</i>
    <i type="logical" name="KGAMMA"> T  </i>
   </separator>
   <separator name="electronic projectors" >
    <i type="logical" name="LREAL"> T  </i>
    <v name="ROPT">     -0.00050000     -0.00050000</v>
    <i type="int" name="LMAXPAW">  -100</i>
    <i type="int" name="LMAXMIX">     2</i>
    <i type="logical" name="NLSPLINE"> F  </i>
   </separator>
   <separator name="electronic startup" >
    <i type="int" name="ISTART">     0</i>
    <i type="int" name="ICHARG">     2</i>
    <i type="int" name="INIWAV">     1</i>
   </separator>
   <separator name="electronic spin" >
    <i type="int" name="ISPIN">     1</i>
    <i type="logical" name="LNONCOLLINEAR"> F  </i>
    <v name="MAGMOM">      1.00000000      1.00000000      1.00000000      1.00000000      1.00000000</v>
    <i name="NUPDOWN">     -1.00000000</i>
    <i type="logical" name="LSORBIT"> F  </i>
    <v name="SAXIS">      0.00000000      0.00000000      1.00000000</v>
    <i type="logical" name="LSPIRAL"> F  </i>
    <v name="QSPIRAL">      0.00000000      0.00000000      0.00000000</v>
    <i type="logical" name="LZEROZ"> F  </i>
   </separator>
   <separator name="electronic exchange-correlation" >
    <i type="logical" name="LASPH"> F  </i>
    <i type="logical" name="LMETAGGA"> F  </i>
   </separator>
   <separator name="electronic convergence" >
    <i type="int" name="NELM">    60</i>
    <i type="int" name="NELMDL">    -5</i>
    <i type="int" name="NELMIN">     4</i>
    <i name="ENINI">    250.00000000</i>
    <separator name="electronic convergence detail" >
     <i type="logical" name="LDIAG"> T  </i>
     <i type="logical" name="LSUBROT"> F  </i>
     <i name="WEIMIN">      0.00100000</i>
     <i name="EBREAK">      0.00000009</i>
     <i name="DEPER">      0.30000000</i>
     <i type="int" name="NRMM">     4</i>
     <i name="TIME">      0.40000000</i>
    </separator>
   </separator>
   <separator name="electronic mixer" >
    <i name="AMIX">      0.40000000</i>
    <i name="BMIX">      1.00000000</i>
    <i name="AMIN">      0.10000000</i>
    <i name="AMIX_MAG">      1.60000000</i>
    <i name="BMIX_MAG">      1.00000000</i>
    <separator name="electronic mixer details" >
     <i type="int" name="IMIX">     4</i>
     <i type="logical" name="MIXFIRST"> F  </i>
     <i type="int" name="MAXMIX">    80</i>
     <i name="WC">    100.00000000</i>
     <i type="int" name="INIMIX">     1</i>
     <i type="int" name="MIXPRE">     1</i>
     <i type="int" name="MREMOVE">     5</i>
    </separator>
   </separator>
   <separator name="electronic dipolcorrection" >
    <i type="logical" name="LDIPOL"> F  </i>
    <i type="logical" name="LMONO"> F  </i>
    <i type="int" name="IDIPOL">     0</i>
    <i name="EPSILON">      1.00000000</i>
    <v name="DIPOL">   -100.00000000   -100.00000000   -100.00000000</v>
    <i name="EFIELD">      0.00000000</i>
   </separator>
  </separator>
  <separator name="grids" >
   <i type="int" name="NGX">    10</i>
   <i type="int" name="NGY">    10</i>
   <i type="int" name="NGZ">   120</i>
   <i type="int" name="NGXF">    20</i>
   <i type="int" name="NGYF">    20</i>
   <i type="int" name="NGZF">   240</i>
   <i type="logical" name="ADDGRID"> F  </i>
  </separator>
  <separator name="ionic" >
   <i type="int" name="NSW">    50</i>
   <i type="int" name="IBRION">     1</i>
   <i type="int" name="MDALGO">     0</i>
   <i type="int" name="ISIF">     2</i>
   <i name="PSTRESS">      0.00000000</i>
   <i name="EDIFFG">     -0.05000000</i>
   <i type="int" name="NFREE">     0</i>
   <i name="POTIM">      0.50000000</i>
   <i name="SMASS">     -3.00000000</i>
   <i name="SCALEE">      1.00000000</i>
  </separator>
  <separator name="ionic md" >
   <i name="TEBEG">      0.00010000</i>
   <i name="TEEND">      0.00010000</i>
   <i type="int" name="NBLOCK">     1</i>
   <i type="int" name="KBLOCK">    50</i>
   <i type="int" name="NPACO">   256</i>
   <i name="APACO">     16.00000000</i>
  </separator>
  <separator name="symmetry" >
   <i type="int" name="ISYM">     2</i>
   <i name="SYMPREC">      0.00001000</i>
  </separator>
  <separator name="dos" >
   <i type="int" name="LORBIT">     0</i>
   <v name="RWIGS">     -1.00000000     -1.00000000</v>
   <i type="int" name="NEDOS">   301</i>
   <i name="EMIN">     10.00000000</i>
   <i name="EMAX">    -10.00000000</i>
   <i name="EFERMI">      0.00000000</i>
  </separator>
  <separator name="writing" >
   <i type="int" name="NWRITE">     2</i>
   <i type="logical" name="LWAVE"> F  </i>
   <i type="logical" name="LDOWNSAMPLE"> F  </i>
   <i type="logical" name="LCHARG"> T  </i>
   <i type="logical" name="LPARD"> F  </i>
   <i type="logical" name="LVTOT"> F  </i>
   <i type="logical" name="LVHAR"> F  </i>
   <i type="logical" name="LELF"> F  </i>
   <i type="logical" name="LOPTICS"> F  </i>
   <v name="STM">      0.00000000      0.00000000      0.00000000      0.00000000      0.00000000      0.00000000      0.00000000</v>
  </separator>
  <separator name="performance" >
   <i type="int" name="NPAR">     2</i>
   <i type="int" name="NSIM">     4</i>
   <i type="int" name="NBLK">    -1</i>
   <i type="logical" name="LPLANE"> T  </i>
   <i type="logical" name="LSCALAPACK"> T  </i>
   <i type="logical" name="LSCAAWARE"> F  </i>
   <i type="logical" name="LSCALU"> F  </i>
   <i type="logical" name="LASYNC"> F  </i>
   <i type="logical" name="LORBITALREAL"> F  </i>
  </separator>
  <separator name="miscellaneous" >
   <i type="int" name="IDIOT">     3</i>
   <i type="int" name="ISPECIAL">     0</i>
   <i type="logical" name="LMUSIC"> F  </i>
   <v name="POMASS">     63.54600000      1.00000000</v>
   <v name="DARWINR">      0.00000000      0.00000000</v>
   <v name="DARWINV">      1.00000000      1.00000000</v>
   <i type="logical" name="LCORR"> T  </i>
  </separator>
  <i type="logical" name="GGA_COMPAT"> T  </i>
  <i type="logical" name="LBERRY"> F  </i>
  <i type="int" name="ICORELEVEL">     0</i>
  <i type="logical" name="LDAU"> F  </i>
  <i type="int" name="I_CONSTRAINED_M">     0</i>
  <separator name="electronic exchange-correlation" >
   <i type="string" name="GGA">--</i>
   <i type="int" name="VOSKOWN">     0</i>
   <i type="logical" name="LHFCALC"> F  </i>
   <i type="string" name="PRECFOCK"></i>
   <i type="logical" name="LSYMGRAD"> F  </i>
   <i type="logical" name="LHFONE"> F  </i>
   <i type="logical" name="LRHFCALC"> F  </i>
   <i type="logical" name="LTHOMAS"> F  </i>
   <i type="logical" name="LMODELHF"> F  </i>
   <i name="ENCUT4O">     -1.00000000</i>
   <i type="int" name="EXXOEP">     0</i>
   <i type="int" name="FOURORBIT">     0</i>
   <i name="AEXX">      0.00000000</i>
   <i name="HFALPHA">      0.00000000</i>
   <i name="MCALPHA">      0.00000000</i>
   <i name="ALDAX">      1.00000000</i>
   <i name="AGGAX">      1.00000000</i>
   <i name="ALDAC">      1.00000000</i>
   <i name="AGGAC">      1.00000000</i>
   <i type="int" name="NKREDX">     1</i>
   <i type="int" name="NKREDY">     1</i>
   <i type="int" name="NKREDZ">     1</i>
   <i type="logical" name="SHIFTRED"> F  </i>
   <i type="logical" name="ODDONLY"> F  </i>
   <i type="logical" name="EVENONLY"> F  </i>
   <i type="int" name="LMAXFOCK">     0</i>
   <i type="int" name="NMAXFOCKAE">     0</i>
   <i type="logical" name="LFOCKAEDFT"> F  </i>
   <i name="HFSCREEN">      0.00000000</i>
   <i name="HFSCREENC">      0.00000000</i>
   <i type="int" name="NBANDSGWLOW">     0</i>
  </separator>
  <separator name="vdW DFT" >
   <i type="logical" name="LUSE_VDW"> F  </i>
   <i name="Zab_VDW">     -0.84910000</i>
   <i name="PARAM1">      0.12340000</i>
   <i name="PARAM2">      1.00000000</i>
   <i name="PARAM3">      0.00000000</i>
  </separator>
  <separator name="model GW" >
   <i type="int" name="MODEL_GW">     0</i>
   <i name="MODEL_EPS0">     20.86383483</i>
   <i name="MODEL_ALPHA">      1.00000000</i>
  </separator>
  <separator name="linear response parameters" >
   <i type="logical" name="LEPSILON"> F  </i>
   <i type="logical" name="LRPA"> F  </i>
   <i type="logical" name="LNABLA"> F  </i>
   <i type="logical" name="LVEL"> F  </i>
   <i type="int" name="KINTER">     0</i>
   <i name="CSHIFT">      0.10000000</i>
   <i name="OMEGAMAX">     -1.00000000</i>
   <i name="DEG_THRESHOLD">      0.00200000</i>
   <i name="RTIME">     -0.10000000</i>
   <i name="WPLASMAI">      0.00000000</i>
   <v name="DFIELD">      0.00000000      0.00000000      0.00000000</v>
   <v name="WPLASMA">      0.00000000      0.00000000      0.00000000      0.00000000      0.00000000      0.00000000      0.00000000      0.00000000      0.00000000</v>
  </separator>
  <separator name="orbital magnetization" >
   <i type="logical" name="NUCIND"> F  </i>
   <v name="MAGPOS">      0.00000000      0.00000000      0.00000000</v>
   <i type="logical" name="LNICSALL"> T  </i>
   <i type="logical" name="ORBITALMAG"> F  </i>
   <i type="logical" name="LMAGBLOCH"> F  </i>
   <i type="logical" name="LCHIMAG"> F  </i>
   <i type="logical" name="LGAUGE"> T  </i>
   <i type="int" name="MAGATOM">     0</i>
   <v name="MAGDIPOL">      0.00000000      0.00000000      0.00000000</v>
   <v name="AVECCONST">      0.00000000      0.00000000      0.00000000</v>
  </separator>
  <separator name="response functions" >
   <i type="logical" name="LADDER"> F  </i>
   <i type="logical" name="LRPAFORCE"> F  </i>
   <i type="logical" name="LFXC"> F  </i>
   <i type="logical" name="LHARTREE"> T  </i>
   <i type="int" name="IBSE">     0</i>
   <v type="int" name="KPOINT">    -1     0     0     0</v>
   <i type="logical" name="LTCTE"> F  </i>
   <i type="logical" name="LTETE"> F  </i>
   <i type="logical" name="LTRIPLET"> F  </i>
   <i type="logical" name="LFXCEPS"> F  </i>
   <i type="logical" name="LFXHEG"> F  </i>
   <i type="int" name="NATURALO">     2</i>
   <i type="logical" name="L2ORDER"> F  </i>
   <i type="logical" name="LMP2LT"> F  </i>
   <i type="logical" name="LUSEW"> F  </i>
   <i name="ENCUTGW">     -2.00000000</i>
   <i name="ENCUTGWSOFT">     -2.00000000</i>
   <i name="ENCUTLF">     -1.00000000</i>
   <i type="int" name="LMAXMP2">    -1</i>
   <i name="SCISSOR">      0.00000000</i>
   <i type="int" name="NOMEGA">     0</i>
   <i type="int" name="NOMEGAR">     0</i>
   <i type="int" name="NBANDSGW">    -1</i>
   <i type="int" name="NBANDSO">    -1</i>
   <i type="int" name="NBANDSV">    -1</i>
   <i type="int" name="NELM">     1</i>
   <i type="int" name="NELMHF">     1</i>
   <i type="int" name="DIM">     3</i>
   <i type="int" name="ANTIRES">     0</i>
   <i name="OMEGAMAX">    -30.00000000</i>
   <i name="OMEGAMIN">    -30.00000000</i>
   <i name="OMEGATL">   -200.00000000</i>
   <i type="int" name="OMEGAGRID">   140</i>
   <i name="CSHIFT">     -0.10000000</i>
   <i type="logical" name="SELFENERGY"> F  </i>
   <i type="logical" name="LSPECTRAL"> F  </i>
   <i type="logical" name="LSPECTRALGW"> F  </i>
   <i type="logical" name="LSINGLES"> F  </i>
   <i type="logical" name="LFERMIGW"> F  </i>
   <i type="logical" name="ODDONLYGW"> F  </i>
   <i type="logical" name="EVENONLYGW"> F  </i>
   <i type="int" name="NKREDLFX">     1</i>
   <i type="int" name="NKREDLFY">     1</i>
   <i type="int" name="NKREDLFZ">     1</i>
   <i type="int" name="MAXMEM">  2800</i>
   <i type="int" name="TELESCOPE">     0</i>
   <i type="int" name="TAUPAR">     1</i>
   <i type="int" name="OMEGAPAR">    -1</i>
   <i name="LAMBDA">      1.00000000</i>
  </separator>
  <separator name="External order field" >
   <i name="OFIELD_KAPPA">      0.00000000</i>
   <v name="OFIELD_K">      0.00000000      0.00000000      0.00000000</v>
   <i name="OFIELD_Q6_NEAR">      0.00000000</i>
   <i name="OFIELD_Q6_FAR">      0.00000000</i>
   <i name="OFIELD_A">      0.00000000</i>
  </separator>
 </parameters>
 <atominfo>
  <atoms>       5 </atoms>
  <types>       2 </types>
  <array name="atoms" >
   <dimension dim="1">ion</dimension>
   <field type="string">element</field>
   <field type="int">atomtype</field>
   <set>
    <rc><c>Cu</c><c>   1</c></rc>
    <rc><c>Cu</c><c>   1</c></rc>
    <rc><c>Cu</c><c>   1</c></rc>
    <rc><c>Cu</c><c>   1</c></rc>
    <rc><c>H </c><c>   2</c></rc>
   </set>
  </array>
  <array name="atomtypes" >
   <dimension dim="1">type</dimension>
   <field type="int">atomspertype</field>
   <field type="string">element</field>
   <field>mass</field>
   <field>valence</field>
   <field type="string">pseudopotential</field>
   <set>
    <rc><c>   4</c><c>Cu</c><c>     63.54600000</c><c>     11.00000000</c><c> PAW_PBE Cu 05Jan2001                   </c></rc>
    <rc><c>   1</c><c>H </c><c>      1.00000000</c><c>      1.00000000</c><c> PAW_PBE H 15Jun2001                    </c></rc>
   </set>
  </array>
 </atominfo>
 <structure name="initialpos" >
  <crystal>
   <varray name="basis" >
    <v>       2.57386868       0.00000000       0.00000000 </v>
    <v>       1.28693434       2.22903567       0.00000000 </v>
    <v>       0.00000000       0.00000000      30.30466494 </v>
   </varray>
   <i name="volume">    173.86529028 </i>
   <varray name="rec_basis" >
    <v>       0.38852021      -0.22431225       0.00000000 </v>
    <v>       0.00000000       0.44862450       0.00000000 </v>
    <v>       0.00000000       0.00000000       0.03299822 </v>
   </varray>
  </crystal>
  <varray name="positions" >
   <v>       0.00000000       0.00000000       0.39597864 </v>
   <v>       0.33333333       0.33333333       0.46532621 </v>
   <v>       0.66666667       0.66666667       0.53467379 </v>
   <v>       0.00000000       0.00000000       0.60402136 </v>
   <v>       0.33333333       0.33333333       0.63701958 </v>
  </varray>
 </structure>
 <calculation>
  <scstep>
   <time name="dav">    0.35    0.35</time>
   <time name="total">    0.37    0.44</time>
   <energy>
    <i name="alphaZ">    120.87645803 </i>
    <i name="ewald">  38004.82125606 </i>
    <i name="hartreedc"> -43126.61256067 </i>
    <i name="XCdc">    177.38766733 </i>
    <i name="pawpsdc">   4328.99049516 </i>
    <i name="pawaedc">  -4905.09836044 </i>
    <i name="eentropy">     -0.04253225 </i>
    <i name="bandstr">     19.47086881 </i>
    <i name="atom">   5575.94961827 </i>
    <i name="e_fr_energy">    195.74291030 </i>
    <i name="e_wo_entrp">    195.78544254 </i>
    <i name="e_0_energy">    195.76417642 </i>
   </energy>
  </scstep>
  <scstep>
   <time name="dav">    0.30    0.30</time>
   <time name="total">    0.30    0.30</time>
   <energy>
    <i name="e_fr_energy">    -11.22851592 </i>
    <i name="e_wo_entrp">    -11.18595176 </i>
    <i name="e_0_energy">    -11.20723384 </i>
   </energy>
  </scstep>
  <scstep>
   <time name="dav">    0.29    0.29</time>
   <time name="total">    0.29    0.29</time>
   <energy>
    <i name="e_fr_energy">    -21.02796889 </i>
    <i name="e_wo_entrp">    -20.98656332 </i>
    <i name="e_0_energy">    -21.00726611 </i>
   </energy>
  </scstep>
  <scstep>
   <time name="dav">    0.29    0.29</time>
   <time name="total">    0.29    0.29</time>
   <energy>
    <i name="e_fr_energy">    -21.12223010 </i>
    <i name="e_wo_entrp">    -21.08063361 </i>
    <i name="e_0_energy">    -21.10143186 </i>
   </energy>
  </scstep>
  <scstep>
   <time name="dav">    0.30    0.30</time>
   <time name="total">    0.31    0.31</time>
   <energy>
    <i name="e_fr_energy">    -21.12322020 </i>
    <i name="e_wo_entrp">    -21.08161934 </i>
    <i name="e_0_energy">    -21.10241977 </i>
   </energy>
  </scstep>
  <scstep>
   <time name="diag">    0.05    0.06</time>
   <time name="diis">    0.15    0.15</time>
   <time name="orth">    0.01    0.01</time>
   <time name="total">    0.24    0.25</time>
   <energy>
    <i name="e_fr_energy">    -19.05454600 </i>
    <i name="e_wo_entrp">    -19.01998070 </i>
    <i name="e_0_energy">    -19.03726335 </i>
   </energy>
  </scstep>
  <scstep>
   <time name="diag">    0.06    0.06</time>
   <time name="diis">    0.15    0.15</time>
   <time name="orth">    0.01    0.01</time>
   <time name="total">    0.24    0.25</time>
   <energy>
    <i name="e_fr_energy">    -17.33742973 </i>
    <i name="e_wo_entrp">    -17.30018484 </i>
    <i name="e_0_energy">    -17.31880729 </i>
   </energy>
  </scstep>
  <scstep>
   <time name="diag">    0.06    0.06</time>
   <time name="diis">    0.15    0.15</time>
   <time name="orth">    0.01    0.01</time>
   <time name="total">    0.25    0.25</time>
   <energy>
    <i name="e_fr_energy">    -17.31952346 </i>
    <i name="e_wo_entrp">    -17.27341699 </i>
    <i name="e_0_energy">    -17.29647023 </i>
   </energy>
  </scstep>
  <scstep>
   <time name="diag">    0.06    0.06</time>
   <time name="diis">    0.15    0.15</time>
   <time name="orth">    0.01    0.01</time>
   <time name="total">    0.24    0.25</time>
   <energy>
    <i name="e_fr_energy">    -17.22846441 </i>
    <i name="e_wo_entrp">    -17.17921918 </i>
    <i name="e_0_energy">    -17.20384179 </i>
   </energy>
  </scstep>
  <scstep>
   <time name="diag">    0.06    0.06</time>
   <time name="diis">    0.15    0.15</time>
   <time name="orth">    0.01    0.01</time>
   <time name="total">    0.24    0.25</time>
   <energy>
    <i name="e_fr_energy">    -17.21836875 </i>
    <i name="e_wo_entrp">    -17.16720523 </i>
    <i name="e_0_energy">    -17.19278699 </i>
   </energy>
  </scstep>
  <scstep>
   <time name="diag">    0.06    0.06</time>
   <time name="diis">    0.15    0.15</time>
   <time name="orth">    0.01    0.01</time>
   <time name="total">    0.24    0.25</time>
   <energy>
    <i name="e_fr_energy">    -17.21473770 </i>
    <i name="e_wo_entrp">    -17.16440720 </i>
    <i name="e_0_energy">    -17.18957245 </i>
   </energy>
  </scstep>
  <scstep>
   <time name="diag">    0.06    0.06</time>
   <time name="diis">    0.15    0.15</time>
   <time name="orth">    0.01    0.01</time>
   <time name="total">    0.24    0.25</time>
   <energy>
    <i name="e_fr_energy">    -17.21373183 </i>
    <i name="e_wo_entrp">    -17.16347570 </i>
    <i name="e_0_energy">    -17.18860377 </i>
   </energy>
  </scstep>
  <scstep>
   <time name="diag">    0.06    0.06</time>
   <time name="diis">    0.15    0.15</time>
   <time name="orth">    0.01    0.01</time>
   <time name="total">    0.24    0.24</time>
   <energy>
    <i name="e_fr_energy">    -17.21349863 </i>
    <i name="e_wo_entrp">    -17.16308366 </i>
    <i name="e_0_energy">    -17.18829115 </i>
   </energy>
  </scstep>
  <scstep>
   <time name="diag">    0.06    0.06</time>
   <time name="diis">    0.14    0.15</time>
   <time name="orth">    0.01    0.01</time>
   <time name="total">    0.24    0.24</time>
   <energy>
    <i name="e_fr_energy">    -17.21344167 </i>
    <i name="e_wo_entrp">    -17.16269266 </i>
    <i name="e_0_energy">    -17.18806717 </i>
   </energy>
  </scstep>
  <scstep>
   <time name="diag">    0.05    0.06</time>
   <time name="diis">    0.15    0.15</time>
   <time name="orth">    0.01    0.01</time>
   <time name="total">    0.24    0.24</time>
   <energy>
    <i name="e_fr_energy">    -17.21361220 </i>
    <i name="e_wo_entrp">    -17.16291848 </i>
    <i name="e_0_energy">    -17.18826534 </i>
   </energy>
  </scstep>
  <scstep>
   <time name="diag">    0.06    0.06</time>
   <time name="diis">    0.12    0.12</time>
   <time name="orth">    0.01    0.01</time>
   <time name="total">    0.21    0.21</time>
   <energy>
    <i name="e_fr_energy">    -17.21395041 </i>
    <i name="e_wo_entrp">    -17.16313577 </i>
    <i name="e_0_energy">    -17.18854309 </i>
   </energy>
  </scstep>
  <scstep>
   <time name="diag">    0.05    0.06</time>
   <time name="diis">    0.09    0.09</time>
   <time name="orth">    0.01    0.01</time>
   <time name="total">    0.19    0.19</time>
   <energy>
    <i name="e_fr_energy">    -17.21401184 </i>
    <i name="e_wo_entrp">    -17.16319214 </i>
    <i name="e_0_energy">    -17.18860199 </i>
   </energy>
  </scstep>
  <scstep>
   <time name="diag">    0.06    0.06</time>
   <time name="diis">    0.09    0.09</time>
   <time name="orth">    0.01    0.01</time>
   <time name="total">    0.19    0.19</time>
   <energy>
    <i name="e_fr_energy">    -17.21406688 </i>
    <i name="e_wo_entrp">    -17.16325769 </i>
    <i name="e_0_energy">    -17.18866229 </i>
   </energy>
  </scstep>
  <scstep>
   <time name="diag">    0.06    0.06</time>
   <time name="diis">    0.09    0.09</time>
   <time name="orth">    0.01    0.01</time>
   <time name="total">    0.19    0.19</time>
   <energy>
    <i name="e_fr_energy">    -17.21411030 </i>
    <i name="e_wo_entrp">    -17.16329580 </i>
    <i name="e_0_energy">    -17.18870305 </i>
   </energy>
  </scstep>
  <scstep>
   <time name="diag">    0.06    0.06</time>
   <time name="diis">    0.08    0.09</time>
   <time name="orth">    0.01    0.01</time>
   <time name="total">    0.18    0.18</time>
   <energy>
    <i name="e_fr_energy">    -17.21413862 </i>
    <i name="e_wo_entrp">    -17.16331552 </i>
    <i name="e_0_energy">    -17.18872707 </i>
   </energy>
  </scstep>
  <scstep>
   <time name="diag">    0.06    0.06</time>
   <time name="diis">    0.07    0.07</time>
   <time name="orth">    0.01    0.01</time>
   <time name="total">    0.15    0.15</time>
   <energy>
    <i name="alphaZ">    120.87645803 </i>
    <i name="ewald">  38004.82125606 </i>
    <i name="hartreedc"> -43073.76860148 </i>
    <i name="XCdc">    173.33915327 </i>
    <i name="pawpsdc">   4389.52164726 </i>
    <i name="pawaedc">  -4965.24066690 </i>
    <i name="eentropy">     -0.05082390 </i>
    <i name="bandstr">   -242.66218778 </i>
    <i name="atom">   5575.94961827 </i>
    <i name="e_fr_energy">    -17.21414717 </i>
    <i name="e_wo_entrp">    -17.16332327 </i>
    <i name="e_0_energy">    -17.18873522 </i>
   </energy>
  </scstep>
  <structure>
   <crystal>
    <varray name="basis" >
     <v>       2.57386868       0.00000000       0.00000000 </v>
     <v>       1.28693434       2.22903567       0.00000000 </v>
     <v>       0.00000000       0.00000000      30.30466494 </v>
    </varray>
    <i name="volume">    173.86529028 </i>
    <varray name="rec_basis" >
     <v>       0.38852021      -0.22431225       0.00000000 </v>
     <v>       0.00000000       0.44862450       0.00000000 </v>
     <v>       0.00000000       0.00000000       0.03299822 </v>
    </varray>
   </crystal>
   <varray name="positions" >
    <v>       0.00000000       0.00000000       0.39597864 </v>
    <v>       0.33333333       0.33333333       0.46532621 </v>
    <v>       0.66666667       0.66666667       0.53467379 </v>
    <v>       0.00000000       0.00000000       0.60402136 </v>
    <v>       0.33333333       0.33333333       0.63701958 </v>
   </varray>
  </structure>
  <varray name="forces" >
   <v>       0.00000000      -0.00000000       0.11872875 </v>
   <v>       0.00000000      -0.00000000      -0.02453387 </v>
   <v>      -0.00000000       0.00000000      -0.27167550 </v>
   <v>      -0.00000000       0.00000000       0.80323455 </v>
   <v>      -0.00000000       0.00000000      -0.62575393 </v>
  </varray>
  <varray name="stress" >
   <v>     -50.08246965       0.00000000       0.00000000 </v>
   <v>       0.00000000     -50.08246965      -0.00000000 </v>
   <v>       0.00000000      -0.00000000     -50.43823121 </v>
  </varray>
  <energy>
   <i name="e_fr_energy">    -17.21414717 </i>
   <i name="e_wo_entrp">    -17.18873522 </i>
   <i name="e_0_energy">     -0.05082390 </i>
  </energy>
  <time name="totalsc">    5.65    6.00</time>
 </calculation>
 <calculation>
  <scstep>
   <time name="dav">    0.27    0.27</time>
   <time name="total">    0.31    0.33</time>
   <energy>
    <i name="alphaZ">    120.87645803 </i>
    <i name="ewald">  37903.66231887 </i>
    <i name="hartreedc"> -42972.47815913 </i>
    <i name="XCdc">    173.36802926 </i>
    <i name="pawpsdc">   4389.50886099 </i>
    <i name="pawaedc">  -4965.22984728 </i>
    <i name="eentropy">     -0.04881616 </i>
    <i name="bandstr">   -242.86229172 </i>
    <i name="atom">   5575.94961827 </i>
    <i name="e_fr_energy">    -17.25382885 </i>
    <i name="e_wo_entrp">    -17.20501270 </i>
    <i name="e_0_energy">    -17.22942078 </i>
   </energy>
  </scstep>
  <scstep>
   <time name="diag">    0.06    0.06</time>
   <time name="diis">    0.15    0.15</time>
   <time name="orth">    0.01    0.01</time>
   <time name="total">    0.25    0.25</time>
   <energy>
    <i name="e_fr_energy">    -17.25582783 </i>
    <i name="e_wo_entrp">    -17.20708703 </i>
    <i name="e_0_energy">    -17.23145743 </i>
   </energy>
  </scstep>
  <scstep>
   <time name="diag">    0.06    0.06</time>
   <time name="diis">    0.15    0.15</time>
   <time name="orth">    0.01    0.01</time>
   <time name="total">    0.24    0.25</time>
   <energy>
    <i name="e_fr_energy">    -17.25533807 </i>
    <i name="e_wo_entrp">    -17.20657937 </i>
    <i name="e_0_energy">    -17.23095872 </i>
   </energy>
  </scstep>
  <scstep>
   <time name="diag">    0.06    0.06</time>
   <time name="diis">    0.15    0.15</time>
   <time name="orth">    0.01    0.01</time>
   <time name="total">    0.25    0.25</time>
   <energy>
    <i name="e_fr_energy">    -17.25577857 </i>
    <i name="e_wo_entrp">    -17.20679721 </i>
    <i name="e_0_energy">    -17.23128789 </i>
   </energy>
  </scstep>
  <scstep>
   <time name="diag">    0.06    0.06</time>
   <time name="diis">    0.13    0.13</time>
   <time name="orth">    0.01    0.01</time>
   <time name="total">    0.23    0.23</time>
   <energy>
    <i name="e_fr_energy">    -17.25588762 </i>
    <i name="e_wo_entrp">    -17.20694515 </i>
    <i name="e_0_energy">    -17.23141639 </i>
   </energy>
  </scstep>
  <scstep>
   <time name="diag">    0.06    0.06</time>
   <time name="diis">    0.09    0.09</time>
   <time name="orth">    0.01    0.01</time>
   <time name="total">    0.19    0.19</time>
   <energy>
    <i name="e_fr_energy">    -17.25594222 </i>
    <i name="e_wo_entrp">    -17.20700557 </i>
    <i name="e_0_energy">    -17.23147389 </i>
   </energy>
  </scstep>
  <scstep>
   <time name="diag">    0.06    0.06</time>
   <time name="diis">    0.09    0.09</time>
   <time name="orth">    0.01    0.01</time>
   <time name="total">    0.19    0.19</time>
   <energy>
    <i name="e_fr_energy">    -17.25597423 </i>
    <i name="e_wo_entrp">    -17.20703003 </i>
    <i name="e_0_energy">    -17.23150213 </i>
   </energy>
  </scstep>
  <scstep>
   <time name="diag">    0.06    0.06</time>
   <time name="diis">    0.09    0.09</time>
   <time name="orth">    0.01    0.01</time>
   <time name="total">    0.17    0.17</time>
   <energy>
    <i name="alphaZ">    120.87645803 </i>
    <i name="ewald">  37903.66231887 </i>
    <i name="hartreedc"> -42973.49835129 </i>
    <i name="XCdc">    173.37722662 </i>
    <i name="pawpsdc">   4390.79725612 </i>
    <i name="pawaedc">  -4966.54673764 </i>
    <i name="eentropy">     -0.04893250 </i>
    <i name="bandstr">   -241.82483489 </i>
    <i name="atom">   5575.94961827 </i>
    <i name="e_fr_energy">    -17.25597841 </i>
    <i name="e_wo_entrp">    -17.20704590 </i>
    <i name="e_0_energy">    -17.23151216 </i>
   </energy>
  </scstep>
  <structure>
   <crystal>
    <varray name="basis" >
     <v>       2.57386868       0.00000000       0.00000000 </v>
     <v>       1.28693434       2.22903567       0.00000000 </v>
     <v>       0.00000000       0.00000000      30.30466494 </v>
    </varray>
    <i name="volume">    173.86529028 </i>
    <varray name="rec_basis" >
     <v>       0.38852021      -0.22431225       0.00000000 </v>
     <v>       0.00000000       0.44862450       0.00000000 </v>
     <v>       0.00000000       0.00000000       0.03299822 </v>
    </varray>
   </crystal>
   <varray name="positions" >
    <v>       0.00000000      -0.00000000       0.39616765 </v>
    <v>       0.33333333       0.33333333       0.46528716 </v>
    <v>       0.66666667       0.66666667       0.53424130 </v>
    <v>      -0.00000000       0.00000000       0.60530005 </v>
    <v>       0.33333333       0.33333333       0.63602343 </v>
   </varray>
  </structure>
  <varray name="forces" >
   <v>       0.00000000      -0.00000000       0.08012978 </v>
   <v>       0.00000000       0.00000000      -0.03981401 </v>
   <v>      -0.00000000      -0.00000000      -0.09559557 </v>
   <v>       0.00000000       0.00000000       0.42460593 </v>
   <v>      -0.00000000       0.00000000      -0.36932613 </v>
  </varray>
  <varray name="stress" >
   <v>     -48.39508027       0.00000000       0.00000000 </v>
   <v>       0.00000000     -48.39508027       0.00000000 </v>
   <v>       0.00000000      -0.00000000     -48.96418171 </v>
  </varray>
  <energy>
   <i name="e_fr_energy">    -17.25597841 </i>
   <i name="e_wo_entrp">    -17.23151216 </i>
   <i name="e_0_energy">     -0.04893250 </i>
  </energy>
  <time name="totalsc">    2.25    2.29</time>
 </calculation>
 <calculation>
  <scstep>
   <time name="dav">    0.26    0.27</time>
   <time name="total">    0.30    0.33</time>
   <energy>
    <i name="alphaZ">    120.87645803 </i>
    <i name="ewald">  37788.96794314 </i>
    <i name="hartreedc"> -42858.43384973 </i>
    <i name="XCdc">    173.42266934 </i>
    <i name="pawpsdc">   4390.81940721 </i>
    <i name="pawaedc">  -4966.57350639 </i>
    <i name="eentropy">     -0.04645969 </i>
    <i name="bandstr">   -242.25411115 </i>
    <i name="atom">   5575.94961827 </i>
    <i name="e_fr_energy">    -17.27183098 </i>
    <i name="e_wo_entrp">    -17.22537129 </i>
    <i name="e_0_energy">    -17.24860113 </i>
   </energy>
  </scstep>
  <scstep>
   <time name="diag">    0.05    0.06</time>
   <time name="diis">    0.15    0.15</time>
   <time name="orth">    0.01    0.01</time>
   <time name="total">    0.25    0.25</time>
   <energy>
    <i name="e_fr_energy">    -17.27320738 </i>
    <i name="e_wo_entrp">    -17.22684339 </i>
    <i name="e_0_energy">    -17.25002539 </i>
   </energy>
  </scstep>
  <scstep>
   <time name="diag">    0.06    0.06</time>
   <time name="diis">    0.15    0.15</time>
   <time name="orth">    0.01    0.01</time>
   <time name="total">    0.24    0.25</time>
   <energy>
    <i name="e_fr_energy">    -17.27336837 </i>
    <i name="e_wo_entrp">    -17.22671678 </i>
    <i name="e_0_energy">    -17.25004257 </i>
   </energy>
  </scstep>
  <scstep>
   <time name="diag">    0.06    0.06</time>
   <time name="diis">    0.13    0.13</time>
   <time name="orth">    0.01    0.01</time>
   <time name="total">    0.23    0.23</time>
   <energy>
    <i name="e_fr_energy">    -17.27339370 </i>
    <i name="e_wo_entrp">    -17.22678466 </i>
    <i name="e_0_energy">    -17.25008918 </i>
   </energy>
  </scstep>
  <scstep>
   <time name="diag">    0.06    0.06</time>
   <time name="diis">    0.10    0.10</time>
   <time name="orth">    0.01    0.01</time>
   <time name="total">    0.18    0.18</time>
   <energy>
    <i name="alphaZ">    120.87645803 </i>
    <i name="ewald">  37788.96794314 </i>
    <i name="hartreedc"> -42859.58844616 </i>
    <i name="XCdc">    173.43242985 </i>
    <i name="pawpsdc">   4393.41123769 </i>
    <i name="pawaedc">  -4969.24756181 </i>
    <i name="eentropy">     -0.04656053 </i>
    <i name="bandstr">   -241.02850599 </i>
    <i name="atom">   5575.94961827 </i>
    <i name="e_fr_energy">    -17.27338751 </i>
    <i name="e_wo_entrp">    -17.22682698 </i>
    <i name="e_0_energy">    -17.25010725 </i>
   </energy>
  </scstep>
  <structure>
   <crystal>
    <varray name="basis" >
     <v>       2.57386868       0.00000000       0.00000000 </v>
     <v>       1.28693434       2.22903567       0.00000000 </v>
     <v>       0.00000000       0.00000000      30.30466494 </v>
    </varray>
    <i name="volume">    173.86529028 </i>
    <varray name="rec_basis" >
     <v>       0.38852021      -0.22431225       0.00000000 </v>
     <v>       0.00000000       0.44862450       0.00000000 </v>
     <v>       0.00000000       0.00000000       0.03299822 </v>
    </varray>
   </crystal>
   <varray name="positions" >
    <v>       0.00000000      -0.00000000       0.39644015 </v>
    <v>       0.33333333       0.33333333       0.46515176 </v>
    <v>       0.66666667       0.66666667       0.53391621 </v>
    <v>      -0.00000000       0.00000000       0.60674401 </v>
    <v>       0.33333333       0.33333333       0.63476745 </v>
   </varray>
  </structure>
  <varray name="forces" >
   <v>      -0.00000000      -0.00000000       0.03654715 </v>
   <v>       0.00000000      -0.00000000      -0.00337464 </v>
   <v>      -0.00000000      -0.00000000       0.03346875 </v>
   <v>      -0.00000000       0.00000000      -0.02971102 </v>
   <v>       0.00000000       0.00000000      -0.03693023 </v>
  </varray>
  <varray name="stress" >
   <v>     -46.37212356       0.00000000       0.00000000 </v>
   <v>       0.00000000     -46.37212356       0.00000000 </v>
   <v>       0.00000000       0.00000000     -47.86762443 </v>
  </varray>
  <energy>
   <i name="e_fr_energy">    -17.27338751 </i>
   <i name="e_wo_entrp">    -17.25010725 </i>
   <i name="e_0_energy">     -0.04656053 </i>
  </energy>
  <time name="totalsc">    1.59    1.63</time>
  <eigenvalues>
   <array>
    <dimension dim="1">band</dimension>
    <dimension dim="2">kpoint</dimension>
    <dimension dim="3">spin</dimension>
    <field>eigene</field>
    <field>occ</field>
    <set>
     <set comment="spin 1">
      <set comment="kpoint 1">
       <r>  -11.7934    1.0000 </r>
       <r>  -10.6834    1.0000 </r>
       <r>   -8.9781    1.0000 </r>
       <r>   -7.4877    1.0000 </r>
       <r>   -5.8649    1.0000 </r>
       <r>   -5.6417    1.0000 </r>
       <r>   -5.6414    1.0000 </r>
       <r>   -5.5683    1.0000 </r>
       <r>   -5.2641    1.0000 </r>
       <r>   -5.2330    1.0000 </r>
       <r>   -5.2327    1.0000 </r>
       <r>   -5.1991    1.0000 </r>
       <r>   -5.1988    1.0000 </r>
       <r>   -4.9450    1.0000 </r>
       <r>   -4.9447    1.0000 </r>
       <r>   -4.8225    1.0000 </r>
       <r>   -4.7680    1.0000 </r>
       <r>   -4.7679    1.0000 </r>
       <r>   -4.4542    1.0000 </r>
       <r>   -4.4541    1.0000 </r>
       <r>   -4.2284    1.0000 </r>
       <r>   -4.2284    1.0000 </r>
       <r>   -3.9453    1.0000 </r>
       <r>   -3.9452    1.0000 </r>
       <r>   -2.8495    1.0000 </r>
       <r>    1.5977    0.0000 </r>
       <r>    1.9166    0.0000 </r>
       <r>    2.3224    0.0000 </r>
      </set>
      <set comment="kpoint 2">
       <r>  -11.4976    1.0000 </r>
       <r>  -10.3829    1.0000 </r>
       <r>   -8.7102    1.0000 </r>
       <r>   -7.2657    1.0000 </r>
       <r>   -5.9635    1.0000 </r>
       <r>   -5.7403    1.0000 </r>
       <r>   -5.6132    1.0000 </r>
       <r>   -5.5342    1.0000 </r>
       <r>   -5.3444    1.0000 </r>
       <r>   -5.3004    1.0000 </r>
       <r>   -5.2768    1.0000 </r>
       <r>   -5.1315    1.0000 </r>
       <r>   -5.1232    1.0000 </r>
       <r>   -5.0558    1.0000 </r>
       <r>   -4.9648    1.0000 </r>
       <r>   -4.8689    1.0000 </r>
       <r>   -4.7701    1.0000 </r>
       <r>   -4.6582    1.0000 </r>
       <r>   -4.4705    1.0000 </r>
       <r>   -4.4303    1.0000 </r>
       <r>   -4.2512    1.0000 </r>
       <r>   -4.2249    1.0000 </r>
       <r>   -3.9408    1.0000 </r>
       <r>   -3.7266    1.0000 </r>
       <r>   -2.1678    0.1777 </r>
       <r>    1.8482    0.0000 </r>
       <r>    2.2170    0.0000 </r>
       <r>    2.6244    0.0000 </r>
      </set>
      <set comment="kpoint 3">
       <r>  -10.6603    1.0000 </r>
       <r>   -9.5294    1.0000 </r>
       <r>   -8.0094    1.0000 </r>
       <r>   -6.7392    1.0000 </r>
       <r>   -6.2369    1.0000 </r>
       <r>   -5.8784    1.0000 </r>
       <r>   -5.7427    1.0000 </r>
       <r>   -5.6393    1.0000 </r>
       <r>   -5.4629    1.0000 </r>
       <r>   -5.2578    1.0000 </r>
       <r>   -5.2474    1.0000 </r>
       <r>   -5.1595    1.0000 </r>
       <r>   -5.0253    1.0000 </r>
       <r>   -4.9675    1.0000 </r>
       <r>   -4.8818    1.0000 </r>
       <r>   -4.8181    1.0000 </r>
       <r>   -4.7471    1.0000 </r>
       <r>   -4.5783    1.0000 </r>
       <r>   -4.5232    1.0000 </r>
       <r>   -4.4143    1.0000 </r>
       <r>   -4.2272    1.0000 </r>
       <r>   -4.0456    1.0000 </r>
       <r>   -3.9353    1.0000 </r>
       <r>   -2.8410    0.9999 </r>
       <r>   -0.8402    0.0000 </r>
       <r>    2.5921    0.0000 </r>
       <r>    3.1177    0.0000 </r>
       <r>    3.5278    0.0000 </r>
      </set>
      <set comment="kpoint 4">
       <r>   -9.5002    1.0000 </r>
       <r>   -8.3304    1.0000 </r>
       <r>   -7.2957    1.0000 </r>
       <r>   -6.5269    1.0000 </r>
       <r>   -6.3199    1.0000 </r>
       <r>   -6.1222    1.0000 </r>
       <r>   -5.8305    1.0000 </r>
       <r>   -5.6242    1.0000 </r>
       <r>   -5.5297    1.0000 </r>
       <r>   -5.2549    1.0000 </r>
       <r>   -5.1386    1.0000 </r>
       <r>   -5.0164    1.0000 </r>
       <r>   -4.8988    1.0000 </r>
       <r>   -4.8060    1.0000 </r>
       <r>   -4.7858    1.0000 </r>
       <r>   -4.6232    1.0000 </r>
       <r>   -4.5078    1.0000 </r>
       <r>   -4.3336    1.0000 </r>
       <r>   -4.2929    1.0000 </r>
       <r>   -4.2223    1.0000 </r>
       <r>   -4.0948    1.0000 </r>
       <r>   -3.9215    1.0000 </r>
       <r>   -3.5743    1.0000 </r>
       <r>   -1.6601    0.0000 </r>
       <r>    0.8241    0.0000 </r>
       <r>    3.7800    0.0000 </r>
       <r>    4.5504    0.0000 </r>
       <r>    4.9112    0.0000 </r>
      </set>
      <set comment="kpoint 5">
       <r>   -8.6355    1.0000 </r>
       <r>   -7.3051    1.0000 </r>
       <r>   -6.9768    1.0000 </r>
       <r>   -6.5915    1.0000 </r>
       <r>   -6.4361    1.0000 </r>
       <r>   -6.2510    1.0000 </r>
       <r>   -5.8913    1.0000 </r>
       <r>   -5.4522    1.0000 </r>
       <r>   -5.3059    1.0000 </r>
       <r>   -5.2290    1.0000 </r>
       <r>   -5.2120    1.0000 </r>
       <r>   -4.9464    1.0000 </r>
       <r>   -4.7476    1.0000 </r>
       <r>   -4.5026    1.0000 </r>
       <r>   -4.4067    1.0000 </r>
       <r>   -4.3428    1.0000 </r>
       <r>   -4.0715    1.0000 </r>
       <r>   -4.0604    1.0000 </r>
       <r>   -4.0053    1.0000 </r>
       <r>   -3.9269    1.0000 </r>
       <r>   -3.7767    1.0000 </r>
       <r>   -3.5387    1.0000 </r>
       <r>   -2.5147    0.9369 </r>
       <r>   -0.2830    0.0000 </r>
       <r>    1.6240    0.0000 </r>
       <r>    2.8578    0.0000 </r>
       <r>    3.6394    0.0000 </r>
       <r>    4.7160    0.0000 </r>
      </set>
      <set comment="kpoint 6">
       <r>   -8.4149    1.0000 </r>
       <r>   -6.9869    1.0000 </r>
       <r>   -6.9348    1.0000 </r>
       <r>   -6.5693    1.0000 </r>
       <r>   -6.5055    1.0000 </r>
       <r>   -6.3057    1.0000 </r>
       <r>   -5.8790    1.0000 </r>
       <r>   -5.3739    1.0000 </r>
       <r>   -5.2439    1.0000 </r>
       <r>   -5.2065    1.0000 </r>
       <r>   -5.1469    1.0000 </r>
       <r>   -4.9677    1.0000 </r>
       <r>   -4.4370    1.0000 </r>
       <r>   -4.4223    1.0000 </r>
       <r>   -4.3551    1.0000 </r>
       <r>   -4.2322    1.0000 </r>
       <r>   -4.0068    1.0000 </r>
       <r>   -3.9149    1.0000 </r>
       <r>   -3.8500    1.0000 </r>
       <r>   -3.6610    1.0000 </r>
       <r>   -3.6015    1.0000 </r>
       <r>   -2.2152    0.2779 </r>
       <r>   -1.3163    0.0000 </r>
       <r>   -0.7676    0.0000 </r>
       <r>    0.4242    0.0000 </r>
       <r>    2.1705    0.0000 </r>
       <r>    3.3370    0.0000 </r>
       <r>    4.1869    0.0000 </r>
      </set>
      <set comment="kpoint 7">
       <r>  -10.9291    1.0000 </r>
       <r>   -9.8038    1.0000 </r>
       <r>   -8.2202    1.0000 </r>
       <r>   -6.8785    1.0000 </r>
       <r>   -6.1585    1.0000 </r>
       <r>   -5.8020    1.0000 </r>
       <r>   -5.7447    1.0000 </r>
       <r>   -5.5786    1.0000 </r>
       <r>   -5.4241    1.0000 </r>
       <r>   -5.3340    1.0000 </r>
       <r>   -5.2949    1.0000 </r>
       <r>   -5.1206    1.0000 </r>
       <r>   -5.0649    1.0000 </r>
       <r>   -5.0325    1.0000 </r>
       <r>   -4.9224    1.0000 </r>
       <r>   -4.8415    1.0000 </r>
       <r>   -4.6652    1.0000 </r>
       <r>   -4.5842    1.0000 </r>
       <r>   -4.5542    1.0000 </r>
       <r>   -4.4240    1.0000 </r>
       <r>   -4.3130    1.0000 </r>
       <r>   -4.0464    1.0000 </r>
       <r>   -3.9801    1.0000 </r>
       <r>   -3.0949    1.0000 </r>
       <r>   -1.2297    0.0000 </r>
       <r>    2.3464    0.0000 </r>
       <r>    2.8181    0.0000 </r>
       <r>    3.2274    0.0000 </r>
      </set>
      <set comment="kpoint 8">
       <r>   -9.9113    1.0000 </r>
       <r>   -8.7570    1.0000 </r>
       <r>   -7.4810    1.0000 </r>
       <r>   -6.4606    1.0000 </r>
       <r>   -6.2639    1.0000 </r>
       <r>   -6.0096    1.0000 </r>
       <r>   -5.8426    1.0000 </r>
       <r>   -5.7432    1.0000 </r>
       <r>   -5.5761    1.0000 </r>
       <r>   -5.2698    1.0000 </r>
       <r>   -5.2358    1.0000 </r>
       <r>   -5.1488    1.0000 </r>
       <r>   -5.0407    1.0000 </r>
       <r>   -4.9064    1.0000 </r>
       <r>   -4.8588    1.0000 </r>
       <r>   -4.7358    1.0000 </r>
       <r>   -4.5911    1.0000 </r>
       <r>   -4.4464    1.0000 </r>
       <r>   -4.3255    1.0000 </r>
       <r>   -4.2566    1.0000 </r>
       <r>   -4.1061    1.0000 </r>
       <r>   -4.0016    1.0000 </r>
       <r>   -3.6860    1.0000 </r>
       <r>   -2.0866    0.0670 </r>
       <r>    0.2218    0.0000 </r>
       <r>    3.3433    0.0000 </r>
       <r>    4.0122    0.0000 </r>
       <r>    4.4173    0.0000 </r>
      </set>
      <set comment="kpoint 9">
       <r>   -8.8529    1.0000 </r>
       <r>   -7.5900    1.0000 </r>
       <r>   -6.9778    1.0000 </r>
       <r>   -6.5065    1.0000 </r>
       <r>   -6.2881    1.0000 </r>
       <r>   -6.1461    1.0000 </r>
       <r>   -5.8848    1.0000 </r>
       <r>   -5.6294    1.0000 </r>
       <r>   -5.5422    1.0000 </r>
       <r>   -5.2854    1.0000 </r>
       <r>   -5.2116    1.0000 </r>
       <r>   -5.0691    1.0000 </r>
       <r>   -4.9041    1.0000 </r>
       <r>   -4.7050    1.0000 </r>
       <r>   -4.6147    1.0000 </r>
       <r>   -4.4912    1.0000 </r>
       <r>   -4.3873    1.0000 </r>
       <r>   -4.2410    1.0000 </r>
       <r>   -4.1334    1.0000 </r>
       <r>   -3.9451    1.0000 </r>
       <r>   -3.9063    1.0000 </r>
       <r>   -3.5939    1.0000 </r>
       <r>   -2.8081    0.9998 </r>
       <r>   -0.6888    0.0000 </r>
       <r>    1.9041    0.0000 </r>
       <r>    3.8180    0.0000 </r>
       <r>    4.6666    0.0000 </r>
       <r>    5.2641    0.0000 </r>
      </set>
      <set comment="kpoint 10">
       <r>   -8.3730    1.0000 </r>
       <r>   -6.9214    1.0000 </r>
       <r>   -6.8328    1.0000 </r>
       <r>   -6.4967    1.0000 </r>
       <r>   -6.4074    1.0000 </r>
       <r>   -6.2025    1.0000 </r>
       <r>   -5.8815    1.0000 </r>
       <r>   -5.5360    1.0000 </r>
       <r>   -5.3662    1.0000 </r>
       <r>   -5.2979    1.0000 </r>
       <r>   -5.1861    1.0000 </r>
       <r>   -4.9574    1.0000 </r>
       <r>   -4.8156    1.0000 </r>
       <r>   -4.4999    1.0000 </r>
       <r>   -4.3818    1.0000 </r>
       <r>   -4.2209    1.0000 </r>
       <r>   -4.1183    1.0000 </r>
       <r>   -4.0585    1.0000 </r>
       <r>   -3.9850    1.0000 </r>
       <r>   -3.8299    1.0000 </r>
       <r>   -3.4018    1.0000 </r>
       <r>   -2.3140    0.5436 </r>
       <r>   -1.2978    0.0000 </r>
       <r>    0.1618    0.0000 </r>
       <r>    0.8741    0.0000 </r>
       <r>    2.4990    0.0000 </r>
       <r>    3.5402    0.0000 </r>
       <r>    4.7108    0.0000 </r>
      </set>
      <set comment="kpoint 11">
       <r>   -8.9415    1.0000 </r>
       <r>   -7.6921    1.0000 </r>
       <r>   -6.9401    1.0000 </r>
       <r>   -6.3886    1.0000 </r>
       <r>   -6.1704    1.0000 </r>
       <r>   -5.9928    1.0000 </r>
       <r>   -5.9315    1.0000 </r>
       <r>   -5.8239    1.0000 </r>
       <r>   -5.5385    1.0000 </r>
       <r>   -5.4105    1.0000 </r>
       <r>   -5.3095    1.0000 </r>
       <r>   -5.2588    1.0000 </r>
       <r>   -4.9799    1.0000 </r>
       <r>   -4.8974    1.0000 </r>
       <r>   -4.7483    1.0000 </r>
       <r>   -4.5907    1.0000 </r>
       <r>   -4.4201    1.0000 </r>
       <r>   -4.2686    1.0000 </r>
       <r>   -4.1701    1.0000 </r>
       <r>   -3.9467    1.0000 </r>
       <r>   -3.9013    1.0000 </r>
       <r>   -3.5376    1.0000 </r>
       <r>   -2.8053    0.9998 </r>
       <r>   -0.8175    0.0000 </r>
       <r>    1.7637    0.0000 </r>
       <r>    4.5938    0.0000 </r>
       <r>    5.1479    0.0000 </r>
       <r>    5.6724    0.0000 </r>
      </set>
      <set comment="kpoint 12">
       <r>   -8.2980    1.0000 </r>
       <r>   -6.7971    1.0000 </r>
       <r>   -6.6044    1.0000 </r>
       <r>   -6.3758    1.0000 </r>
       <r>   -6.1802    1.0000 </r>
       <r>   -6.0800    1.0000 </r>
       <r>   -5.8729    1.0000 </r>
       <r>   -5.7716    1.0000 </r>
       <r>   -5.5409    1.0000 </r>
       <r>   -5.4681    1.0000 </r>
       <r>   -5.3860    1.0000 </r>
       <r>   -5.0320    1.0000 </r>
       <r>   -4.9468    1.0000 </r>
       <r>   -4.8000    1.0000 </r>
       <r>   -4.6298    1.0000 </r>
       <r>   -4.5107    1.0000 </r>
       <r>   -4.3484    1.0000 </r>
       <r>   -4.1702    1.0000 </r>
       <r>   -4.0016    1.0000 </r>
       <r>   -3.8513    1.0000 </r>
       <r>   -3.2086    1.0000 </r>
       <r>   -2.3236    0.5704 </r>
       <r>   -1.1789    0.0000 </r>
       <r>    0.8222    0.0000 </r>
       <r>    2.4234    0.0000 </r>
       <r>    3.5701    0.0000 </r>
       <r>    4.3848    0.0000 </r>
       <r>    5.0555    0.0000 </r>
      </set>
      <set comment="kpoint 13">
       <r>   -8.1388    1.0000 </r>
       <r>   -6.5674    1.0000 </r>
       <r>   -6.5384    1.0000 </r>
       <r>   -6.2849    1.0000 </r>
       <r>   -6.2342    1.0000 </r>
       <r>   -6.0216    1.0000 </r>
       <r>   -5.8693    1.0000 </r>
       <r>   -5.8102    1.0000 </r>
       <r>   -5.5483    1.0000 </r>
       <r>   -5.4131    1.0000 </r>
       <r>   -5.3305    1.0000 </r>
       <r>   -5.0650    1.0000 </r>
       <r>   -4.8980    1.0000 </r>
       <r>   -4.6611    1.0000 </r>
       <r>   -4.5337    1.0000 </r>
       <r>   -4.4697    1.0000 </r>
       <r>   -4.2415    1.0000 </r>
       <r>   -4.0951    1.0000 </r>
       <r>   -4.0150    1.0000 </r>
       <r>   -3.9171    1.0000 </r>
       <r>   -2.3786    0.7144 </r>
       <r>   -0.6372    0.0000 </r>
       <r>   -0.0486    0.0000 </r>
       <r>    0.7122    0.0000 </r>
       <r>    0.9192    0.0000 </r>
       <r>    2.7624    0.0000 </r>
       <r>    4.1267    0.0000 </r>
       <r>    4.5328    0.0000 </r>
      </set>
      <set comment="kpoint 14">
       <r>   -8.0340    1.0000 </r>
       <r>   -6.3524    1.0000 </r>
       <r>   -6.2924    1.0000 </r>
       <r>   -6.2114    1.0000 </r>
       <r>   -6.1144    1.0000 </r>
       <r>   -5.9700    1.0000 </r>
       <r>   -5.9371    1.0000 </r>
       <r>   -5.8210    1.0000 </r>
       <r>   -5.7005    1.0000 </r>
       <r>   -5.6012    1.0000 </r>
       <r>   -5.3896    1.0000 </r>
       <r>   -5.0032    1.0000 </r>
       <r>   -4.9516    1.0000 </r>
       <r>   -4.8455    1.0000 </r>
       <r>   -4.6478    1.0000 </r>
       <r>   -4.4940    1.0000 </r>
       <r>   -4.4106    1.0000 </r>
       <r>   -4.1234    1.0000 </r>
       <r>   -4.0313    1.0000 </r>
       <r>   -3.9410    1.0000 </r>
       <r>   -1.9218    0.0039 </r>
       <r>   -0.3208    0.0000 </r>
       <r>    0.8521    0.0000 </r>
       <r>    1.7732    0.0000 </r>
       <r>    2.4029    0.0000 </r>
       <r>    2.4220    0.0000 </r>
       <r>    3.2663    0.0000 </r>
       <r>    4.1018    0.0000 </r>
      </set>
     </set>
    </set>
   </array>
  </eigenvalues>
  <separator name="orbital magnetization" >
   <v name="MAGDIPOLOUT">      0.00000000      0.00000000      0.00000000</v>
  </separator>
 </calculation>
 <structure name="finalpos" >
  <crystal>
   <varray name="basis" >
    <v>       2.57386868       0.00000000       0.00000000 </v>
    <v>       1.28693434       2.22903567       0.00000000 </v>
    <v>       0.00000000       0.00000000      30.30466494 </v>
   </varray>
   <i name="volume">    173.86529028 </i>
   <varray name="rec_basis" >
    <v>       0.38852021      -0.22431225       0.00000000 </v>
    <v>       0.00000000       0.44862450       0.00000000 </v>
    <v>       0.00000000       0.00000000       0.03299822 </v>
   </varray>
  </crystal>
  <varray name="positions" >
   <v>       0.00000000      -0.00000000       0.39644015 </v>
   <v>       0.33333333       0.33333333       0.46515176 </v>
   <v>       0.66666667       0.66666667       0.53391621 </v>
   <v>      -0.00000000       0.00000000       0.60674401 </v>
   <v>       0.33333333       0.33333333       0.63476745 </v>
  </varray>
 </structure>
</modeling>
