unknown system                          
           1
     2.573869    0.000000    0.000000
     1.286934    2.229036    0.000000
     0.000000    0.000000   30.304665
   Cu   H 
   4   1
Direct configuration=     1
   0.00000000  0.00000000  0.39597864
   0.33333333  0.33333333  0.46532621
   0.66666667  0.66666667  0.53467379
   0.00000000  0.00000000  0.60402136
   0.33333333  0.33333333  0.63701958
Direct configuration=     2
   0.00000000 -0.00000000  0.39616765
   0.33333333  0.33333333  0.46528716
   0.66666667  0.66666667  0.53424130
  -0.00000000  0.00000000  0.60530005
   0.33333333  0.33333333  0.63602343
Direct configuration=     3
   0.00000000 -0.00000000  0.39644015
   0.33333333  0.33333333  0.46515176
   0.66666667  0.66666667  0.53391621
  -0.00000000  0.00000000  0.60674401
   0.33333333  0.33333333  0.63476745
