   5   5   0   0
  0.3477306E+02  0.2573869E-09  0.2573869E-09  0.3030467E-08  0.1000000E-15
  1.000000000000000E-004
  CAR 
 unknown system                          
      7.86763004    -14.00047640  301     -2.27383756      1.00000000
    -14.000  0.0000E+00  0.0000E+00
    -13.928  0.0000E+00  0.0000E+00
    -13.855  0.0000E+00  0.0000E+00
    -13.782  0.0000E+00  0.0000E+00
    -13.709  0.0000E+00  0.0000E+00
    -13.636  0.0000E+00  0.0000E+00
    -13.563  0.0000E+00  0.0000E+00
    -13.490  0.0000E+00  0.0000E+00
    -13.417  0.0000E+00  0.0000E+00
    -13.344  0.0000E+00  0.0000E+00
    -13.272  0.0000E+00  0.0000E+00
    -13.199  0.0000E+00  0.0000E+00
    -13.126  0.0000E+00  0.0000E+00
    -13.053  0.0000E+00  0.0000E+00
    -12.980  0.0000E+00  0.0000E+00
    -12.907  0.0000E+00  0.0000E+00
    -12.834  0.0000E+00  0.0000E+00
    -12.761  0.0000E+00  0.0000E+00
    -12.688  0.0000E+00  0.0000E+00
    -12.615  0.0000E+00  0.0000E+00
    -12.543  0.0000E+00  0.0000E+00
    -12.470  0.0000E+00  0.0000E+00
    -12.397  0.0000E+00  0.0000E+00
    -12.324  0.0000E+00  0.0000E+00
    -12.251  0.0000E+00  0.0000E+00
    -12.178  0.0000E+00  0.0000E+00
    -12.105  0.0000E+00  0.0000E+00
    -12.032  0.0000E+00  0.0000E+00
    -11.959  0.6010E-03  0.1233E-04
    -11.887  0.1669E-02  0.9506E-04
    -11.814  0.2737E-02  0.2556E-03
    -11.741  0.3805E-02  0.4940E-03
    -11.668  0.2281E-02  0.7131E-03
    -11.595  0.2385E-02  0.8831E-03
    -11.522  0.2489E-02  0.1061E-02
    -11.449  0.2593E-02  0.1246E-02
    -11.376  0.2697E-02  0.1439E-02
    -11.303  0.2802E-02  0.1639E-02
    -11.231  0.2906E-02  0.1847E-02
    -11.158  0.3010E-02  0.2063E-02
    -11.085  0.2969E-02  0.2281E-02
    -11.012  0.2918E-02  0.2496E-02
    -10.939  0.2867E-02  0.2707E-02
    -10.866  0.2852E-02  0.2914E-02
    -10.793  0.2914E-02  0.3124E-02
    -10.720  0.3207E-02  0.3341E-02
    -10.647  0.4259E-02  0.3613E-02
    -10.574  0.5311E-02  0.3962E-02
    -10.502  0.6362E-02  0.4387E-02
    -10.429  0.5357E-02  0.4876E-02
    -10.356  0.5513E-02  0.5272E-02
    -10.283  0.5670E-02  0.5680E-02
    -10.210  0.5827E-02  0.6099E-02
    -10.137  0.6081E-02  0.6531E-02
    -10.064  0.6299E-02  0.6982E-02
     -9.991  0.6517E-02  0.7450E-02
     -9.918  0.6735E-02  0.7933E-02
     -9.846  0.6938E-02  0.8431E-02
     -9.773  0.7000E-02  0.8939E-02
     -9.700  0.7076E-02  0.9452E-02
     -9.627  0.7154E-02  0.9971E-02
     -9.554  0.7266E-02  0.1050E-01
     -9.481  0.7458E-02  0.1103E-01
     -9.408  0.7651E-02  0.1158E-01
     -9.335  0.7843E-02  0.1215E-01
     -9.262  0.8036E-02  0.1273E-01
     -9.189  0.8943E-02  0.1333E-01
     -9.117  0.1032E-01  0.1404E-01
     -9.044  0.1142E-01  0.1483E-01
     -8.971  0.1347E-01  0.1573E-01
     -8.898  0.1596E-01  0.1680E-01
     -8.825  0.1912E-01  0.1808E-01
     -8.752  0.2008E-01  0.1957E-01
     -8.679  0.2215E-01  0.2111E-01
     -8.606  0.2207E-01  0.2314E-01
     -8.533  0.2342E-01  0.2492E-01
     -8.461  0.1977E-01  0.2650E-01
     -8.388  0.1879E-01  0.2785E-01
     -8.315  0.7050E-02  0.2930E-01
     -8.242  0.7271E-02  0.2982E-01
     -8.169  0.7449E-02  0.3036E-01
     -8.096  0.7627E-02  0.3091E-01
     -8.023  0.7839E-02  0.3147E-01
     -7.950  0.8102E-02  0.3205E-01
     -7.877  0.8366E-02  0.3265E-01
     -7.805  0.8629E-02  0.3327E-01
     -7.732  0.8893E-02  0.3391E-01
     -7.659  0.9472E-02  0.3457E-01
     -7.586  0.1025E-01  0.3529E-01
     -7.513  0.1100E-01  0.3607E-01
     -7.440  0.1436E-01  0.3700E-01
     -7.367  0.1758E-01  0.3816E-01
     -7.294  0.2103E-01  0.3957E-01
     -7.221  0.2123E-01  0.4107E-01
     -7.148  0.2342E-01  0.4270E-01
     -7.076  0.2562E-01  0.4449E-01
     -7.003  0.3067E-01  0.4647E-01
     -6.930  0.3724E-01  0.4912E-01
     -6.857  0.4375E-01  0.5217E-01
     -6.784  0.3341E-01  0.5524E-01
     -6.711  0.3265E-01  0.5764E-01
     -6.638  0.3201E-01  0.6000E-01
     -6.565  0.3127E-01  0.6231E-01
     -6.492  0.1450E+00  0.6716E-01
     -6.420  0.9357E-01  0.7550E-01
     -6.347  0.7175E-01  0.8132E-01
     -6.274  0.7974E-01  0.8628E-01
     -6.201  0.8717E-01  0.9389E-01
     -6.128  0.1469E+00  0.1024E+00
     -6.055  0.6995E-01  0.1104E+00
     -5.982  0.6730E-01  0.1166E+00
     -5.909  0.3168E+00  0.1252E+00
     -5.836  0.6837E-01  0.1351E+00
     -5.763  0.1090E+00  0.1418E+00
     -5.691  0.8469E-01  0.1490E+00
     -5.618  0.9709E-01  0.1556E+00
     -5.545  0.3024E+00  0.1631E+00
     -5.472  0.1014E+00  0.1751E+00
     -5.399  0.9569E-01  0.1829E+00
     -5.326  0.1323E+00  0.1903E+00
     -5.253  0.2091E+00  0.2025E+00
     -5.180  0.1795E+00  0.2214E+00
     -5.107  0.1823E+00  0.2307E+00
     -5.035  0.2278E+00  0.2401E+00
     -4.962  0.1217E+00  0.2553E+00
     -4.889  0.1168E+00  0.2691E+00
     -4.816  0.1857E+00  0.2806E+00
     -4.743  0.1732E+00  0.2913E+00
     -4.670  0.1036E+00  0.2997E+00
     -4.597  0.1501E+00  0.3086E+00
     -4.524  0.1211E+00  0.3182E+00
     -4.451  0.2607E+00  0.3317E+00
     -4.379  0.1219E+00  0.3440E+00
     -4.306  0.1197E+00  0.3560E+00
     -4.233  0.1648E+00  0.3654E+00
     -4.160  0.1355E+00  0.3769E+00
     -4.087  0.1373E+00  0.3872E+00
     -4.014  0.1506E+00  0.3985E+00
     -3.941  0.1222E+00  0.4132E+00
     -3.868  0.1291E+00  0.4242E+00
     -3.795  0.5274E-01  0.4326E+00
     -3.722  0.4382E-01  0.4361E+00
     -3.650  0.3655E-01  0.4390E+00
     -3.577  0.3353E-01  0.4416E+00
     -3.504  0.2355E-01  0.4436E+00
     -3.431  0.2230E-01  0.4453E+00
     -3.358  0.1778E-01  0.4466E+00
     -3.285  0.1739E-01  0.4479E+00
     -3.212  0.1699E-01  0.4492E+00
     -3.139  0.1599E-01  0.4504E+00
     -3.066  0.1604E-01  0.4515E+00
     -2.994  0.1602E-01  0.4527E+00
     -2.921  0.1598E-01  0.4539E+00
     -2.848  0.1595E-01  0.4550E+00
     -2.775  0.1468E-01  0.4562E+00
     -2.702  0.1466E-01  0.4572E+00
     -2.629  0.1465E-01  0.4583E+00
     -2.556  0.1464E-01  0.4594E+00
     -2.483  0.1471E-01  0.4604E+00
     -2.410  0.1490E-01  0.4615E+00
     -2.337  0.1515E-01  0.4626E+00
     -2.265  0.2155E-01  0.4641E+00
     -2.192  0.1384E-01  0.4653E+00
     -2.119  0.1357E-01  0.4663E+00
     -2.046  0.1372E-01  0.4673E+00
     -1.973  0.1358E-01  0.4683E+00
     -1.900  0.1366E-01  0.4693E+00
     -1.827  0.1105E-01  0.4704E+00
     -1.754  0.1107E-01  0.4712E+00
     -1.681  0.1110E-01  0.4720E+00
     -1.609  0.1113E-01  0.4728E+00
     -1.536  0.1121E-01  0.4736E+00
     -1.463  0.1130E-01  0.4744E+00
     -1.390  0.1138E-01  0.4753E+00
     -1.317  0.1043E-01  0.4767E+00
     -1.244  0.1064E-01  0.4774E+00
     -1.171  0.1059E-01  0.4782E+00
     -1.098  0.1043E-01  0.4790E+00
     -1.025  0.1026E-01  0.4797E+00
     -0.953  0.1010E-01  0.4805E+00
     -0.880  0.9938E-02  0.4812E+00
     -0.807  0.9776E-02  0.4819E+00
     -0.734  0.1003E-01  0.4826E+00
     -0.661  0.1055E-01  0.4834E+00
     -0.588  0.1149E-01  0.4842E+00
     -0.515  0.1270E-01  0.4851E+00
     -0.442  0.1391E-01  0.4860E+00
     -0.369  0.1512E-01  0.4871E+00
     -0.296  0.1228E-01  0.4882E+00
     -0.224  0.1273E-01  0.4891E+00
     -0.151  0.1159E-01  0.4900E+00
     -0.078  0.1053E-01  0.4908E+00
     -0.005  0.9480E-02  0.4915E+00
      0.068  0.8427E-02  0.4922E+00
      0.141  0.9041E-02  0.4928E+00
      0.214  0.8937E-02  0.4935E+00
      0.287  0.8773E-02  0.4941E+00
      0.360  0.8661E-02  0.4947E+00
      0.432  0.8549E-02  0.4954E+00
      0.505  0.8437E-02  0.4960E+00
      0.578  0.8326E-02  0.4966E+00
      0.651  0.7929E-02  0.4972E+00
      0.724  0.7506E-02  0.4977E+00
      0.797  0.5760E-02  0.4984E+00
      0.870  0.5356E-02  0.4988E+00
      0.943  0.5481E-02  0.4992E+00
      1.016  0.5389E-02  0.4996E+00
      1.089  0.5296E-02  0.5000E+00
      1.161  0.5349E-02  0.5004E+00
      1.234  0.5988E-02  0.5008E+00
      1.307  0.6626E-02  0.5013E+00
      1.380  0.7265E-02  0.5018E+00
      1.453  0.7903E-02  0.5023E+00
      1.526  0.8542E-02  0.5029E+00
      1.599  0.9181E-02  0.5036E+00
      1.672  0.1099E-01  0.5043E+00
      1.745  0.1233E-01  0.5052E+00
      1.817  0.1502E-01  0.5061E+00
      1.890  0.1867E-01  0.5074E+00
      1.963  0.1984E-01  0.5088E+00
      2.036  0.2286E-01  0.5105E+00
      2.109  0.2471E-01  0.5123E+00
      2.182  0.2097E-01  0.5140E+00
      2.255  0.1962E-01  0.5154E+00
      2.328  0.2045E-01  0.5169E+00
      2.401  0.1692E-01  0.5186E+00
      2.473  0.1666E-01  0.5198E+00
      2.546  0.1660E-01  0.5210E+00
      2.619  0.1655E-01  0.5222E+00
      2.692  0.1757E-01  0.5235E+00
      2.765  0.1873E-01  0.5248E+00
      2.838  0.1989E-01  0.5262E+00
      2.911  0.2221E-01  0.5277E+00
      2.984  0.1834E-01  0.5293E+00
      3.057  0.2175E-01  0.5307E+00
      3.130  0.2515E-01  0.5324E+00
      3.202  0.2487E-01  0.5345E+00
      3.275  0.2082E-01  0.5361E+00
      3.348  0.2042E-01  0.5376E+00
      3.421  0.2069E-01  0.5391E+00
      3.494  0.2219E-01  0.5407E+00
      3.567  0.2356E-01  0.5424E+00
      3.640  0.2413E-01  0.5441E+00
      3.713  0.2452E-01  0.5459E+00
      3.786  0.2491E-01  0.5477E+00
      3.858  0.1616E-01  0.5492E+00
      3.931  0.1517E-01  0.5503E+00
      4.004  0.1418E-01  0.5514E+00
      4.077  0.1333E-01  0.5524E+00
      4.150  0.1556E-01  0.5537E+00
      4.223  0.1771E-01  0.5549E+00
      4.296  0.1996E-01  0.5563E+00
      4.369  0.2220E-01  0.5578E+00
      4.442  0.2444E-01  0.5595E+00
      4.515  0.2401E-01  0.5613E+00
      4.587  0.2932E-01  0.5631E+00
      4.660  0.2020E-01  0.5649E+00
      4.733  0.1750E-01  0.5662E+00
      4.806  0.1705E-01  0.5674E+00
      4.879  0.1660E-01  0.5687E+00
      4.952  0.1615E-01  0.5699E+00
      5.025  0.1570E-01  0.5710E+00
      5.098  0.1525E-01  0.5721E+00
      5.171  0.1480E-01  0.5732E+00
      5.243  0.1436E-01  0.5744E+00
      5.316  0.8158E-02  0.5752E+00
      5.389  0.6730E-02  0.5757E+00
      5.462  0.5704E-02  0.5762E+00
      5.535  0.4679E-02  0.5765E+00
      5.608  0.3653E-02  0.5768E+00
      5.681  0.2628E-02  0.5771E+00
      5.754  0.1602E-02  0.5772E+00
      5.827  0.5771E-03  0.5773E+00
      5.900  0.0000E+00  0.5773E+00
      5.972  0.0000E+00  0.5773E+00
      6.045  0.0000E+00  0.5773E+00
      6.118  0.0000E+00  0.5773E+00
      6.191  0.0000E+00  0.5773E+00
      6.264  0.0000E+00  0.5773E+00
      6.337  0.0000E+00  0.5773E+00
      6.410  0.0000E+00  0.5773E+00
      6.483  0.0000E+00  0.5773E+00
      6.556  0.0000E+00  0.5773E+00
      6.628  0.0000E+00  0.5773E+00
      6.701  0.0000E+00  0.5773E+00
      6.774  0.0000E+00  0.5773E+00
      6.847  0.0000E+00  0.5773E+00
      6.920  0.0000E+00  0.5773E+00
      6.993  0.0000E+00  0.5773E+00
      7.066  0.0000E+00  0.5773E+00
      7.139  0.0000E+00  0.5773E+00
      7.212  0.0000E+00  0.5773E+00
      7.284  0.0000E+00  0.5773E+00
      7.357  0.0000E+00  0.5773E+00
      7.430  0.0000E+00  0.5773E+00
      7.503  0.0000E+00  0.5773E+00
      7.576  0.0000E+00  0.5773E+00
      7.649  0.0000E+00  0.5773E+00
      7.722  0.0000E+00  0.5773E+00
      7.795  0.0000E+00  0.5773E+00
      7.868  0.0000E+00  0.5773E+00
