    5    5   97    1
  0.3477306E+02  0.2573869E-09  0.2573869E-09  0.3030466E-08  0.1000000E-15
  1.000000000000000E-004
  CAR 
 unknown system                          
     45     14     28
 
  0.0000000E+00  0.0000000E+00  0.0000000E+00  0.1000000E-01
    1      -12.000476   1.000000
    2      -10.737235   1.000000
    3       -9.025804   1.000000
    4       -7.497459   1.000000
    5       -5.725008   1.000000
    6       -5.613451   1.000000
    7       -5.613450   1.000000
    8       -5.491784   1.000000
    9       -5.237431   1.000000
   10       -5.198919   1.000000
   11       -5.198918   1.000000
   12       -5.169855   1.000000
   13       -5.169854   1.000000
   14       -4.942997   1.000000
   15       -4.942996   1.000000
   16       -4.773092   1.000000
   17       -4.738621   1.000000
   18       -4.738621   1.000000
   19       -4.419873   1.000000
   20       -4.419873   1.000000
   21       -4.193200   1.000000
   22       -4.193200   1.000000
   23       -3.920369   1.000000
   24       -3.920369   1.000000
   25       -2.854400   1.323260
   26        1.685261   0.000000
   27        2.091491   0.000000
   28        2.619146   0.000000
 
  0.1000000E+00  0.6938894E-17  0.0000000E+00  0.6000000E-01
    1      -11.709881   1.000000
    2      -10.435363   1.000000
    3       -8.757353   1.000000
    4       -7.276687   1.000000
    5       -5.814927   1.000000
    6       -5.704863   1.000000
    7       -5.609019   1.000000
    8       -5.504449   1.000000
    9       -5.308906   1.000000
   10       -5.270180   1.000000
   11       -5.247367   1.000000
   12       -5.103440   1.000000
   13       -5.091577   1.000000
   14       -5.031708   1.000000
   15       -4.958664   1.000000
   16       -4.862051   1.000000
   17       -4.748135   1.000000
   18       -4.604358   1.000000
   19       -4.440946   1.000000
   20       -4.398721   1.000000
   21       -4.228591   1.000000
   22       -4.190683   1.000000
   23       -3.917017   1.000000
   24       -3.683026   1.000000
   25       -2.158786   0.127739
   26        1.931442   0.000000
   27        2.389777   0.000000
   28        2.919711   0.000000
 
  0.2000000E+00 -0.1387779E-16  0.0000000E+00  0.6000000E-01
    1      -10.889745   1.000000
    2       -9.575590   1.000000
    3       -8.051630   1.000000
    4       -6.758838   1.000000
    5       -6.118405   1.000000
    6       -5.887577   1.000000
    7       -5.708263   1.000000
    8       -5.608381   1.000000
    9       -5.445422   1.000000
   10       -5.211778   1.000000
   11       -5.205854   1.000000
   12       -5.149287   1.000000
   13       -5.016864   1.000000
   14       -4.946933   1.000000
   15       -4.840215   1.000000
   16       -4.795490   1.000000
   17       -4.720111   1.000000
   18       -4.564762   1.000000
   19       -4.481535   1.000000
   20       -4.399737   1.000000
   21       -4.192334   1.000000
   22       -4.001850   1.000000
   23       -3.909542   1.000000
   24       -2.785263   0.954463
   25       -0.806271   0.000000
   26        2.668381   0.000000
   27        3.282989   0.000000
   28        3.818586   0.000000
 
  0.3000000E+00 -0.2775558E-16  0.0000000E+00  0.6000000E-01
    1       -9.766210   1.000000
    2       -8.358224   1.000000
    3       -7.316114   1.000000
    4       -6.514643   1.000000
    5       -6.251322   1.000000
    6       -6.124741   1.000000
    7       -5.838283   1.000000
    8       -5.599418   1.000000
    9       -5.508894   1.000000
   10       -5.231490   1.000000
   11       -5.087833   1.000000
   12       -4.997677   1.000000
   13       -4.897729   1.000000
   14       -4.789964   1.000000
   15       -4.776357   1.000000
   16       -4.554492   1.000000
   17       -4.478790   1.000000
   18       -4.303300   1.000000
   19       -4.270354   1.000000
   20       -4.195705   1.000000
   21       -4.089724   1.000000
   22       -3.897185   1.000000
   23       -3.543307   1.000000
   24       -1.604045  -0.032667
   25        0.902935   0.000000
   26        3.843178   0.000000
   27        4.670840   0.000000
   28        5.225792   0.000000
 
  0.4000000E+00 -0.2775558E-16  0.0000000E+00  0.6000000E-01
    1       -8.910218   1.000000
    2       -7.326258   1.000000
    3       -6.961420   1.000000
    4       -6.525613   1.000000
    5       -6.419092   1.000000
    6       -6.255992   1.000000
    7       -5.943314   1.000000
    8       -5.392198   1.000000
    9       -5.276100   1.000000
   10       -5.172363   1.000000
   11       -5.163914   1.000000
   12       -4.923112   1.000000
   13       -4.819820   1.000000
   14       -4.481394   1.000000
   15       -4.357777   1.000000
   16       -4.265045   1.000000
   17       -4.061866   1.000000
   18       -4.036410   1.000000
   19       -3.969102   1.000000
   20       -3.894279   1.000000
   21       -3.772362   1.000000
   22       -3.500010   1.095169
   23       -2.512875   0.646830
   24       -0.234721   0.000000
   25        2.208928   0.000000
   26        2.448882   0.000000
   27        3.315255   0.000000
   28        4.677699   0.000000
 
  0.5000000E+00 -0.2775558E-16  0.0000000E+00  0.3000000E-01
    1       -8.672973   1.000000
    2       -7.026960   1.000000
    3       -6.880918   1.000000
    4       -6.525191   1.000000
    5       -6.491685   1.000000
    6       -6.302869   1.000000
    7       -5.958219   1.000000
    8       -5.353798   1.000000
    9       -5.206437   1.000000
   10       -5.187519   1.000000
   11       -4.944086   1.000000
   12       -4.933082   1.000000
   13       -4.584608   1.000000
   14       -4.410140   1.000000
   15       -4.291654   1.000000
   16       -4.099483   1.000000
   17       -3.973989   1.000000
   18       -3.875352   1.000000
   19       -3.811176   1.000000
   20       -3.688341   1.000000
   21       -3.655366   1.000000
   22       -2.207791   0.477356
   23       -1.353262  -0.032585
   24       -0.805676   0.000000
   25        1.146941   0.000000
   26        1.777300   0.000000
   27        2.884193   0.000000
   28        4.122583   0.000000
 
  0.2000000E+00  0.1000000E+00  0.0000000E+00  0.6000000E-01
    1      -11.152780   1.000000
    2       -9.852560   1.000000
    3       -8.264807   1.000000
    4       -6.894899   1.000000
    5       -6.042913   1.000000
    6       -5.766007   1.000000
    7       -5.754799   1.000000
    8       -5.530589   1.000000
    9       -5.414702   1.000000
   10       -5.294610   1.000000
   11       -5.252039   1.000000
   12       -5.097613   1.000000
   13       -5.051456   1.000000
   14       -5.025047   1.000000
   15       -4.885779   1.000000
   16       -4.814613   1.000000
   17       -4.650711   1.000000
   18       -4.563280   1.000000
   19       -4.532556   1.000000
   20       -4.383934   1.000000
   21       -4.279607   1.000000
   22       -4.012407   1.000000
   23       -3.955168   1.000000
   24       -3.042116   1.065324
   25       -1.205099   0.000000
   26        2.423817   0.000000
   27        2.986255   0.000000
   28        3.519552   0.000000
 
  0.3000000E+00  0.1000000E+00  0.0000000E+00  0.1200000E+00
    1      -10.163003   1.000000
    2       -8.793272   1.000000
    3       -7.512080   1.000000
    4       -6.495383   1.000000
    5       -6.143862   1.000000
    6       -6.000054   1.000000
    7       -5.825418   1.000000
    8       -5.715900   1.000000
    9       -5.571168   1.000000
   10       -5.257492   1.000000
   11       -5.216485   1.000000
   12       -5.099801   1.000000
   13       -4.986594   1.000000
   14       -4.920185   1.000000
   15       -4.829795   1.000000
   16       -4.708452   1.000000
   17       -4.551226   1.000000
   18       -4.407924   1.000000
   19       -4.291789   1.000000
   20       -4.234609   1.000000
   21       -4.095198   1.000000
   22       -3.974295   1.000000
   23       -3.653740   1.000000
   24       -2.026700   0.172529
   25        0.278500   0.000000
   26        3.416183   0.000000
   27        4.164566   0.000000
   28        4.709897   0.000000
 
  0.4000000E+00  0.1000000E+00  0.0000000E+00  0.1200000E+00
    1       -9.137683   1.000000
    2       -7.602657   1.000000
    3       -6.978141   1.000000
    4       -6.466568   1.000000
    5       -6.266218   1.000000
    6       -6.137376   1.000000
    7       -5.901765   1.000000
    8       -5.609988   1.000000
    9       -5.502493   1.000000
   10       -5.244290   1.000000
   11       -5.208034   1.000000
   12       -5.038629   1.000000
   13       -4.889589   1.000000
   14       -4.697721   1.000000
   15       -4.591960   1.000000
   16       -4.452117   1.000000
   17       -4.339681   1.000000
   18       -4.206671   1.000000
   19       -4.098096   1.000000
   20       -3.917214   1.000000
   21       -3.876902   1.000000
   22       -3.574180   1.000000
   23       -2.799949   0.871883
   24       -0.624869   0.000000
   25        2.080129   0.000000
   26        3.791961   0.000000
   27        4.473259   0.000000
   28        5.322021   0.000000
 
  0.5000000E+00  0.1000000E+00  0.0000000E+00  0.1200000E+00
    1       -8.643612   1.000000
    2       -6.953705   1.000000
    3       -6.790650   1.000000
    4       -6.439628   1.000000
    5       -6.394506   1.000000
    6       -6.205634   1.000000
    7       -5.962791   1.000000
    8       -5.470438   1.000000
    9       -5.327373   1.000000
   10       -5.194670   1.000000
   11       -5.152046   1.000000
   12       -5.025143   1.000000
   13       -4.776330   1.000000
   14       -4.465796   1.000000
   15       -4.372508   1.000000
   16       -4.202515   1.000000
   17       -4.065008   1.000000
   18       -4.006798   1.000000
   19       -3.953758   1.000000
   20       -3.807470   1.000000
   21       -3.415005   1.000000
   22       -2.308511   0.721271
   23       -1.339046  -0.040212
   24        0.108781   0.000000
   25        1.632983   0.000000
   26        2.072591   0.000000
   27        3.132466   0.000000
   28        4.576491   0.000000
 
  0.4000000E+00  0.2000000E+00  0.0000000E+00  0.6000000E-01
    1       -9.229621   1.000000
    2       -7.702418   1.000000
    3       -6.944413   1.000000
    4       -6.424582   1.000000
    5       -6.079475   1.000000
    6       -5.972625   1.000000
    7       -5.900340   1.000000
    8       -5.811927   1.000000
    9       -5.545837   1.000000
   10       -5.393295   1.000000
   11       -5.291782   1.000000
   12       -5.251511   1.000000
   13       -4.929730   1.000000
   14       -4.870329   1.000000
   15       -4.743192   1.000000
   16       -4.550770   1.000000
   17       -4.375788   1.000000
   18       -4.241857   1.000000
   19       -4.133717   1.000000
   20       -3.910317   1.000000
   21       -3.868178   1.000000
   22       -3.520822   1.000000
   23       -2.796252   0.859060
   24       -0.750280   0.000000
   25        1.873682   0.000000
   26        4.663751   0.000000
   27        5.171719   0.000000
   28        5.867630   0.000000
 
  0.5000000E+00  0.2000000E+00  0.0000000E+00  0.1200000E+00
    1       -8.591647   1.000000
    2       -6.797993   1.000000
    3       -6.588243   1.000000
    4       -6.344918   1.000000
    5       -6.164573   1.000000
    6       -6.045083   1.000000
    7       -5.901653   1.000000
    8       -5.727478   1.000000
    9       -5.542873   1.000000
   10       -5.445537   1.000000
   11       -5.326800   1.000000
   12       -5.015073   1.000000
   13       -4.940522   1.000000
   14       -4.789207   1.000000
   15       -4.598168   1.000000
   16       -4.472455   1.000000
   17       -4.318055   1.000000
   18       -4.136974   1.000000
   19       -3.960186   1.000000
   20       -3.818366   1.000000
   21       -3.173160   1.050344
   22       -2.320421   0.601759
   23       -1.195247  -0.034356
   24        0.916781   0.000000
   25        2.938233   0.000000
   26        3.245120   0.000000
   27        4.023302   0.000000
   28        5.180933   0.000000
 
 -0.4000000E+00  0.2000000E+00  0.0000000E+00  0.6000000E-01
    1       -8.421514   1.000000
    2       -6.575557   1.000000
    3       -6.510130   1.000000
    4       -6.247002   1.000000
    5       -6.167908   1.000000
    6       -6.065206   1.000000
    7       -5.911366   1.000000
    8       -5.761788   1.000000
    9       -5.515134   1.000000
   10       -5.383999   1.000000
   11       -5.260061   1.000000
   12       -5.059428   1.000000
   13       -4.883461   1.000000
   14       -4.657591   1.000000
   15       -4.507063   1.000000
   16       -4.439187   1.000000
   17       -4.212128   1.000000
   18       -4.035837   1.000000
   19       -3.990891   1.000000
   20       -3.885646   1.000000
   21       -2.354431   0.781096
   22       -0.713554  -0.222564
   23       -0.173358   0.000000
   24        0.584287   0.000000
   25        1.943735   0.000000
   26        2.291289   0.000000
   27        3.580804   0.000000
   28        4.683804   0.000000
 
 -0.4000000E+00  0.3000000E+00  0.0000000E+00  0.6000000E-01
    1       -8.329657   1.000000
    2       -6.329615   1.000000
    3       -6.272074   1.000000
    4       -6.203872   1.000000
    5       -6.060330   1.000000
    6       -5.953830   1.000000
    7       -5.906247   1.000000
    8       -5.830930   1.000000
    9       -5.698260   1.000000
   10       -5.529758   1.000000
   11       -5.378756   1.000000
   12       -4.999363   1.000000
   13       -4.950093   1.000000
   14       -4.823777   1.000000
   15       -4.619732   1.000000
   16       -4.456453   1.000000
   17       -4.383276   1.000000
   18       -4.081816   1.000000
   19       -3.997391   1.000000
   20       -3.910362   1.000000
   21       -1.887716   0.172834
   22       -0.368383  -0.076648
   23        0.753317   0.000000
   24        1.990305   0.000000
   25        2.388937   0.000000
   26        2.920344   0.000000
   27        3.139689   0.000000
   28        4.082298   0.000000
