       N       E                     dE             d eps       ncg     rms          rms(c)
DAV:   1     0.279363175084E+03    0.27936E+03   -0.19392E+04   784   0.157E+03
DAV:   2    -0.367101372080E+01   -0.28303E+03   -0.27440E+03   800   0.345E+02
DAV:   3    -0.209449900562E+02   -0.17274E+02   -0.17069E+02   892   0.116E+02
DAV:   4    -0.211950981489E+02   -0.25011E+00   -0.25835E+00   868   0.153E+01
DAV:   5    -0.211973666843E+02   -0.22685E-02   -0.22670E-02   900   0.993E-01    0.143E+01
RMM:   6    -0.193024360882E+02    0.18949E+01   -0.42277E+01   790   0.740E+01    0.754E+00
RMM:   7    -0.176349099136E+02    0.16675E+01   -0.76259E+00   786   0.333E+01    0.221E+00
RMM:   8    -0.175657133767E+02    0.69197E-01   -0.19004E-01   789   0.408E+00    0.211E+00
RMM:   9    -0.174869949059E+02    0.78718E-01   -0.85093E-02   787   0.304E+00    0.708E-01
RMM:  10    -0.174770826513E+02    0.99123E-02   -0.24309E-02   794   0.148E+00    0.421E-01
RMM:  11    -0.174737782692E+02    0.33044E-02   -0.62516E-03   790   0.765E-01    0.170E-01
RMM:  12    -0.174717776165E+02    0.20007E-02   -0.16059E-03   788   0.309E-01    0.852E-02
RMM:  13    -0.174715894115E+02    0.18821E-03   -0.67054E-04   792   0.257E-01    0.486E-02
RMM:  14    -0.174715831866E+02    0.62249E-05   -0.27187E-04   784   0.154E-01    0.272E-02
RMM:  15    -0.174715503157E+02    0.32871E-04   -0.10696E-04   786   0.811E-02    0.156E-02
RMM:  16    -0.174716322868E+02   -0.81971E-04   -0.77955E-05   777   0.394E-02    0.951E-03
RMM:  17    -0.174716948012E+02   -0.62514E-04   -0.64883E-06   631   0.163E-02    0.567E-03
RMM:  18    -0.174718087653E+02   -0.11396E-03   -0.11387E-05   650   0.203E-02    0.484E-03
RMM:  19    -0.174718389714E+02   -0.30206E-04   -0.56667E-06   564   0.175E-02    0.267E-03
RMM:  20    -0.174718789297E+02   -0.39958E-04   -0.32339E-06   486   0.101E-02    0.960E-04
RMM:  21    -0.174719019773E+02   -0.23048E-04   -0.84783E-07   462   0.399E-03    0.754E-04
RMM:  22    -0.174719144480E+02   -0.12471E-04   -0.79295E-07   459   0.314E-03    0.340E-04
RMM:  23    -0.174719179219E+02   -0.34739E-05   -0.10560E-07   364   0.213E-03    0.358E-04
RMM:  24    -0.174719201542E+02   -0.22323E-05   -0.98406E-08   236   0.150E-03    0.772E-05
RMM:  25    -0.174719199406E+02    0.21364E-06   -0.15313E-08   197   0.110E-03
   1 F= -.17471920E+02 E0= -.17471920E+02  d E =0.000000E+00
       N       E                     dE             d eps       ncg     rms          rms(c)
DAV:   1    -0.174524090890E+02    0.19511E-01   -0.29937E+00  2984   0.702E+00    0.416E-01
RMM:   2    -0.174550654193E+02   -0.26563E-02   -0.46185E-02  2921   0.145E+00    0.253E-01
RMM:   3    -0.174564979091E+02   -0.14325E-02   -0.47045E-03  2921   0.560E-01    0.316E-01
RMM:   4    -0.174543222872E+02    0.21756E-02   -0.19872E-03  2934   0.433E-01    0.294E-02
RMM:   5    -0.174541339648E+02    0.18832E-03   -0.15547E-04  2918   0.120E-01    0.278E-02
RMM:   6    -0.174542149793E+02   -0.81015E-04   -0.31801E-05  2903   0.614E-02    0.687E-03
RMM:   7    -0.174541918855E+02    0.23094E-04   -0.33509E-06  1953   0.167E-02    0.460E-03
RMM:   8    -0.174541987499E+02   -0.68644E-05   -0.19660E-06  1639   0.159E-02    0.148E-03
RMM:   9    -0.174542024930E+02   -0.37431E-05   -0.22600E-07  1609   0.556E-03    0.410E-04
RMM:  10    -0.174542017457E+02    0.74734E-06   -0.28833E-08  1247   0.178E-03
   2 F= -.17454202E+02 E0= -.17454202E+02  d E =0.000000E+00
       N       E                     dE             d eps       ncg     rms          rms(c)
DAV:   1    -0.174552517631E+02   -0.10493E-02   -0.60151E+00  2968   0.942E+00    0.828E-01
RMM:   2    -0.174574231198E+02   -0.21714E-02   -0.10327E-01  2921   0.193E+00    0.493E-01
RMM:   3    -0.174571328454E+02    0.29027E-03   -0.10369E-02  2924   0.677E-01    0.332E-01
RMM:   4    -0.174542996994E+02    0.28331E-02   -0.24040E-03  2934   0.456E-01    0.399E-02
RMM:   5    -0.174542379779E+02    0.61721E-04   -0.11109E-04  2928   0.103E-01    0.215E-02
RMM:   6    -0.174542238379E+02    0.14140E-04   -0.34232E-05  2916   0.592E-02    0.153E-02
RMM:   7    -0.174541948464E+02    0.28992E-04   -0.15850E-05  2909   0.407E-02    0.635E-03
RMM:   8    -0.174541966029E+02   -0.17565E-05   -0.28166E-06  1802   0.179E-02    0.195E-03
RMM:   9    -0.174542009013E+02   -0.42985E-05   -0.45125E-07  1619   0.755E-03    0.834E-04
RMM:  10    -0.174542034479E+02   -0.25465E-05   -0.12602E-07  1594   0.359E-03    0.675E-04
RMM:  11    -0.174542010547E+02    0.23932E-05   -0.34106E-08  1517   0.214E-03    0.248E-04
RMM:  12    -0.174542009341E+02    0.12062E-06   -0.21855E-09   387   0.853E-04
   3 F= -.17454201E+02 E0= -.17454201E+02  d E =0.000000E+00
       N       E                     dE             d eps       ncg     rms          rms(c)
DAV:   1    -0.174525698019E+02    0.16313E-02   -0.67306E+00  1760   0.101E+01    0.552E-01
RMM:   2    -0.174593172307E+02   -0.67474E-02   -0.10377E-01  1743   0.203E+00    0.339E-01
RMM:   3    -0.174564583668E+02    0.28589E-02   -0.53951E-03  1745   0.426E-01    0.701E-02
RMM:   4    -0.174568496346E+02   -0.39127E-03   -0.66401E-04  1749   0.221E-01    0.922E-02
RMM:   5    -0.174563168337E+02    0.53280E-03   -0.16057E-04  1740   0.128E-01    0.127E-02
RMM:   6    -0.174562622805E+02    0.54553E-04   -0.10588E-05  1722   0.299E-02    0.757E-03
RMM:   7    -0.174561963131E+02    0.65967E-04   -0.73917E-06  1637   0.252E-02    0.553E-03
RMM:   8    -0.174561805122E+02    0.15801E-04   -0.17798E-06   990   0.144E-02    0.105E-03
RMM:   9    -0.174561836288E+02   -0.31166E-05   -0.13372E-07   947   0.371E-03    0.633E-04
RMM:  10    -0.174561801798E+02    0.34490E-05   -0.52972E-08   916   0.219E-03    0.475E-04
RMM:  11    -0.174561792416E+02    0.93815E-06   -0.18935E-08   657   0.162E-03
   4 F= -.17456179E+02 E0= -.17456179E+02  d E =0.000000E+00
       N       E                     dE             d eps       ncg     rms          rms(c)
DAV:   1    -0.174529490257E+02    0.32312E-02   -0.69993E+00  1752   0.101E+01    0.830E-01
RMM:   2    -0.174555740740E+02   -0.26250E-02   -0.10823E-01  1744   0.212E+00    0.494E-01
RMM:   3    -0.174581201885E+02   -0.25461E-02   -0.13120E-02  1748   0.857E-01    0.477E-01
RMM:   4    -0.174523811775E+02    0.57390E-02   -0.43099E-03  1747   0.631E-01    0.384E-02
RMM:   5    -0.174521899776E+02    0.19120E-03   -0.26822E-04  1742   0.152E-01    0.367E-02
RMM:   6    -0.174522898818E+02   -0.99904E-04   -0.61422E-05  1742   0.833E-02    0.142E-02
RMM:   7    -0.174522287538E+02    0.61128E-04   -0.11764E-05  1667   0.274E-02    0.620E-03
RMM:   8    -0.174522488172E+02   -0.20063E-04   -0.36867E-06  1257   0.196E-02    0.321E-03
RMM:   9    -0.174522529580E+02   -0.41408E-05   -0.62077E-07   967   0.950E-03    0.711E-04
RMM:  10    -0.174522516558E+02    0.13023E-05   -0.45928E-08   803   0.198E-03    0.304E-04
RMM:  11    -0.174522511459E+02    0.50986E-06   -0.76377E-09   301   0.115E-03
   5 F= -.17452251E+02 E0= -.17452251E+02  d E =0.000000E+00
       N       E                     dE             d eps       ncg     rms          rms(c)
DAV:   1    -0.174396706743E+02    0.12581E-01   -0.60314E+00   784   0.103E+01    0.496E-01
RMM:   2    -0.174452795712E+02   -0.56089E-02   -0.87133E-02   788   0.222E+00    0.310E-01
RMM:   3    -0.174529877943E+02   -0.77082E-02   -0.11100E-02   792   0.882E-01    0.568E-01
RMM:   4    -0.174452884573E+02    0.76993E-02   -0.60411E-03   793   0.767E-01    0.644E-02
RMM:   5    -0.174451700143E+02    0.11844E-03   -0.48029E-04   789   0.220E-01    0.259E-02
RMM:   6    -0.174453576262E+02   -0.18761E-03   -0.71802E-05   793   0.875E-02    0.210E-02
RMM:   7    -0.174453322977E+02    0.25329E-04   -0.23022E-05   784   0.472E-02    0.760E-03
RMM:   8    -0.174453851887E+02   -0.52891E-04   -0.40458E-06   541   0.185E-02    0.259E-03
RMM:   9    -0.174454150632E+02   -0.29875E-04   -0.79968E-07   445   0.823E-03    0.981E-04
RMM:  10    -0.174454182939E+02   -0.32307E-05   -0.18434E-07   436   0.434E-03    0.625E-04
RMM:  11    -0.174454206283E+02   -0.23344E-05   -0.73321E-08   416   0.257E-03    0.394E-04
RMM:  12    -0.174454241397E+02   -0.35115E-05   -0.34021E-08   338   0.179E-03    0.141E-04
RMM:  13    -0.174454253207E+02   -0.11809E-05   -0.60469E-09   128   0.120E-03    0.951E-05
RMM:  14    -0.174454259435E+02   -0.62285E-06   -0.89882E-09   133   0.121E-03
   6 F= -.17445426E+02 E0= -.17445426E+02  d E =0.000000E+00
       N       E                     dE             d eps       ncg     rms          rms(c)
DAV:   1    -0.174453469960E+02    0.78325E-04   -0.11812E+01   796   0.148E+01    0.626E-01
RMM:   2    -0.174565678756E+02   -0.11221E-01   -0.15661E-01   789   0.284E+00    0.411E-01
RMM:   3    -0.174701984127E+02   -0.13631E-01   -0.18278E-02   792   0.114E+00    0.679E-01
RMM:   4    -0.174554888093E+02    0.14710E-01   -0.11546E-02   791   0.101E+00    0.119E-01
RMM:   5    -0.174555148422E+02   -0.26033E-04   -0.13196E-03   790   0.386E-01    0.479E-02
RMM:   6    -0.174552629029E+02    0.25194E-03   -0.20041E-04   790   0.151E-01    0.301E-02
RMM:   7    -0.174553743752E+02   -0.11147E-03   -0.56616E-05   790   0.689E-02    0.127E-02
RMM:   8    -0.174553623330E+02    0.12042E-04   -0.96657E-06   725   0.299E-02    0.764E-03
RMM:   9    -0.174553420342E+02    0.20299E-04   -0.26959E-06   481   0.178E-02    0.370E-03
RMM:  10    -0.174553383188E+02    0.37154E-05   -0.86315E-07   435   0.105E-02    0.137E-03
RMM:  11    -0.174553438064E+02   -0.54876E-05   -0.19551E-07   430   0.391E-03    0.687E-04
RMM:  12    -0.174553453615E+02   -0.15551E-05   -0.10152E-07   427   0.319E-03    0.444E-04
RMM:  13    -0.174553441757E+02    0.11858E-05   -0.61067E-08   399   0.232E-03    0.301E-04
RMM:  14    -0.174553457013E+02   -0.15256E-05   -0.44691E-08   277   0.162E-03    0.165E-04
RMM:  15    -0.174553458716E+02   -0.17028E-06   -0.21423E-08   133   0.956E-04
   7 F= -.17455346E+02 E0= -.17455346E+02  d E =0.000000E+00
