 vasp.5.4.4.18Apr17-6-g9f103f2a35 (build Jun 30 2017 11:15:00) complex          
  
 executed on    STALLO_VASP_5.4.4 date 2019.10.11  16:34:45
 running on    4 total cores
 distrk:  each k-point on    4 cores,    1 groups
 distr:  one band on NCORES_PER_BAND=   1 cores,    4 groups


--------------------------------------------------------------------------------------------------------


 INCAR:
 POTCAR:   PAW_PBE Cu 05Jan2001                   
 POTCAR:   PAW_PBE H 15Jun2001                    
 POTCAR:   PAW_PBE Cu 05Jan2001                   
   VRHFIN =Cu: d10 p1                                                           
   LEXCH  = PE                                                                  
   EATOM  =  1390.9800 eV,  102.2341 Ry                                         
                                                                                
   TITEL  = PAW_PBE Cu 05Jan2001                                                
   LULTRA =        F    use ultrasoft PP ?                                      
   IUNSCR =        1    unscreen: 0-lin 1-nonlin 2-no                           
   RPACOR =    2.000    partial core radius                                     
   POMASS =   63.546; ZVAL   =   11.000    mass and valenz                      
   RCORE  =    2.300    outmost cutoff radius                                   
   RWIGS  =    2.480; RWIGS  =    1.312    wigner-seitz radius (au A)           
   ENMAX  =  273.214; ENMIN  =  204.910 eV                                      
   RCLOC  =    1.712    cutoff for local pot                                    
   LCOR   =        T    correct aug charges                                     
   LPAW   =        T    paw PP                                                  
   EAUG   =  516.456                                                            
   DEXC   =    -.008                                                            
   RMAX   =    2.789    core radius for proj-oper                               
   RAUG   =    1.300    factor for augmentation sphere                          
   RDEP   =    2.302    radius for radial grids                                 
   QCUT   =   -4.481; QGAM   =    8.962    optimization parameters              
                                                                                
   Description                                                                  
     l     E      TYP  RCUT    TYP  RCUT                                        
     2   .000     23  2.300                                                     
     2   .000     23  2.300                                                     
     0   .000     23  2.300                                                     
     0   .000     23  2.300                                                     
     1  -.200     23  2.300                                                     
     1   .000     23  2.300                                                     
     3   .000      7   .000                                                     
  local pseudopotential read in
  partial core-charges read in
  atomic valenz-charges read in
  non local Contribution for L=           2  read in
    real space projection operators read in
  non local Contribution for L=           2  read in
    real space projection operators read in
  non local Contribution for L=           0  read in
    real space projection operators read in
  non local Contribution for L=           0  read in
    real space projection operators read in
  non local Contribution for L=           1  read in
    real space projection operators read in
  non local Contribution for L=           1  read in
    real space projection operators read in
    PAW grid and wavefunctions read in
 
   number of l-projection  operators is LMAX  =           6
   number of lm-projection operators is LMMAX =          18
 
 POTCAR:   PAW_PBE H 15Jun2001                    
   VRHFIN =H: ultrasoft test                                                    
   LEXCH  = PE                                                                  
   EATOM  =    12.4884 eV,     .9179 Ry                                         
                                                                                
   TITEL  = PAW_PBE H 15Jun2001                                                 
   LULTRA =        F    use ultrasoft PP ?                                      
   IUNSCR =        0    unscreen: 0-lin 1-nonlin 2-no                           
   RPACOR =     .000    partial core radius                                     
   POMASS =    1.000; ZVAL   =    1.000    mass and valenz                      
   RCORE  =    1.100    outmost cutoff radius                                   
   RWIGS  =     .700; RWIGS  =     .370    wigner-seitz radius (au A)           
   ENMAX  =  250.000; ENMIN  =  200.000 eV                                      
   RCLOC  =     .701    cutoff for local pot                                    
   LCOR   =        T    correct aug charges                                     
   LPAW   =        T    paw PP                                                  
   EAUG   =  400.000                                                            
   RMAX   =    2.174    core radius for proj-oper                               
   RAUG   =    1.200    factor for augmentation sphere                          
   RDEP   =    1.112    radius for radial grids                                 
   QCUT   =   -5.749; QGAM   =   11.498    optimization parameters              
                                                                                
   Description                                                                  
     l     E      TYP  RCUT    TYP  RCUT                                        
     0   .000     23  1.100                                                     
     0   .500     23  1.100                                                     
     1  -.300     23  1.100                                                     
  local pseudopotential read in
  atomic valenz-charges read in
  non local Contribution for L=           0  read in
    real space projection operators read in
  non local Contribution for L=           0  read in
    real space projection operators read in
  non local Contribution for L=           1  read in
    real space projection operators read in
    PAW grid and wavefunctions read in
 
   number of l-projection  operators is LMAX  =           3
   number of lm-projection operators is LMMAX =           5
 

 ----------------------------------------------------------------------------- 
|                                                                             |
|  ADVICE TO THIS USER RUNNING 'VASP/VAMP'   (HEAR YOUR MASTER'S VOICE ...):  |
|                                                                             |
|      You have a (more or less) 'small supercell' and for smaller cells      |
|      it is recommended  to use the reciprocal-space projection scheme!      |
|      The real space optimization is not  efficient for small cells and it   |
|      is also less accurate ...                                              |
|      Therefore set LREAL=.FALSE. in the  INCAR file                         |
|                                                                             |
 ----------------------------------------------------------------------------- 

 Optimization of the real space projectors (new method)

 maximal supplied QI-value         = 16.25
 optimisation between [QCUT,QGAM] = [ 11.38, 22.75] = [ 36.24,144.96] Ry 
 Optimized for a Real-space Cutoff    1.52 Angstroem

   l    n(q)    QCUT    max X(q) W(low)/X(q) W(high)/X(q)  e(spline) 
   2      9    11.376     4.977    0.18E-04    0.11E-04    0.50E-07
   2      9    11.376    13.467    0.17E-03    0.72E-04    0.21E-06
   0     10    11.376    13.303    0.19E-04    0.22E-05    0.11E-07
   0     10    11.376    44.613    0.60E-04    0.41E-04    0.25E-06
   1     10    11.376     5.276    0.11E-04    0.43E-05    0.26E-07
   1     10    11.376     7.322    0.51E-04    0.42E-04    0.12E-06
 Optimization of the real space projectors (new method)

 maximal supplied QI-value         = 34.20
 optimisation between [QCUT,QGAM] = [ 11.29, 22.57] = [ 35.68,142.71] Ry 
 Optimized for a Real-space Cutoff    1.20 Angstroem

   l    n(q)    QCUT    max X(q) W(low)/X(q) W(high)/X(q)  e(spline) 
   0      8    11.287     4.436    0.26E-04    0.52E-04    0.39E-07
   0      8    11.287    16.131    0.21E-03    0.48E-03    0.18E-06
   1      8    11.287     4.654    0.21E-03    0.11E-04    0.26E-06
 PAW_PBE Cu 05Jan2001                   :
 energy of atom  1       EATOM=-1390.9800
 kinetic energy error for atom=    0.0032 (will be added to EATOM!!)
 PAW_PBE H 15Jun2001                    :
 energy of atom  2       EATOM=  -12.4884
 kinetic energy error for atom=    0.0020 (will be added to EATOM!!)
 
 
 POSCAR: Cu  H                                   
  positions in direct lattice
  No initial velocities read in
 exchange correlation table for  LEXCH =        8
   RHO(1)=    0.500       N(1)  =     2000
   RHO(2)=  100.500       N(2)  =     4000
 


--------------------------------------------------------------------------------------------------------


 ion  position               nearest neighbor table
   1  0.000  0.000  0.396-   2 2.56   2 2.56   2 2.56
   2  0.333  0.333  0.465-   1 2.56   1 2.56   1 2.56   3 2.56   3 2.56   3 2.56
   3  0.667  0.667  0.534-   2 2.56   2 2.56   2 2.56   4 2.66   4 2.66   4 2.66
   4  0.000  0.000  0.607-   5 1.71   5 1.71   5 1.71   3 2.66   3 2.66   3 2.66
   5  0.667  0.667  0.635-   4 1.71   4 1.71   4 1.71
 
  LATTYP: Found a hexagonal cell.
 ALAT       =     2.5738686835
 C/A-ratio  =    11.7739747694
  
  Lattice vectors:
  
 A1 = (   1.2869343418,  -2.2290356659,   0.0000000000)
 A2 = (  -2.5738686835,   0.0000000000,   0.0000000000)
 A3 = (   0.0000000000,   0.0000000000, -30.3046649396)


Analysis of symmetry for initial positions (statically):
=====================================================================
 Subroutine PRICEL returns:
 Original cell was already a primitive cell.
 

 Routine SETGRP: Setting up the symmetry group for a 
 hexagonal supercell.


 Subroutine GETGRP returns: Found  6 space group operations
 (whereof  6 operations were pure point group operations)
 out of a pool of 24 trial point group operations.


The static configuration has the point symmetry C_3v.


Analysis of symmetry for dynamics (positions and initial velocities):
=====================================================================
 Subroutine PRICEL returns:
 Original cell was already a primitive cell.
 

 Routine SETGRP: Setting up the symmetry group for a 
 hexagonal supercell.


 Subroutine GETGRP returns: Found  6 space group operations
 (whereof  6 operations were pure point group operations)
 out of a pool of 24 trial point group operations.


The dynamic configuration has the point symmetry C_3v.


Analysis of constrained symmetry for selective dynamics:
=====================================================================
 Subroutine PRICEL returns:
 Original cell was already a primitive cell.
 

 Routine SETGRP: Setting up the symmetry group for a 
 hexagonal supercell.


 Subroutine GETGRP returns: Found  6 space group operations
 (whereof  6 operations were pure point group operations)
 out of a pool of 24 trial point group operations.


The constrained configuration has the point symmetry C_3v.


 Subroutine INISYM returns: Found  6 space group operations
 (whereof  6 operations are pure point group operations),
 and found     1 'primitive' translations

 
 
 KPOINTS: k-density: 4.0                          

Automatic generation of k-mesh.
Space group operators:
 irot       det(A)        alpha          n_x          n_y          n_z        tau_x        tau_y        tau_z
    1     1.000000     0.000001     1.000000     0.000000     0.000000     0.000000     0.000000     0.000000
    2     1.000000   120.000000     0.000000     0.000000     1.000000     0.000000     0.000000     0.000000
    3     1.000000   120.000000     0.000000     0.000000    -1.000000     0.000000     0.000000     0.000000
    4    -1.000000   180.000000     0.500000    -0.866025     0.000000     0.000000     0.000000     0.000000
    5    -1.000000   180.000000     1.000000     0.000000     0.000000     0.000000     0.000000     0.000000
    6    -1.000000   180.000000    -0.500000    -0.866025     0.000000     0.000000     0.000000     0.000000
 
 Subroutine IBZKPT returns following result:
 ===========================================
 
 Found     14 irreducible k-points:
 
 Following reciprocal coordinates:
            Coordinates               Weight
  0.000000  0.000000  0.000000      1.000000
  0.100000  0.000000  0.000000      6.000000
  0.200000 -0.000000  0.000000      6.000000
  0.300000 -0.000000  0.000000      6.000000
  0.400000 -0.000000  0.000000      6.000000
  0.500000 -0.000000  0.000000      3.000000
  0.200000  0.100000  0.000000      6.000000
  0.300000  0.100000  0.000000     12.000000
  0.400000  0.100000  0.000000     12.000000
  0.500000  0.100000  0.000000     12.000000
  0.400000  0.200000  0.000000      6.000000
  0.500000  0.200000  0.000000     12.000000
 -0.400000  0.200000  0.000000      6.000000
 -0.400000  0.300000  0.000000      6.000000
 
 Following cartesian coordinates:
            Coordinates               Weight
  0.000000  0.000000  0.000000      1.000000
  0.038852 -0.022431  0.000000      6.000000
  0.077704 -0.044862  0.000000      6.000000
  0.116556 -0.067294  0.000000      6.000000
  0.155408 -0.089725  0.000000      6.000000
  0.194260 -0.112156  0.000000      3.000000
  0.077704 -0.000000  0.000000      6.000000
  0.116556 -0.022431  0.000000     12.000000
  0.155408 -0.044862  0.000000     12.000000
  0.194260 -0.067294  0.000000     12.000000
  0.155408  0.000000  0.000000      6.000000
  0.194260 -0.022431  0.000000     12.000000
 -0.155408  0.179450  0.000000      6.000000
 -0.155408  0.224312  0.000000      6.000000
 
 TETIRR: Found     55 inequivalent tetrahedra from      600
 
 Subroutine IBZKPT_HF returns following result:
 ==============================================
 
 Found    100 k-points in 1st BZ
 the following    100 k-points will be used (e.g. in the exchange kernel)
 Following reciprocal coordinates:   # in IRBZ
  0.000000  0.000000  0.000000    0.01000000   1 t-inv F
  0.100000  0.000000  0.000000    0.01000000   2 t-inv F
  0.200000 -0.000000  0.000000    0.01000000   3 t-inv F
  0.300000 -0.000000  0.000000    0.01000000   4 t-inv F
  0.400000 -0.000000  0.000000    0.01000000   5 t-inv F
  0.500000 -0.000000  0.000000    0.01000000   6 t-inv F
  0.200000  0.100000  0.000000    0.01000000   7 t-inv F
  0.300000  0.100000  0.000000    0.01000000   8 t-inv F
  0.400000  0.100000  0.000000    0.01000000   9 t-inv F
  0.500000  0.100000  0.000000    0.01000000  10 t-inv F
  0.400000  0.200000  0.000000    0.01000000  11 t-inv F
  0.500000  0.200000  0.000000    0.01000000  12 t-inv F
 -0.400000  0.200000  0.000000    0.01000000  13 t-inv F
 -0.400000  0.300000  0.000000    0.01000000  14 t-inv F
 -0.100000 -0.100000  0.000000    0.01000000   2 t-inv F
 -0.000000  0.100000  0.000000    0.01000000   2 t-inv F
 -0.200000 -0.200000  0.000000    0.01000000   3 t-inv F
  0.000000  0.200000  0.000000    0.01000000   3 t-inv F
 -0.300000 -0.300000  0.000000    0.01000000   4 t-inv F
  0.000000  0.300000  0.000000    0.01000000   4 t-inv F
 -0.400000 -0.400000  0.000000    0.01000000   5 t-inv F
  0.000000  0.400000  0.000000    0.01000000   5 t-inv F
 -0.500000 -0.500000  0.000000    0.01000000   6 t-inv F
  0.000000  0.500000  0.000000    0.01000000   6 t-inv F
 -0.100000 -0.200000  0.000000    0.01000000   7 t-inv F
 -0.100000  0.100000  0.000000    0.01000000   7 t-inv F
  0.100000  0.200000  0.000000    0.01000000   7 t-inv F
 -0.200000 -0.100000  0.000000    0.01000000   7 t-inv F
  0.100000 -0.100000  0.000000    0.01000000   7 t-inv F
 -0.200000 -0.300000  0.000000    0.01000000   8 t-inv F
 -0.100000  0.200000  0.000000    0.01000000   8 t-inv F
  0.100000  0.300000  0.000000    0.01000000   8 t-inv F
 -0.300000 -0.200000  0.000000    0.01000000   8 t-inv F
  0.200000 -0.100000  0.000000    0.01000000   8 t-inv F
 -0.300000 -0.400000  0.000000    0.01000000   9 t-inv F
 -0.100000  0.300000  0.000000    0.01000000   9 t-inv F
  0.100000  0.400000  0.000000    0.01000000   9 t-inv F
 -0.400000 -0.300000  0.000000    0.01000000   9 t-inv F
  0.300000 -0.100000  0.000000    0.01000000   9 t-inv F
 -0.400000 -0.500000  0.000000    0.01000000  10 t-inv F
 -0.100000  0.400000  0.000000    0.01000000  10 t-inv F
  0.100000  0.500000  0.000000    0.01000000  10 t-inv F
 -0.500000 -0.400000  0.000000    0.01000000  10 t-inv F
  0.400000 -0.100000  0.000000    0.01000000  10 t-inv F
 -0.200000 -0.400000  0.000000    0.01000000  11 t-inv F
 -0.200000  0.200000  0.000000    0.01000000  11 t-inv F
  0.200000  0.400000  0.000000    0.01000000  11 t-inv F
 -0.400000 -0.200000  0.000000    0.01000000  11 t-inv F
  0.200000 -0.200000  0.000000    0.01000000  11 t-inv F
 -0.300000 -0.500000  0.000000    0.01000000  12 t-inv F
 -0.200000  0.300000  0.000000    0.01000000  12 t-inv F
  0.200000  0.500000  0.000000    0.01000000  12 t-inv F
 -0.500000 -0.300000  0.000000    0.01000000  12 t-inv F
  0.300000 -0.200000  0.000000    0.01000000  12 t-inv F
  0.600000  0.400000  0.000000    0.01000000  13 t-inv F
 -0.200000 -0.600000  0.000000    0.01000000  13 t-inv F
  0.200000 -0.400000  0.000000    0.01000000  13 t-inv F
  0.400000  0.600000  0.000000    0.01000000  13 t-inv F
 -0.600000 -0.200000  0.000000    0.01000000  13 t-inv F
  0.700000  0.400000  0.000000    0.01000000  14 t-inv F
 -0.300000 -0.700000  0.000000    0.01000000  14 t-inv F
  0.300000 -0.400000  0.000000    0.01000000  14 t-inv F
  0.400000  0.700000  0.000000    0.01000000  14 t-inv F
 -0.700000 -0.300000  0.000000    0.01000000  14 t-inv F
 -0.100000 -0.000000  0.000000    0.01000000   2 t-inv T
  0.100000  0.100000  0.000000    0.01000000   2 t-inv T
  0.000000 -0.100000  0.000000    0.01000000   2 t-inv T
 -0.200000  0.000000  0.000000    0.01000000   3 t-inv T
  0.200000  0.200000  0.000000    0.01000000   3 t-inv T
 -0.000000 -0.200000  0.000000    0.01000000   3 t-inv T
 -0.300000  0.000000  0.000000    0.01000000   4 t-inv T
  0.300000  0.300000  0.000000    0.01000000   4 t-inv T
 -0.000000 -0.300000  0.000000    0.01000000   4 t-inv T
 -0.400000  0.000000  0.000000    0.01000000   5 t-inv T
  0.400000  0.400000  0.000000    0.01000000   5 t-inv T
 -0.000000 -0.400000  0.000000    0.01000000   5 t-inv T
 -0.300000 -0.100000  0.000000    0.01000000   8 t-inv T
  0.200000  0.300000  0.000000    0.01000000   8 t-inv T
  0.100000 -0.200000  0.000000    0.01000000   8 t-inv T
 -0.100000 -0.300000  0.000000    0.01000000   8 t-inv T
  0.300000  0.200000  0.000000    0.01000000   8 t-inv T
 -0.200000  0.100000  0.000000    0.01000000   8 t-inv T
 -0.400000 -0.100000  0.000000    0.01000000   9 t-inv T
  0.300000  0.400000  0.000000    0.01000000   9 t-inv T
  0.100000 -0.300000  0.000000    0.01000000   9 t-inv T
 -0.100000 -0.400000  0.000000    0.01000000   9 t-inv T
  0.400000  0.300000  0.000000    0.01000000   9 t-inv T
 -0.300000  0.100000  0.000000    0.01000000   9 t-inv T
 -0.500000 -0.100000  0.000000    0.01000000  10 t-inv T
  0.400000  0.500000  0.000000    0.01000000  10 t-inv T
  0.100000 -0.400000  0.000000    0.01000000  10 t-inv T
 -0.100000 -0.500000  0.000000    0.01000000  10 t-inv T
  0.500000  0.400000  0.000000    0.01000000  10 t-inv T
 -0.400000  0.100000  0.000000    0.01000000  10 t-inv T
 -0.500000 -0.200000  0.000000    0.01000000  12 t-inv T
  0.300000  0.500000  0.000000    0.01000000  12 t-inv T
  0.200000 -0.300000  0.000000    0.01000000  12 t-inv T
 -0.200000 -0.500000  0.000000    0.01000000  12 t-inv T
  0.500000  0.300000  0.000000    0.01000000  12 t-inv T
 -0.300000  0.200000  0.000000    0.01000000  12 t-inv T


--------------------------------------------------------------------------------------------------------




 Dimension of arrays:
   k-points           NKPTS =     14   k-points in BZ     NKDIM =     14   number of bands    NBANDS=     28
   number of dos      NEDOS =    301   number of ions     NIONS =      5
   non local maximal  LDIM  =      6   non local SUM 2l+1 LMDIM =     18
   total plane-waves  NPLWV =  89600
   max r-space proj   IRMAX =   7610   max aug-charges    IRDMAX=  18284
   dimension x,y,z NGX =    20 NGY =   20 NGZ =  224
   dimension x,y,z NGXF=    40 NGYF=   40 NGZF=  448
   support grid    NGXF=    40 NGYF=   40 NGZF=  448
   ions per type =               4   1
   NGX,Y,Z   is equivalent  to a cutoff of  12.92, 12.92, 12.29 a.u.
   NGXF,Y,Z  is equivalent  to a cutoff of  25.84, 25.84, 24.58 a.u.

 SYSTEM =  unknown system                          
 POSCAR =  Cu  H                                   

 Startparameter for this run:
   NWRITE =      2    write-flag & timer
   PREC   = accura    normal or accurate (medium, high low for compatibility)
   ISTART =      0    job   : 0-new  1-cont  2-samecut
   ICHARG =      2    charge: 1-file 2-atom 10-const
   ISPIN  =      1    spin polarized calculation?
   LNONCOLLINEAR =      F non collinear calculations
   LSORBIT =      F    spin-orbit coupling
   INIWAV =      1    electr: 0-lowe 1-rand  2-diag
   LASPH  =      F    aspherical Exc in radial PAW
   METAGGA=      F    non-selfconsistent MetaGGA calc.

 Electronic Relaxation 1
   ENCUT  =  500.0 eV  36.75 Ry    6.06 a.u.   4.69  4.69 55.25*2*pi/ulx,y,z
   ENINI  =  500.0     initial cutoff
   ENAUG  =  516.5 eV  augmentation charge cutoff
   NELM   =     60;   NELMIN=  4; NELMDL= -5     # of ELM steps 
   EDIFF  = 0.1E-05   stopping-criterion for ELM
   LREAL  =      T    real-space projection
   NLSPLINE    = F    spline interpolate recip. space projectors
   LCOMPAT=      F    compatible to vasp.4.4
   GGA_COMPAT  = T    GGA compatible to vasp.4.4-vasp.4.6
   LMAXPAW     = -100 max onsite density
   LMAXMIX     =    2 max onsite mixed and CHGCAR
   VOSKOWN=      0    Vosko Wilk Nusair interpolation
   ROPT   =   -0.00025  -0.00025
 Ionic relaxation
   EDIFFG = 0.1E-04   stopping-criterion for IOM
   NSW    =     97    number of steps for IOM
   NBLOCK =      1;   KBLOCK =     97    inner block; outer block 
   IBRION =      5    ionic relax: 0-MD 1-quasi-New 2-CG
   NFREE  =      2    steps in history (QN), initial steepest desc. (CG)
   ISIF   =      2    stress and relaxation
   IWAVPR =     11    prediction:  0-non 1-charg 2-wave 3-comb
   ISYM   =      2    0-nonsym 1-usesym 2-fastsym
   LCORR  =      T    Harris-Foulkes like correction to forces

   POTIM  = 0.1000    time-step for ionic-motion
   TEIN   =    0.0    initial temperature
   TEBEG  =    0.0;   TEEND  =   0.0 temperature during run
   SMASS  =  -3.00    Nose mass-parameter (am)
   estimated Nose-frequenzy (Omega)   =  0.10E-29 period in steps =****** mass=  -0.151E-27a.u.
   SCALEE = 1.0000    scale energy and forces
   NPACO  =    256;   APACO  = 16.0  distance and # of slots for P.C.
   PSTRESS=    0.0 pullay stress

  Mass of Ions in am
   POMASS =  63.55  1.00
  Ionic Valenz
   ZVAL   =  11.00  1.00
  Atomic Wigner-Seitz radii
   RWIGS  =  -1.00 -1.00
  virtual crystal weights 
   VCA    =   1.00  1.00
   NELECT =      45.0000    total number of electrons
   NUPDOWN=      -1.0000    fix difference up-down

 DOS related values:
   EMIN   =  10.00;   EMAX   =-10.00  energy-range for DOS
   EFERMI =   0.00
   ISMEAR =    -5;   SIGMA  =   0.20  broadening in eV -4-tet -1-fermi 0-gaus

 Electronic relaxation 2 (details)
   IALGO  =     68    algorithm
   LDIAG  =      T    sub-space diagonalisation (order eigenvalues)
   LSUBROT=      F    optimize rotation matrix (better conditioning)
   TURBO    =      0    0=normal 1=particle mesh
   IRESTART =      0    0=no restart 2=restart with 2 vectors
   NREBOOT  =      0    no. of reboots
   NMIN     =      0    reboot dimension
   EREF     =   0.00    reference energy to select bands
   IMIX   =      4    mixing-type and parameters
     AMIX     =   0.40;   BMIX     =  1.00
     AMIX_MAG =   1.60;   BMIX_MAG =  1.00
     AMIN     =   0.10
     WC   =   100.;   INIMIX=   1;  MIXPRE=   1;  MAXMIX= -45

 Intra band minimization:
   WEIMIN = 0.0010     energy-eigenvalue tresh-hold
   EBREAK =  0.89E-08  absolut break condition
   DEPER  =   0.30     relativ break condition  

   TIME   =   0.40     timestep for ELM

  volume/ion in A,a.u.               =      34.77       234.66
  Fermi-wavevector in a.u.,A,eV,Ry     =   1.043297  1.971546 14.809520  1.088469
  Thomas-Fermi vector in A             =   2.178000
 
 Write flags
   LWAVE        =      F    write WAVECAR
   LDOWNSAMPLE  =      F    k-point downsampling of WAVECAR
   LCHARG       =      F    write CHGCAR
   LVTOT        =      F    write LOCPOT, total local potential
   LVHAR        =      F    write LOCPOT, Hartree potential only
   LELF         =      F    write electronic localiz. function (ELF)
   LORBIT       =      0    0 simple, 1 ext, 2 COOP (PROOUT), +10 PAW based schemes


 Dipole corrections
   LMONO  =      F    monopole corrections only (constant potential shift)
   LDIPOL =      F    correct potential (dipole corrections)
   IDIPOL =      0    1-x, 2-y, 3-z, 4-all directions 
   EPSILON=  1.0000000 bulk dielectric constant

 Exchange correlation treatment:
   GGA     =    --    GGA type
   LEXCH   =     8    internal setting for exchange type
   VOSKOWN=      0    Vosko Wilk Nusair interpolation
   LHFCALC =     F    Hartree Fock is set to
   LHFONE  =     F    Hartree Fock one center treatment
   AEXX    =    0.0000 exact exchange contribution

 Linear response parameters
   LEPSILON=     F    determine dielectric tensor
   LRPA    =     F    only Hartree local field effects (RPA)
   LNABLA  =     F    use nabla operator in PAW spheres
   LVEL    =     F    velocity operator in full k-point grid
   LINTERFAST=   F  fast interpolation
   KINTER  =     0    interpolate to denser k-point grid
   CSHIFT  =0.1000    complex shift for real part using Kramers Kronig
   OMEGAMAX=  -1.0    maximum frequency
   DEG_THRESHOLD= 0.2000000E-02 threshold for treating states as degnerate
   RTIME   =   -0.100 relaxation time in fs
  (WPLASMAI=    0.000 imaginary part of plasma frequency in eV, 0.658/RTIME)
   DFIELD  = 0.0000000 0.0000000 0.0000000 field for delta impulse in time
 
 Orbital magnetization related:
   ORBITALMAG=     F  switch on orbital magnetization
   LCHIMAG   =     F  perturbation theory with respect to B field
   DQ        =  0.001000  dq finite difference perturbation B field
   LLRAUG    =     F  two centre corrections for induced B field



--------------------------------------------------------------------------------------------------------


 finite differences
   using selective dynamics as specified on POSCAR
 charge density and potential will be updated during run
 non-spin polarized calculation
 RMM-DIIS sequential band-by-band and
  variant of blocked Davidson during initial phase
 perform sub-space diagonalisation
    before iterative eigenvector-optimisation
 modified Broyden-mixing scheme, WC =      100.0
 initial mixing is a Kerker type mixing with AMIX =  0.4000 and BMIX =      1.0000
 Hartree-type preconditioning will be used
 using additional bands            5
 real space projection scheme for non local part
 use partial core corrections
 calculate Harris-corrections to forces 
   (improved forces if not selfconsistent)
 use gradient corrections 
 use of overlap-Matrix (Vanderbilt PP)
 Fermi weights with tetrahedron method with Bloechl corrections


--------------------------------------------------------------------------------------------------------


  energy-cutoff  :      500.00
  volume of cell :      173.87
      direct lattice vectors                 reciprocal lattice vectors
     2.573868684  0.000000000  0.000000000     0.388520209 -0.224312248  0.000000000
     1.286934342  2.229035666  0.000000000     0.000000000  0.448624495  0.000000000
     0.000000000  0.000000000 30.304664940     0.000000000  0.000000000  0.032998220

  length of vectors
     2.573868684  2.573868684 30.304664940     0.448624495  0.448624495  0.032998220


 
 k-points in units of 2pi/SCALE and weight: k-density: 4.0                          
   0.00000000  0.00000000  0.00000000       0.010
   0.03885202 -0.02243122  0.00000000       0.060
   0.07770404 -0.04486245  0.00000000       0.060
   0.11655606 -0.06729367  0.00000000       0.060
   0.15540808 -0.08972490  0.00000000       0.060
   0.19426010 -0.11215612  0.00000000       0.030
   0.07770404 -0.00000000  0.00000000       0.060
   0.11655606 -0.02243122  0.00000000       0.120
   0.15540808 -0.04486245  0.00000000       0.120
   0.19426010 -0.06729367  0.00000000       0.120
   0.15540808  0.00000000  0.00000000       0.060
   0.19426010 -0.02243122  0.00000000       0.120
  -0.15540808  0.17944980  0.00000000       0.060
  -0.15540808  0.22431225  0.00000000       0.060
 
 k-points in reciprocal lattice and weights: k-density: 4.0                          
   0.00000000  0.00000000  0.00000000       0.010
   0.10000000  0.00000000  0.00000000       0.060
   0.20000000 -0.00000000  0.00000000       0.060
   0.30000000 -0.00000000  0.00000000       0.060
   0.40000000 -0.00000000  0.00000000       0.060
   0.50000000 -0.00000000  0.00000000       0.030
   0.20000000  0.10000000  0.00000000       0.060
   0.30000000  0.10000000  0.00000000       0.120
   0.40000000  0.10000000  0.00000000       0.120
   0.50000000  0.10000000  0.00000000       0.120
   0.40000000  0.20000000  0.00000000       0.060
   0.50000000  0.20000000  0.00000000       0.120
  -0.40000000  0.20000000  0.00000000       0.060
  -0.40000000  0.30000000  0.00000000       0.060
 
 position of ions in fractional coordinates (direct lattice) 
   0.00000000  0.00000000  0.39644015
   0.33333333  0.33333333  0.46515176
   0.66666667  0.66666667  0.53391621
   0.00000000  0.00000000  0.60674401
   0.66666667  0.66666667  0.63476745
 
 position of ions in cartesian coordinates  (Angst):
   0.00000000  0.00000000 12.01398579
   1.28693434  0.74301189 14.09626826
   2.57386868  1.48602378 16.18015174
   0.00000000  0.00000000 18.38717406
   2.57386868  1.48602378 19.23641497
 


--------------------------------------------------------------------------------------------------------


 k-point  1 :   0.0000 0.0000 0.0000  plane waves:    4443
 k-point  2 :   0.1000 0.0000 0.0000  plane waves:    4428
 k-point  3 :   0.2000-0.0000 0.0000  plane waves:    4424
 k-point  4 :   0.3000-0.0000 0.0000  plane waves:    4404
 k-point  5 :   0.4000-0.0000 0.0000  plane waves:    4430
 k-point  6 :   0.5000-0.0000 0.0000  plane waves:    4416
 k-point  7 :   0.2000 0.1000 0.0000  plane waves:    4435
 k-point  8 :   0.3000 0.1000 0.0000  plane waves:    4413
 k-point  9 :   0.4000 0.1000 0.0000  plane waves:    4426
 k-point 10 :   0.5000 0.1000 0.0000  plane waves:    4408
 k-point 11 :   0.4000 0.2000 0.0000  plane waves:    4431
 k-point 12 :   0.5000 0.2000 0.0000  plane waves:    4402
 k-point 13 :  -0.4000 0.2000 0.0000  plane waves:    4378
 k-point 14 :  -0.4000 0.3000 0.0000  plane waves:    4353

 maximum and minimum number of plane-waves per node :      4443     4353

 maximum number of plane-waves:      4443
 maximum index in each direction: 
   IXMAX=    5   IYMAX=    4   IZMAX=   55
   IXMIN=   -5   IYMIN=   -4   IZMIN=  -55


 serial   3D FFT for wavefunctions
 parallel 3D FFT for charge:
    minimum data exchange during FFTs selected (reduces bandwidth)


 total amount of memory used by VASP MPI-rank0    62674. kBytes
=======================================================================

   base      :      30000. kBytes
   nonlr-proj:       5456. kBytes
   fftplans  :       6391. kBytes
   grid      :      13657. kBytes
   one-center:         77. kBytes
   wavefun   :       7093. kBytes
 
     INWAV:  cpu time    0.0000: real time    0.0000
 Broyden mixing: mesh for mixing (old mesh)
   NGX =  9   NGY =  9   NGZ =111
  (NGX  = 40   NGY  = 40   NGZ  =448)
  gives a total of   8991 points

 initial charge density was supplied:
 charge density of overlapping atoms calculated
 number of electron      45.0000000 magnetization 
 keeping initial charge density in first step


--------------------------------------------------------------------------------------------------------


 Maximum index for non-local projection operator         7360
 Maximum index for augmentation-charges         4416 (set IRDMAX)


--------------------------------------------------------------------------------------------------------


 First call to EWALD:  gamma=   0.318
 Maximum number of real-space cells 6x 6x 1
 Maximum number of reciprocal cells 2x 2x13

    FEWALD:  cpu time    0.0030: real time    0.0016


--------------------------------------- Iteration      1(   1)  ---------------------------------------


    POTLOK:  cpu time    0.0980: real time    0.1293
    SETDIJ:  cpu time    0.0080: real time    0.0072
     EDDAV:  cpu time    1.7257: real time    1.7305
 BZINTS: Fermi energy:  7.060460; 45.000000 electrons
         Band energy: 101.640614;  BLOECHL correction: -0.283429
       DOS:  cpu time    0.0020: real time    0.0025
    --------------------------------------------
      LOOP:  cpu time    1.8337: real time    1.8695

 eigenvalue-minimisations  :   784
 total energy-change (2. order) : 0.2793632E+03  (-0.1939188E+04)
 number of electron      45.0000000 magnetization 
 augmentation part       45.0000000 magnetization 

 Free energy of the ion-electron system (eV)
  ---------------------------------------------------
  alpha Z        PSCENC =       120.87645803
  Ewald energy   TEWEN  =     37789.06812500
  -Hartree energ DENC   =    -42909.95868720
  -exchange      EXHF   =         0.00000000
  -V(xc)+E(xc)   XCENC  =       177.45078026
  PAW double counting   =      4328.99049516    -4905.09836044
  entropy T*S    EENTRO =         0.00000000
  eigenvalues    EBANDS =       101.64061378
  atomic energy  EATOM  =      5576.39375050
  Solvation  Ediel_sol  =         0.00000000
  ---------------------------------------------------
  free energy    TOTEN  =       279.36317508 eV

  energy without entropy =      279.36317508  energy(sigma->0) =      279.36317508


--------------------------------------------------------------------------------------------------------




--------------------------------------- Iteration      1(   2)  ---------------------------------------


     EDDAV:  cpu time    1.7577: real time    1.7595
 BZINTS: Fermi energy: -0.962979; 45.000000 electrons
         Band energy:-181.393575;  BLOECHL correction: -0.194726
       DOS:  cpu time    0.0010: real time    0.0022
    --------------------------------------------
      LOOP:  cpu time    1.7587: real time    1.7617

 eigenvalue-minimisations  :   800
 total energy-change (2. order) :-0.2830342E+03  (-0.2743970E+03)
 number of electron      45.0000000 magnetization 
 augmentation part       45.0000000 magnetization 

 Free energy of the ion-electron system (eV)
  ---------------------------------------------------
  alpha Z        PSCENC =       120.87645803
  Ewald energy   TEWEN  =     37789.06812500
  -Hartree energ DENC   =    -42909.95868720
  -exchange      EXHF   =         0.00000000
  -V(xc)+E(xc)   XCENC  =       177.45078026
  PAW double counting   =      4328.99049516    -4905.09836044
  entropy T*S    EENTRO =         0.00000000
  eigenvalues    EBANDS =      -181.39357502
  atomic energy  EATOM  =      5576.39375050
  Solvation  Ediel_sol  =         0.00000000
  ---------------------------------------------------
  free energy    TOTEN  =        -3.67101372 eV

  energy without entropy =       -3.67101372  energy(sigma->0) =       -3.67101372


--------------------------------------------------------------------------------------------------------




--------------------------------------- Iteration      1(   3)  ---------------------------------------


     EDDAV:  cpu time    1.9127: real time    1.9133
 BZINTS: Fermi energy: -1.605974; 45.000000 electrons
         Band energy:-198.667551;  BLOECHL correction: -0.131826
       DOS:  cpu time    0.0020: real time    0.0020
    --------------------------------------------
      LOOP:  cpu time    1.9147: real time    1.9153

 eigenvalue-minimisations  :   892
 total energy-change (2. order) :-0.1727398E+02  (-0.1706860E+02)
 number of electron      45.0000000 magnetization 
 augmentation part       45.0000000 magnetization 

 Free energy of the ion-electron system (eV)
  ---------------------------------------------------
  alpha Z        PSCENC =       120.87645803
  Ewald energy   TEWEN  =     37789.06812500
  -Hartree energ DENC   =    -42909.95868720
  -exchange      EXHF   =         0.00000000
  -V(xc)+E(xc)   XCENC  =       177.45078026
  PAW double counting   =      4328.99049516    -4905.09836044
  entropy T*S    EENTRO =         0.00000000
  eigenvalues    EBANDS =      -198.66755136
  atomic energy  EATOM  =      5576.39375050
  Solvation  Ediel_sol  =         0.00000000
  ---------------------------------------------------
  free energy    TOTEN  =       -20.94499006 eV

  energy without entropy =      -20.94499006  energy(sigma->0) =      -20.94499006


--------------------------------------------------------------------------------------------------------




--------------------------------------- Iteration      1(   4)  ---------------------------------------


     EDDAV:  cpu time    1.8697: real time    1.8714
 BZINTS: Fermi energy: -1.615712; 45.000000 electrons
         Band energy:-198.917659;  BLOECHL correction: -0.122129
       DOS:  cpu time    0.0010: real time    0.0022
    --------------------------------------------
      LOOP:  cpu time    1.8707: real time    1.8735

 eigenvalue-minimisations  :   868
 total energy-change (2. order) :-0.2501081E+00  (-0.2583496E+00)
 number of electron      45.0000000 magnetization 
 augmentation part       45.0000000 magnetization 

 Free energy of the ion-electron system (eV)
  ---------------------------------------------------
  alpha Z        PSCENC =       120.87645803
  Ewald energy   TEWEN  =     37789.06812500
  -Hartree energ DENC   =    -42909.95868720
  -exchange      EXHF   =         0.00000000
  -V(xc)+E(xc)   XCENC  =       177.45078026
  PAW double counting   =      4328.99049516    -4905.09836044
  entropy T*S    EENTRO =         0.00000000
  eigenvalues    EBANDS =      -198.91765945
  atomic energy  EATOM  =      5576.39375050
  Solvation  Ediel_sol  =         0.00000000
  ---------------------------------------------------
  free energy    TOTEN  =       -21.19509815 eV

  energy without entropy =      -21.19509815  energy(sigma->0) =      -21.19509815


--------------------------------------------------------------------------------------------------------




--------------------------------------- Iteration      1(   5)  ---------------------------------------


     EDDAV:  cpu time    1.9247: real time    1.9251
 BZINTS: Fermi energy: -1.615778; 45.000000 electrons
         Band energy:-198.919928;  BLOECHL correction: -0.122124
       DOS:  cpu time    0.0020: real time    0.0022
    CHARGE:  cpu time    0.1610: real time    0.1613
    MIXING:  cpu time    0.0030: real time    0.0033
    --------------------------------------------
      LOOP:  cpu time    2.0907: real time    2.0919

 eigenvalue-minimisations  :   900
 total energy-change (2. order) :-0.2268535E-02  (-0.2267034E-02)
 number of electron      45.0000010 magnetization 
 augmentation part       26.7809560 magnetization 

 Broyden mixing:
  rms(total) = 0.14329E+01    rms(broyden)= 0.14329E+01
  rms(prec ) = 0.14830E+01
  weight for this iteration     100.00

 Free energy of the ion-electron system (eV)
  ---------------------------------------------------
  alpha Z        PSCENC =       120.87645803
  Ewald energy   TEWEN  =     37789.06812500
  -Hartree energ DENC   =    -42909.95868720
  -exchange      EXHF   =         0.00000000
  -V(xc)+E(xc)   XCENC  =       177.45078026
  PAW double counting   =      4328.99049516    -4905.09836044
  entropy T*S    EENTRO =         0.00000000
  eigenvalues    EBANDS =      -198.91992798
  atomic energy  EATOM  =      5576.39375050
  Solvation  Ediel_sol  =         0.00000000
  ---------------------------------------------------
  free energy    TOTEN  =       -21.19736668 eV

  energy without entropy =      -21.19736668  energy(sigma->0) =      -21.19736668


--------------------------------------------------------------------------------------------------------




--------------------------------------- Iteration      1(   6)  ---------------------------------------


    POTLOK:  cpu time    0.0940: real time    0.0958
    SETDIJ:  cpu time    0.0070: real time    0.0067
    EDDIAG:  cpu time    0.3299: real time    0.3308
  RMM-DIIS:  cpu time    1.1618: real time    1.1622
    ORTHCH:  cpu time    0.0180: real time    0.0182
 BZINTS: Fermi energy: -3.927573; 45.000000 electrons
         Band energy:-336.940939;  BLOECHL correction: -0.200202
       DOS:  cpu time    0.0020: real time    0.0021
    CHARGE:  cpu time    0.1530: real time    0.1532
    MIXING:  cpu time    0.0040: real time    0.0034
    --------------------------------------------
      LOOP:  cpu time    1.7697: real time    1.7725

 eigenvalue-minimisations  :   790
 total energy-change (2. order) : 0.1894931E+01  (-0.4227742E+01)
 number of electron      45.0000011 magnetization 
 augmentation part       30.0904118 magnetization 

 Broyden mixing:
  rms(total) = 0.75443E+00    rms(broyden)= 0.75437E+00
  rms(prec ) = 0.78155E+00
  weight for this iteration     100.00

 eigenvalues of (default mixing * dielectric matrix)
  average eigenvalue GAMMA=   0.6601
  0.6601

 Free energy of the ion-electron system (eV)
  ---------------------------------------------------
  alpha Z        PSCENC =       120.87645803
  Ewald energy   TEWEN  =     37789.06812500
  -Hartree energ DENC   =    -42798.61081080
  -exchange      EXHF   =         0.00000000
  -V(xc)+E(xc)   XCENC  =       172.42881967
  PAW double counting   =      4218.53760272    -4761.05544228
  entropy T*S    EENTRO =         0.00000000
  eigenvalues    EBANDS =      -336.94093893
  atomic energy  EATOM  =      5576.39375050
  Solvation  Ediel_sol  =         0.00000000
  ---------------------------------------------------
  free energy    TOTEN  =       -19.30243609 eV

  energy without entropy =      -19.30243609  energy(sigma->0) =      -19.30243609


--------------------------------------------------------------------------------------------------------




--------------------------------------- Iteration      1(   7)  ---------------------------------------


    POTLOK:  cpu time    0.0920: real time    0.0949
    SETDIJ:  cpu time    0.0070: real time    0.0067
    EDDIAG:  cpu time    0.3290: real time    0.3299
  RMM-DIIS:  cpu time    1.1488: real time    1.1481
    ORTHCH:  cpu time    0.0180: real time    0.0181
 BZINTS: Fermi energy: -2.914993; 45.000000 electrons
         Band energy:-267.709286;  BLOECHL correction: -0.190338
       DOS:  cpu time    0.0020: real time    0.0021
    CHARGE:  cpu time    0.1600: real time    0.1597
    MIXING:  cpu time    0.0040: real time    0.0033
    --------------------------------------------
      LOOP:  cpu time    1.7607: real time    1.7628

 eigenvalue-minimisations  :   786
 total energy-change (2. order) : 0.1667526E+01  (-0.7625921E+00)
 number of electron      45.0000011 magnetization 
 augmentation part       28.7040117 magnetization 

 Broyden mixing:
  rms(total) = 0.22082E+00    rms(broyden)= 0.22080E+00
  rms(prec ) = 0.28611E+00
  weight for this iteration     100.00

 eigenvalues of (default mixing * dielectric matrix)
  average eigenvalue GAMMA=   0.6709
  0.8283  0.5134

 Free energy of the ion-electron system (eV)
  ---------------------------------------------------
  alpha Z        PSCENC =       120.87645803
  Ewald energy   TEWEN  =     37789.06812500
  -Hartree energ DENC   =    -42842.45193093
  -exchange      EXHF   =         0.00000000
  -V(xc)+E(xc)   XCENC  =       174.10414351
  PAW double counting   =      4311.34881841    -4879.26498882
  entropy T*S    EENTRO =         0.00000000
  eigenvalues    EBANDS =      -267.70928561
  atomic energy  EATOM  =      5576.39375050
  Solvation  Ediel_sol  =         0.00000000
  ---------------------------------------------------
  free energy    TOTEN  =       -17.63490991 eV

  energy without entropy =      -17.63490991  energy(sigma->0) =      -17.63490991


--------------------------------------------------------------------------------------------------------




--------------------------------------- Iteration      1(   8)  ---------------------------------------


    POTLOK:  cpu time    0.0910: real time    0.0942
    SETDIJ:  cpu time    0.0070: real time    0.0067
    EDDIAG:  cpu time    0.3300: real time    0.3295
  RMM-DIIS:  cpu time    1.1488: real time    1.1489
    ORTHCH:  cpu time    0.0180: real time    0.0182
 BZINTS: Fermi energy: -2.829242; 45.000548 electrons
         Band energy:-263.363263;  BLOECHL correction: -0.141406
       DOS:  cpu time    0.0030: real time    0.0030
    CHARGE:  cpu time    0.1560: real time    0.1566
    MIXING:  cpu time    0.0040: real time    0.0034
    --------------------------------------------
      LOOP:  cpu time    1.7577: real time    1.7604

 eigenvalue-minimisations  :   789
 total energy-change (2. order) : 0.6919654E-01  (-0.1900421E-01)
 number of electron      45.0005492 magnetization 
 augmentation part       28.7667648 magnetization 

 Broyden mixing:
  rms(total) = 0.21140E+00    rms(broyden)= 0.21139E+00
  rms(prec ) = 0.26918E+00
  weight for this iteration     100.00

 eigenvalues of (default mixing * dielectric matrix)
  average eigenvalue GAMMA=   0.8048
  1.6127  0.6054  0.1965

 Free energy of the ion-electron system (eV)
  ---------------------------------------------------
  alpha Z        PSCENC =       120.87645803
  Ewald energy   TEWEN  =     37789.06812500
  -Hartree energ DENC   =    -42844.11514233
  -exchange      EXHF   =         0.00000000
  -V(xc)+E(xc)   XCENC  =       173.98682812
  PAW double counting   =      4325.12538567    -4895.53785574
  entropy T*S    EENTRO =         0.00000000
  eigenvalues    EBANDS =      -263.36326263
  atomic energy  EATOM  =      5576.39375050
  Solvation  Ediel_sol  =         0.00000000
  ---------------------------------------------------
  free energy    TOTEN  =       -17.56571338 eV

  energy without entropy =      -17.56571338  energy(sigma->0) =      -17.56571338


--------------------------------------------------------------------------------------------------------




--------------------------------------- Iteration      1(   9)  ---------------------------------------


    POTLOK:  cpu time    0.0910: real time    0.0938
    SETDIJ:  cpu time    0.0070: real time    0.0067
    EDDIAG:  cpu time    0.3289: real time    0.3298
  RMM-DIIS:  cpu time    1.1548: real time    1.1540
    ORTHCH:  cpu time    0.0180: real time    0.0182
 BZINTS: Fermi energy: -2.671012; 45.000000 electrons
         Band energy:-256.323443;  BLOECHL correction: -0.191891
       DOS:  cpu time    0.0020: real time    0.0021
    CHARGE:  cpu time    0.1560: real time    0.1563
    MIXING:  cpu time    0.0040: real time    0.0041
    --------------------------------------------
      LOOP:  cpu time    1.7617: real time    1.7649

 eigenvalue-minimisations  :   787
 total energy-change (2. order) : 0.7871847E-01  (-0.8509341E-02)
 number of electron      45.0000011 magnetization 
 augmentation part       28.7548266 magnetization 

 Broyden mixing:
  rms(total) = 0.70778E-01    rms(broyden)= 0.70772E-01
  rms(prec ) = 0.74239E-01
  weight for this iteration     100.00

 eigenvalues of (default mixing * dielectric matrix)
  average eigenvalue GAMMA=   0.8217
  1.8831  0.5930  0.5930  0.2178

 Free energy of the ion-electron system (eV)
  ---------------------------------------------------
  alpha Z        PSCENC =       120.87645803
  Ewald energy   TEWEN  =     37789.06812500
  -Hartree energ DENC   =    -42845.30650846
  -exchange      EXHF   =         0.00000000
  -V(xc)+E(xc)   XCENC  =       173.72662191
  PAW double counting   =      4357.52985282    -4933.45185120
  entropy T*S    EENTRO =         0.00000000
  eigenvalues    EBANDS =      -256.32344350
  atomic energy  EATOM  =      5576.39375050
  Solvation  Ediel_sol  =         0.00000000
  ---------------------------------------------------
  free energy    TOTEN  =       -17.48699491 eV

  energy without entropy =      -17.48699491  energy(sigma->0) =      -17.48699491


--------------------------------------------------------------------------------------------------------




--------------------------------------- Iteration      1(  10)  ---------------------------------------


    POTLOK:  cpu time    0.0900: real time    0.0923
    SETDIJ:  cpu time    0.0070: real time    0.0067
    EDDIAG:  cpu time    0.3290: real time    0.3299
  RMM-DIIS:  cpu time    1.1608: real time    1.1596
    ORTHCH:  cpu time    0.0170: real time    0.0182
 BZINTS: Fermi energy: -2.622153; 45.000000 electrons
         Band energy:-254.620553;  BLOECHL correction: -0.192042
       DOS:  cpu time    0.0020: real time    0.0022
    CHARGE:  cpu time    0.1570: real time    0.1561
    MIXING:  cpu time    0.0040: real time    0.0035
    --------------------------------------------
      LOOP:  cpu time    1.7667: real time    1.7685

 eigenvalue-minimisations  :   794
 total energy-change (2. order) : 0.9912255E-02  (-0.2430904E-02)
 number of electron      45.0000011 magnetization 
 augmentation part       28.7827421 magnetization 

 Broyden mixing:
  rms(total) = 0.42122E-01    rms(broyden)= 0.42120E-01
  rms(prec ) = 0.46914E-01
  weight for this iteration     100.00

 eigenvalues of (default mixing * dielectric matrix)
  average eigenvalue GAMMA=   0.8988
  2.1599  1.0614  0.6376  0.2147  0.4205

 Free energy of the ion-electron system (eV)
  ---------------------------------------------------
  alpha Z        PSCENC =       120.87645803
  Ewald energy   TEWEN  =     37789.06812500
  -Hartree energ DENC   =    -42845.18101243
  -exchange      EXHF   =         0.00000000
  -V(xc)+E(xc)   XCENC  =       173.59087159
  PAW double counting   =      4370.04838715    -4947.65310998
  entropy T*S    EENTRO =         0.00000000
  eigenvalues    EBANDS =      -254.62055251
  atomic energy  EATOM  =      5576.39375050
  Solvation  Ediel_sol  =         0.00000000
  ---------------------------------------------------
  free energy    TOTEN  =       -17.47708265 eV

  energy without entropy =      -17.47708265  energy(sigma->0) =      -17.47708265


--------------------------------------------------------------------------------------------------------




--------------------------------------- Iteration      1(  11)  ---------------------------------------


    POTLOK:  cpu time    0.0900: real time    0.0917
    SETDIJ:  cpu time    0.0070: real time    0.0067
    EDDIAG:  cpu time    0.3290: real time    0.3294
  RMM-DIIS:  cpu time    1.1558: real time    1.1555
    ORTHCH:  cpu time    0.0170: real time    0.0181
 BZINTS: Fermi energy: -2.566181; 45.000000 electrons
         Band energy:-252.267817;  BLOECHL correction: -0.194895
       DOS:  cpu time    0.0030: real time    0.0021
    CHARGE:  cpu time    0.1500: real time    0.1506
    MIXING:  cpu time    0.0050: real time    0.0036
    --------------------------------------------
      LOOP:  cpu time    1.7567: real time    1.7576

 eigenvalue-minimisations  :   790
 total energy-change (2. order) : 0.3304382E-02  (-0.6251613E-03)
 number of electron      45.0000011 magnetization 
 augmentation part       28.8003437 magnetization 

 Broyden mixing:
  rms(total) = 0.16995E-01    rms(broyden)= 0.16994E-01
  rms(prec ) = 0.20513E-01
  weight for this iteration     100.00

 eigenvalues of (default mixing * dielectric matrix)
  average eigenvalue GAMMA=   0.9634
  2.1533  1.4417  0.9545  0.6300  0.2131  0.3875

 Free energy of the ion-electron system (eV)
  ---------------------------------------------------
  alpha Z        PSCENC =       120.87645803
  Ewald energy   TEWEN  =     37789.06812500
  -Hartree energ DENC   =    -42846.69748018
  -exchange      EXHF   =         0.00000000
  -V(xc)+E(xc)   XCENC  =       173.51266805
  PAW double counting   =      4376.97441439    -4955.33389688
  entropy T*S    EENTRO =         0.00000000
  eigenvalues    EBANDS =      -252.26781719
  atomic energy  EATOM  =      5576.39375050
  Solvation  Ediel_sol  =         0.00000000
  ---------------------------------------------------
  free energy    TOTEN  =       -17.47377827 eV

  energy without entropy =      -17.47377827  energy(sigma->0) =      -17.47377827


--------------------------------------------------------------------------------------------------------




--------------------------------------- Iteration      1(  12)  ---------------------------------------


    POTLOK:  cpu time    0.0890: real time    0.0917
    SETDIJ:  cpu time    0.0080: real time    0.0067
    EDDIAG:  cpu time    0.3289: real time    0.3297
  RMM-DIIS:  cpu time    1.1628: real time    1.1621
    ORTHCH:  cpu time    0.0170: real time    0.0181
 BZINTS: Fermi energy: -2.515297; 45.000000 electrons
         Band energy:-250.269904;  BLOECHL correction: -0.194538
       DOS:  cpu time    0.0020: real time    0.0021
    CHARGE:  cpu time    0.1510: real time    0.1507
    MIXING:  cpu time    0.0040: real time    0.0036
    --------------------------------------------
      LOOP:  cpu time    1.7627: real time    1.7646

 eigenvalue-minimisations  :   788
 total energy-change (2. order) : 0.2000653E-02  (-0.1605908E-03)
 number of electron      45.0000011 magnetization 
 augmentation part       28.8146060 magnetization 

 Broyden mixing:
  rms(total) = 0.85186E-02    rms(broyden)= 0.85182E-02
  rms(prec ) = 0.10402E-01
  weight for this iteration     100.00

 eigenvalues of (default mixing * dielectric matrix)
  average eigenvalue GAMMA=   0.9781
  2.3124  1.9669  0.9085  0.6362  0.2129  0.4611  0.3491

 Free energy of the ion-electron system (eV)
  ---------------------------------------------------
  alpha Z        PSCENC =       120.87645803
  Ewald energy   TEWEN  =     37789.06812500
  -Hartree energ DENC   =    -42848.29366885
  -exchange      EXHF   =         0.00000000
  -V(xc)+E(xc)   XCENC  =       173.47088486
  PAW double counting   =      4381.70677227    -4960.42419524
  entropy T*S    EENTRO =         0.00000000
  eigenvalues    EBANDS =      -250.26990419
  atomic energy  EATOM  =      5576.39375050
  Solvation  Ediel_sol  =         0.00000000
  ---------------------------------------------------
  free energy    TOTEN  =       -17.47177762 eV

  energy without entropy =      -17.47177762  energy(sigma->0) =      -17.47177762


--------------------------------------------------------------------------------------------------------




--------------------------------------- Iteration      1(  13)  ---------------------------------------


    POTLOK:  cpu time    0.0900: real time    0.0920
    SETDIJ:  cpu time    0.0070: real time    0.0067
    EDDIAG:  cpu time    0.3289: real time    0.3296
  RMM-DIIS:  cpu time    1.1548: real time    1.1539
    ORTHCH:  cpu time    0.0180: real time    0.0181
 BZINTS: Fermi energy: -2.475569; 45.000000 electrons
         Band energy:-248.494039;  BLOECHL correction: -0.194812
       DOS:  cpu time    0.0020: real time    0.0021
    CHARGE:  cpu time    0.1510: real time    0.1509
    MIXING:  cpu time    0.0040: real time    0.0038
    --------------------------------------------
      LOOP:  cpu time    1.7557: real time    1.7571

 eigenvalue-minimisations  :   792
 total energy-change (2. order) : 0.1882050E-03  (-0.6705431E-04)
 number of electron      45.0000011 magnetization 
 augmentation part       28.8160287 magnetization 

 Broyden mixing:
  rms(total) = 0.48550E-02    rms(broyden)= 0.48548E-02
  rms(prec ) = 0.61783E-02
  weight for this iteration     100.00

 eigenvalues of (default mixing * dielectric matrix)
  average eigenvalue GAMMA=   1.0516
  2.3024  2.3024  1.3892  0.7984  0.6376  0.2129  0.4103  0.3597

 Free energy of the ion-electron system (eV)
  ---------------------------------------------------
  alpha Z        PSCENC =       120.87645803
  Ewald energy   TEWEN  =     37789.06812500
  -Hartree energ DENC   =    -42849.93833251
  -exchange      EXHF   =         0.00000000
  -V(xc)+E(xc)   XCENC  =       173.46320447
  PAW double counting   =      4383.53111636    -4962.37187208
  entropy T*S    EENTRO =         0.00000000
  eigenvalues    EBANDS =      -248.49403918
  atomic energy  EATOM  =      5576.39375050
  Solvation  Ediel_sol  =         0.00000000
  ---------------------------------------------------
  free energy    TOTEN  =       -17.47158941 eV

  energy without entropy =      -17.47158941  energy(sigma->0) =      -17.47158941


--------------------------------------------------------------------------------------------------------




--------------------------------------- Iteration      1(  14)  ---------------------------------------


    POTLOK:  cpu time    0.0890: real time    0.0917
    SETDIJ:  cpu time    0.0070: real time    0.0067
    EDDIAG:  cpu time    0.3289: real time    0.3296
  RMM-DIIS:  cpu time    1.1528: real time    1.1519
    ORTHCH:  cpu time    0.0170: real time    0.0181
 BZINTS: Fermi energy: -2.426312; 45.000000 electrons
         Band energy:-246.177255;  BLOECHL correction: -0.194996
       DOS:  cpu time    0.0030: real time    0.0021
    CHARGE:  cpu time    0.1500: real time    0.1506
    MIXING:  cpu time    0.0050: real time    0.0038
    --------------------------------------------
      LOOP:  cpu time    1.7527: real time    1.7545

 eigenvalue-minimisations  :   784
 total energy-change (2. order) : 0.6224863E-05  (-0.2718689E-04)
 number of electron      45.0000011 magnetization 
 augmentation part       28.8108135 magnetization 

 Broyden mixing:
  rms(total) = 0.27166E-02    rms(broyden)= 0.27166E-02
  rms(prec ) = 0.37000E-02
  weight for this iteration     100.00

 eigenvalues of (default mixing * dielectric matrix)
  average eigenvalue GAMMA=   1.0803
  2.5326  2.5326  1.5211  0.8554  0.6909  0.6077  0.2129  0.4008  0.3685

 Free energy of the ion-electron system (eV)
  ---------------------------------------------------
  alpha Z        PSCENC =       120.87645803
  Ewald energy   TEWEN  =     37789.06812500
  -Hartree energ DENC   =    -42852.21667042
  -exchange      EXHF   =         0.00000000
  -V(xc)+E(xc)   XCENC  =       173.47367911
  PAW double counting   =      4384.31811839    -4963.20778835
  entropy T*S    EENTRO =         0.00000000
  eigenvalues    EBANDS =      -246.17725545
  atomic energy  EATOM  =      5576.39375050
  Solvation  Ediel_sol  =         0.00000000
  ---------------------------------------------------
  free energy    TOTEN  =       -17.47158319 eV

  energy without entropy =      -17.47158319  energy(sigma->0) =      -17.47158319


--------------------------------------------------------------------------------------------------------




--------------------------------------- Iteration      1(  15)  ---------------------------------------


    POTLOK:  cpu time    0.0890: real time    0.0909
    SETDIJ:  cpu time    0.0070: real time    0.0067
    EDDIAG:  cpu time    0.3300: real time    0.3302
  RMM-DIIS:  cpu time    1.1558: real time    1.1559
    ORTHCH:  cpu time    0.0180: real time    0.0181
 BZINTS: Fermi energy: -2.384502; 45.000000 electrons
         Band energy:-244.323036;  BLOECHL correction: -0.195140
       DOS:  cpu time    0.0020: real time    0.0021
    CHARGE:  cpu time    0.1500: real time    0.1505
    MIXING:  cpu time    0.0050: real time    0.0040
    --------------------------------------------
      LOOP:  cpu time    1.7567: real time    1.7583

 eigenvalue-minimisations  :   786
 total energy-change (2. order) : 0.3287086E-04  (-0.1069644E-04)
 number of electron      45.0000011 magnetization 
 augmentation part       28.8133636 magnetization 

 Broyden mixing:
  rms(total) = 0.15572E-02    rms(broyden)= 0.15571E-02
  rms(prec ) = 0.23079E-02
  weight for this iteration     100.00

 eigenvalues of (default mixing * dielectric matrix)
  average eigenvalue GAMMA=   1.3151
  3.2048  3.2048  2.0603  1.2960  1.0270  0.7441  0.6276  0.2129  0.4070  0.3665

 Free energy of the ion-electron system (eV)
  ---------------------------------------------------
  alpha Z        PSCENC =       120.87645803
  Ewald energy   TEWEN  =     37789.06812500
  -Hartree energ DENC   =    -42854.11384419
  -exchange      EXHF   =         0.00000000
  -V(xc)+E(xc)   XCENC  =       173.47377338
  PAW double counting   =      4384.32637762    -4963.17315483
  entropy T*S    EENTRO =         0.00000000
  eigenvalues    EBANDS =      -244.32303582
  atomic energy  EATOM  =      5576.39375050
  Solvation  Ediel_sol  =         0.00000000
  ---------------------------------------------------
  free energy    TOTEN  =       -17.47155032 eV

  energy without entropy =      -17.47155032  energy(sigma->0) =      -17.47155032


--------------------------------------------------------------------------------------------------------




--------------------------------------- Iteration      1(  16)  ---------------------------------------


    POTLOK:  cpu time    0.1020: real time    0.1033
    SETDIJ:  cpu time    0.0060: real time    0.0066
    EDDIAG:  cpu time    0.3749: real time    0.3751
  RMM-DIIS:  cpu time    1.1288: real time    1.1278
    ORTHCH:  cpu time    0.0190: real time    0.0197
 BZINTS: Fermi energy: -2.340084; 45.000000 electrons
         Band energy:-242.281297;  BLOECHL correction: -0.195230
       DOS:  cpu time    0.0020: real time    0.0020
    CHARGE:  cpu time    0.1540: real time    0.1540
    MIXING:  cpu time    0.0050: real time    0.0041
    --------------------------------------------
      LOOP:  cpu time    1.7917: real time    1.7927

 eigenvalue-minimisations  :   777
 total energy-change (2. order) :-0.8197109E-04  (-0.7795491E-05)
 number of electron      45.0000011 magnetization 
 augmentation part       28.8127165 magnetization 

 Broyden mixing:
  rms(total) = 0.95144E-03    rms(broyden)= 0.95135E-03
  rms(prec ) = 0.14723E-02
  weight for this iteration     100.00

 eigenvalues of (default mixing * dielectric matrix)
  average eigenvalue GAMMA=   1.3122
  3.7551  2.9484  1.9955  1.2544  1.2544  0.8884  0.2129  0.7256  0.6260  0.3665
  0.4068

 Free energy of the ion-electron system (eV)
  ---------------------------------------------------
  alpha Z        PSCENC =       120.87645803
  Ewald energy   TEWEN  =     37789.06812500
  -Hartree energ DENC   =    -42856.21050099
  -exchange      EXHF   =         0.00000000
  -V(xc)+E(xc)   XCENC  =       173.48090193
  PAW double counting   =      4383.45945496    -4962.25852435
  entropy T*S    EENTRO =         0.00000000
  eigenvalues    EBANDS =      -242.28129737
  atomic energy  EATOM  =      5576.39375050
  Solvation  Ediel_sol  =         0.00000000
  ---------------------------------------------------
  free energy    TOTEN  =       -17.47163229 eV

  energy without entropy =      -17.47163229  energy(sigma->0) =      -17.47163229


--------------------------------------------------------------------------------------------------------




--------------------------------------- Iteration      1(  17)  ---------------------------------------


    POTLOK:  cpu time    0.0930: real time    0.0947
    SETDIJ:  cpu time    0.0060: real time    0.0065
    EDDIAG:  cpu time    0.3280: real time    0.3282
  RMM-DIIS:  cpu time    0.9769: real time    0.9769
    ORTHCH:  cpu time    0.0200: real time    0.0195
 BZINTS: Fermi energy: -2.331192; 45.000000 electrons
         Band energy:-241.889681;  BLOECHL correction: -0.195233
       DOS:  cpu time    0.0020: real time    0.0022
    CHARGE:  cpu time    0.1530: real time    0.1536
    MIXING:  cpu time    0.0050: real time    0.0042
    --------------------------------------------
      LOOP:  cpu time    1.5838: real time    1.5857

 eigenvalue-minimisations  :   631
 total energy-change (2. order) :-0.6251441E-04  (-0.6488283E-06)
 number of electron      45.0000011 magnetization 
 augmentation part       28.8129074 magnetization 

 Broyden mixing:
  rms(total) = 0.56727E-03    rms(broyden)= 0.56724E-03
  rms(prec ) = 0.79664E-03
  weight for this iteration     100.00

 eigenvalues of (default mixing * dielectric matrix)
  average eigenvalue GAMMA=   1.5282
  5.4227  3.0836  2.1546  2.1546  1.3020  0.9391  0.9391  0.7290  0.6270  0.2129
  0.4067  0.3665

 Free energy of the ion-electron system (eV)
  ---------------------------------------------------
  alpha Z        PSCENC =       120.87645803
  Ewald energy   TEWEN  =     37789.06812500
  -Hartree energ DENC   =    -42856.59509206
  -exchange      EXHF   =         0.00000000
  -V(xc)+E(xc)   XCENC  =       173.48065815
  PAW double counting   =      4383.49756271    -4962.30347569
  entropy T*S    EENTRO =         0.00000000
  eigenvalues    EBANDS =      -241.88968144
  atomic energy  EATOM  =      5576.39375050
  Solvation  Ediel_sol  =         0.00000000
  ---------------------------------------------------
  free energy    TOTEN  =       -17.47169480 eV

  energy without entropy =      -17.47169480  energy(sigma->0) =      -17.47169480


--------------------------------------------------------------------------------------------------------




--------------------------------------- Iteration      1(  18)  ---------------------------------------


    POTLOK:  cpu time    0.0950: real time    0.0964
    SETDIJ:  cpu time    0.0070: real time    0.0065
    EDDIAG:  cpu time    0.3270: real time    0.3282
  RMM-DIIS:  cpu time    0.9988: real time    0.9981
    ORTHCH:  cpu time    0.0190: real time    0.0194
 BZINTS: Fermi energy: -2.317857; 45.000000 electrons
         Band energy:-241.279941;  BLOECHL correction: -0.195233
       DOS:  cpu time    0.0020: real time    0.0021
    CHARGE:  cpu time    0.1540: real time    0.1533
    MIXING:  cpu time    0.0040: real time    0.0043
    --------------------------------------------
      LOOP:  cpu time    1.6068: real time    1.6083

 eigenvalue-minimisations  :   650
 total energy-change (2. order) :-0.1139641E-03  (-0.1138704E-05)
 number of electron      45.0000011 magnetization 
 augmentation part       28.8123424 magnetization 

 Broyden mixing:
  rms(total) = 0.48379E-03    rms(broyden)= 0.48378E-03
  rms(prec ) = 0.63082E-03
  weight for this iteration     100.00

 eigenvalues of (default mixing * dielectric matrix)
  average eigenvalue GAMMA=   1.6050
  5.5238  3.7245  2.5237  2.0571  1.4852  1.2931  0.9580  0.9580  0.2129  0.7281
  0.6269  0.4067  0.3665

 Free energy of the ion-electron system (eV)
  ---------------------------------------------------
  alpha Z        PSCENC =       120.87645803
  Ewald energy   TEWEN  =     37789.06812500
  -Hartree energ DENC   =    -42857.19513645
  -exchange      EXHF   =         0.00000000
  -V(xc)+E(xc)   XCENC  =       173.48138594
  PAW double counting   =      4383.45443068    -4962.27088179
  entropy T*S    EENTRO =         0.00000000
  eigenvalues    EBANDS =      -241.27994067
  atomic energy  EATOM  =      5576.39375050
  Solvation  Ediel_sol  =         0.00000000
  ---------------------------------------------------
  free energy    TOTEN  =       -17.47180877 eV

  energy without entropy =      -17.47180877  energy(sigma->0) =      -17.47180877


--------------------------------------------------------------------------------------------------------




--------------------------------------- Iteration      1(  19)  ---------------------------------------


    POTLOK:  cpu time    0.0960: real time    0.0972
    SETDIJ:  cpu time    0.0070: real time    0.0065
    EDDIAG:  cpu time    0.3280: real time    0.3287
  RMM-DIIS:  cpu time    0.8989: real time    0.8984
    ORTHCH:  cpu time    0.0190: real time    0.0194
 BZINTS: Fermi energy: -2.313571; 45.000000 electrons
         Band energy:-241.096929;  BLOECHL correction: -0.195244
       DOS:  cpu time    0.0020: real time    0.0021
    CHARGE:  cpu time    0.1530: real time    0.1530
    MIXING:  cpu time    0.0050: real time    0.0044
    --------------------------------------------
      LOOP:  cpu time    1.5088: real time    1.5097

 eigenvalue-minimisations  :   564
 total energy-change (2. order) :-0.3020610E-04  (-0.5666697E-06)
 number of electron      45.0000011 magnetization 
 augmentation part       28.8130917 magnetization 

 Broyden mixing:
  rms(total) = 0.26700E-03    rms(broyden)= 0.26699E-03
  rms(prec ) = 0.32159E-03
  weight for this iteration     100.00

 eigenvalues of (default mixing * dielectric matrix)
  average eigenvalue GAMMA=   1.7212
  6.4391  4.3732  2.4352  2.4352  1.8315  1.2215  1.0454  0.9872  0.9872  0.2129
  0.7278  0.6269  0.3665  0.4067

 Free energy of the ion-electron system (eV)
  ---------------------------------------------------
  alpha Z        PSCENC =       120.87645803
  Ewald energy   TEWEN  =     37789.06812500
  -Hartree energ DENC   =    -42857.37289690
  -exchange      EXHF   =         0.00000000
  -V(xc)+E(xc)   XCENC  =       173.47963537
  PAW double counting   =      4383.53544743    -4962.35542970
  entropy T*S    EENTRO =         0.00000000
  eigenvalues    EBANDS =      -241.09692870
  atomic energy  EATOM  =      5576.39375050
  Solvation  Ediel_sol  =         0.00000000
  ---------------------------------------------------
  free energy    TOTEN  =       -17.47183897 eV

  energy without entropy =      -17.47183897  energy(sigma->0) =      -17.47183897


--------------------------------------------------------------------------------------------------------




--------------------------------------- Iteration      1(  20)  ---------------------------------------


    POTLOK:  cpu time    0.0940: real time    0.0965
    SETDIJ:  cpu time    0.0070: real time    0.0065
    EDDIAG:  cpu time    0.3280: real time    0.3286
  RMM-DIIS:  cpu time    0.8019: real time    0.8010
    ORTHCH:  cpu time    0.0180: real time    0.0194
 BZINTS: Fermi energy: -2.310178; 45.000000 electrons
         Band energy:-240.939727;  BLOECHL correction: -0.195242
       DOS:  cpu time    0.0030: real time    0.0021
    CHARGE:  cpu time    0.1530: real time    0.1532
    MIXING:  cpu time    0.0050: real time    0.0046
    --------------------------------------------
      LOOP:  cpu time    1.4098: real time    1.4117

 eigenvalue-minimisations  :   486
 total energy-change (2. order) :-0.3995825E-04  (-0.3233900E-06)
 number of electron      45.0000011 magnetization 
 augmentation part       28.8127527 magnetization 

 Broyden mixing:
  rms(total) = 0.95983E-04    rms(broyden)= 0.95978E-04
  rms(prec ) = 0.12496E-03
  weight for this iteration     100.00

 eigenvalues of (default mixing * dielectric matrix)
  average eigenvalue GAMMA=   1.7829
  6.7673  4.7948  2.6600  2.6600  2.0060  1.3519  1.2367  0.9895  0.9895  0.9478
  0.2129  0.7274  0.6268  0.3665  0.4067

 Free energy of the ion-electron system (eV)
  ---------------------------------------------------
  alpha Z        PSCENC =       120.87645803
  Ewald energy   TEWEN  =     37789.06812500
  -Hartree energ DENC   =    -42857.53214540
  -exchange      EXHF   =         0.00000000
  -V(xc)+E(xc)   XCENC  =       173.48028652
  PAW double counting   =      4383.55610104    -4962.37472791
  entropy T*S    EENTRO =         0.00000000
  eigenvalues    EBANDS =      -240.93972670
  atomic energy  EATOM  =      5576.39375050
  Solvation  Ediel_sol  =         0.00000000
  ---------------------------------------------------
  free energy    TOTEN  =       -17.47187893 eV

  energy without entropy =      -17.47187893  energy(sigma->0) =      -17.47187893


--------------------------------------------------------------------------------------------------------




--------------------------------------- Iteration      1(  21)  ---------------------------------------


    POTLOK:  cpu time    0.0940: real time    0.0965
    SETDIJ:  cpu time    0.0070: real time    0.0065
    EDDIAG:  cpu time    0.3299: real time    0.3303
  RMM-DIIS:  cpu time    0.7839: real time    0.7842
    ORTHCH:  cpu time    0.0180: real time    0.0182
 BZINTS: Fermi energy: -2.308981; 45.000000 electrons
         Band energy:-240.885916;  BLOECHL correction: -0.195242
       DOS:  cpu time    0.0020: real time    0.0021
    CHARGE:  cpu time    0.1530: real time    0.1533
    MIXING:  cpu time    0.0060: real time    0.0047
    --------------------------------------------
      LOOP:  cpu time    1.3938: real time    1.3958

 eigenvalue-minimisations  :   462
 total energy-change (2. order) :-0.2304762E-04  (-0.8478335E-07)
 number of electron      45.0000011 magnetization 
 augmentation part       28.8127732 magnetization 

 Broyden mixing:
  rms(total) = 0.75393E-04    rms(broyden)= 0.75390E-04
  rms(prec ) = 0.93463E-04
  weight for this iteration     100.00

 eigenvalues of (default mixing * dielectric matrix)
  average eigenvalue GAMMA=   1.9361
  7.9123  5.3800  3.2232  2.6473  2.2941  1.9213  0.2129  0.3665  0.4067  1.2794
  0.6268  0.7272  1.0463  1.0463  0.9432  0.9432

 Free energy of the ion-electron system (eV)
  ---------------------------------------------------
  alpha Z        PSCENC =       120.87645803
  Ewald energy   TEWEN  =     37789.06812500
  -Hartree energ DENC   =    -42857.58867403
  -exchange      EXHF   =         0.00000000
  -V(xc)+E(xc)   XCENC  =       173.48043456
  PAW double counting   =      4383.54592871    -4962.36200865
  entropy T*S    EENTRO =         0.00000000
  eigenvalues    EBANDS =      -240.88591608
  atomic energy  EATOM  =      5576.39375050
  Solvation  Ediel_sol  =         0.00000000
  ---------------------------------------------------
  free energy    TOTEN  =       -17.47190198 eV

  energy without entropy =      -17.47190198  energy(sigma->0) =      -17.47190198


--------------------------------------------------------------------------------------------------------




--------------------------------------- Iteration      1(  22)  ---------------------------------------


    POTLOK:  cpu time    0.0940: real time    0.0955
    SETDIJ:  cpu time    0.0060: real time    0.0065
    EDDIAG:  cpu time    0.3289: real time    0.3296
  RMM-DIIS:  cpu time    0.7809: real time    0.7803
    ORTHCH:  cpu time    0.0180: real time    0.0182
 BZINTS: Fermi energy: -2.308482; 45.000000 electrons
         Band energy:-240.862884;  BLOECHL correction: -0.195242
       DOS:  cpu time    0.0020: real time    0.0021
    CHARGE:  cpu time    0.1540: real time    0.1533
    MIXING:  cpu time    0.0050: real time    0.0048
    --------------------------------------------
      LOOP:  cpu time    1.3888: real time    1.3902

 eigenvalue-minimisations  :   459
 total energy-change (2. order) :-0.1247068E-04  (-0.7929468E-07)
 number of electron      45.0000011 magnetization 
 augmentation part       28.8127692 magnetization 

 Broyden mixing:
  rms(total) = 0.34016E-04    rms(broyden)= 0.34012E-04
  rms(prec ) = 0.40603E-04
  weight for this iteration     100.00

 eigenvalues of (default mixing * dielectric matrix)
  average eigenvalue GAMMA=   1.9493
  8.1578  5.5887  3.3427  2.6859  2.0238  2.0238  1.6267  1.3230  0.2129  1.0561
  1.0561  0.9567  0.9567  0.7272  0.6268  0.3665  0.4067

 Free energy of the ion-electron system (eV)
  ---------------------------------------------------
  alpha Z        PSCENC =       120.87645803
  Ewald energy   TEWEN  =     37789.06812500
  -Hartree energ DENC   =    -42857.61093175
  -exchange      EXHF   =         0.00000000
  -V(xc)+E(xc)   XCENC  =       173.48040014
  PAW double counting   =      4383.53814180    -4962.35497461
  entropy T*S    EENTRO =         0.00000000
  eigenvalues    EBANDS =      -240.86288355
  atomic energy  EATOM  =      5576.39375050
  Solvation  Ediel_sol  =         0.00000000
  ---------------------------------------------------
  free energy    TOTEN  =       -17.47191445 eV

  energy without entropy =      -17.47191445  energy(sigma->0) =      -17.47191445


--------------------------------------------------------------------------------------------------------




--------------------------------------- Iteration      1(  23)  ---------------------------------------


    POTLOK:  cpu time    0.0930: real time    0.0956
    SETDIJ:  cpu time    0.0070: real time    0.0065
    EDDIAG:  cpu time    0.3289: real time    0.3293
  RMM-DIIS:  cpu time    0.7209: real time    0.7210
    ORTHCH:  cpu time    0.0180: real time    0.0182
 BZINTS: Fermi energy: -2.308363; 45.000000 electrons
         Band energy:-240.858635;  BLOECHL correction: -0.195244
       DOS:  cpu time    0.0020: real time    0.0021
    CHARGE:  cpu time    0.1530: real time    0.1531
    MIXING:  cpu time    0.0060: real time    0.0049
    --------------------------------------------
      LOOP:  cpu time    1.3288: real time    1.3307

 eigenvalue-minimisations  :   364
 total energy-change (2. order) :-0.3473920E-05  (-0.1055981E-07)
 number of electron      45.0000011 magnetization 
 augmentation part       28.8128376 magnetization 

 Broyden mixing:
  rms(total) = 0.35769E-04    rms(broyden)= 0.35768E-04
  rms(prec ) = 0.38476E-04
  weight for this iteration     100.00

 eigenvalues of (default mixing * dielectric matrix)
  average eigenvalue GAMMA=   2.0362
  8.5294  6.2162  3.7300  2.9796  2.5226  2.2748  1.8660  0.2129  0.3665  0.4067
  1.2696  0.6268  0.7272  1.0277  1.0277  0.9826  0.9826  0.9023

 Free energy of the ion-electron system (eV)
  ---------------------------------------------------
  alpha Z        PSCENC =       120.87645803
  Ewald energy   TEWEN  =     37789.06812500
  -Hartree energ DENC   =    -42857.61609488
  -exchange      EXHF   =         0.00000000
  -V(xc)+E(xc)   XCENC  =       173.48029856
  PAW double counting   =      4383.53347793    -4962.34929777
  entropy T*S    EENTRO =         0.00000000
  eigenvalues    EBANDS =      -240.85863530
  atomic energy  EATOM  =      5576.39375050
  Solvation  Ediel_sol  =         0.00000000
  ---------------------------------------------------
  free energy    TOTEN  =       -17.47191792 eV

  energy without entropy =      -17.47191792  energy(sigma->0) =      -17.47191792


--------------------------------------------------------------------------------------------------------




--------------------------------------- Iteration      1(  24)  ---------------------------------------


    POTLOK:  cpu time    0.0930: real time    0.0947
    SETDIJ:  cpu time    0.0070: real time    0.0065
    EDDIAG:  cpu time    0.3280: real time    0.3289
  RMM-DIIS:  cpu time    0.6259: real time    0.6249
    ORTHCH:  cpu time    0.0170: real time    0.0182
 BZINTS: Fermi energy: -2.308322; 45.000000 electrons
         Band energy:-240.856260;  BLOECHL correction: -0.195243
       DOS:  cpu time    0.0020: real time    0.0020
    CHARGE:  cpu time    0.1540: real time    0.1535
    MIXING:  cpu time    0.0060: real time    0.0051
[...]
     27       5.1717      0.00000
     28       5.8676      0.00000

 k-point    12 :       0.5000    0.2000    0.0000
  band No.  band energies     occupation 
      1      -8.5916      2.00000
      2      -6.7980      2.00000
      3      -6.5882      2.00000
      4      -6.3449      2.00000
      5      -6.1646      2.00000
      6      -6.0451      2.00000
      7      -5.9017      2.00000
      8      -5.7275      2.00000
      9      -5.5429      2.00000
     10      -5.4455      2.00000
     11      -5.3268      2.00000
     12      -5.0151      2.00000
     13      -4.9405      2.00000
     14      -4.7892      2.00000
     15      -4.5982      2.00000
     16      -4.4725      2.00000
     17      -4.3181      2.00000
     18      -4.1370      2.00000
     19      -3.9602      2.00000
     20      -3.8184      2.00000
     21      -3.1732      2.10069
     22      -2.3204      1.20352
     23      -1.1952     -0.06871
     24       0.9168      0.00000
     25       2.9382      0.00000
     26       3.2451      0.00000
     27       4.0233      0.00000
     28       5.1809      0.00000

 k-point    13 :      -0.4000    0.2000    0.0000
  band No.  band energies     occupation 
      1      -8.4215      2.00000
      2      -6.5756      2.00000
      3      -6.5101      2.00000
      4      -6.2470      2.00000
      5      -6.1679      2.00000
      6      -6.0652      2.00000
      7      -5.9114      2.00000
      8      -5.7618      2.00000
      9      -5.5151      2.00000
     10      -5.3840      2.00000
     11      -5.2601      2.00000
     12      -5.0594      2.00000
     13      -4.8835      2.00000
     14      -4.6576      2.00000
     15      -4.5071      2.00000
     16      -4.4392      2.00000
     17      -4.2121      2.00000
     18      -4.0358      2.00000
     19      -3.9909      2.00000
     20      -3.8856      2.00000
     21      -2.3544      1.56219
     22      -0.7136     -0.44513
     23      -0.1734      0.00000
     24       0.5843      0.00000
     25       1.9437      0.00000
     26       2.2913      0.00000
     27       3.5808      0.00000
     28       4.6838      0.00000

 k-point    14 :      -0.4000    0.3000    0.0000
  band No.  band energies     occupation 
      1      -8.3297      2.00000
      2      -6.3296      2.00000
      3      -6.2721      2.00000
      4      -6.2039      2.00000
      5      -6.0603      2.00000
      6      -5.9538      2.00000
      7      -5.9062      2.00000
      8      -5.8309      2.00000
      9      -5.6983      2.00000
     10      -5.5298      2.00000
     11      -5.3788      2.00000
     12      -4.9994      2.00000
     13      -4.9501      2.00000
     14      -4.8238      2.00000
     15      -4.6197      2.00000
     16      -4.4565      2.00000
     17      -4.3833      2.00000
     18      -4.0818      2.00000
     19      -3.9974      2.00000
     20      -3.9104      2.00000
     21      -1.8877      0.34567
     22      -0.3684     -0.15330
     23       0.7533      0.00000
     24       1.9903      0.00000
     25       2.3889      0.00000
     26       2.9203      0.00000
     27       3.1397      0.00000
     28       4.0823      0.00000


--------------------------------------------------------------------------------------------------------


 soft charge-density along one line, spin component           1
         0         1         2         3         4         5         6         7         8         9
 total charge-density along one line
 
 pseudopotential strength for first ion, spin component:           1
-10.763  -0.000  -0.000  -0.005  -0.000   1.703   0.000   0.000
 -0.000 -10.726   0.000   0.000  -0.005   0.000   1.685   0.000
 -0.000   0.000 -10.720   0.000  -0.000   0.000   0.000   1.682
 -0.005   0.000   0.000 -10.726  -0.000   0.002  -0.000   0.000
 -0.000  -0.005  -0.000  -0.000 -10.763   0.000   0.002   0.000
  1.703   0.000   0.000   0.002   0.000   0.794  -0.000  -0.000
  0.000   1.685   0.000  -0.000   0.002  -0.000   0.802  -0.000
  0.000   0.000   1.682   0.000   0.000  -0.000  -0.000   0.804
  0.002  -0.000   0.000   1.685   0.000  -0.001   0.000  -0.000
  0.000   0.002   0.000   0.000   1.703  -0.000  -0.001  -0.000
 -0.000   0.000  -0.007   0.000  -0.000  -0.000   0.000   0.002
  0.000  -0.000   0.000  -0.000   0.000  -0.000   0.000  -0.000
 -0.000  -0.010   0.000  -0.000   0.000   0.000   0.006  -0.000
 -0.000  -0.000  -0.010  -0.000  -0.000  -0.000  -0.000   0.006
  0.000  -0.000   0.000  -0.010  -0.000  -0.000  -0.000  -0.000
  0.000   0.005   0.000   0.000  -0.000  -0.000  -0.003  -0.000
  0.000   0.000   0.005   0.000   0.000  -0.000  -0.000  -0.003
 -0.000   0.000   0.000   0.005   0.000   0.000  -0.000  -0.000
 total augmentation occupancy for first ion, spin component:           1
  1.907   0.000  -0.000  -0.003  -0.000  -0.022   0.000   0.000   0.011   0.000   0.000   0.000   0.000  -0.000   0.007   0.000
  0.000   1.915   0.000   0.000  -0.003   0.000  -0.056  -0.000   0.000   0.011   0.000   0.000  -0.001   0.000   0.000  -0.004
 -0.000   0.000   1.919   0.000  -0.000   0.000  -0.000  -0.047  -0.000   0.000   0.014   0.038  -0.000   0.035  -0.000   0.000
 -0.003   0.000   0.000   1.915   0.000   0.011   0.000  -0.000  -0.056  -0.000   0.000  -0.000   0.000   0.000  -0.001  -0.000
 -0.000  -0.003  -0.000   0.000   1.907  -0.000   0.011   0.000  -0.000  -0.022  -0.000  -0.000   0.007  -0.000  -0.000  -0.001
 -0.022   0.000   0.000   0.011  -0.000   0.063  -0.000  -0.000   0.001  -0.000   0.000   0.000   0.000  -0.000   0.005   0.000
  0.000  -0.056  -0.000   0.000   0.011  -0.000   0.043  -0.000   0.000   0.001   0.000   0.000   0.032   0.000   0.000  -0.003
  0.000  -0.000  -0.047  -0.000   0.000  -0.000  -0.000   0.060  -0.000  -0.000  -0.079   0.014  -0.000   0.044  -0.000   0.000
  0.011   0.000  -0.000  -0.056  -0.000   0.001   0.000   0.000   0.043   0.000   0.000   0.000   0.000  -0.000   0.032   0.000
 -0.000   0.011   0.000  -0.000  -0.022  -0.000   0.001  -0.000   0.000   0.063   0.000  -0.000   0.005  -0.000  -0.000  -0.000
  0.000   0.000   0.014   0.000   0.000   0.000   0.000  -0.079  -0.000   0.000   1.233  -0.286  -0.000   0.069   0.000   0.000
  0.000  -0.000   0.038  -0.000  -0.000   0.000   0.000   0.014   0.000  -0.000  -0.286   0.111   0.000  -0.046  -0.000   0.000
  0.000  -0.001  -0.000   0.000   0.007  -0.000   0.032  -0.000   0.000   0.005  -0.000  -0.000   0.168  -0.000   0.000  -0.011
 -0.000   0.000   0.035   0.000  -0.000  -0.000   0.000   0.044  -0.000  -0.000   0.069  -0.046   0.000   0.097   0.000   0.000
  0.007   0.000   0.000  -0.001  -0.000   0.005   0.000   0.000   0.032  -0.000   0.000  -0.000   0.000  -0.000   0.168   0.000
  0.000  -0.004   0.000  -0.000  -0.001   0.000  -0.003   0.000   0.000  -0.000   0.000  -0.000  -0.011   0.000   0.000   0.001
  0.000  -0.000  -0.008   0.000   0.000   0.000   0.000  -0.002   0.000   0.000  -0.013   0.006  -0.000  -0.007   0.000   0.000
 -0.001   0.000   0.000  -0.004   0.000  -0.000   0.000   0.000  -0.003   0.000  -0.000   0.000   0.000   0.000  -0.011   0.000


------------------------ aborting loop because EDIFF is reached ----------------------------------------


    CHARGE:  cpu time    0.1490: real time    0.1490
    FORLOC:  cpu time    0.0100: real time    0.0099
    FORNL :  cpu time    0.6639: real time    0.6633
    STRESS:  cpu time    2.0097: real time    2.0094
    FORCOR:  cpu time    0.0960: real time    0.0964
    FORHAR:  cpu time    0.0240: real time    0.0235
    MIXING:  cpu time    0.0040: real time    0.0039
    OFIELD:  cpu time    0.0000: real time    0.0000

  FORCE on cell =-STRESS in cart. coord.  units (eV):
  Direction    XX          YY          ZZ          XY          YZ          ZX
  --------------------------------------------------------------------------------------
  Alpha Z   120.87646   120.87646   120.87646
  Ewald   40773.02355 40773.02355-43710.05900    -0.00000     0.00000     0.00000
  Hartree 42078.66456 42078.66456-41252.71252     0.00000    -0.00000    -0.00000
  E(xc)    -253.15777  -253.15777  -253.80593     0.00001     0.00000     0.00000
  Local  -83117.16101-83117.16123 84692.41188     0.00019    -0.00000    -0.00000
  n-local  -151.52044  -146.81345  -149.97365     2.70654    -0.54831     0.20934
  augment   225.31511   225.31528   227.13662    -0.00015     0.00000     0.00000
  Kinetic   334.72757   308.83126   326.11122    -9.87702     0.17763    -0.37089
  Fock        0.00000     0.00000     0.00000     0.00000     0.00000     0.00000
  -------------------------------------------------------------------------------------
  Total       0.17334     0.17334    -0.01491     0.00000     0.00000     0.00000
  in kB       1.59738     1.59738    -0.13744     0.00000     0.00000     0.00000
  external pressure =        1.02 kB  Pullay stress =        0.00 kB


 VOLUME and BASIS-vectors are now :
 -----------------------------------------------------------------------------
  energy-cutoff  :      500.00
  volume of cell :      173.87
      direct lattice vectors                 reciprocal lattice vectors
     2.573868684  0.000000000  0.000000000     0.388520209 -0.224312248  0.000000000
     1.286934342  2.229035666  0.000000000     0.000000000  0.448624495  0.000000000
     0.000000000  0.000000000 30.304664940     0.000000000  0.000000000  0.032998220

  length of vectors
     2.573868684  2.573868684 30.304664940     0.448624495  0.448624495  0.032998220


 FORCES acting on ions
    electron-ion (+dipol)            ewald-force                    non-local-force                 convergence-correction
 -----------------------------------------------------------------------------------------------
   -.144E-07 -.833E-08 0.421E+04   0.881E-12 0.379E-12 -.421E+04   0.173E-17 -.347E-17 -.122E+01   -.323E-10 -.182E-10 0.149E-03
   0.115E-05 0.662E-06 0.148E+04   -.249E-11 -.120E-11 -.148E+04   0.173E-17 0.260E-17 -.713E+00   -.101E-10 -.605E-11 -.143E-03
   -.143E-05 -.826E-06 -.125E+04   0.204E-11 0.117E-11 0.125E+04   0.954E-17 0.694E-17 0.372E+00   0.604E-10 -.228E-09 0.134E-04
   -.424E-06 -.245E-06 -.397E+04   -.244E-11 -.142E-11 0.397E+04   -.125E-15 0.000E+00 0.677E+00   0.230E-09 -.134E-09 -.278E-03
   -.495E-07 -.286E-07 -.465E+03   0.187E-11 0.110E-11 0.467E+03   0.243E-16 0.104E-16 -.142E+01   0.545E-10 -.179E-10 -.311E-04
 -----------------------------------------------------------------------------------------------
   -.771E-06 -.445E-06 0.231E+01   -.150E-12 0.336E-13 -.227E-12   -.876E-16 0.165E-16 -.231E+01   0.303E-09 -.404E-09 -.291E-03
 
 
 POSITION                                       TOTAL-FORCE (eV/Angst)
 -----------------------------------------------------------------------------------
      0.00000      0.00000     12.01399        -0.000000     -0.000000      0.044436
      1.28693      0.74301     14.09627        -0.000000     -0.000000     -0.014699
      2.57387      1.48602     16.18015         0.000000      0.000000      0.012026
      0.00000      0.00000     18.38717        -0.000000      0.000000     -0.380122
      2.57387      1.48602     19.13641        -0.000000     -0.000000      0.338358
 -----------------------------------------------------------------------------------
    total drift:                               -0.000001     -0.000000     -0.000742


--------------------------------------------------------------------------------------------------------



  FREE ENERGIE OF THE ION-ELECTRON SYSTEM (eV)
  ---------------------------------------------------
  free  energy   TOTEN  =       -17.45534587 eV

  energy  without entropy=      -17.45534587  energy(sigma->0) =      -17.45534587
 
 d Force = 0.1661662E-01[-0.677E-01, 0.101E+00]  d Energy = 0.9919928E-02 0.670E-02
 d Force =-0.9412277E+02[-0.933E+02,-0.949E+02]  d Ewald  =-0.9423304E+02 0.110E+00


--------------------------------------------------------------------------------------------------------


    POTLOK:  cpu time    0.0970: real time    0.0976


--------------------------------------------------------------------------------------------------------


 Finite differences progress:
  Degree of freedom:   3/  3
  Displacement:        2/  2
  Total:               6/  6
 
 SECOND DERIVATIVES (NOT SYMMETRIZED)
 ------------------------------------
               5X          5Y          5Z 
  5X    -3.574349   -0.000057   -0.000228
  5Y    -0.000000   -3.573739   -0.075848
  5Z    -0.000000   -0.000000   -4.214415
 
 
 Eigenvectors and eigenvalues of the dynamical matrix
 ----------------------------------------------------
 
 
   1 f  =   32.102186 THz   201.703986 2PiTHz 1070.813642 cm-1   132.764019 meV
             X         Y         Z           dx          dy          dz
      0.000000  0.000000 12.013986            0           0           0  
      1.286934  0.743012 14.096268            0           0           0  
      2.573869  1.486024 16.180152            0           0           0  
      0.000000  0.000000 18.387174            0           0           0  
      2.573869  1.486024 19.236415     0.000180    0.058886    0.998265  
 
   2 f  =   29.556241 THz   185.707337 2PiTHz  985.890036 cm-1   122.234830 meV
             X         Y         Z           dx          dy          dz
      0.000000  0.000000 12.013986            0           0           0  
      1.286934  0.743012 14.096268            0           0           0  
      2.573869  1.486024 16.180152            0           0           0  
      0.000000  0.000000 18.387174            0           0           0  
      2.573869  1.486024 19.236415     0.999971    0.007628   -0.000630  
 
   3 f  =   29.544465 THz   185.633349 2PiTHz  985.497248 cm-1   122.186130 meV
             X         Y         Z           dx          dy          dz
      0.000000  0.000000 12.013986            0           0           0  
      1.286934  0.743012 14.096268            0           0           0  
      2.573869  1.486024 16.180152            0           0           0  
      0.000000  0.000000 18.387174            0           0           0  
      2.573869  1.486024 19.236415    -0.007652    0.998236   -0.058882  
 
 Finite differences POTIM=  0.100000000000000     
  LATTYP: Found a hexagonal cell.
 ALAT       =     2.5738686835
 C/A-ratio  =    11.7739747694
  
  Lattice vectors:
  
 A1 = (   1.2869343418,  -2.2290356659,   0.0000000000)
 A2 = (  -2.5738686835,   0.0000000000,   0.0000000000)
 A3 = (   0.0000000000,   0.0000000000, -30.3046649396)


Analysis of symmetry for initial positions (statically):
=====================================================================
 Subroutine PRICEL returns:
 Original cell was already a primitive cell.
 

 Routine SETGRP: Setting up the symmetry group for a 
 hexagonal supercell.


 Subroutine GETGRP returns: Found  6 space group operations
 (whereof  6 operations were pure point group operations)
 out of a pool of 24 trial point group operations.


The static configuration has the point symmetry C_3v.


Analysis of symmetry for dynamics (positions and initial velocities):
=====================================================================
 Subroutine PRICEL returns:
 Original cell was already a primitive cell.
 

 Routine SETGRP: Setting up the symmetry group for a 
 hexagonal supercell.


 Subroutine GETGRP returns: Found  6 space group operations
 (whereof  6 operations were pure point group operations)
 out of a pool of 24 trial point group operations.


The dynamic configuration has the point symmetry C_3v.


Analysis of constrained symmetry for selective dynamics:
=====================================================================
 Subroutine PRICEL returns:
 Original cell was already a primitive cell.
 

 Routine SETGRP: Setting up the symmetry group for a 
 hexagonal supercell.


 Subroutine GETGRP returns: Found  6 space group operations
 (whereof  6 operations were pure point group operations)
 out of a pool of 24 trial point group operations.


The constrained configuration has the point symmetry C_3v.


 Subroutine INISYM returns: Found  6 space group operations
 (whereof  6 operations are pure point group operations),
 and found     1 'primitive' translations

 
 KPOINTS: k-density: 4.0                          

Automatic generation of k-mesh.
Space group operators:
 irot       det(A)        alpha          n_x          n_y          n_z        tau_x        tau_y        tau_z
    1     1.000000     0.000001     1.000000     0.000000     0.000000     0.000000     0.000000     0.000000
    2     1.000000   120.000000     0.000000     0.000000     1.000000     0.000000     0.000000     0.000000
    3     1.000000   120.000000     0.000000     0.000000    -1.000000     0.000000     0.000000     0.000000
    4    -1.000000   180.000000     0.500000    -0.866025     0.000000     0.000000     0.000000     0.000000
    5    -1.000000   180.000000     1.000000     0.000000     0.000000     0.000000     0.000000     0.000000
    6    -1.000000   180.000000    -0.500000    -0.866025     0.000000     0.000000     0.000000     0.000000
 
 Subroutine IBZKPT returns following result:
 ===========================================
 
 Found     14 irreducible k-points:
 
 Following reciprocal coordinates:
            Coordinates               Weight
  0.000000  0.000000  0.000000      1.000000
  0.100000  0.000000  0.000000      6.000000
  0.200000 -0.000000  0.000000      6.000000
  0.300000 -0.000000  0.000000      6.000000
  0.400000 -0.000000  0.000000      6.000000
  0.500000 -0.000000  0.000000      3.000000
  0.200000  0.100000  0.000000      6.000000
  0.300000  0.100000  0.000000     12.000000
  0.400000  0.100000  0.000000     12.000000
  0.500000  0.100000  0.000000     12.000000
  0.400000  0.200000  0.000000      6.000000
  0.500000  0.200000  0.000000     12.000000
 -0.400000  0.200000  0.000000      6.000000
 -0.400000  0.300000  0.000000      6.000000
 
 Following cartesian coordinates:
            Coordinates               Weight
  0.000000  0.000000  0.000000      1.000000
  0.038852 -0.022431  0.000000      6.000000
  0.077704 -0.044862  0.000000      6.000000
  0.116556 -0.067294  0.000000      6.000000
  0.155408 -0.089725  0.000000      6.000000
  0.194260 -0.112156  0.000000      3.000000
  0.077704 -0.000000  0.000000      6.000000
  0.116556 -0.022431  0.000000     12.000000
  0.155408 -0.044862  0.000000     12.000000
  0.194260 -0.067294  0.000000     12.000000
  0.155408  0.000000  0.000000      6.000000
  0.194260 -0.022431  0.000000     12.000000
 -0.155408  0.179450  0.000000      6.000000
 -0.155408  0.224312  0.000000      6.000000
 
 TETIRR: Found     55 inequivalent tetrahedra from      600
     LOOP+:  cpu time   26.1470: real time   26.2279
    4ORBIT:  cpu time    0.0000: real time    0.0000
 BZINTS: Fermi energy: -2.273838; 45.000000 electrons
         Band energy:-240.692447;  BLOECHL correction: -0.191771

 total amount of memory used by VASP MPI-rank0    62674. kBytes
=======================================================================

   base      :      30000. kBytes
   nonlr-proj:       5456. kBytes
   fftplans  :       6391. kBytes
   grid      :      13657. kBytes
   one-center:         77. kBytes
   wavefun   :       7093. kBytes
 
  
  
 General timing and accounting informations for this job:
 ========================================================
  
                  Total CPU time used (sec):      330.560
                            User time (sec):      327.917
                          System time (sec):        2.643
                         Elapsed time (sec):      332.676
  
                   Maximum memory used (kb):      138144.
                   Average memory used (kb):           0.
  
                          Minor page faults:        66743
                          Major page faults:          187
                 Voluntary context switches:         4996
