<?xml version="1.0" encoding="ISO-8859-1"?>
<modeling>
 <generator>
  <i name="program" type="string">vasp </i>
  <i name="version" type="string">5.4.4.18Apr17-6-g9f103f2a35  </i>
  <i name="subversion" type="string">(build Jun 30 2017 11:15:00) complex            parallel </i>
  <i name="platform" type="string">STALLO_VASP_5.4.4 </i>
  <i name="date" type="string">2019 10 11 </i>
  <i name="time" type="string">16:34:45 </i>
 </generator>
 <incar>
  <i type="string" name="PREC">accurate  ! normal/accurate</i>
  <i type="string" name="ALGO"> Fast      ! Algorithm for electronic re</i>
  <i type="int" name="ISPIN">     1</i>
  <i type="int" name="NELMIN">     4</i>
  <i type="int" name="IBRION">     5</i>
  <i type="int" name="NFREE">     2</i>
  <i name="EDIFF">      0.00000100</i>
  <i type="int" name="ISIF">     2</i>
  <i name="ENCUT">    500.00000000</i>
  <i name="POTIM">      0.10000000</i>
  <i type="string" name="LREAL"> Auto      ! Projection in reciprocal sp</i>
  <i type="int" name="ISMEAR">    -5</i>
  <i name="SIGMA">      0.20000000</i>
  <i type="logical" name="LWAVE"> F  </i>
  <i type="logical" name="LCHARG"> F  </i>
  <v type="int" name="KPOINT_BSE">    -1     0     0     0</v>
 </incar>
 <structure name="primitive_cell" >
  <crystal>
   <varray name="basis" >
    <v>       2.57386868       0.00000000       0.00000000 </v>
    <v>       1.28693434       2.22903567       0.00000000 </v>
    <v>       0.00000000       0.00000000      30.30466494 </v>
   </varray>
   <i name="volume">    173.86529028 </i>
   <varray name="rec_basis" >
    <v>       0.38852021      -0.22431225       0.00000000 </v>
    <v>       0.00000000       0.44862450       0.00000000 </v>
    <v>       0.00000000       0.00000000       0.03299822 </v>
   </varray>
  </crystal>
  <varray name="positions" >
   <v>       0.00000000       0.00000000       0.39644015 </v>
   <v>       0.33333333       0.33333333       0.46515176 </v>
   <v>      -0.33333333      -0.33333333      -0.46608379 </v>
   <v>       0.00000000       0.00000000      -0.39325599 </v>
   <v>      -0.33333333      -0.33333333      -0.36523255 </v>
  </varray>
 </structure>
 <varray name="primitive_index" >
  <v type="int" >        1 </v>
  <v type="int" >        2 </v>
  <v type="int" >        3 </v>
  <v type="int" >        4 </v>
  <v type="int" >        5 </v>
 </varray>
 <kpoints>
  <generation param="Gamma">
   <v type="int" name="divisions">      10       10        1 </v>
   <v name="usershift">      0.00000000       0.00000000       0.00000000 </v>
   <v name="genvec1">      0.10000000       0.00000000       0.00000000 </v>
   <v name="genvec2">      0.00000000       0.10000000       0.00000000 </v>
   <v name="genvec3">      0.00000000       0.00000000       1.00000000 </v>
   <v name="shift">      0.00000000       0.00000000       0.00000000 </v>
  </generation>
  <varray name="kpointlist" >
   <v>       0.00000000       0.00000000       0.00000000 </v>
   <v>       0.10000000       0.00000000       0.00000000 </v>
   <v>       0.20000000      -0.00000000       0.00000000 </v>
   <v>       0.30000000      -0.00000000       0.00000000 </v>
   <v>       0.40000000      -0.00000000       0.00000000 </v>
   <v>       0.50000000      -0.00000000       0.00000000 </v>
   <v>       0.20000000       0.10000000       0.00000000 </v>
   <v>       0.30000000       0.10000000       0.00000000 </v>
   <v>       0.40000000       0.10000000       0.00000000 </v>
   <v>       0.50000000       0.10000000       0.00000000 </v>
   <v>       0.40000000       0.20000000       0.00000000 </v>
   <v>       0.50000000       0.20000000       0.00000000 </v>
   <v>      -0.40000000       0.20000000       0.00000000 </v>
   <v>      -0.40000000       0.30000000       0.00000000 </v>
  </varray>
  <varray name="weights" >
   <v>       0.01000000 </v>
   <v>       0.06000000 </v>
   <v>       0.06000000 </v>
   <v>       0.06000000 </v>
   <v>       0.06000000 </v>
   <v>       0.03000000 </v>
   <v>       0.06000000 </v>
   <v>       0.12000000 </v>
   <v>       0.12000000 </v>
   <v>       0.12000000 </v>
   <v>       0.06000000 </v>
   <v>       0.12000000 </v>
   <v>       0.06000000 </v>
   <v>       0.06000000 </v>
  </varray>
  <varray name="tetrahedronlist"  type="int" >
   <v type="int" >        6        1        1        2        2 </v>
   <v type="int" >       12        1        2        2        2 </v>
   <v type="int" >       12        2        2        3        7 </v>
   <v type="int" >       12        2        2        2        7 </v>
   <v type="int" >       12        2        3        3        7 </v>
   <v type="int" >       12        2        3        7        7 </v>
   <v type="int" >        6        2        2        7        7 </v>
   <v type="int" >       12        3        3        4        8 </v>
   <v type="int" >       12        3        3        7        8 </v>
   <v type="int" >       12        3        7        7        8 </v>
   <v type="int" >       12        3        4        4        8 </v>
   <v type="int" >       12        3        4        8        8 </v>
   <v type="int" >       12        3        7        8        8 </v>
   <v type="int" >       12        4        4        5        9 </v>
   <v type="int" >       12        4        4        8        9 </v>
   <v type="int" >       12        4        8        8        9 </v>
   <v type="int" >       12        4        5        5        9 </v>
   <v type="int" >       12        4        5        9        9 </v>
   <v type="int" >       12        4        8        9        9 </v>
   <v type="int" >       12        5        5        6       10 </v>
   <v type="int" >       12        5        5        9       10 </v>
   <v type="int" >       12        5        9        9       10 </v>
   <v type="int" >       12        5        6        6       10 </v>
   <v type="int" >       12        5        6       10       10 </v>
   <v type="int" >       12        5        9       10       10 </v>
   <v type="int" >        6        6        6       10       10 </v>
   <v type="int" >       12        6       10       10       10 </v>
   <v type="int" >        6        7        7        8        8 </v>
   <v type="int" >       12        7        8        8        8 </v>
   <v type="int" >       12        8        8        9       11 </v>
   <v type="int" >       12        8        8        8       11 </v>
   <v type="int" >       12        8        9        9       11 </v>
   <v type="int" >       12        8        9       11       11 </v>
   <v type="int" >        6        8        8       11       11 </v>
   <v type="int" >       12        9        9       10       12 </v>
   <v type="int" >       12        9        9       11       12 </v>
   <v type="int" >       12        9       11       11       12 </v>
   <v type="int" >       12        9       10       10       12 </v>
   <v type="int" >       12        9       10       12       12 </v>
   <v type="int" >       12        9       11       12       12 </v>
   <v type="int" >       12       10       10       10       13 </v>
   <v type="int" >       12       10       10       12       13 </v>
   <v type="int" >       12       10       12       12       13 </v>
   <v type="int" >        6       10       10       13       13 </v>
   <v type="int" >       12       10       12       13       13 </v>
   <v type="int" >        6       11       11       12       12 </v>
   <v type="int" >       12       11       12       12       12 </v>
   <v type="int" >       12       12       12       13       14 </v>
   <v type="int" >       12       12       12       12       14 </v>
   <v type="int" >       12       12       13       13       14 </v>
   <v type="int" >       12       12       13       14       14 </v>
   <v type="int" >        6       12       12       14       14 </v>
   <v type="int" >        6       13       13       14       14 </v>
   <v type="int" >       12       13       14       14       14 </v>
   <v type="int" >        6       14       14       14       14 </v>
  </varray>
  <i name="volumeweight">      0.00166667 </i>
 </kpoints>
 <parameters>
  <separator name="general" >
   <i type="string" name="SYSTEM">unknown system</i>
   <i type="logical" name="LCOMPAT"> F  </i>
  </separator>
  <separator name="electronic" >
   <i type="string" name="PREC">accura</i>
   <i name="ENMAX">    500.00000000</i>
   <i name="ENAUG">    516.45600000</i>
   <i name="EDIFF">      0.00000100</i>
   <i type="int" name="IALGO">    68</i>
   <i type="int" name="IWAVPR">    11</i>
   <i type="int" name="NBANDS">    28</i>
   <i name="NELECT">     45.00000000</i>
   <i type="int" name="TURBO">     0</i>
   <i type="int" name="IRESTART">     0</i>
   <i type="int" name="NREBOOT">     0</i>
   <i type="int" name="NMIN">     0</i>
   <i name="EREF">      0.00000000</i>
   <separator name="electronic smearing" >
    <i type="int" name="ISMEAR">    -5</i>
    <i name="SIGMA">      0.20000000</i>
    <i name="KSPACING">      0.50000000</i>
    <i type="logical" name="KGAMMA"> T  </i>
   </separator>
   <separator name="electronic projectors" >
    <i type="logical" name="LREAL"> T  </i>
    <v name="ROPT">     -0.00025000     -0.00025000</v>
    <i type="int" name="LMAXPAW">  -100</i>
    <i type="int" name="LMAXMIX">     2</i>
    <i type="logical" name="NLSPLINE"> F  </i>
   </separator>
   <separator name="electronic startup" >
    <i type="int" name="ISTART">     0</i>
    <i type="int" name="ICHARG">     2</i>
    <i type="int" name="INIWAV">     1</i>
   </separator>
   <separator name="electronic spin" >
    <i type="int" name="ISPIN">     1</i>
    <i type="logical" name="LNONCOLLINEAR"> F  </i>
    <v name="MAGMOM">      1.00000000      1.00000000      1.00000000      1.00000000      1.00000000</v>
    <i name="NUPDOWN">     -1.00000000</i>
    <i type="logical" name="LSORBIT"> F  </i>
    <v name="SAXIS">      0.00000000      0.00000000      1.00000000</v>
    <i type="logical" name="LSPIRAL"> F  </i>
    <v name="QSPIRAL">      0.00000000      0.00000000      0.00000000</v>
    <i type="logical" name="LZEROZ"> F  </i>
   </separator>
   <separator name="electronic exchange-correlation" >
    <i type="logical" name="LASPH"> F  </i>
    <i type="logical" name="LMETAGGA"> F  </i>
   </separator>
   <separator name="electronic convergence" >
    <i type="int" name="NELM">    60</i>
    <i type="int" name="NELMDL">    -5</i>
    <i type="int" name="NELMIN">     4</i>
    <i name="ENINI">    500.00000000</i>
    <separator name="electronic convergence detail" >
     <i type="logical" name="LDIAG"> T  </i>
     <i type="logical" name="LSUBROT"> F  </i>
     <i name="WEIMIN">      0.00100000</i>
     <i name="EBREAK">      0.00000001</i>
     <i name="DEPER">      0.30000000</i>
     <i type="int" name="NRMM">     4</i>
     <i name="TIME">      0.40000000</i>
    </separator>
   </separator>
   <separator name="electronic mixer" >
    <i name="AMIX">      0.40000000</i>
    <i name="BMIX">      1.00000000</i>
    <i name="AMIN">      0.10000000</i>
    <i name="AMIX_MAG">      1.60000000</i>
    <i name="BMIX_MAG">      1.00000000</i>
    <separator name="electronic mixer details" >
     <i type="int" name="IMIX">     4</i>
     <i type="logical" name="MIXFIRST"> F  </i>
     <i type="int" name="MAXMIX">   -45</i>
     <i name="WC">    100.00000000</i>
     <i type="int" name="INIMIX">     1</i>
     <i type="int" name="MIXPRE">     1</i>
     <i type="int" name="MREMOVE">     5</i>
    </separator>
   </separator>
   <separator name="electronic dipolcorrection" >
    <i type="logical" name="LDIPOL"> F  </i>
    <i type="logical" name="LMONO"> F  </i>
    <i type="int" name="IDIPOL">     0</i>
    <i name="EPSILON">      1.00000000</i>
    <v name="DIPOL">   -100.00000000   -100.00000000   -100.00000000</v>
    <i name="EFIELD">      0.00000000</i>
   </separator>
  </separator>
  <separator name="grids" >
   <i type="int" name="NGX">    20</i>
   <i type="int" name="NGY">    20</i>
   <i type="int" name="NGZ">   224</i>
   <i type="int" name="NGXF">    40</i>
   <i type="int" name="NGYF">    40</i>
   <i type="int" name="NGZF">   448</i>
   <i type="logical" name="ADDGRID"> F  </i>
  </separator>
  <separator name="ionic" >
   <i type="int" name="NSW">    97</i>
   <i type="int" name="IBRION">     5</i>
   <i type="int" name="MDALGO">     0</i>
   <i type="int" name="ISIF">     2</i>
   <i name="PSTRESS">      0.00000000</i>
   <i name="EDIFFG">      0.00001000</i>
   <i type="int" name="NFREE">     2</i>
   <i name="POTIM">      0.10000000</i>
   <i name="SMASS">     -3.00000000</i>
   <i name="SCALEE">      1.00000000</i>
  </separator>
  <separator name="ionic md" >
   <i name="TEBEG">      0.00010000</i>
   <i name="TEEND">      0.00010000</i>
   <i type="int" name="NBLOCK">     1</i>
   <i type="int" name="KBLOCK">    97</i>
   <i type="int" name="NPACO">   256</i>
   <i name="APACO">     16.00000000</i>
  </separator>
  <separator name="symmetry" >
   <i type="int" name="ISYM">     2</i>
   <i name="SYMPREC">      0.00001000</i>
  </separator>
  <separator name="dos" >
   <i type="int" name="LORBIT">     0</i>
   <v name="RWIGS">     -1.00000000     -1.00000000</v>
   <i type="int" name="NEDOS">   301</i>
   <i name="EMIN">     10.00000000</i>
   <i name="EMAX">    -10.00000000</i>
   <i name="EFERMI">      0.00000000</i>
  </separator>
  <separator name="writing" >
   <i type="int" name="NWRITE">     2</i>
   <i type="logical" name="LWAVE"> F  </i>
   <i type="logical" name="LDOWNSAMPLE"> F  </i>
   <i type="logical" name="LCHARG"> F  </i>
   <i type="logical" name="LPARD"> F  </i>
   <i type="logical" name="LVTOT"> F  </i>
   <i type="logical" name="LVHAR"> F  </i>
   <i type="logical" name="LELF"> F  </i>
   <i type="logical" name="LOPTICS"> F  </i>
   <v name="STM">      0.00000000      0.00000000      0.00000000      0.00000000      0.00000000      0.00000000      0.00000000</v>
  </separator>
  <separator name="performance" >
   <i type="int" name="NPAR">     4</i>
   <i type="int" name="NSIM">     4</i>
   <i type="int" name="NBLK">    -1</i>
   <i type="logical" name="LPLANE"> T  </i>
   <i type="logical" name="LSCALAPACK"> T  </i>
   <i type="logical" name="LSCAAWARE"> F  </i>
   <i type="logical" name="LSCALU"> F  </i>
   <i type="logical" name="LASYNC"> F  </i>
   <i type="logical" name="LORBITALREAL"> F  </i>
  </separator>
  <separator name="miscellaneous" >
   <i type="int" name="IDIOT">     3</i>
   <i type="int" name="ISPECIAL">     0</i>
   <i type="logical" name="LMUSIC"> F  </i>
   <v name="POMASS">     63.54600000      1.00000000</v>
   <v name="DARWINR">      0.00000000      0.00000000</v>
   <v name="DARWINV">      1.00000000      1.00000000</v>
   <i type="logical" name="LCORR"> T  </i>
  </separator>
  <i type="logical" name="GGA_COMPAT"> T  </i>
  <i type="logical" name="LBERRY"> F  </i>
  <i type="int" name="ICORELEVEL">     0</i>
  <i type="logical" name="LDAU"> F  </i>
  <i type="int" name="I_CONSTRAINED_M">     0</i>
  <separator name="electronic exchange-correlation" >
   <i type="string" name="GGA">--</i>
   <i type="int" name="VOSKOWN">     0</i>
   <i type="logical" name="LHFCALC"> F  </i>
   <i type="string" name="PRECFOCK"></i>
   <i type="logical" name="LSYMGRAD"> F  </i>
   <i type="logical" name="LHFONE"> F  </i>
   <i type="logical" name="LRHFCALC"> F  </i>
   <i type="logical" name="LTHOMAS"> F  </i>
   <i type="logical" name="LMODELHF"> F  </i>
   <i name="ENCUT4O">     -1.00000000</i>
   <i type="int" name="EXXOEP">     0</i>
   <i type="int" name="FOURORBIT">     0</i>
   <i name="AEXX">      0.00000000</i>
   <i name="HFALPHA">      0.00000000</i>
   <i name="MCALPHA">      0.00000000</i>
   <i name="ALDAX">      1.00000000</i>
   <i name="AGGAX">      1.00000000</i>
   <i name="ALDAC">      1.00000000</i>
   <i name="AGGAC">      1.00000000</i>
   <i type="int" name="NKREDX">     1</i>
   <i type="int" name="NKREDY">     1</i>
   <i type="int" name="NKREDZ">     1</i>
   <i type="logical" name="SHIFTRED"> F  </i>
   <i type="logical" name="ODDONLY"> F  </i>
   <i type="logical" name="EVENONLY"> F  </i>
   <i type="int" name="LMAXFOCK">     0</i>
   <i type="int" name="NMAXFOCKAE">     0</i>
   <i type="logical" name="LFOCKAEDFT"> F  </i>
   <i name="HFSCREEN">      0.00000000</i>
   <i name="HFSCREENC">      0.00000000</i>
   <i type="int" name="NBANDSGWLOW">     0</i>
  </separator>
  <separator name="vdW DFT" >
   <i type="logical" name="LUSE_VDW"> F  </i>
   <i name="Zab_VDW">     -0.84910000</i>
   <i name="PARAM1">      0.12340000</i>
   <i name="PARAM2">      1.00000000</i>
   <i name="PARAM3">      0.00000000</i>
  </separator>
  <separator name="model GW" >
   <i type="int" name="MODEL_GW">     0</i>
   <i name="MODEL_EPS0">     20.86383483</i>
   <i name="MODEL_ALPHA">      1.00000000</i>
  </separator>
  <separator name="linear response parameters" >
   <i type="logical" name="LEPSILON"> F  </i>
   <i type="logical" name="LRPA"> F  </i>
   <i type="logical" name="LNABLA"> F  </i>
   <i type="logical" name="LVEL"> F  </i>
   <i type="int" name="KINTER">     0</i>
   <i name="CSHIFT">      0.10000000</i>
   <i name="OMEGAMAX">     -1.00000000</i>
   <i name="DEG_THRESHOLD">      0.00200000</i>
   <i name="RTIME">     -0.10000000</i>
   <i name="WPLASMAI">      0.00000000</i>
   <v name="DFIELD">      0.00000000      0.00000000      0.00000000</v>
   <v name="WPLASMA">      0.00000000      0.00000000      0.00000000      0.00000000      0.00000000      0.00000000      0.00000000      0.00000000      0.00000000</v>
  </separator>
  <separator name="orbital magnetization" >
   <i type="logical" name="NUCIND"> F  </i>
   <v name="MAGPOS">      0.00000000      0.00000000      0.00000000</v>
   <i type="logical" name="LNICSALL"> T  </i>
   <i type="logical" name="ORBITALMAG"> F  </i>
   <i type="logical" name="LMAGBLOCH"> F  </i>
   <i type="logical" name="LCHIMAG"> F  </i>
   <i type="logical" name="LGAUGE"> T  </i>
   <i type="int" name="MAGATOM">     0</i>
   <v name="MAGDIPOL">      0.00000000      0.00000000      0.00000000</v>
   <v name="AVECCONST">      0.00000000      0.00000000      0.00000000</v>
  </separator>
  <separator name="response functions" >
   <i type="logical" name="LADDER"> F  </i>
   <i type="logical" name="LRPAFORCE"> F  </i>
   <i type="logical" name="LFXC"> F  </i>
   <i type="logical" name="LHARTREE"> T  </i>
   <i type="int" name="IBSE">     0</i>
   <v type="int" name="KPOINT">    -1     0     0     0</v>
   <i type="logical" name="LTCTE"> F  </i>
   <i type="logical" name="LTETE"> F  </i>
   <i type="logical" name="LTRIPLET"> F  </i>
   <i type="logical" name="LFXCEPS"> F  </i>
   <i type="logical" name="LFXHEG"> F  </i>
   <i type="int" name="NATURALO">     2</i>
   <i type="logical" name="L2ORDER"> F  </i>
   <i type="logical" name="LMP2LT"> F  </i>
   <i type="logical" name="LUSEW"> F  </i>
   <i name="ENCUTGW">     -2.00000000</i>
   <i name="ENCUTGWSOFT">     -2.00000000</i>
   <i name="ENCUTLF">     -1.00000000</i>
   <i type="int" name="LMAXMP2">    -1</i>
   <i name="SCISSOR">      0.00000000</i>
   <i type="int" name="NOMEGA">     0</i>
   <i type="int" name="NOMEGAR">     0</i>
   <i type="int" name="NBANDSGW">    -1</i>
   <i type="int" name="NBANDSO">    -1</i>
   <i type="int" name="NBANDSV">    -1</i>
   <i type="int" name="NELM">     1</i>
   <i type="int" name="NELMHF">     1</i>
   <i type="int" name="DIM">     3</i>
   <i type="int" name="ANTIRES">     0</i>
   <i name="OMEGAMAX">    -30.00000000</i>
   <i name="OMEGAMIN">    -30.00000000</i>
   <i name="OMEGATL">   -200.00000000</i>
   <i type="int" name="OMEGAGRID">   140</i>
   <i name="CSHIFT">     -0.10000000</i>
   <i type="logical" name="SELFENERGY"> F  </i>
   <i type="logical" name="LSPECTRAL"> F  </i>
   <i type="logical" name="LSPECTRALGW"> F  </i>
   <i type="logical" name="LSINGLES"> F  </i>
   <i type="logical" name="LFERMIGW"> F  </i>
   <i type="logical" name="ODDONLYGW"> F  </i>
   <i type="logical" name="EVENONLYGW"> F  </i>
   <i type="int" name="NKREDLFX">     1</i>
   <i type="int" name="NKREDLFY">     1</i>
   <i type="int" name="NKREDLFZ">     1</i>
   <i type="int" name="MAXMEM">  2800</i>
   <i type="int" name="TELESCOPE">     0</i>
   <i type="int" name="TAUPAR">     1</i>
   <i type="int" name="OMEGAPAR">    -1</i>
   <i name="LAMBDA">      1.00000000</i>
  </separator>
  <separator name="External order field" >
   <i name="OFIELD_KAPPA">      0.00000000</i>
   <v name="OFIELD_K">      0.00000000      0.00000000      0.00000000</v>
   <i name="OFIELD_Q6_NEAR">      0.00000000</i>
   <i name="OFIELD_Q6_FAR">      0.00000000</i>
   <i name="OFIELD_A">      0.00000000</i>
  </separator>
 </parameters>
 <atominfo>
  <atoms>       5 </atoms>
  <types>       2 </types>
  <array name="atoms" >
   <dimension dim="1">ion</dimension>
   <field type="string">element</field>
   <field type="int">atomtype</field>
   <set>
    <rc><c>Cu</c><c>   1</c></rc>
    <rc><c>Cu</c><c>   1</c></rc>
    <rc><c>Cu</c><c>   1</c></rc>
    <rc><c>Cu</c><c>   1</c></rc>
    <rc><c>H </c><c>   2</c></rc>
   </set>
  </array>
  <array name="atomtypes" >
   <dimension dim="1">type</dimension>
   <field type="int">atomspertype</field>
   <field type="string">element</field>
   <field>mass</field>
   <field>valence</field>
   <field type="string">pseudopotential</field>
   <set>
    <rc><c>   4</c><c>Cu</c><c>     63.54600000</c><c>     11.00000000</c><c> PAW_PBE Cu 05Jan2001                   </c></rc>
    <rc><c>   1</c><c>H </c><c>      1.00000000</c><c>      1.00000000</c><c> PAW_PBE H 15Jun2001                    </c></rc>
   </set>
  </array>
 </atominfo>
 <structure name="initialpos" >
  <crystal>
   <varray name="basis" >
    <v>       2.57386868       0.00000000       0.00000000 </v>
    <v>       1.28693434       2.22903567       0.00000000 </v>
    <v>       0.00000000       0.00000000      30.30466494 </v>
   </varray>
   <i name="volume">    173.86529028 </i>
   <varray name="rec_basis" >
    <v>       0.38852021      -0.22431225       0.00000000 </v>
    <v>       0.00000000       0.44862450       0.00000000 </v>
    <v>       0.00000000       0.00000000       0.03299822 </v>
   </varray>
  </crystal>
  <varray name="positions" >
   <v>       0.00000000       0.00000000       0.39644015 </v>
   <v>       0.33333333       0.33333333       0.46515176 </v>
   <v>       0.66666667       0.66666667       0.53391621 </v>
   <v>       0.00000000       0.00000000       0.60674401 </v>
   <v>       0.66666667       0.66666667       0.63476745 </v>
  </varray>
  <varray name="selective"  type="logical" >
   <v type="logical" >  F  F  F </v>
   <v type="logical" >  F  F  F </v>
   <v type="logical" >  F  F  F </v>
   <v type="logical" >  F  F  F </v>
   <v type="logical" >  T  T  T </v>
  </varray>
  <nose>
   <v>      -3.00000000       0.00000000       0.00010000       0.00010000 </v>
  </nose>
 </structure>
 <calculation>
  <scstep>
   <time name="dav">    1.73    1.73</time>
   <time name="total">    1.83    1.87</time>
   <energy>
    <i name="alphaZ">    120.87645803 </i>
    <i name="ewald">  37789.06812500 </i>
    <i name="hartreedc"> -42909.95868720 </i>
    <i name="XCdc">    177.45078026 </i>
    <i name="pawpsdc">   4328.99049516 </i>
    <i name="pawaedc">  -4905.09836044 </i>
    <i name="eentropy">      0.00000000 </i>
    <i name="bandstr">    101.64061378 </i>
    <i name="atom">   5576.39375050 </i>
    <i name="e_fr_energy">    279.36317508 </i>
    <i name="e_wo_entrp">    279.36317508 </i>
    <i name="e_0_energy">    279.36317508 </i>
   </energy>
  </scstep>
  <scstep>
   <time name="dav">    1.76    1.76</time>
   <time name="total">    1.76    1.76</time>
   <energy>
    <i name="e_fr_energy">     -3.67101372 </i>
    <i name="e_wo_entrp">     -3.67101372 </i>
    <i name="e_0_energy">     -3.67101372 </i>
   </energy>
  </scstep>
  <scstep>
   <time name="dav">    1.91    1.91</time>
   <time name="total">    1.91    1.92</time>
   <energy>
    <i name="e_fr_energy">    -20.94499006 </i>
    <i name="e_wo_entrp">    -20.94499006 </i>
    <i name="e_0_energy">    -20.94499006 </i>
   </energy>
  </scstep>
  <scstep>
   <time name="dav">    1.87    1.87</time>
   <time name="total">    1.87    1.87</time>
   <energy>
    <i name="e_fr_energy">    -21.19509815 </i>
    <i name="e_wo_entrp">    -21.19509815 </i>
    <i name="e_0_energy">    -21.19509815 </i>
   </energy>
  </scstep>
  <scstep>
   <time name="dav">    1.92    1.93</time>
   <time name="total">    2.09    2.09</time>
   <energy>
    <i name="e_fr_energy">    -21.19736668 </i>
    <i name="e_wo_entrp">    -21.19736668 </i>
    <i name="e_0_energy">    -21.19736668 </i>
   </energy>
  </scstep>
  <scstep>
   <time name="diag">    0.33    0.33</time>
   <time name="diis">    1.16    1.16</time>
   <time name="orth">    0.02    0.02</time>
   <time name="total">    1.77    1.77</time>
   <energy>
    <i name="e_fr_energy">    -19.30243609 </i>
    <i name="e_wo_entrp">    -19.30243609 </i>
    <i name="e_0_energy">    -19.30243609 </i>
   </energy>
  </scstep>
  <scstep>
   <time name="diag">    0.33    0.33</time>
   <time name="diis">    1.15    1.15</time>
   <time name="orth">    0.02    0.02</time>
   <time name="total">    1.76    1.76</time>
   <energy>
    <i name="e_fr_energy">    -17.63490991 </i>
    <i name="e_wo_entrp">    -17.63490991 </i>
    <i name="e_0_energy">    -17.63490991 </i>
   </energy>
  </scstep>
  <scstep>
   <time name="diag">    0.33    0.33</time>
   <time name="diis">    1.15    1.15</time>
   <time name="orth">    0.02    0.02</time>
   <time name="total">    1.76    1.76</time>
   <energy>
    <i name="e_fr_energy">    -17.56571338 </i>
    <i name="e_wo_entrp">    -17.56571338 </i>
    <i name="e_0_energy">    -17.56571338 </i>
   </energy>
  </scstep>
  <scstep>
   <time name="diag">    0.33    0.33</time>
   <time name="diis">    1.15    1.15</time>
   <time name="orth">    0.02    0.02</time>
   <time name="total">    1.76    1.76</time>
   <energy>
    <i name="e_fr_energy">    -17.48699491 </i>
    <i name="e_wo_entrp">    -17.48699491 </i>
    <i name="e_0_energy">    -17.48699491 </i>
   </energy>
  </scstep>
  <scstep>
   <time name="diag">    0.33    0.33</time>
   <time name="diis">    1.16    1.16</time>
   <time name="orth">    0.02    0.02</time>
   <time name="total">    1.77    1.77</time>
   <energy>
    <i name="e_fr_energy">    -17.47708265 </i>
    <i name="e_wo_entrp">    -17.47708265 </i>
    <i name="e_0_energy">    -17.47708265 </i>
   </energy>
  </scstep>
  <scstep>
   <time name="diag">    0.33    0.33</time>
   <time name="diis">    1.16    1.16</time>
   <time name="orth">    0.02    0.02</time>
   <time name="total">    1.76    1.76</time>
   <energy>
    <i name="e_fr_energy">    -17.47377827 </i>
    <i name="e_wo_entrp">    -17.47377827 </i>
    <i name="e_0_energy">    -17.47377827 </i>
   </energy>
  </scstep>
  <scstep>
   <time name="diag">    0.33    0.33</time>
   <time name="diis">    1.16    1.16</time>
   <time name="orth">    0.02    0.02</time>
   <time name="total">    1.76    1.76</time>
   <energy>
    <i name="e_fr_energy">    -17.47177762 </i>
    <i name="e_wo_entrp">    -17.47177762 </i>
    <i name="e_0_energy">    -17.47177762 </i>
   </energy>
  </scstep>
  <scstep>
   <time name="diag">    0.33    0.33</time>
   <time name="diis">    1.15    1.15</time>
   <time name="orth">    0.02    0.02</time>
   <time name="total">    1.76    1.76</time>
   <energy>
    <i name="e_fr_energy">    -17.47158941 </i>
    <i name="e_wo_entrp">    -17.47158941 </i>
    <i name="e_0_energy">    -17.47158941 </i>
   </energy>
  </scstep>
  <scstep>
   <time name="diag">    0.33    0.33</time>
   <time name="diis">    1.15    1.15</time>
   <time name="orth">    0.02    0.02</time>
   <time name="total">    1.75    1.75</time>
   <energy>
    <i name="e_fr_energy">    -17.47158319 </i>
    <i name="e_wo_entrp">    -17.47158319 </i>
    <i name="e_0_energy">    -17.47158319 </i>
   </energy>
  </scstep>
  <scstep>
   <time name="diag">    0.33    0.33</time>
   <time name="diis">    1.16    1.16</time>
   <time name="orth">    0.02    0.02</time>
   <time name="total">    1.76    1.76</time>
   <energy>
    <i name="e_fr_energy">    -17.47155032 </i>
    <i name="e_wo_entrp">    -17.47155032 </i>
    <i name="e_0_energy">    -17.47155032 </i>
   </energy>
  </scstep>
  <scstep>
   <time name="diag">    0.37    0.38</time>
   <time name="diis">    1.13    1.13</time>
   <time name="orth">    0.02    0.02</time>
   <time name="total">    1.79    1.79</time>
   <energy>
    <i name="e_fr_energy">    -17.47163229 </i>
    <i name="e_wo_entrp">    -17.47163229 </i>
    <i name="e_0_energy">    -17.47163229 </i>
   </energy>
  </scstep>
  <scstep>
   <time name="diag">    0.33    0.33</time>
   <time name="diis">    0.98    0.98</time>
   <time name="orth">    0.02    0.02</time>
   <time name="total">    1.58    1.59</time>
   <energy>
    <i name="e_fr_energy">    -17.47169480 </i>
    <i name="e_wo_entrp">    -17.47169480 </i>
    <i name="e_0_energy">    -17.47169480 </i>
   </energy>
  </scstep>
  <scstep>
   <time name="diag">    0.33    0.33</time>
   <time name="diis">    1.00    1.00</time>
   <time name="orth">    0.02    0.02</time>
   <time name="total">    1.61    1.61</time>
   <energy>
    <i name="e_fr_energy">    -17.47180877 </i>
    <i name="e_wo_entrp">    -17.47180877 </i>
    <i name="e_0_energy">    -17.47180877 </i>
   </energy>
  </scstep>
  <scstep>
   <time name="diag">    0.33    0.33</time>
   <time name="diis">    0.90    0.90</time>
   <time name="orth">    0.02    0.02</time>
   <time name="total">    1.51    1.51</time>
   <energy>
    <i name="e_fr_energy">    -17.47183897 </i>
    <i name="e_wo_entrp">    -17.47183897 </i>
    <i name="e_0_energy">    -17.47183897 </i>
   </energy>
  </scstep>
  <scstep>
   <time name="diag">    0.33    0.33</time>
   <time name="diis">    0.80    0.80</time>
   <time name="orth">    0.02    0.02</time>
   <time name="total">    1.41    1.41</time>
   <energy>
    <i name="e_fr_energy">    -17.47187893 </i>
    <i name="e_wo_entrp">    -17.47187893 </i>
    <i name="e_0_energy">    -17.47187893 </i>
   </energy>
  </scstep>
  <scstep>
   <time name="diag">    0.33    0.33</time>
   <time name="diis">    0.78    0.78</time>
   <time name="orth">    0.02    0.02</time>
   <time name="total">    1.39    1.40</time>
   <energy>
    <i name="e_fr_energy">    -17.47190198 </i>
    <i name="e_wo_entrp">    -17.47190198 </i>
    <i name="e_0_energy">    -17.47190198 </i>
   </energy>
  </scstep>
  <scstep>
   <time name="diag">    0.33    0.33</time>
   <time name="diis">    0.78    0.78</time>
   <time name="orth">    0.02    0.02</time>
   <time name="total">    1.39    1.39</time>
   <energy>
    <i name="e_fr_energy">    -17.47191445 </i>
    <i name="e_wo_entrp">    -17.47191445 </i>
    <i name="e_0_energy">    -17.47191445 </i>
   </energy>
  </scstep>
  <scstep>
   <time name="diag">    0.33    0.33</time>
   <time name="diis">    0.72    0.72</time>
   <time name="orth">    0.02    0.02</time>
   <time name="total">    1.33    1.33</time>
   <energy>
    <i name="e_fr_energy">    -17.47191792 </i>
    <i name="e_wo_entrp">    -17.47191792 </i>
    <i name="e_0_energy">    -17.47191792 </i>
   </energy>
  </scstep>
  <scstep>
   <time name="diag">    0.33    0.33</time>
   <time name="diis">    0.63    0.62</time>
   <time name="orth">    0.02    0.02</time>
   <time name="total">    1.23    1.23</time>
   <energy>
    <i name="e_fr_energy">    -17.47192015 </i>
    <i name="e_wo_entrp">    -17.47192015 </i>
    <i name="e_0_energy">    -17.47192015 </i>
   </energy>
  </scstep>
  <scstep>
   <time name="diag">    0.33    0.33</time>
   <time name="diis">    0.63    0.63</time>
   <time name="orth">    0.02    0.02</time>
   <time name="total">    1.08    1.08</time>
   <energy>
    <i name="alphaZ">    120.87645803 </i>
    <i name="ewald">  37789.06812500 </i>
    <i name="hartreedc"> -42857.61776323 </i>
    <i name="XCdc">    173.48032992 </i>
    <i name="pawpsdc">   4383.53651878 </i>
    <i name="pawaedc">  -4962.35378072 </i>
    <i name="eentropy">      0.00000000 </i>
    <i name="bandstr">   -240.85555822 </i>
    <i name="atom">   5576.39375050 </i>
    <i name="e_fr_energy">    -17.47191994 </i>
    <i name="e_wo_entrp">    -17.47191994 </i>
    <i name="e_0_energy">    -17.47191994 </i>
   </energy>
  </scstep>
  <structure>
   <crystal>
    <varray name="basis" >
     <v>       2.57386868       0.00000000       0.00000000 </v>
     <v>       1.28693434       2.22903567       0.00000000 </v>
     <v>       0.00000000       0.00000000      30.30466494 </v>
    </varray>
    <i name="volume">    173.86529028 </i>
    <varray name="rec_basis" >
     <v>       0.38852021      -0.22431225       0.00000000 </v>
     <v>       0.00000000       0.44862450       0.00000000 </v>
     <v>       0.00000000       0.00000000       0.03299822 </v>
    </varray>
   </crystal>
   <varray name="positions" >
    <v>       0.00000000       0.00000000       0.39644015 </v>
    <v>       0.33333333       0.33333333       0.46515176 </v>
    <v>       0.66666667       0.66666667       0.53391621 </v>
    <v>       0.00000000       0.00000000       0.60674401 </v>
    <v>       0.66666667       0.66666667       0.63476745 </v>
   </varray>
  </structure>
  <varray name="forces" >
   <v>       0.00000000      -0.00000000       0.04095690 </v>
   <v>       0.00000000      -0.00000000      -0.01708135 </v>
   <v>      -0.00000000      -0.00000000       0.07208334 </v>
   <v>       0.00000000       0.00000000      -0.01327352 </v>
   <v>       0.00000000      -0.00000000      -0.08268536 </v>
  </varray>
  <varray name="stress" >
   <v>      -3.04035738       0.00000000       0.00000000 </v>
   <v>       0.00000000      -3.04035738      -0.00000000 </v>
   <v>       0.00000000       0.00000000      -4.07526345 </v>
  </varray>
  <energy>
   <i name="e_fr_energy">    -17.47191994 </i>
   <i name="e_wo_entrp">    -17.47191994 </i>
   <i name="e_0_energy">      0.00000000 </i>
  </energy>
  <kpoints>
   <generation param="Gamma">
    <v type="int" name="divisions">      10       10        1 </v>
    <v name="usershift">      0.00000000       0.00000000       0.00000000 </v>
    <v name="genvec1">      0.10000000       0.00000000       0.00000000 </v>
    <v name="genvec2">      0.00000000       0.10000000       0.00000000 </v>
    <v name="genvec3">      0.00000000       0.00000000       1.00000000 </v>
    <v name="shift">      0.00000000       0.00000000       0.00000000 </v>
   </generation>
   <varray name="kpointlist" >
    <v>       0.00000000       0.00000000       0.00000000 </v>
    <v>       0.10000000       0.00000000       0.00000000 </v>
    <v>       0.20000000      -0.00000000       0.00000000 </v>
    <v>       0.30000000      -0.00000000       0.00000000 </v>
    <v>       0.40000000      -0.00000000       0.00000000 </v>
    <v>       0.50000000      -0.00000000       0.00000000 </v>
    <v>       0.00000000       0.10000000       0.00000000 </v>
    <v>       0.10000000       0.10000000       0.00000000 </v>
    <v>       0.20000000       0.10000000       0.00000000 </v>
    <v>       0.30000000       0.10000000       0.00000000 </v>
    <v>       0.40000000       0.10000000       0.00000000 </v>
    <v>       0.50000000       0.10000000       0.00000000 </v>
    <v>      -0.40000000       0.10000000       0.00000000 </v>
    <v>      -0.30000000       0.10000000       0.00000000 </v>
    <v>      -0.20000000       0.10000000       0.00000000 </v>
    <v>      -0.10000000       0.10000000       0.00000000 </v>
    <v>       0.00000000       0.20000000       0.00000000 </v>
    <v>       0.10000000       0.20000000       0.00000000 </v>
    <v>       0.20000000       0.20000000       0.00000000 </v>
    <v>       0.30000000       0.20000000       0.00000000 </v>
    <v>       0.40000000       0.20000000       0.00000000 </v>
    <v>       0.50000000       0.20000000       0.00000000 </v>
    <v>      -0.40000000       0.20000000       0.00000000 </v>
    <v>      -0.30000000       0.20000000       0.00000000 </v>
    <v>      -0.20000000       0.20000000       0.00000000 </v>
    <v>      -0.10000000       0.20000000       0.00000000 </v>
    <v>       0.00000000       0.30000000       0.00000000 </v>
    <v>       0.10000000       0.30000000       0.00000000 </v>
    <v>       0.20000000       0.30000000       0.00000000 </v>
    <v>       0.30000000       0.30000000       0.00000000 </v>
    <v>       0.40000000       0.30000000       0.00000000 </v>
    <v>       0.50000000       0.30000000       0.00000000 </v>
    <v>      -0.40000000       0.30000000       0.00000000 </v>
    <v>      -0.30000000       0.30000000       0.00000000 </v>
    <v>      -0.20000000       0.30000000       0.00000000 </v>
    <v>      -0.10000000       0.30000000       0.00000000 </v>
    <v>       0.00000000       0.40000000       0.00000000 </v>
    <v>       0.10000000       0.40000000       0.00000000 </v>
    <v>       0.20000000       0.40000000       0.00000000 </v>
    <v>       0.30000000       0.40000000       0.00000000 </v>
    <v>       0.40000000       0.40000000       0.00000000 </v>
    <v>       0.50000000       0.40000000       0.00000000 </v>
    <v>      -0.40000000       0.40000000       0.00000000 </v>
    <v>      -0.30000000       0.40000000       0.00000000 </v>
    <v>      -0.20000000       0.40000000       0.00000000 </v>
    <v>      -0.10000000       0.40000000       0.00000000 </v>
    <v>       0.00000000       0.50000000       0.00000000 </v>
    <v>       0.10000000       0.50000000       0.00000000 </v>
    <v>       0.20000000       0.50000000       0.00000000 </v>
    <v>       0.30000000       0.50000000       0.00000000 </v>
    <v>       0.40000000       0.50000000       0.00000000 </v>
    <v>       0.50000000       0.50000000       0.00000000 </v>
   </varray>
   <varray name="weights" >
    <v>       0.01000000 </v>
    <v>       0.02000000 </v>
    <v>       0.02000000 </v>
    <v>       0.02000000 </v>
    <v>       0.02000000 </v>
    <v>       0.01000000 </v>
    <v>       0.02000000 </v>
    <v>       0.02000000 </v>
    <v>       0.02000000 </v>
    <v>       0.02000000 </v>
    <v>       0.02000000 </v>
    <v>       0.02000000 </v>
    <v>       0.02000000 </v>
    <v>       0.02000000 </v>
    <v>       0.02000000 </v>
    <v>       0.02000000 </v>
    <v>       0.02000000 </v>
    <v>       0.02000000 </v>
    <v>       0.02000000 </v>
    <v>       0.02000000 </v>
    <v>       0.02000000 </v>
    <v>       0.02000000 </v>
    <v>       0.02000000 </v>
    <v>       0.02000000 </v>
    <v>       0.02000000 </v>
    <v>       0.02000000 </v>
    <v>       0.02000000 </v>
    <v>       0.02000000 </v>
    <v>       0.02000000 </v>
    <v>       0.02000000 </v>
    <v>       0.02000000 </v>
    <v>       0.02000000 </v>
    <v>       0.02000000 </v>
    <v>       0.02000000 </v>
    <v>       0.02000000 </v>
    <v>       0.02000000 </v>
    <v>       0.02000000 </v>
    <v>       0.02000000 </v>
    <v>       0.02000000 </v>
    <v>       0.02000000 </v>
    <v>       0.02000000 </v>
    <v>       0.02000000 </v>
    <v>       0.02000000 </v>
    <v>       0.02000000 </v>
    <v>       0.02000000 </v>
    <v>       0.02000000 </v>
    <v>       0.01000000 </v>
    <v>       0.02000000 </v>
    <v>       0.02000000 </v>
    <v>       0.02000000 </v>
    <v>       0.02000000 </v>
    <v>       0.01000000 </v>
   </varray>
   <varray name="tetrahedronlist"  type="int" >
    <v type="int" >        2        1        1        2        8 </v>
    <v type="int" >        2        1        1        7        8 </v>
    <v type="int" >        2        1        7        7        8 </v>
    <v type="int" >        2        1        2        2        8 </v>
    <v type="int" >        2        1        2        8        8 </v>
    <v type="int" >        2        1        7        8        8 </v>
    <v type="int" >        2        2        2        3        9 </v>
    <v type="int" >        2        2        2        8        9 </v>
    <v type="int" >        2        2        8        8        9 </v>
    <v type="int" >        2        2        3        3        9 </v>
    <v type="int" >        2        2        3        9        9 </v>
    <v type="int" >        2        2        8        9        9 </v>
    <v type="int" >        2        3        3        4       10 </v>
    <v type="int" >        2        3        3        9       10 </v>
    <v type="int" >        2        3        9        9       10 </v>
    <v type="int" >        2        3        4        4       10 </v>
    <v type="int" >        2        3        4       10       10 </v>
    <v type="int" >        2        3        9       10       10 </v>
    <v type="int" >        2        4        4        5       11 </v>
    <v type="int" >        2        4        4       10       11 </v>
    <v type="int" >        2        4       10       10       11 </v>
    <v type="int" >        2        4        5        5       11 </v>
    <v type="int" >        2        4        5       11       11 </v>
    <v type="int" >        2        4       10       11       11 </v>
    <v type="int" >        2        5        5        6       12 </v>
    <v type="int" >        2        5        5       11       12 </v>
    <v type="int" >        2        5       11       11       12 </v>
    <v type="int" >        2        5        6        6       12 </v>
    <v type="int" >        2        5        6       12       12 </v>
    <v type="int" >        2        5       11       12       12 </v>
    <v type="int" >        2        5        6        6       13 </v>
    <v type="int" >        2        6        6       12       13 </v>
    <v type="int" >        2        6       12       12       13 </v>
    <v type="int" >        2        5        5        6       13 </v>
    <v type="int" >        2        5        6       13       13 </v>
    <v type="int" >        2        6       12       13       13 </v>
    <v type="int" >        2        4        5        5       14 </v>
    <v type="int" >        2        5        5       13       14 </v>
    <v type="int" >        2        5       13       13       14 </v>
    <v type="int" >        2        4        4        5       14 </v>
    <v type="int" >        2        4        5       14       14 </v>
    <v type="int" >        2        5       13       14       14 </v>
    <v type="int" >        2        3        4        4       15 </v>
    <v type="int" >        2        4        4       14       15 </v>
    <v type="int" >        2        4       14       14       15 </v>
    <v type="int" >        2        3        3        4       15 </v>
    <v type="int" >        2        3        4       15       15 </v>
    <v type="int" >        2        4       14       15       15 </v>
    <v type="int" >        2        2        3        3       16 </v>
    <v type="int" >        2        3        3       15       16 </v>
    <v type="int" >        2        3       15       15       16 </v>
    <v type="int" >        2        2        2        3       16 </v>
    <v type="int" >        2        2        3       16       16 </v>
    <v type="int" >        2        3       15       16       16 </v>
    <v type="int" >        2        1        2        2        7 </v>
    <v type="int" >        2        2        2        7       16 </v>
    <v type="int" >        2        2        7       16       16 </v>
    <v type="int" >        2        1        1        2        7 </v>
    <v type="int" >        2        1        2        7        7 </v>
    <v type="int" >        2        2        7        7       16 </v>
    <v type="int" >        2        7        7        8       18 </v>
    <v type="int" >        2        7        7       17       18 </v>
    <v type="int" >        2        7       17       17       18 </v>
    <v type="int" >        2        7        8        8       18 </v>
    <v type="int" >        2        7        8       18       18 </v>
    <v type="int" >        2        7       17       18       18 </v>
    <v type="int" >        2        8        8        9       19 </v>
    <v type="int" >        2        8        8       18       19 </v>
    <v type="int" >        2        8       18       18       19 </v>
    <v type="int" >        2        8        9        9       19 </v>
    <v type="int" >        2        8        9       19       19 </v>
    <v type="int" >        2        8       18       19       19 </v>
    <v type="int" >        2        9        9       10       20 </v>
    <v type="int" >        2        9        9       19       20 </v>
    <v type="int" >        2        9       19       19       20 </v>
    <v type="int" >        2        9       10       10       20 </v>
    <v type="int" >        2        9       10       20       20 </v>
    <v type="int" >        2        9       19       20       20 </v>
    <v type="int" >        2       10       10       11       21 </v>
    <v type="int" >        2       10       10       20       21 </v>
    <v type="int" >        2       10       20       20       21 </v>
    <v type="int" >        2       10       11       11       21 </v>
    <v type="int" >        2       10       11       21       21 </v>
    <v type="int" >        2       10       20       21       21 </v>
    <v type="int" >        2       11       11       12       22 </v>
    <v type="int" >        2       11       11       21       22 </v>
    <v type="int" >        2       11       21       21       22 </v>
    <v type="int" >        2       11       12       12       22 </v>
    <v type="int" >        2       11       12       22       22 </v>
    <v type="int" >        2       11       21       22       22 </v>
    <v type="int" >        2       12       12       13       23 </v>
    <v type="int" >        2       12       12       22       23 </v>
    <v type="int" >        2       12       22       22       23 </v>
    <v type="int" >        2       12       13       13       23 </v>
    <v type="int" >        2       12       13       23       23 </v>
    <v type="int" >        2       12       22       23       23 </v>
    <v type="int" >        2       13       13       14       24 </v>
    <v type="int" >        2       13       13       23       24 </v>
    <v type="int" >        2       13       23       23       24 </v>
    <v type="int" >        2       13       14       14       24 </v>
    <v type="int" >        2       13       14       24       24 </v>
    <v type="int" >        2       13       23       24       24 </v>
    <v type="int" >        2       14       14       15       25 </v>
    <v type="int" >        2       14       14       24       25 </v>
    <v type="int" >        2       14       24       24       25 </v>
    <v type="int" >        2       14       15       15       25 </v>
    <v type="int" >        2       14       15       25       25 </v>
    <v type="int" >        2       14       24       25       25 </v>
    <v type="int" >        2       15       15       16       26 </v>
    <v type="int" >        2       15       15       25       26 </v>
    <v type="int" >        2       15       25       25       26 </v>
    <v type="int" >        2       15       16       16       26 </v>
    <v type="int" >        2       15       16       26       26 </v>
    <v type="int" >        2       15       25       26       26 </v>
    <v type="int" >        2        7       16       16       17 </v>
    <v type="int" >        2       16       16       17       26 </v>
    <v type="int" >        2       16       17       26       26 </v>
    <v type="int" >        2        7        7       16       17 </v>
    <v type="int" >        2        7       16       17       17 </v>
    <v type="int" >        2       16       17       17       26 </v>
    <v type="int" >        2       17       17       18       28 </v>
    <v type="int" >        2       17       17       27       28 </v>
    <v type="int" >        2       17       27       27       28 </v>
    <v type="int" >        2       17       18       18       28 </v>
    <v type="int" >        2       17       18       28       28 </v>
    <v type="int" >        2       17       27       28       28 </v>
    <v type="int" >        2       18       18       19       29 </v>
    <v type="int" >        2       18       18       28       29 </v>
    <v type="int" >        2       18       28       28       29 </v>
    <v type="int" >        2       18       19       19       29 </v>
    <v type="int" >        2       18       19       29       29 </v>
    <v type="int" >        2       18       28       29       29 </v>
    <v type="int" >        2       19       19       20       30 </v>
    <v type="int" >        2       19       19       29       30 </v>
    <v type="int" >        2       19       29       29       30 </v>
    <v type="int" >        2       19       20       20       30 </v>
    <v type="int" >        2       19       20       30       30 </v>
    <v type="int" >        2       19       29       30       30 </v>
    <v type="int" >        2       20       20       21       31 </v>
    <v type="int" >        2       20       20       30       31 </v>
    <v type="int" >        2       20       30       30       31 </v>
    <v type="int" >        2       20       21       21       31 </v>
    <v type="int" >        2       20       21       31       31 </v>
    <v type="int" >        2       20       30       31       31 </v>
    <v type="int" >        2       21       21       22       32 </v>
    <v type="int" >        2       21       21       31       32 </v>
    <v type="int" >        2       21       31       31       32 </v>
    <v type="int" >        2       21       22       22       32 </v>
    <v type="int" >        2       21       22       32       32 </v>
    <v type="int" >        2       21       31       32       32 </v>
    <v type="int" >        2       22       22       23       33 </v>
    <v type="int" >        2       22       22       32       33 </v>
    <v type="int" >        2       22       32       32       33 </v>
    <v type="int" >        2       22       23       23       33 </v>
    <v type="int" >        2       22       23       33       33 </v>
    <v type="int" >        2       22       32       33       33 </v>
    <v type="int" >        2       23       23       24       34 </v>
    <v type="int" >        2       23       23       33       34 </v>
    <v type="int" >        2       23       33       33       34 </v>
    <v type="int" >        2       23       24       24       34 </v>
    <v type="int" >        2       23       24       34       34 </v>
    <v type="int" >        2       23       33       34       34 </v>
    <v type="int" >        2       24       24       25       35 </v>
    <v type="int" >        2       24       24       34       35 </v>
    <v type="int" >        2       24       34       34       35 </v>
    <v type="int" >        2       24       25       25       35 </v>
    <v type="int" >        2       24       25       35       35 </v>
    <v type="int" >        2       24       34       35       35 </v>
    <v type="int" >        2       25       25       26       36 </v>
    <v type="int" >        2       25       25       35       36 </v>
    <v type="int" >        2       25       35       35       36 </v>
    <v type="int" >        2       25       26       26       36 </v>
    <v type="int" >        2       25       26       36       36 </v>
    <v type="int" >        2       25       35       36       36 </v>
    <v type="int" >        2       17       26       26       27 </v>
    <v type="int" >        2       26       26       27       36 </v>
    <v type="int" >        2       26       27       36       36 </v>
    <v type="int" >        2       17       17       26       27 </v>
    <v type="int" >        2       17       26       27       27 </v>
    <v type="int" >        2       26       27       27       36 </v>
    <v type="int" >        2       27       27       28       38 </v>
    <v type="int" >        2       27       27       37       38 </v>
    <v type="int" >        2       27       37       37       38 </v>
    <v type="int" >        2       27       28       28       38 </v>
    <v type="int" >        2       27       28       38       38 </v>
    <v type="int" >        2       27       37       38       38 </v>
    <v type="int" >        2       28       28       29       39 </v>
    <v type="int" >        2       28       28       38       39 </v>
    <v type="int" >        2       28       38       38       39 </v>
    <v type="int" >        2       28       29       29       39 </v>
    <v type="int" >        2       28       29       39       39 </v>
    <v type="int" >        2       28       38       39       39 </v>
    <v type="int" >        2       29       29       30       40 </v>
    <v type="int" >        2       29       29       39       40 </v>
    <v type="int" >        2       29       39       39       40 </v>
    <v type="int" >        2       29       30       30       40 </v>
    <v type="int" >        2       29       30       40       40 </v>
    <v type="int" >        2       29       39       40       40 </v>
    <v type="int" >        2       30       30       31       41 </v>
    <v type="int" >        2       30       30       40       41 </v>
    <v type="int" >        2       30       40       40       41 </v>
    <v type="int" >        2       30       31       31       41 </v>
    <v type="int" >        2       30       31       41       41 </v>
    <v type="int" >        2       30       40       41       41 </v>
    <v type="int" >        2       31       31       32       42 </v>
    <v type="int" >        2       31       31       41       42 </v>
    <v type="int" >        2       31       41       41       42 </v>
    <v type="int" >        2       31       32       32       42 </v>
    <v type="int" >        2       31       32       42       42 </v>
    <v type="int" >        2       31       41       42       42 </v>
    <v type="int" >        2       32       32       33       43 </v>
    <v type="int" >        2       32       32       42       43 </v>
    <v type="int" >        2       32       42       42       43 </v>
    <v type="int" >        2       32       33       33       43 </v>
    <v type="int" >        2       32       33       43       43 </v>
    <v type="int" >        2       32       42       43       43 </v>
    <v type="int" >        2       33       33       34       44 </v>
    <v type="int" >        2       33       33       43       44 </v>
    <v type="int" >        2       33       43       43       44 </v>
    <v type="int" >        2       33       34       34       44 </v>
    <v type="int" >        2       33       34       44       44 </v>
    <v type="int" >        2       33       43       44       44 </v>
    <v type="int" >        2       34       34       35       45 </v>
    <v type="int" >        2       34       34       44       45 </v>
    <v type="int" >        2       34       44       44       45 </v>
    <v type="int" >        2       34       35       35       45 </v>
    <v type="int" >        2       34       35       45       45 </v>
    <v type="int" >        2       34       44       45       45 </v>
    <v type="int" >        2       35       35       36       46 </v>
    <v type="int" >        2       35       35       45       46 </v>
    <v type="int" >        2       35       45       45       46 </v>
    <v type="int" >        2       35       36       36       46 </v>
    <v type="int" >        2       35       36       46       46 </v>
    <v type="int" >        2       35       45       46       46 </v>
    <v type="int" >        2       27       36       36       37 </v>
    <v type="int" >        2       36       36       37       46 </v>
    <v type="int" >        2       36       37       46       46 </v>
    <v type="int" >        2       27       27       36       37 </v>
    <v type="int" >        2       27       36       37       37 </v>
    <v type="int" >        2       36       37       37       46 </v>
    <v type="int" >        2       37       37       38       48 </v>
    <v type="int" >        2       37       37       47       48 </v>
    <v type="int" >        2       37       47       47       48 </v>
    <v type="int" >        2       37       38       38       48 </v>
    <v type="int" >        2       37       38       48       48 </v>
    <v type="int" >        2       37       47       48       48 </v>
    <v type="int" >        2       38       38       39       49 </v>
    <v type="int" >        2       38       38       48       49 </v>
    <v type="int" >        2       38       48       48       49 </v>
    <v type="int" >        2       38       39       39       49 </v>
    <v type="int" >        2       38       39       49       49 </v>
    <v type="int" >        2       38       48       49       49 </v>
    <v type="int" >        2       39       39       40       50 </v>
    <v type="int" >        2       39       39       49       50 </v>
    <v type="int" >        2       39       49       49       50 </v>
    <v type="int" >        2       39       40       40       50 </v>
    <v type="int" >        2       39       40       50       50 </v>
    <v type="int" >        2       39       49       50       50 </v>
    <v type="int" >        2       40       40       41       51 </v>
    <v type="int" >        2       40       40       50       51 </v>
    <v type="int" >        2       40       50       50       51 </v>
    <v type="int" >        2       40       41       41       51 </v>
    <v type="int" >        2       40       41       51       51 </v>
    <v type="int" >        2       40       50       51       51 </v>
    <v type="int" >        2       41       41       42       52 </v>
    <v type="int" >        2       41       41       51       52 </v>
    <v type="int" >        2       41       51       51       52 </v>
    <v type="int" >        2       41       42       42       52 </v>
    <v type="int" >        2       41       42       52       52 </v>
    <v type="int" >        2       41       51       52       52 </v>
    <v type="int" >        2       42       42       43       51 </v>
    <v type="int" >        2       42       42       51       52 </v>
    <v type="int" >        2       42       51       52       52 </v>
    <v type="int" >        2       42       43       43       51 </v>
    <v type="int" >        2       42       43       51       51 </v>
    <v type="int" >        2       42       51       51       52 </v>
    <v type="int" >        2       43       43       44       50 </v>
    <v type="int" >        2       43       43       50       51 </v>
    <v type="int" >        2       43       50       51       51 </v>
    <v type="int" >        2       43       44       44       50 </v>
    <v type="int" >        2       43       44       50       50 </v>
    <v type="int" >        2       43       50       50       51 </v>
    <v type="int" >        2       44       44       45       49 </v>
    <v type="int" >        2       44       44       49       50 </v>
    <v type="int" >        2       44       49       50       50 </v>
    <v type="int" >        2       44       45       45       49 </v>
    <v type="int" >        2       44       45       49       49 </v>
    <v type="int" >        2       44       49       49       50 </v>
    <v type="int" >        2       45       45       46       48 </v>
    <v type="int" >        2       45       45       48       49 </v>
    <v type="int" >        2       45       48       49       49 </v>
    <v type="int" >        2       45       46       46       48 </v>
    <v type="int" >        2       45       46       48       48 </v>
    <v type="int" >        2       45       48       48       49 </v>
    <v type="int" >        2       37       46       46       47 </v>
    <v type="int" >        2       46       46       47       48 </v>
    <v type="int" >        2       46       47       48       48 </v>
    <v type="int" >        2       37       37       46       47 </v>
    <v type="int" >        2       37       46       47       47 </v>
    <v type="int" >        2       46       47       47       48 </v>
   </varray>
   <i name="volumeweight">      0.00166667 </i>
  </kpoints>
  <time name="totalsc">   45.53   45.63</time>
 </calculation>
 <calculation>
  <scstep>
   <time name="dav">    6.54    6.54</time>
   <time name="total">    7.15    7.15</time>
   <energy>
    <i name="alphaZ">    120.87645803 </i>
    <i name="ewald">  37789.27832360 </i>
    <i name="hartreedc"> -42857.70698895 </i>
    <i name="XCdc">    173.48117023 </i>
    <i name="pawpsdc">   4383.53779063 </i>
    <i name="pawaedc">  -4962.35492491 </i>
    <i name="eentropy">      0.00000000 </i>
    <i name="bandstr">   -240.95798822 </i>
    <i name="atom">   5576.39375050 </i>
    <i name="e_fr_energy">    -17.45240909 </i>
    <i name="e_wo_entrp">    -17.45240909 </i>
    <i name="e_0_energy">    -17.45240909 </i>
   </energy>
  </scstep>
  <scstep>
   <time name="diag">    1.22    1.22</time>
   <time name="diis">    4.25    4.25</time>
   <time name="orth">    0.06    0.06</time>
   <time name="total">    6.17    6.17</time>
   <energy>
    <i name="e_fr_energy">    -17.45506542 </i>
    <i name="e_wo_entrp">    -17.45506542 </i>
    <i name="e_0_energy">    -17.45506542 </i>
   </energy>
  </scstep>
  <scstep>
   <time name="diag">    1.22    1.22</time>
   <time name="diis">    4.25    4.25</time>
   <time name="orth">    0.06    0.06</time>
   <time name="total">    6.17    6.17</time>
   <energy>
    <i name="e_fr_energy">    -17.45649791 </i>
    <i name="e_wo_entrp">    -17.45649791 </i>
    <i name="e_0_energy">    -17.45649791 </i>
   </energy>
  </scstep>
  <scstep>
   <time name="diag">    1.22    1.22</time>
   <time name="diis">    4.28    4.28</time>
   <time name="orth">    0.06    0.06</time>
   <time name="total">    6.20    6.20</time>
   <energy>
    <i name="e_fr_energy">    -17.45432229 </i>
    <i name="e_wo_entrp">    -17.45432229 </i>
    <i name="e_0_energy">    -17.45432229 </i>
   </energy>
  </scstep>
  <scstep>
   <time name="diag">    1.21    1.22</time>
   <time name="diis">    4.23    4.23</time>
   <time name="orth">    0.06    0.06</time>
   <time name="total">    6.15    6.15</time>
   <energy>
    <i name="e_fr_energy">    -17.45413396 </i>
    <i name="e_wo_entrp">    -17.45413396 </i>
    <i name="e_0_energy">    -17.45413396 </i>
   </energy>
  </scstep>
  <scstep>
   <time name="diag">    1.22    1.22</time>
   <time name="diis">    4.21    4.20</time>
   <time name="orth">    0.06    0.06</time>
   <time name="total">    6.13    6.14</time>
   <energy>
    <i name="e_fr_energy">    -17.45421498 </i>
    <i name="e_wo_entrp">    -17.45421498 </i>
    <i name="e_0_energy">    -17.45421498 </i>
   </energy>
  </scstep>
  <scstep>
   <time name="diag">    1.22    1.22</time>
   <time name="diis">    3.12    3.12</time>
   <time name="orth">    0.06    0.06</time>
   <time name="total">    5.05    5.05</time>
   <energy>
    <i name="e_fr_energy">    -17.45419189 </i>
    <i name="e_wo_entrp">    -17.45419189 </i>
    <i name="e_0_energy">    -17.45419189 </i>
   </energy>
  </scstep>
  <scstep>
   <time name="diag">    1.22    1.22</time>
   <time name="diis">    2.74    2.74</time>
   <time name="orth">    0.06    0.06</time>
   <time name="total">    4.67    4.67</time>
   <energy>
    <i name="e_fr_energy">    -17.45419875 </i>
    <i name="e_wo_entrp">    -17.45419875 </i>
    <i name="e_0_energy">    -17.45419875 </i>
   </energy>
  </scstep>
  <scstep>
   <time name="diag">    1.22    1.22</time>
   <time name="diis">    2.73    2.73</time>
   <time name="orth">    0.06    0.06</time>
   <time name="total">    4.66    4.66</time>
   <energy>
    <i name="e_fr_energy">    -17.45420249 </i>
    <i name="e_wo_entrp">    -17.45420249 </i>
    <i name="e_0_energy">    -17.45420249 </i>
   </energy>
  </scstep>
  <scstep>
   <time name="diag">    1.22    1.22</time>
   <time name="diis">    2.52    2.52</time>
   <time name="orth">    0.06    0.06</time>
   <time name="total">    3.91    3.92</time>
   <energy>
    <i name="alphaZ">    120.87645803 </i>
    <i name="ewald">  37789.27832360 </i>
    <i name="hartreedc"> -42857.64737268 </i>
    <i name="XCdc">    173.48406372 </i>
    <i name="pawpsdc">   4384.08624400 </i>
    <i name="pawaedc">  -4962.91799257 </i>
    <i name="eentropy">      0.00000000 </i>
    <i name="bandstr">   -241.00767635 </i>
    <i name="atom">   5576.39375050 </i>
    <i name="e_fr_energy">    -17.45420175 </i>
    <i name="e_wo_entrp">    -17.45420175 </i>
    <i name="e_0_energy">    -17.45420175 </i>
   </energy>
  </scstep>
  <structure>
   <crystal>
    <varray name="basis" >
     <v>       2.57386868       0.00000000       0.00000000 </v>
     <v>       1.28693434       2.22903567       0.00000000 </v>
     <v>       0.00000000       0.00000000      30.30466494 </v>
    </varray>
    <i name="volume">    173.86529028 </i>
    <varray name="rec_basis" >
     <v>       0.38852021      -0.22431225       0.00000000 </v>
     <v>       0.00000000       0.44862450       0.00000000 </v>
     <v>       0.00000000       0.00000000       0.03299822 </v>
    </varray>
   </crystal>
   <varray name="positions" >
    <v>       0.00000000       0.00000000       0.39644015 </v>
    <v>       0.33333333       0.33333333       0.46515176 </v>
    <v>       0.66666667       0.66666667       0.53391621 </v>
    <v>       0.00000000       0.00000000       0.60674401 </v>
    <v>       0.70551869       0.66666667       0.63476745 </v>
   </varray>
  </structure>
  <varray name="forces" >
   <v>       0.00023713       0.00004766       0.04104378 </v>
   <v>       0.00034428       0.00003600      -0.01720333 </v>
   <v>       0.00625637       0.00012543       0.07237093 </v>
   <v>       0.35061206       0.06010636      -0.07551372 </v>
   <v>      -0.35744984      -0.06031546      -0.02069766 </v>
  </varray>
  <varray name="stress" >
   <v>      -2.43632277       1.41522796      -2.94703499 </v>
   <v>       1.41522778      -2.73409752      -0.47603643 </v>
   <v>      -2.94703492      -0.47603633      -3.55581778 </v>
  </varray>
  <energy>
   <i name="e_fr_energy">    -17.45420175 </i>
   <i name="e_wo_entrp">    -17.45420175 </i>
   <i name="e_0_energy">      0.00000000 </i>
  </energy>
  <kpoints>
   <generation param="Gamma">
    <v type="int" name="divisions">      10       10        1 </v>
    <v name="usershift">      0.00000000       0.00000000       0.00000000 </v>
    <v name="genvec1">      0.10000000       0.00000000       0.00000000 </v>
    <v name="genvec2">      0.00000000       0.10000000       0.00000000 </v>
    <v name="genvec3">      0.00000000       0.00000000       1.00000000 </v>
    <v name="shift">      0.00000000       0.00000000       0.00000000 </v>
   </generation>
   <varray name="kpointlist" >
    <v>       0.00000000       0.00000000       0.00000000 </v>
    <v>       0.10000000       0.00000000       0.00000000 </v>
    <v>       0.20000000      -0.00000000       0.00000000 </v>
    <v>       0.30000000      -0.00000000       0.00000000 </v>
    <v>       0.40000000      -0.00000000       0.00000000 </v>
    <v>       0.50000000      -0.00000000       0.00000000 </v>
    <v>       0.00000000       0.10000000       0.00000000 </v>
    <v>       0.10000000       0.10000000       0.00000000 </v>
    <v>       0.20000000       0.10000000       0.00000000 </v>
    <v>       0.30000000       0.10000000       0.00000000 </v>
    <v>       0.40000000       0.10000000       0.00000000 </v>
    <v>       0.50000000       0.10000000       0.00000000 </v>
    <v>      -0.40000000       0.10000000       0.00000000 </v>
    <v>      -0.30000000       0.10000000       0.00000000 </v>
    <v>      -0.20000000       0.10000000       0.00000000 </v>
    <v>      -0.10000000       0.10000000       0.00000000 </v>
    <v>       0.00000000       0.20000000       0.00000000 </v>
    <v>       0.10000000       0.20000000       0.00000000 </v>
    <v>       0.20000000       0.20000000       0.00000000 </v>
    <v>       0.30000000       0.20000000       0.00000000 </v>
    <v>       0.40000000       0.20000000       0.00000000 </v>
    <v>       0.50000000       0.20000000       0.00000000 </v>
    <v>      -0.40000000       0.20000000       0.00000000 </v>
    <v>      -0.30000000       0.20000000       0.00000000 </v>
    <v>      -0.20000000       0.20000000       0.00000000 </v>
    <v>      -0.10000000       0.20000000       0.00000000 </v>
    <v>       0.00000000       0.30000000       0.00000000 </v>
    <v>       0.10000000       0.30000000       0.00000000 </v>
    <v>       0.20000000       0.30000000       0.00000000 </v>
    <v>       0.30000000       0.30000000       0.00000000 </v>
    <v>       0.40000000       0.30000000       0.00000000 </v>
    <v>       0.50000000       0.30000000       0.00000000 </v>
    <v>      -0.40000000       0.30000000       0.00000000 </v>
    <v>      -0.30000000       0.30000000       0.00000000 </v>
    <v>      -0.20000000       0.30000000       0.00000000 </v>
    <v>      -0.10000000       0.30000000       0.00000000 </v>
    <v>       0.00000000       0.40000000       0.00000000 </v>
    <v>       0.10000000       0.40000000       0.00000000 </v>
    <v>       0.20000000       0.40000000       0.00000000 </v>
    <v>       0.30000000       0.40000000       0.00000000 </v>
    <v>       0.40000000       0.40000000       0.00000000 </v>
    <v>       0.50000000       0.40000000       0.00000000 </v>
    <v>      -0.40000000       0.40000000       0.00000000 </v>
    <v>      -0.30000000       0.40000000       0.00000000 </v>
    <v>      -0.20000000       0.40000000       0.00000000 </v>
    <v>      -0.10000000       0.40000000       0.00000000 </v>
    <v>       0.00000000       0.50000000       0.00000000 </v>
    <v>       0.10000000       0.50000000       0.00000000 </v>
    <v>       0.20000000       0.50000000       0.00000000 </v>
    <v>       0.30000000       0.50000000       0.00000000 </v>
    <v>       0.40000000       0.50000000       0.00000000 </v>
    <v>       0.50000000       0.50000000       0.00000000 </v>
   </varray>
   <varray name="weights" >
    <v>       0.01000000 </v>
    <v>       0.02000000 </v>
    <v>       0.02000000 </v>
    <v>       0.02000000 </v>
    <v>       0.02000000 </v>
    <v>       0.01000000 </v>
    <v>       0.02000000 </v>
    <v>       0.02000000 </v>
    <v>       0.02000000 </v>
    <v>       0.02000000 </v>
    <v>       0.02000000 </v>
    <v>       0.02000000 </v>
    <v>       0.02000000 </v>
    <v>       0.02000000 </v>
    <v>       0.02000000 </v>
    <v>       0.02000000 </v>
    <v>       0.02000000 </v>
    <v>       0.02000000 </v>
    <v>       0.02000000 </v>
    <v>       0.02000000 </v>
    <v>       0.02000000 </v>
    <v>       0.02000000 </v>
    <v>       0.02000000 </v>
    <v>       0.02000000 </v>
    <v>       0.02000000 </v>
    <v>       0.02000000 </v>
    <v>       0.02000000 </v>
    <v>       0.02000000 </v>
    <v>       0.02000000 </v>
    <v>       0.02000000 </v>
    <v>       0.02000000 </v>
    <v>       0.02000000 </v>
    <v>       0.02000000 </v>
    <v>       0.02000000 </v>
    <v>       0.02000000 </v>
    <v>       0.02000000 </v>
    <v>       0.02000000 </v>
    <v>       0.02000000 </v>
    <v>       0.02000000 </v>
    <v>       0.02000000 </v>
    <v>       0.02000000 </v>
    <v>       0.02000000 </v>
    <v>       0.02000000 </v>
    <v>       0.02000000 </v>
    <v>       0.02000000 </v>
    <v>       0.02000000 </v>
    <v>       0.01000000 </v>
    <v>       0.02000000 </v>
    <v>       0.02000000 </v>
    <v>       0.02000000 </v>
    <v>       0.02000000 </v>
    <v>       0.01000000 </v>
   </varray>
   <varray name="tetrahedronlist"  type="int" >
    <v type="int" >        2        1        1        2        8 </v>
    <v type="int" >        2        1        1        7        8 </v>
    <v type="int" >        2        1        7        7        8 </v>
    <v type="int" >        2        1        2        2        8 </v>
    <v type="int" >        2        1        2        8        8 </v>
    <v type="int" >        2        1        7        8        8 </v>
    <v type="int" >        2        2        2        3        9 </v>
    <v type="int" >        2        2        2        8        9 </v>
    <v type="int" >        2        2        8        8        9 </v>
    <v type="int" >        2        2        3        3        9 </v>
    <v type="int" >        2        2        3        9        9 </v>
    <v type="int" >        2        2        8        9        9 </v>
    <v type="int" >        2        3        3        4       10 </v>
    <v type="int" >        2        3        3        9       10 </v>
    <v type="int" >        2        3        9        9       10 </v>
    <v type="int" >        2        3        4        4       10 </v>
    <v type="int" >        2        3        4       10       10 </v>
    <v type="int" >        2        3        9       10       10 </v>
    <v type="int" >        2        4        4        5       11 </v>
    <v type="int" >        2        4        4       10       11 </v>
    <v type="int" >        2        4       10       10       11 </v>
    <v type="int" >        2        4        5        5       11 </v>
    <v type="int" >        2        4        5       11       11 </v>
    <v type="int" >        2        4       10       11       11 </v>
    <v type="int" >        2        5        5        6       12 </v>
    <v type="int" >        2        5        5       11       12 </v>
    <v type="int" >        2        5       11       11       12 </v>
    <v type="int" >        2        5        6        6       12 </v>
    <v type="int" >        2        5        6       12       12 </v>
    <v type="int" >        2        5       11       12       12 </v>
    <v type="int" >        2        5        6        6       13 </v>
    <v type="int" >        2        6        6       12       13 </v>
    <v type="int" >        2        6       12       12       13 </v>
    <v type="int" >        2        5        5        6       13 </v>
    <v type="int" >        2        5        6       13       13 </v>
    <v type="int" >        2        6       12       13       13 </v>
    <v type="int" >        2        4        5        5       14 </v>
    <v type="int" >        2        5        5       13       14 </v>
    <v type="int" >        2        5       13       13       14 </v>
    <v type="int" >        2        4        4        5       14 </v>
    <v type="int" >        2        4        5       14       14 </v>
    <v type="int" >        2        5       13       14       14 </v>
    <v type="int" >        2        3        4        4       15 </v>
    <v type="int" >        2        4        4       14       15 </v>
    <v type="int" >        2        4       14       14       15 </v>
    <v type="int" >        2        3        3        4       15 </v>
    <v type="int" >        2        3        4       15       15 </v>
    <v type="int" >        2        4       14       15       15 </v>
    <v type="int" >        2        2        3        3       16 </v>
    <v type="int" >        2        3        3       15       16 </v>
    <v type="int" >        2        3       15       15       16 </v>
    <v type="int" >        2        2        2        3       16 </v>
    <v type="int" >        2        2        3       16       16 </v>
    <v type="int" >        2        3       15       16       16 </v>
    <v type="int" >        2        1        2        2        7 </v>
    <v type="int" >        2        2        2        7       16 </v>
    <v type="int" >        2        2        7       16       16 </v>
    <v type="int" >        2        1        1        2        7 </v>
    <v type="int" >        2        1        2        7        7 </v>
    <v type="int" >        2        2        7        7       16 </v>
    <v type="int" >        2        7        7        8       18 </v>
    <v type="int" >        2        7        7       17       18 </v>
    <v type="int" >        2        7       17       17       18 </v>
    <v type="int" >        2        7        8        8       18 </v>
    <v type="int" >        2        7        8       18       18 </v>
    <v type="int" >        2        7       17       18       18 </v>
    <v type="int" >        2        8        8        9       19 </v>
    <v type="int" >        2        8        8       18       19 </v>
    <v type="int" >        2        8       18       18       19 </v>
    <v type="int" >        2        8        9        9       19 </v>
    <v type="int" >        2        8        9       19       19 </v>
    <v type="int" >        2        8       18       19       19 </v>
    <v type="int" >        2        9        9       10       20 </v>
    <v type="int" >        2        9        9       19       20 </v>
    <v type="int" >        2        9       19       19       20 </v>
    <v type="int" >        2        9       10       10       20 </v>
    <v type="int" >        2        9       10       20       20 </v>
    <v type="int" >        2        9       19       20       20 </v>
    <v type="int" >        2       10       10       11       21 </v>
    <v type="int" >        2       10       10       20       21 </v>
    <v type="int" >        2       10       20       20       21 </v>
    <v type="int" >        2       10       11       11       21 </v>
    <v type="int" >        2       10       11       21       21 </v>
    <v type="int" >        2       10       20       21       21 </v>
    <v type="int" >        2       11       11       12       22 </v>
    <v type="int" >        2       11       11       21       22 </v>
    <v type="int" >        2       11       21       21       22 </v>
    <v type="int" >        2       11       12       12       22 </v>
    <v type="int" >        2       11       12       22       22 </v>
    <v type="int" >        2       11       21       22       22 </v>
    <v type="int" >        2       12       12       13       23 </v>
    <v type="int" >        2       12       12       22       23 </v>
    <v type="int" >        2       12       22       22       23 </v>
    <v type="int" >        2       12       13       13       23 </v>
    <v type="int" >        2       12       13       23       23 </v>
    <v type="int" >        2       12       22       23       23 </v>
    <v type="int" >        2       13       13       14       24 </v>
    <v type="int" >        2       13       13       23       24 </v>
    <v type="int" >        2       13       23       23       24 </v>
    <v type="int" >        2       13       14       14       24 </v>
    <v type="int" >        2       13       14       24       24 </v>
    <v type="int" >        2       13       23       24       24 </v>
    <v type="int" >        2       14       14       15       25 </v>
    <v type="int" >        2       14       14       24       25 </v>
[...]
       <r>   -2.7963    0.8591 </r>
       <r>   -0.7503    0.0000 </r>
       <r>    1.8737    0.0000 </r>
       <r>    4.6638    0.0000 </r>
       <r>    5.1717    0.0000 </r>
       <r>    5.8676    0.0000 </r>
      </set>
      <set comment="kpoint 12">
       <r>   -8.5916    1.0000 </r>
       <r>   -6.7980    1.0000 </r>
       <r>   -6.5882    1.0000 </r>
       <r>   -6.3449    1.0000 </r>
       <r>   -6.1646    1.0000 </r>
       <r>   -6.0451    1.0000 </r>
       <r>   -5.9017    1.0000 </r>
       <r>   -5.7275    1.0000 </r>
       <r>   -5.5429    1.0000 </r>
       <r>   -5.4455    1.0000 </r>
       <r>   -5.3268    1.0000 </r>
       <r>   -5.0151    1.0000 </r>
       <r>   -4.9405    1.0000 </r>
       <r>   -4.7892    1.0000 </r>
       <r>   -4.5982    1.0000 </r>
       <r>   -4.4725    1.0000 </r>
       <r>   -4.3181    1.0000 </r>
       <r>   -4.1370    1.0000 </r>
       <r>   -3.9602    1.0000 </r>
       <r>   -3.8184    1.0000 </r>
       <r>   -3.1732    1.0503 </r>
       <r>   -2.3204    0.6018 </r>
       <r>   -1.1952   -0.0344 </r>
       <r>    0.9168    0.0000 </r>
       <r>    2.9382    0.0000 </r>
       <r>    3.2451    0.0000 </r>
       <r>    4.0233    0.0000 </r>
       <r>    5.1809    0.0000 </r>
      </set>
      <set comment="kpoint 13">
       <r>   -8.4215    1.0000 </r>
       <r>   -6.5756    1.0000 </r>
       <r>   -6.5101    1.0000 </r>
       <r>   -6.2470    1.0000 </r>
       <r>   -6.1679    1.0000 </r>
       <r>   -6.0652    1.0000 </r>
       <r>   -5.9114    1.0000 </r>
       <r>   -5.7618    1.0000 </r>
       <r>   -5.5151    1.0000 </r>
       <r>   -5.3840    1.0000 </r>
       <r>   -5.2601    1.0000 </r>
       <r>   -5.0594    1.0000 </r>
       <r>   -4.8835    1.0000 </r>
       <r>   -4.6576    1.0000 </r>
       <r>   -4.5071    1.0000 </r>
       <r>   -4.4392    1.0000 </r>
       <r>   -4.2121    1.0000 </r>
       <r>   -4.0358    1.0000 </r>
       <r>   -3.9909    1.0000 </r>
       <r>   -3.8856    1.0000 </r>
       <r>   -2.3544    0.7811 </r>
       <r>   -0.7136   -0.2226 </r>
       <r>   -0.1734    0.0000 </r>
       <r>    0.5843    0.0000 </r>
       <r>    1.9437    0.0000 </r>
       <r>    2.2913    0.0000 </r>
       <r>    3.5808    0.0000 </r>
       <r>    4.6838    0.0000 </r>
      </set>
      <set comment="kpoint 14">
       <r>   -8.3297    1.0000 </r>
       <r>   -6.3296    1.0000 </r>
       <r>   -6.2721    1.0000 </r>
       <r>   -6.2039    1.0000 </r>
       <r>   -6.0603    1.0000 </r>
       <r>   -5.9538    1.0000 </r>
       <r>   -5.9062    1.0000 </r>
       <r>   -5.8309    1.0000 </r>
       <r>   -5.6983    1.0000 </r>
       <r>   -5.5298    1.0000 </r>
       <r>   -5.3788    1.0000 </r>
       <r>   -4.9994    1.0000 </r>
       <r>   -4.9501    1.0000 </r>
       <r>   -4.8238    1.0000 </r>
       <r>   -4.6197    1.0000 </r>
       <r>   -4.4565    1.0000 </r>
       <r>   -4.3833    1.0000 </r>
       <r>   -4.0818    1.0000 </r>
       <r>   -3.9974    1.0000 </r>
       <r>   -3.9104    1.0000 </r>
       <r>   -1.8877    0.1728 </r>
       <r>   -0.3684   -0.0766 </r>
       <r>    0.7533    0.0000 </r>
       <r>    1.9903    0.0000 </r>
       <r>    2.3889    0.0000 </r>
       <r>    2.9203    0.0000 </r>
       <r>    3.1397    0.0000 </r>
       <r>    4.0823    0.0000 </r>
      </set>
     </set>
    </set>
   </array>
  </eigenvalues>
  <separator name="orbital magnetization" >
   <v name="MAGDIPOLOUT">      0.00000000      0.00000000      0.00000000</v>
  </separator>
  <dos>
   <i name="efermi">     -2.27383756 </i>
   <total>
    <array>
     <dimension dim="1">gridpoints</dimension>
     <dimension dim="2">spin</dimension>
     <field>energy</field>
     <field>total</field>
     <field>integrated</field>
     <set>
      <set comment="spin 1">
       <r>   -14.0005     0.0000     0.0000 </r>
       <r>   -13.9276     0.0000     0.0000 </r>
       <r>   -13.8547     0.0000     0.0000 </r>
       <r>   -13.7818     0.0000     0.0000 </r>
       <r>   -13.7089     0.0000     0.0000 </r>
       <r>   -13.6360     0.0000     0.0000 </r>
       <r>   -13.5631     0.0000     0.0000 </r>
       <r>   -13.4902     0.0000     0.0000 </r>
       <r>   -13.4173     0.0000     0.0000 </r>
       <r>   -13.3444     0.0000     0.0000 </r>
       <r>   -13.2715     0.0000     0.0000 </r>
       <r>   -13.1986     0.0000     0.0000 </r>
       <r>   -13.1258     0.0000     0.0000 </r>
       <r>   -13.0529     0.0000     0.0000 </r>
       <r>   -12.9800     0.0000     0.0000 </r>
       <r>   -12.9071     0.0000     0.0000 </r>
       <r>   -12.8342     0.0000     0.0000 </r>
       <r>   -12.7613     0.0000     0.0000 </r>
       <r>   -12.6884     0.0000     0.0000 </r>
       <r>   -12.6155     0.0000     0.0000 </r>
       <r>   -12.5426     0.0000     0.0000 </r>
       <r>   -12.4697     0.0000     0.0000 </r>
       <r>   -12.3968     0.0000     0.0000 </r>
       <r>   -12.3239     0.0000     0.0000 </r>
       <r>   -12.2510     0.0000     0.0000 </r>
       <r>   -12.1781     0.0000     0.0000 </r>
       <r>   -12.1052     0.0000     0.0000 </r>
       <r>   -12.0323     0.0000     0.0000 </r>
       <r>   -11.9595     0.0583     0.0012 </r>
       <r>   -11.8866     0.1619     0.0092 </r>
       <r>   -11.8137     0.2655     0.0248 </r>
       <r>   -11.7408     0.3690     0.0479 </r>
       <r>   -11.6679     0.2212     0.0692 </r>
       <r>   -11.5950     0.2313     0.0857 </r>
       <r>   -11.5221     0.2414     0.1029 </r>
       <r>   -11.4492     0.2515     0.1209 </r>
       <r>   -11.3763     0.2616     0.1396 </r>
       <r>   -11.3034     0.2718     0.1590 </r>
       <r>   -11.2305     0.2819     0.1792 </r>
       <r>   -11.1576     0.2920     0.2001 </r>
       <r>   -11.0847     0.2880     0.2213 </r>
       <r>   -11.0118     0.2830     0.2421 </r>
       <r>   -10.9389     0.2781     0.2625 </r>
       <r>   -10.8660     0.2767     0.2827 </r>
       <r>   -10.7932     0.2827     0.3030 </r>
       <r>   -10.7203     0.3111     0.3241 </r>
       <r>   -10.6474     0.4131     0.3505 </r>
       <r>   -10.5745     0.5151     0.3843 </r>
       <r>   -10.5016     0.6171     0.4256 </r>
       <r>   -10.4287     0.5196     0.4730 </r>
       <r>   -10.3558     0.5348     0.5114 </r>
       <r>   -10.2829     0.5500     0.5509 </r>
       <r>   -10.2100     0.5652     0.5916 </r>
       <r>   -10.1371     0.5898     0.6335 </r>
       <r>   -10.0642     0.6110     0.6773 </r>
       <r>    -9.9913     0.6321     0.7226 </r>
       <r>    -9.9184     0.6533     0.7695 </r>
       <r>    -9.8455     0.6730     0.8178 </r>
       <r>    -9.7726     0.6790     0.8671 </r>
       <r>    -9.6997     0.6864     0.9169 </r>
       <r>    -9.6269     0.6939     0.9672 </r>
       <r>    -9.5540     0.7048     1.0181 </r>
       <r>    -9.4811     0.7235     1.0701 </r>
       <r>    -9.4082     0.7421     1.1236 </r>
       <r>    -9.3353     0.7608     1.1783 </r>
       <r>    -9.2624     0.7795     1.2345 </r>
       <r>    -9.1895     0.8675     1.2934 </r>
       <r>    -9.1166     1.0012     1.3617 </r>
       <r>    -9.0437     1.1082     1.4386 </r>
       <r>    -8.9708     1.3067     1.5258 </r>
       <r>    -8.8979     1.5482     1.6295 </r>
       <r>    -8.8250     1.8546     1.7535 </r>
       <r>    -8.7521     1.9476     1.8987 </r>
       <r>    -8.6792     2.1486     2.0479 </r>
       <r>    -8.6063     2.1408     2.2444 </r>
       <r>    -8.5334     2.2720     2.4173 </r>
       <r>    -8.4606     1.9179     2.5700 </r>
       <r>    -8.3877     1.8227     2.7013 </r>
       <r>    -8.3148     0.6838     2.8419 </r>
       <r>    -8.2419     0.7053     2.8926 </r>
       <r>    -8.1690     0.7226     2.9446 </r>
       <r>    -8.0961     0.7399     2.9979 </r>
       <r>    -8.0232     0.7604     3.0525 </r>
       <r>    -7.9503     0.7859     3.1089 </r>
       <r>    -7.8774     0.8115     3.1671 </r>
       <r>    -7.8045     0.8370     3.2272 </r>
       <r>    -7.7316     0.8626     3.2891 </r>
       <r>    -7.6587     0.9188     3.3536 </r>
       <r>    -7.5858     0.9947     3.4234 </r>
       <r>    -7.5129     1.0675     3.4985 </r>
       <r>    -7.4400     1.3928     3.5889 </r>
       <r>    -7.3672     1.7050     3.7018 </r>
       <r>    -7.2943     2.0394     3.8379 </r>
       <r>    -7.2214     2.0593     3.9839 </r>
       <r>    -7.1485     2.2721     4.1418 </r>
       <r>    -7.0756     2.4848     4.3152 </r>
       <r>    -7.0027     2.9747     4.5074 </r>
       <r>    -6.9298     3.6119     4.7647 </r>
       <r>    -6.8569     4.2442     5.0608 </r>
       <r>    -6.7840     3.2403     5.3579 </r>
       <r>    -6.7111     3.1668     5.5912 </r>
       <r>    -6.6382     3.1045     5.8198 </r>
       <r>    -6.5653     3.0329     6.0441 </r>
       <r>    -6.4924    14.0642     6.5144 </r>
       <r>    -6.4195     9.0765     7.3240 </r>
       <r>    -6.3466     6.9600     7.8881 </r>
       <r>    -6.2737     7.7344     8.3688 </r>
       <r>    -6.2009     8.4556     9.1077 </r>
       <r>    -6.1280    14.2473     9.9364 </r>
       <r>    -6.0551     6.7855    10.7072 </r>
       <r>    -5.9822     6.5285    11.3122 </r>
       <r>    -5.9093    30.7297    12.1482 </r>
       <r>    -5.8364     6.6315    13.1031 </r>
       <r>    -5.7635    10.5753    13.7507 </r>
       <r>    -5.6906     8.2146    14.4525 </r>
       <r>    -5.6177     9.4181    15.0952 </r>
       <r>    -5.5448    29.3351    15.8239 </r>
       <r>    -5.4719     9.8329    16.9888 </r>
       <r>    -5.3990     9.2817    17.7431 </r>
       <r>    -5.3261    12.8283    18.4573 </r>
       <r>    -5.2532    20.2846    19.6416 </r>
       <r>    -5.1803    17.4140    21.4787 </r>
       <r>    -5.1074    17.6821    22.3748 </r>
       <r>    -5.0346    22.0994    23.2913 </r>
       <r>    -4.9617    11.8072    24.7598 </r>
       <r>    -4.8888    11.3252    26.1036 </r>
       <r>    -4.8159    18.0138    27.2181 </r>
       <r>    -4.7430    16.7977    28.2522 </r>
       <r>    -4.6701    10.0502    29.0744 </r>
       <r>    -4.5972    14.5630    29.9303 </r>
       <r>    -4.5243    11.7471    30.8619 </r>
       <r>    -4.4514    25.2918    32.1762 </r>
       <r>    -4.3785    11.8267    33.3714 </r>
       <r>    -4.3056    11.6093    34.5282 </r>
       <r>    -4.2327    15.9855    35.4446 </r>
       <r>    -4.1598    13.1462    36.5588 </r>
       <r>    -4.0869    13.3221    37.5576 </r>
       <r>    -4.0140    14.6115    38.6526 </r>
       <r>    -3.9411    11.8498    40.0803 </r>
       <r>    -3.8683    12.5230    41.1510 </r>
       <r>    -3.7954     5.1159    41.9608 </r>
       <r>    -3.7225     4.2507    42.2984 </r>
       <r>    -3.6496     3.5455    42.5829 </r>
       <r>    -3.5767     3.2524    42.8307 </r>
       <r>    -3.5038     2.2845    43.0282 </r>
       <r>    -3.4309     2.1630    43.1895 </r>
       <r>    -3.3580     1.7249    43.3229 </r>
       <r>    -3.2851     1.6865    43.4473 </r>
       <r>    -3.2122     1.6481    43.5688 </r>
       <r>    -3.1393     1.5506    43.6852 </r>
       <r>    -3.0664     1.5556    43.7984 </r>
       <r>    -2.9935     1.5543    43.9118 </r>
       <r>    -2.9206     1.5499    44.0250 </r>
       <r>    -2.8477     1.5472    44.1378 </r>
       <r>    -2.7748     1.4238    44.2480 </r>
       <r>    -2.7020     1.4225    44.3517 </r>
       <r>    -2.6291     1.4211    44.4553 </r>
       <r>    -2.5562     1.4198    44.5589 </r>
       <r>    -2.4833     1.4266    44.6624 </r>
       <r>    -2.4104     1.4453    44.7671 </r>
       <r>    -2.3375     1.4692    44.8732 </r>
       <r>    -2.2646     2.0899    45.0199 </r>
       <r>    -2.1917     1.3421    45.1387 </r>
       <r>    -2.1188     1.3165    45.2356 </r>
       <r>    -2.0459     1.3311    45.3321 </r>
       <r>    -1.9730     1.3169    45.4282 </r>
       <r>    -1.9001     1.3252    45.5245 </r>
       <r>    -1.8272     1.0716    45.6257 </r>
       <r>    -1.7543     1.0742    45.7039 </r>
       <r>    -1.6814     1.0768    45.7823 </r>
       <r>    -1.6085     1.0794    45.8609 </r>
       <r>    -1.5357     1.0874    45.9399 </r>
       <r>    -1.4628     1.0958    46.0194 </r>
       <r>    -1.3899     1.1042    46.0996 </r>
       <r>    -1.3170     1.0122    46.2367 </r>
       <r>    -1.2441     1.0326    46.3112 </r>
       <r>    -1.1712     1.0273    46.3868 </r>
       <r>    -1.0983     1.0114    46.4611 </r>
       <r>    -1.0254     0.9956    46.5342 </r>
       <r>    -0.9525     0.9798    46.6062 </r>
       <r>    -0.8796     0.9640    46.6771 </r>
       <r>    -0.8067     0.9482    46.7468 </r>
       <r>    -0.7338     0.9733    46.8169 </r>
       <r>    -0.6609     1.0235    46.8893 </r>
       <r>    -0.5880     1.1147    46.9667 </r>
       <r>    -0.5151     1.2319    47.0522 </r>
       <r>    -0.4423     1.3491    47.1463 </r>
       <r>    -0.3694     1.4663    47.2489 </r>
       <r>    -0.2965     1.1913    47.3535 </r>
       <r>    -0.2236     1.2347    47.4428 </r>
       <r>    -0.1507     1.1238    47.5286 </r>
       <r>    -0.0778     1.0216    47.6068 </r>
       <r>    -0.0049     0.9195    47.6776 </r>
       <r>     0.0680     0.8174    47.7409 </r>
       <r>     0.1409     0.8770    47.8013 </r>
       <r>     0.2138     0.8669    47.8648 </r>
       <r>     0.2867     0.8510    47.9276 </r>
       <r>     0.3596     0.8401    47.9893 </r>
       <r>     0.4325     0.8293    48.0501 </r>
       <r>     0.5054     0.8184    48.1102 </r>
       <r>     0.5783     0.8076    48.1694 </r>
       <r>     0.6512     0.7691    48.2270 </r>
       <r>     0.7240     0.7281    48.2815 </r>
       <r>     0.7969     0.5587    48.3475 </r>
       <r>     0.8698     0.5196    48.3868 </r>
       <r>     0.9427     0.5317    48.4244 </r>
       <r>     1.0156     0.5227    48.4629 </r>
       <r>     1.0885     0.5137    48.5006 </r>
       <r>     1.1614     0.5189    48.5379 </r>
       <r>     1.2343     0.5808    48.5779 </r>
       <r>     1.3072     0.6427    48.6225 </r>
       <r>     1.3801     0.7047    48.6716 </r>
       <r>     1.4530     0.7666    48.7253 </r>
       <r>     1.5259     0.8286    48.7834 </r>
       <r>     1.5988     0.8905    48.8461 </r>
       <r>     1.6717     1.0657    48.9181 </r>
       <r>     1.7446     1.1960    48.9998 </r>
       <r>     1.8175     1.4570    49.0947 </r>
       <r>     1.8903     1.8114    49.2136 </r>
       <r>     1.9632     1.9248    49.3513 </r>
       <r>     2.0361     2.2176    49.5213 </r>
       <r>     2.1090     2.3973    49.6964 </r>
       <r>     2.1819     2.0343    49.8579 </r>
       <r>     2.2548     1.9031    49.9983 </r>
       <r>     2.3277     1.9836    50.1386 </r>
       <r>     2.4006     1.6414    50.3033 </r>
       <r>     2.4735     1.6159    50.4219 </r>
       <r>     2.5464     1.6106    50.5395 </r>
       <r>     2.6193     1.6054    50.6567 </r>
       <r>     2.6922     1.7038    50.7772 </r>
       <r>     2.7651     1.8166    50.9055 </r>
       <r>     2.8380     1.9294    51.0420 </r>
       <r>     2.9109     2.1539    51.1883 </r>
       <r>     2.9838     1.7787    51.3380 </r>
       <r>     3.0566     2.1096    51.4798 </r>
       <r>     3.1295     2.4399    51.6456 </r>
       <r>     3.2024     2.4128    51.8429 </r>
       <r>     3.2753     2.0200    52.0064 </r>
       <r>     3.3482     1.9806    52.1509 </r>
       <r>     3.4211     2.0071    52.2967 </r>
       <r>     3.4940     2.1521    52.4483 </r>
       <r>     3.5669     2.2855    52.6102 </r>
       <r>     3.6398     2.3404    52.7793 </r>
       <r>     3.7127     2.3782    52.9513 </r>
       <r>     3.7856     2.4160    53.1260 </r>
       <r>     3.8585     1.5680    53.2682 </r>
       <r>     3.9314     1.4718    53.3789 </r>
       <r>     4.0043     1.3755    53.4827 </r>
       <r>     4.0772     1.2935    53.5790 </r>
       <r>     4.1501     1.5093    53.7064 </r>
       <r>     4.2229     1.7182    53.8237 </r>
       <r>     4.2958     1.9358    53.9569 </r>
       <r>     4.3687     2.1535    54.1059 </r>
       <r>     4.4416     2.3712    54.2708 </r>
       <r>     4.5145     2.3285    54.4462 </r>
       <r>     4.5874     2.8439    54.6159 </r>
       <r>     4.6603     1.9593    54.7910 </r>
       <r>     4.7332     1.6970    54.9188 </r>
       <r>     4.8061     1.6535    55.0409 </r>
       <r>     4.8790     1.6100    55.1599 </r>
       <r>     4.9519     1.5664    55.2757 </r>
       <r>     5.0248     1.5229    55.3882 </r>
       <r>     5.0977     1.4794    55.4977 </r>
       <r>     5.1706     1.4358    55.6039 </r>
       <r>     5.2435     1.3930    55.7129 </r>
       <r>     5.3164     0.7913    55.7925 </r>
       <r>     5.3892     0.6528    55.8439 </r>
       <r>     5.4621     0.5533    55.8878 </r>
       <r>     5.5350     0.4538    55.9245 </r>
       <r>     5.6079     0.3544    55.9540 </r>
       <r>     5.6808     0.2549    55.9762 </r>
       <r>     5.7537     0.1554    55.9911 </r>
       <r>     5.8266     0.0560    55.9989 </r>
       <r>     5.8995     0.0000    56.0000 </r>
       <r>     5.9724     0.0000    56.0000 </r>
       <r>     6.0453     0.0000    56.0000 </r>
       <r>     6.1182     0.0000    56.0000 </r>
       <r>     6.1911     0.0000    56.0000 </r>
       <r>     6.2640     0.0000    56.0000 </r>
       <r>     6.3369     0.0000    56.0000 </r>
       <r>     6.4098     0.0000    56.0000 </r>
       <r>     6.4826     0.0000    56.0000 </r>
       <r>     6.5555     0.0000    56.0000 </r>
       <r>     6.6284     0.0000    56.0000 </r>
       <r>     6.7013     0.0000    56.0000 </r>
       <r>     6.7742     0.0000    56.0000 </r>
       <r>     6.8471     0.0000    56.0000 </r>
       <r>     6.9200     0.0000    56.0000 </r>
       <r>     6.9929     0.0000    56.0000 </r>
       <r>     7.0658     0.0000    56.0000 </r>
       <r>     7.1387     0.0000    56.0000 </r>
       <r>     7.2116     0.0000    56.0000 </r>
       <r>     7.2845     0.0000    56.0000 </r>
       <r>     7.3574     0.0000    56.0000 </r>
       <r>     7.4303     0.0000    56.0000 </r>
       <r>     7.5032     0.0000    56.0000 </r>
       <r>     7.5761     0.0000    56.0000 </r>
       <r>     7.6489     0.0000    56.0000 </r>
       <r>     7.7218     0.0000    56.0000 </r>
       <r>     7.7947     0.0000    56.0000 </r>
       <r>     7.8676     0.0000    56.0000 </r>
      </set>
     </set>
    </array>
   </total>
  </dos>
 </calculation>
 <structure name="finalpos" >
  <crystal>
   <varray name="basis" >
    <v>       2.57386868       0.00000000       0.00000000 </v>
    <v>       1.28693434       2.22903567       0.00000000 </v>
    <v>       0.00000000       0.00000000      30.30466494 </v>
   </varray>
   <i name="volume">    173.86529028 </i>
   <varray name="rec_basis" >
    <v>       0.38852021      -0.22431225       0.00000000 </v>
    <v>       0.00000000       0.44862450       0.00000000 </v>
    <v>       0.00000000       0.00000000       0.03299822 </v>
   </varray>
  </crystal>
  <varray name="positions" >
   <v>       0.00000000       0.00000000       0.39644015 </v>
   <v>       0.33333333       0.33333333       0.46515176 </v>
   <v>       0.66666667       0.66666667       0.53391621 </v>
   <v>       0.00000000       0.00000000       0.60674401 </v>
   <v>       0.66666667       0.66666667       0.63146763 </v>
  </varray>
  <varray name="selective"  type="logical" >
   <v type="logical" >  F  F  F </v>
   <v type="logical" >  F  F  F </v>
   <v type="logical" >  F  F  F </v>
   <v type="logical" >  F  F  F </v>
   <v type="logical" >  T  T  T </v>
  </varray>
  <nose>
   <v>      -3.00000000       0.00000000       0.00010000       0.00010000 </v>
  </nose>
 </structure>
</modeling>
