unknown system                          
           1
     2.573869    0.000000    0.000000
     1.286934    2.229036    0.000000
     0.000000    0.000000   30.304665
   Cu   H 
   4   1
Direct configuration=     1
   0.00000000  0.00000000  0.39644015
   0.33333333  0.33333333  0.46515176
   0.66666667  0.66666667  0.53391621
   0.00000000  0.00000000  0.60674401
   0.66666667  0.66666667  0.63476745
Direct configuration=     2
   0.00000000  0.00000000  0.39644015
   0.33333333  0.33333333  0.46515176
   0.66666667  0.66666667  0.53391621
   0.00000000  0.00000000  0.60674401
   0.70551869  0.66666667  0.63476745
Direct configuration=     3
   0.00000000  0.00000000  0.39644015
   0.33333333  0.33333333  0.46515176
   0.66666667  0.66666667  0.53391621
   0.00000000  0.00000000  0.60674401
   0.62781465  0.66666667  0.63476745
Direct configuration=     4
   0.00000000  0.00000000  0.39644015
   0.33333333  0.33333333  0.46515176
   0.66666667  0.66666667  0.53391621
   0.00000000  0.00000000  0.60674401
   0.64423544  0.71152912  0.63476745
Direct configuration=     5
   0.00000000  0.00000000  0.39644015
   0.33333333  0.33333333  0.46515176
   0.66666667  0.66666667  0.53391621
   0.00000000  0.00000000  0.60674401
   0.68909789  0.62180422  0.63476745
Direct configuration=     6
   0.00000000  0.00000000  0.39644015
   0.33333333  0.33333333  0.46515176
   0.66666667  0.66666667  0.53391621
   0.00000000  0.00000000  0.60674401
   0.66666667  0.66666667  0.63806727
Direct configuration=     7
   0.00000000  0.00000000  0.39644015
   0.33333333  0.33333333  0.46515176
   0.66666667  0.66666667  0.53391621
   0.00000000  0.00000000  0.60674401
   0.66666667  0.66666667  0.63146763
