unknown system                          
   1.00000000000000     
     4.913700    0.000000    0.000000
    -2.456850    4.255389    0.000000
     0.000000    0.000000    5.405130
   Si   O 
     3     6
Direct
  0.469800  0.020000  0.666670
  0.000000  0.469800  0.333330
  0.530200  0.530200  0.000000
  0.414500  0.266200  0.785600
  0.733800  0.148300  0.452270
  0.851700  0.585500  0.118930
  0.148300  0.733800  0.547730
  0.266200  0.414500  0.214400
  0.585500  0.851700  0.881070
 
   56   56   60
  1.4898      1.4214      1.4000      1.4135      1.4543      1.5182      1.6026      1.7056      1.8247      1.9567    
  2.0980      2.2448      2.3925      2.5367      2.6737      2.8022      2.9246      3.0493      3.1911      3.3702    
  3.6122      3.9485      4.4190      5.0770      5.9914      7.2449      8.9272      11.123      13.901      17.304    
  21.338      25.946      30.974      36.130      40.976      44.967      47.558      48.346      47.188      44.249    
  39.951      34.849      29.490      24.312      19.602      15.510      12.085      9.3099      7.1291      5.4619    
  4.2165      3.3022      2.6398      2.1673      1.8391      1.6220      1.4371      1.3659      1.3462      1.3668    
  1.4205      1.5033      1.6131      1.7479      1.9048      2.0801      2.2688      2.4653      2.6630      2.8545    
  3.0323      3.1904      3.3261      3.4420      3.5474      3.6586      3.7979      3.9925      4.2746      4.6840    
  5.2704      6.0948      7.2261      8.7334      10.675      13.086      15.970      19.286      22.932      26.729    
  30.406      33.614      35.976      37.168      37.004      35.493      32.834      29.362      25.461      21.480    
  17.690      14.270      11.315      8.8543      6.8735      5.3250      4.1435      3.2587      2.6062      2.1332    
  1.7995      1.5752      1.4298      1.3608      1.3458      1.3746      1.4408      1.5411      1.6740      1.8380    
  2.0308      2.2487      2.4866      2.7373      2.9923      3.2415      3.4735      3.6774      3.8445      3.9712    
  4.0608      4.1245      4.1816      4.2570      4.3803      4.5848      4.9091      5.3982      6.1031      7.0778    
  8.3714      10.018      12.027      14.371      16.984      19.746      22.485      24.976      26.966      28.217    
  28.557      27.929      26.402      24.156      21.435      18.496      15.564      12.811      10.351      8.2436    
  6.5036      5.1114      4.0257      3.1962      2.5736      2.1155      1.7885      1.5668      1.4564      1.3953    
  1.3891      1.4286      1.5085      1.6262      1.7810      1.9727      2.2001      2.4606      2.7493      3.0590    
  3.3795      3.6980      3.9993      4.2671      4.4863      4.6460      4.7424      4.7809      4.7764      4.7524    
  4.7382      4.7662      4.8709      5.0890      5.4596      6.0232      6.8187      7.8768      9.2124      10.815    
  12.643      14.617      16.621      18.507      20.105      21.246      21.791      21.663      20.866      19.484    
  17.661      15.569      13.381      11.243      9.2665      7.5210      6.0404      4.8268      3.8597      3.1064    
  2.5314      2.1028      1.7941      1.5845      1.5096      1.4628      1.4701      1.5239      1.6197      1.7558    
  1.9326      2.1514      2.4128      2.7156      3.0568      3.4295      3.8234      4.2233      4.6101      4.9618    
  5.2561      5.4738      5.6028      5.6411      5.5981      5.4948      5.3607      5.2306      5.1406      5.1262    
  5.2216      5.4592      5.8691      6.4759      7.2951      8.3262      9.5470      10.909      12.334      13.723    
  14.958      15.919      16.499      16.625      16.271      15.468      14.293      12.855      11.276      9.6711    
  8.1347      6.7359      5.5155      4.4893      3.6532      2.9896      2.4756      2.0886      1.8091      1.6208    
  1.5852      1.5594      1.5859      1.6582      1.7731      1.9299      2.1300      2.3761      2.6709      3.0158    
  3.4099      3.8487      4.3223      4.8145      5.3027      5.7591      6.1536      6.4575      6.6485      6.7154    
  6.6605      6.5005      6.2648      5.9911      5.7205      5.4934      5.3456      5.3080      5.4062      5.6597    
  6.0809      6.6723      7.4230      8.3048      9.2696      10.250      11.163      11.923      12.448      12.676    
  12.572      12.138      11.411      10.455      9.3502      8.1812      7.0234      5.9367      4.9620      4.1209    
  3.4194      2.8521      2.4074      2.0713      1.8303      1.6720      1.6810      1.6830      1.7347      1.8310    
  1.9694      2.1503      2.3760      2.6506      2.9788      3.3648      3.8113      4.3167      4.8735      5.4661    
  6.0694      6.6506      7.1710      7.5914      7.8776      8.0066      7.9711      7.7818      7.4659      7.0638    
  6.6230      6.1920      5.8144      5.5256      5.3522      5.3123      5.4158      5.6644      6.0513      6.5588    
  7.1565      7.8002      8.4338      8.9944      9.4208      9.6609      9.6804      9.4677      9.0356      8.4189    
  7.6677      6.8394      5.9902      5.1689      4.4120      3.7424      3.1715      2.7021      2.3311      2.0521    
  1.8567      1.7360      1.7948      1.8314      1.9151      2.0417      2.2096      2.4195      2.6747      2.9803    
  3.3425      3.7686      4.2650      4.8349      5.4747      6.1712      6.8994      7.6221      8.2929      8.8610    
  9.2785      9.5078      9.5288      9.3429      8.9734      8.4620      7.8624      7.2329      6.6285      6.0948    
  5.6654      5.3612      5.1923      5.1600      5.2576      5.4707      5.7775      6.1476      6.5427      6.9183    
  7.2280      7.4299      7.4925      7.3988      7.1491      6.7595      6.2592      5.6852      5.0764      4.4694    
  3.8946      3.3743      2.9230      2.5481      2.2520      2.0336      1.8887      1.8115      1.9241      2.0018    
  2.1246      2.2891      2.4939      2.7400      3.0308      3.3715      3.7699      4.2355      4.7788      5.4083    
  6.1264      6.9249      7.7813      8.6568      9.4985      10.244      10.830      11.202      11.322      11.179    
  10.789      10.193      9.4502      8.6289      7.7976      7.0165      6.3310      5.7703      5.3482      5.0664    
  4.9178      4.8888      4.9602      5.1082      5.3042      5.5152      5.7061      5.8436      5.8999      5.8571    
  5.7088      5.4604      5.1278      4.7333      4.3025      3.8609      3.4321      3.0362      2.6888      2.4001    
  2.1760      2.0184      1.9266      1.8970      2.0656      2.1899      2.3591      2.5699      2.8209      3.1128    
  3.4480      3.8314      4.2707      4.7772      5.3647      6.0476      6.8358      7.7285      8.7089      9.7404    
  10.766      11.714      12.505      13.063      13.331      13.278      12.909      12.260      11.394      10.391    
  9.3348      8.3008      7.3511      6.5281      5.8535      5.3323      4.9573      4.7141      4.5841      4.5451    
  4.5725      4.6392      4.7171      4.7787      4.8002      4.7642      4.6613      4.4909      4.2604      3.9830    
  3.6751      3.3543      3.0381      2.7424      2.4818      2.2678      2.1087      2.0093      1.9706      1.9908    
  2.2153      2.3906      2.6128      2.8787      3.1868      3.5364      3.9285      4.3659      4.8551      5.4076    
  6.0397      6.7710      7.6193      8.5937      9.6864      10.867      12.080      13.246      14.271      15.058    
  15.525      15.616      15.318      14.657      13.698      12.530      11.253      9.9621      8.7376      7.6389    
  6.7009      5.9357      5.3381      4.8923      4.5773      4.3702      4.2472      4.1836      4.1546      4.1362    
  4.1069      4.0497      3.9542      3.8164      3.6387      3.4287      3.1974      2.9573      2.7212      2.5015    
  2.3100      2.1582      2.0556      2.0090      2.0209      2.0907      2.3687      2.5975      2.8780      3.2075    
  3.5839      4.0053      4.4698      4.9773      5.5310      6.1407      6.8233      7.6023      8.5028      9.5445    
  10.732      12.044      13.433      14.818      16.094      17.145      17.860      18.155      17.988      17.370    
  16.360      15.053      13.567      12.017      10.507      9.1176      7.8989      6.8753      6.0470      5.3975    
  4.9023      4.5349      4.2697      4.0825      3.9495      3.8479      3.7572      3.6604      3.5459      3.4081    
  3.2468      3.0663      2.8740      2.6791      2.4917      2.3221      2.1806      2.0772      2.0214      2.0202    
  2.0777      2.1944      2.5208      2.8033      3.1453      3.5452      4.0006      4.5082      5.0631      5.6607    
  6.2997      6.9854      7.7328      8.5666      9.5175      10.615      11.876      13.295      14.834      16.421    
  17.945      19.276      20.277      20.831      20.864      20.356      19.354      17.952      16.281      14.481    
  12.681      10.985      9.4670      8.1650      7.0886      6.2242      5.5446      5.0180      4.6137      4.3047    
  4.0666      3.8771      3.7157      3.5650      3.4121      3.2499      3.0767      2.8952      2.7108      2.5307    
  2.3632      2.2180      2.1048      2.0331      2.0110      2.0454      2.1409      2.2995      2.6667      2.9999    
  3.4037      3.8778      4.4205      5.0274      5.6907      6.4011      7.1510      7.9393      8.7758      9.6825    
  10.692      11.841      13.158      14.653      16.306      18.055      19.799      21.401      22.703      23.559    
  23.853      23.532      22.614      21.185      19.379      17.356      15.273      13.265      11.430      9.8284    
  8.4825      7.3855      6.5101      5.8196      5.2757      4.8450      4.4996      4.2160      3.9740      3.7560    
  3.5480      3.3412      3.1324      2.9232      2.7185      2.5254      2.3517      2.2063      2.0986      2.0379    
  2.0324      2.0887      2.2117      2.4040      2.8023      3.1794      3.6411      4.1892      4.8232      5.5386    
  6.3258      7.1708      8.0596      8.9829      9.9420      10.952      12.043      13.251      14.616      16.160    
  17.881      19.739      21.648      23.477      25.062      26.231      26.833      26.770      26.023      24.653    
  22.790      20.603      18.273      15.966      13.811      11.894      10.260      8.9112      7.8251      6.9612    
  6.2738      5.7205      5.2662      4.8836      4.5512      4.2514      3.9706      3.6990      3.4319      3.1700    
  2.9182      2.6846      2.4777      2.3064      2.1797      2.1069      2.0971      2.1576      2.2934      2.5076    
  2.9257      3.3354      3.8461      4.4622      5.1855      6.0125      6.9330      7.9302      8.9838      10.076    
  11.197      12.352      13.560      14.854      16.271      17.847      19.595      21.498      23.496      25.478    
  27.289      28.744      29.665      29.911      29.415      28.202      26.381      24.121      21.617      19.060    
  16.610      14.387      12.457      10.844      9.5337      8.4861      7.6499      6.9731      6.4104      5.9264    
  5.4954      5.0992      4.7248      4.3639      4.0122      3.6704      3.3435      3.0399      2.7696      2.5426    
  2.3691      2.2587      2.2210      2.2639      2.3933      2.6129      3.0396      3.4649      4.0098      4.6813    
  5.4842      6.4175      7.4721      8.6300      9.8671      11.158      12.482      13.828      15.202      16.622    
  18.118      19.726      21.472      23.362      25.365      27.402      29.344      31.015      32.223      32.790    
  32.603      31.636      29.965      27.744      25.172      22.457      19.785      17.300      15.100      13.231    
  11.694      10.459      9.4717      8.6724      8.0043      7.4205      6.8869      6.3814      5.8914      5.4111    
  4.9402      4.4821      4.0437      3.6343      3.2650      2.9481      2.6955      2.5179      2.4250      2.4248    
  2.5240      2.7276      3.1519      3.5704      4.1283      4.8354      5.6998      6.7242      7.9022      9.2174    
  10.644      12.152      13.711      15.295      16.888      18.489      20.110      21.776      23.515      25.349    
  27.279      29.267      31.222      33.001      34.416      35.270      35.407      34.750      33.326      31.262    
  28.749      26.001      23.221      20.574      18.177      16.100      14.367      12.959      11.829      10.914    
  10.148      9.4714      8.8375      8.2157      7.5906      6.9588      6.3255      5.7012      5.0990      4.5333    
  4.0185      3.5690      3.1979      2.9167      2.7353      2.6619      2.7032      2.8649      3.2772      3.6611    
  4.2050      4.9208      5.8202      6.9102      8.1887      9.6429      11.249      12.976      14.786      16.641    
  18.503      20.346      22.153      23.926      25.683      27.453      29.260      31.106      32.946      34.671    
  36.133      37.157      37.574      37.265      36.194      34.427      32.120      29.483      26.743      24.077    
  21.614      19.438      17.587      16.059      14.820      13.812      12.965      12.210      11.486      10.750    
  9.9778      9.1655      8.3235      7.4724      6.6375      5.8446      5.1168      4.4735      3.9296      3.4973    
  3.1860      3.0030      2.9541      3.0438      3.4357      3.7532      4.2512      4.9432      5.8439      6.9645    
  8.3085      9.8686      11.626      13.551      15.606      17.744      19.910      22.047      24.106      26.056    
  27.891      29.627      31.302      32.933      34.491      35.933      37.191      38.159      38.702      38.686    
  38.029      36.732      34.877      32.614      30.128      27.622      25.270      23.160      21.332      19.793    
  18.523      17.476      16.586      15.782      14.992      14.155      13.235      12.222      11.128      9.9869    
  8.8390      7.7283      6.6941      5.7679      4.9721      4.3212      3.8238      3.4847      3.3058      3.2885    
  3.6528      3.8691      4.2862      4.9178      5.7808      6.8903      8.2554      9.8750      11.737      13.819    
  16.087      18.491      20.965      23.428      25.798      28.001      29.995      31.771      33.349      34.709    
  35.835      36.754      37.505      38.097      38.483      38.570      38.263      37.510      36.319      34.757    
  32.924      30.942      28.954      27.115      25.504      24.125      22.963      21.982      21.130      20.338    
  19.527      18.623      17.573      16.351      14.970      13.474      11.925      10.390      8.9330      7.6066    
  6.4489      5.4831      4.7192      4.1583      3.7967      3.6292      3.9600      4.0359      4.3351      4.8683    
  5.6524      6.7054      8.0411      9.6650      11.573      13.751      16.173      18.794      21.547      24.336    
  27.047      29.568      31.810      33.725      35.278      36.375      36.990      37.196      37.139      36.975    
  36.808      36.659      36.479      36.200      35.771      35.169      34.384      33.420      32.300      31.098    
  29.944      28.943      28.085      27.341      26.667      26.002      25.265      24.367      23.232      21.816    
  20.124      18.209      16.159      14.076      12.058      10.188      8.5287      7.1183      5.9748      5.0990    
  4.4809      4.1057      4.3975      4.2862      4.4276      4.8242      5.4889      6.4399      7.6944      9.2638    
  11.151      13.352      15.850      18.614      21.581      24.653      27.698      30.569      33.131      35.289    
  36.924      37.848      37.978      37.387      36.295      35.010      33.836      32.984      32.538      32.481    
  32.742      33.220      33.791      34.305      34.620      34.652      34.424      34.073      33.754      33.472    
  33.189      32.845      32.352      31.603      30.490      28.939      26.936      24.542      21.876      19.092    
  16.341      13.751      11.416      9.3984      7.7283      6.4118      5.4350      4.7730      5.0189      4.6598    
  4.5975      4.8184      5.3254      6.1323      7.2571      8.7151      10.516      12.662      15.150      17.961    
  21.049      24.324      27.650      30.858      33.775      36.257      38.100      39.006      38.790      37.463    
  35.260      32.604      30.007      27.932      26.691      26.413      27.079      28.558      30.623      32.960    
  35.217      37.091      38.425      39.250      39.765      40.198      40.573      40.828      40.856      40.508    
  39.628      38.086      35.833      32.925      29.522      25.846      22.135      18.589      15.355      12.525    
  10.147      8.2303      6.7613      5.7054      5.8932      5.2071      4.8838      4.8860      5.1987      5.8248    
  6.7780      8.0745      9.7280      11.748      14.140      16.900      20.001      23.371      26.884      30.366    
  33.622      36.463      38.627      39.697      39.360      37.509      34.315      30.243      25.970      22.229    
  19.629      18.547      19.119      21.265      24.713      29.004      33.558      37.795      41.299      43.923    
  45.799      47.248      48.565      49.753      50.673      51.115      50.829      49.590      47.270      43.895    
  39.655      34.871      29.905      25.085      20.648      16.738      13.421      10.710      8.5835      6.9975    
  7.1036      5.9893      5.3317      5.0641      5.1450      5.5582      6.3064      7.4018      8.8595      10.693    
  12.915      15.532      18.537      21.882      25.465      29.121      32.647      35.829      38.376      39.781    
  39.586      37.531      33.657      28.373      22.437      16.803      12.397      9.9162      9.7521      11.986    
  16.399      22.466      29.403      36.325      42.483      47.468      51.274      54.221      56.767      59.212    
  61.444      63.171      64.006      63.564      61.566      57.943      52.881      46.802      40.246      33.741    
  27.689      22.332      17.773      14.021      11.038      8.7579      8.7404      7.0759      5.9932      5.3924    
  5.1990      5.3692      5.8868      6.7533      7.9804      9.5833      11.578      13.979      16.794      20.002    
  23.530      27.237      30.929      34.381      37.313      39.170      39.365      37.474      33.360      27.296    
  20.003      12.562      6.1629      1.8431     0.31205      1.9085      6.5891      13.890      22.924      32.533    
  41.595      49.343      55.546      60.462      64.629      68.588      72.498      76.020      78.608      79.648    
  78.618      75.243      69.618      62.219      53.794      45.151      36.968      29.676      23.464      18.352    
  14.265      11.099      10.889      8.5367      6.9226      5.9122      5.3939      5.2895      5.5554      6.1755    
  7.1518      8.4968      10.227      12.361      14.917      17.896      21.256      24.892      28.631      32.255    
  35.508      37.866      38.644      37.265      33.406      27.140      19.049      10.203      1.9580     -4.3609    
 -7.7141     -7.4534     -3.3519      4.3294      14.766      26.649      38.508      49.161      58.042      65.257    
  71.375      77.094      82.887      88.589      93.517      96.801      97.589      95.277      89.718      81.321    
  70.986      59.855      49.002      39.190      30.801      23.909      18.408      14.126      13.619      10.431    
  8.1700      6.6629      5.7603      5.3452      5.3396      5.7025      6.4202      7.4967      8.9456      10.787    
  13.042      15.728      18.832      22.289      25.961      29.650      33.123      35.959      37.435      36.856    
  33.723      27.889      19.715      10.129     0.50369     -7.6484     -12.999     -14.587     -11.871     -4.8100    
  6.0070      19.315      33.430      46.765      58.334      67.973      76.192      83.809      91.526      99.523    
  107.15      113.30      116.78      116.56      112.07      103.47      91.650      78.022      64.134      51.242    
  40.088      30.909      23.606      17.932      16.975      12.796      9.7707      7.6763      6.3239      5.5565    
  5.2579      5.3559      5.8153      6.6259      7.7938      9.3357      11.276      13.637      16.432      19.629    
  23.137      26.793      30.382      33.605      35.809      36.226      34.213      29.413      21.927      12.432    
  2.1571     -7.3494     -14.562     -18.237     -17.524     -12.035     -2.0058      11.548      26.945      42.316    
  56.240      68.167      78.422      87.860      97.377      107.46      117.75      127.05      133.86      136.69    
  134.49      126.90      114.59      99.035      82.195      65.921      51.502      39.515      29.974      22.586    
  20.963      15.634      11.734      8.9682      7.1007      5.9366      5.3209      5.1464      5.3513      5.9068    
  6.8068      8.0616      9.6928      11.727      14.189      17.080      20.354      23.895      27.521      31.004    
  33.879      35.374      34.754      31.488      25.415      16.900      6.8885     -3.2153     -11.835     -17.526    
 -19.154     -15.987     -7.8559      4.6262      20.012      36.366      51.925      65.704      77.701      88.673    
  99.642      111.36      123.85      136.08      146.36      152.97      154.22      149.02      137.52      121.19    
  102.16      82.731      64.873      49.707      37.532      28.105      25.527      18.906      14.037      10.529    
  8.0913      6.4887      5.5311      5.0757      5.0303      5.3444      5.9971      6.9883      8.3336      10.059    
  12.194      14.765      17.765      21.132      24.731      28.372      31.777      34.311      35.204      33.800    
  29.721      23.008      14.238      4.5048     -4.7554     -12.039     -16.000     -15.595     -10.243     -.78416E-01
  13.876      29.869      45.988      60.860      74.068      86.116      98.015      110.72      124.62      139.04    
  152.38      162.80      168.22      166.75      157.66      141.96      122.00      100.36      79.462      61.118    
  46.110      34.403      30.512      22.512      16.610      12.318      9.2745      7.2027      5.8821      5.1377    
  4.8457      4.9319      5.3594      6.1158      7.2072      8.6546      10.491      12.754      15.471      18.628    
  22.151      25.893      29.659      33.074      35.426      36.002      34.260      29.967      23.315      14.988    
  6.0950     -1.9951     -7.8696     -10.251     -8.1864     -1.3105      9.8939      24.082      39.443      54.369    
  68.029      80.550      92.766      105.71      120.06      135.61      151.02      164.49      173.91      176.84    
  171.65      158.42      139.12      116.71      93.859      72.897      55.231      41.215      35.627      26.271    
  19.337      14.257      10.602      8.0514      6.3572      5.3187      4.7841      4.6551      4.8779      5.4276    
  6.2995      7.5079      9.0842      11.073      13.520      16.458      19.868      23.665      27.694      31.746    
  35.347      37.796      38.456      36.887      32.955      26.917      19.449      11.593      4.6327     -.74171E-01
 -1.3002      1.7726      9.2430      20.330      33.567      47.339      60.511      72.789      84.685      97.143    
  111.01      126.49      142.69      157.93      170.29      177.30      176.67      167.48      150.81      129.36    
  106.15      83.723      64.064      48.048      40.433      29.914      22.044      16.231      11.998      8.9871    
  6.9264      5.5971      4.8269      4.4955      4.5317      4.8989      5.5829      6.5907      7.9495      9.7049    
  11.917      14.645      17.925      21.733      25.970      30.471      35.003      39.032      41.895      43.020    
  42.028      38.814      33.613      27.037      20.057      13.914      9.9375      9.2796      12.572      19.662    
  29.607      41.035      52.697      63.948      74.905      86.261      98.861      113.20      128.88      144.52    
  158.34      168.22      171.74      167.24      154.74      136.16      114.37      92.034      71.511      54.192    
  44.388      33.092      24.507      18.092      13.362      9.9428      7.5460      5.9432      4.9506      4.4315    
  4.2982      4.5030      5.0251      5.8652      7.0456      8.6107      10.626      13.172      16.321      20.108    
  24.494      29.364      34.542      39.754      44.437      47.955      49.764      49.487      46.989      42.457    
  36.459      29.952      24.175      20.424      19.727      22.506      28.431      36.561      45.770      55.221    
  64.664      74.448      85.257      97.695      111.75      126.52      140.44      151.66      158.11      157.86    
  150.12      135.77      117.03      96.431      76.439      58.831      46.948      35.428      26.475      19.670    
  14.578      10.837      8.1602      6.3188      5.1266      4.4382      4.1533      4.2142      4.5950      5.2928    
  6.3259      7.7371      9.5949      11.990      15.022      18.768      23.252      28.419      34.128      40.172    
  46.226      51.696      55.932      58.365      58.582      56.419      52.064      46.119      39.588      33.725    
  29.752      28.521      30.265      34.577      40.641      47.635      55.069      62.952      71.696      81.840    
  93.584      106.44      119.33      130.65      138.59      141.43      137.99      128.30      113.65      96.103    
  77.995      61.242      47.714      36.601      27.710      20.796      15.525      11.583      8.7065      6.6795    
  5.3221      4.4885      4.0723      4.0081      4.2654      4.8391      5.7467      7.0307      8.7612      11.035    
  13.966      17.666      22.210      27.606      33.771      40.526      47.594      54.572      60.798      65.555    
  68.219      68.364      65.871      61.025      54.556      47.554      41.255      36.746      34.685      35.159    
  37.766      41.873      46.929      52.694      59.296      67.085      76.287      86.695      97.645      108.00    
  116.29      120.94      120.74      115.20      104.84      91.099      75.884      61.002      46.544      36.427    
  28.042      21.333      16.097      12.100      9.1235      6.9790      5.5020      4.5542      4.0300      3.8605    
  4.0112      4.4757      5.2723      6.4450      8.0666      10.238      13.084      16.735      21.311      26.880    
  33.432      40.842      48.851      57.059      64.912      71.634      76.416      78.613      77.873      74.247    
  68.239      60.761      52.973      46.038      40.855      37.885      37.118      38.205      40.688      44.224    
  48.716      54.293      61.072      68.959      77.589      86.239      93.843      99.148      100.99      98.655    
  92.158      82.304      70.463      58.134      43.608      34.916      27.413      21.204      16.221      12.324    
  9.3594      7.1754      5.6325      4.6076      4.0021      3.7482      3.8096      4.1786      4.8744      5.9436    
  7.4628      9.5385      12.302      15.901      20.485      26.178      33.050      41.058      50.000      59.465    
  68.832      77.318      84.005      88.029      88.830      86.285      80.756      73.048      64.254      55.545    
  47.934      42.102      38.329      36.541      36.455      37.755      40.226      43.808      48.453      54.067    
  60.438      67.130      73.444      78.471      81.256      81.052      77.579      71.155      62.626      53.095    
  39.326      32.268      25.894      20.414      15.872      12.223      9.3796      7.2367      5.6858      4.6246    
  3.9668      3.6501      3.6395      3.9267      4.5307      5.4998      6.9146      8.8877      11.559      15.088    
  19.650      25.415      32.532      41.062      50.900      61.681      72.730      83.099      91.707      97.527    
  99.776      98.158      92.948      84.928      75.213      65.016      55.427      47.246      40.923      36.579    
  34.103      33.265      33.837      35.625      38.446      42.153      46.574      51.432      56.286      60.522    
  63.435      64.380      62.967      59.205      53.521      46.632      34.254      28.819      23.665      19.045    
  15.079      11.797      9.1723      7.1460      5.6437      4.5873      3.9066      3.5488      3.4830      3.7017    
  4.2229      5.0944      6.3988      8.2540      10.809      14.236      18.729      24.500      31.766      40.702    
  51.335      63.410      76.264      88.819      99.722      107.62      111.49      110.84      105.86      97.357    
  86.550      74.803      63.341      53.074      44.550      37.990      33.387      30.597      29.409      29.563    
  30.814      32.953      35.792      39.113      42.621      45.910      48.491      49.868      49.664      47.737    
  44.238      39.566      28.935      24.949      20.970      17.243      13.921      11.083      8.7500      6.9030    
  5.4994      4.4860      3.8107      3.4323      3.3267      3.4892      3.9366      4.7138      5.9016      7.6209    
  10.028      13.306      17.667      23.353      30.642      39.814      51.050      64.259      78.882      93.794    
  107.40      117.96      124.02      124.76      120.21      111.20      99.127      85.601      72.098      59.716    
  49.111      40.555      34.069      29.527      26.714      25.374      25.243      26.072      27.639      29.732    
  32.117      34.515      36.586      37.972      38.360      37.565      35.583      32.601      23.805      21.009    
  18.064      15.178      12.505      10.144      8.1467      6.5233      5.2578      4.3197      3.6747      3.2943    
  3.1628      3.2796      3.6614      4.3487      5.4167      6.9840      9.2097      12.286      16.437      21.929    