unknown system                          
   1.00000000000000     
     4.913700    0.000000    0.000000
    -2.456850    4.255389    0.000000
     0.000000    0.000000    5.405130
   Si   O 
     3     6
Direct
  0.469800  0.020000  0.666670
  0.000000  0.469800  0.333330
  0.530200  0.530200  0.000000
  0.414500  0.266200  0.785600
  0.733800  0.148300  0.452270
  0.851700  0.585500  0.118930
  0.148300  0.733800  0.547730
  0.266200  0.414500  0.214400
  0.585500  0.851700  0.881070
 
   56   56   60
 0.14897864735E+01 0.14213678886E+01 0.13999658464E+01 0.14135003879E+01 0.14543229233E+01
 0.15181732861E+01 0.16026255559E+01 0.17056310782E+01 0.18246874797E+01 0.19566861681E+01
 0.20980430861E+01 0.22447592393E+01 0.23924543752E+01 0.25366745907E+01 0.26737324712E+01
 0.28021633087E+01 0.29245873215E+01 0.30493377077E+01 0.31910671301E+01 0.33701961616E+01
 0.36122204315E+01 0.39484560083E+01 0.44190163708E+01 0.50770227619E+01 0.59913615321E+01
 0.72449487568E+01 0.89272338561E+01 0.11122910384E+02 0.13900733334E+02 0.17303943716E+02
 0.21337789395E+02 0.25946027980E+02 0.30973935331E+02 0.36130353229E+02 0.40976100234E+02
 0.44966867353E+02 0.47558261413E+02 0.48346228615E+02 0.47188096806E+02 0.44249030875E+02
 0.39951054017E+02 0.34849032406E+02 0.29490227892E+02 0.24311993248E+02 0.19601881090E+02
 0.15509857542E+02 0.12084679784E+02 0.93099109967E+01 0.71291181205E+01 0.54619050894E+01
 0.42165343554E+01 0.33022394695E+01 0.26398215530E+01 0.21672603901E+01 0.18391126111E+01
 0.16219721497E+01 0.14370984770E+01 0.13658755378E+01 0.13461838686E+01 0.13667668648E+01
 0.14204678538E+01 0.15033311844E+01 0.16131297160E+01 0.17478760865E+01 0.19048110579E+01
 0.20800735573E+01 0.22688189702E+01 0.24653357289E+01 0.26630092939E+01 0.28544613313E+01
 0.30322772100E+01 0.31904217054E+01 0.33261494288E+01 0.34420238129E+01 0.35473885949E+01
 0.36585832083E+01 0.37979062318E+01 0.39924917142E+01 0.42746336957E+01 0.46839990211E+01
 0.52704096221E+01 0.60947885666E+01 0.72260819527E+01 0.87334243471E+01 0.10674991163E+02
 0.13086421690E+02 0.15970471525E+02 0.19285929076E+02 0.22931988402E+02 0.26728923782E+02
 0.30405949212E+02 0.33614024338E+02 0.35975923617E+02 0.37167555921E+02 0.37003717322E+02
 0.35492566891E+02 0.32833955595E+02 0.29362381091E+02 0.25460620574E+02 0.21479702149E+02
 0.17690392336E+02 0.14270340202E+02 0.11314635848E+02 0.88542675512E+01 0.68735445501E+01
 0.53250483286E+01 0.41434976944E+01 0.32587351973E+01 0.26062289548E+01 0.21331598647E+01
 0.17994704004E+01 0.15752444188E+01 0.14298270742E+01 0.13607596449E+01 0.13457665049E+01
 0.13745930351E+01 0.14408149492E+01 0.15411446397E+01 0.16739889786E+01 0.18379544896E+01
 0.20307744894E+01 0.22487465678E+01 0.24865579224E+01 0.27372759529E+01 0.29923161034E+01
 0.32414841765E+01 0.34735039480E+01 0.36773804623E+01 0.38445317949E+01 0.39712386054E+01
 0.40607768747E+01 0.41245270507E+01 0.41815629643E+01 0.42569957484E+01 0.43802851703E+01
 0.45848408455E+01 0.49091440780E+01 0.53981623184E+01 0.61030927230E+01 0.70777874542E+01
 0.83713542650E+01 0.10018030979E+02 0.12026628167E+02 0.14371374562E+02 0.16984041558E+02
 0.19746411254E+02 0.22485089791E+02 0.24975791819E+02 0.26965765428E+02 0.28216576462E+02
 0.28557387519E+02 0.27929348238E+02 0.26402246619E+02 0.24155981936E+02 0.21435191565E+02
 0.18496064235E+02 0.15564014387E+02 0.12811131537E+02 0.10351049328E+02 0.82436188927E+01
 0.65035765601E+01 0.51113680522E+01 0.40257054286E+01 0.31962148513E+01 0.25735864843E+01
 0.21155248340E+01 0.17885328350E+01 0.15667848665E+01 0.14564148830E+01 0.13953226528E+01
 0.13890739873E+01 0.14286460703E+01 0.15085011147E+01 0.16261642743E+01 0.17809873622E+01
 0.19726768590E+01 0.22001193563E+01 0.24606076111E+01 0.27493204964E+01 0.30589513374E+01
 0.33794590047E+01 0.36980033159E+01 0.39993456898E+01 0.42671449824E+01 0.44863053002E+01
 0.46459656890E+01 0.47423678704E+01 0.47808568972E+01 0.47764171300E+01 0.47524447896E+01
 0.47381936828E+01 0.47661907679E+01 0.48709358986E+01 0.50890380296E+01 0.54595921227E+01
 0.60232116157E+01 0.68186647129E+01 0.78768156961E+01 0.92124022745E+01 0.10815216527E+02
 0.12642850350E+02 0.14616539863E+02 0.16620626376E+02 0.18506624113E+02 0.20104719002E+02
 0.21245532955E+02 0.21790549355E+02 0.21662804814E+02 0.20866026537E+02 0.19484019979E+02
 0.17660733749E+02 0.15569324765E+02 0.13381246507E+02 0.11243484715E+02 0.92665079124E+01
 0.75210360064E+01 0.60404471342E+01 0.48268082911E+01 0.38596690095E+01 0.31063555075E+01
 0.25313973416E+01 0.21027564109E+01 0.17941343836E+01 0.15844640088E+01 0.15095643939E+01
 0.14627936936E+01 0.14701278268E+01 0.15239220631E+01 0.16196680445E+01 0.17557677224E+01
 0.19326456680E+01 0.21514475606E+01 0.24127659982E+01 0.27156469834E+01 0.30567593369E+01
 0.34295385436E+01 0.38233943292E+01 0.42233021273E+01 0.46101062173E+01 0.49618191562E+01
 0.52561131664E+01 0.54738365697E+01 0.56028334986E+01 0.56410525713E+01 0.55981016029E+01
 0.54947967411E+01 0.53607330312E+01 0.52305964664E+01 0.51405901017E+01 0.51262208211E+01
 0.52215962204E+01 0.54592253302E+01 0.58690508394E+01 0.64759011823E+01 0.72950580875E+01
 0.83262059630E+01 0.95470209553E+01 0.10908535969E+02 0.12334166431E+02 0.13723127234E+02
 0.14958348674E+02 0.15919252606E+02 0.16499194192E+02 0.16624768584E+02 0.16271230009E+02
 0.15468148981E+02 0.14293012946E+02 0.12855279414E+02 0.11276357345E+02 0.96711238138E+01
 0.81347285215E+01 0.67358545983E+01 0.55154679420E+01 0.44893419837E+01 0.36531758244E+01
 0.29895777192E+01 0.24755846548E+01 0.20885888598E+01 0.18091202545E+01 0.16208428513E+01
 0.15851973143E+01 0.15594030709E+01 0.15858595146E+01 0.16582357305E+01 0.17731187944E+01
 0.19298779952E+01 0.21300111518E+01 0.23761495148E+01 0.26709192592E+01 0.30158028572E+01
 0.34099422885E+01 0.38487297265E+01 0.43223056145E+01 0.48144808759E+01 0.53026611960E+01
 0.57590980234E+01 0.61535758157E+01 0.64574518872E+01 0.66484914984E+01 0.67153502679E+01
 0.66604526469E+01 0.65005430616E+01 0.62648257167E+01 0.59910621163E+01 0.57205341159E+01
 0.54933656264E+01 0.53455683316E+01 0.53079999793E+01 0.54061776624E+01 0.56597292103E+01
 0.60809444720E+01 0.66723126534E+01 0.74230000667E+01 0.83048381296E+01 0.92695841606E+01
 0.10249626811E+02 0.11163139314E+02 0.11923022234E+02 0.12448216504E+02 0.12675836565E+02
 0.12571960660E+02 0.12138094540E+02 0.11410850387E+02 0.10454705840E+02 0.93502347935E+01
 0.81812023701E+01 0.70233620493E+01 0.59367192444E+01 0.49619841265E+01 0.41209083044E+01
 0.34194037344E+01 0.28521258640E+01 0.24073723327E+01 0.20712523534E+01 0.18302515126E+01
 0.16720201820E+01 0.16809556101E+01 0.16829531174E+01 0.17346942742E+01 0.18309856256E+01
 0.19694029087E+01 0.21502506562E+01 0.23760108164E+01 0.26506410063E+01 0.29788074729E+01
 0.33648492856E+01 0.38112631154E+01 0.43166736618E+01 0.48735228588E+01 0.54660598648E+01
 0.60694379597E+01 0.66505700921E+01 0.71709649825E+01 0.75913607121E+01 0.78775921861E+01
 0.80066088823E+01 0.79711487516E+01 0.77817856322E+01 0.74658807490E+01 0.70637748618E+01
 0.66230398103E+01 0.61920310993E+01 0.58143545077E+01 0.55255641860E+01 0.53522265558E+01
 0.53123185144E+01 0.54157574608E+01 0.56644123893E+01 0.60512997775E+01 0.65588163157E+01
 0.71565460864E+01 0.78002448584E+01 0.84337694859E+01 0.89944416368E+01 0.94207753948E+01
 0.96609338723E+01 0.96804474741E+01 0.94676978661E+01 0.90356228209E+01 0.84189373097E+01
 0.76677364737E+01 0.68393529514E+01 0.59902083319E+01 0.51689440174E+01 0.44119938299E+01
 0.37423991196E+01 0.31715106236E+01 0.27020580511E+01 0.23310667225E+01 0.20520659416E+01
 0.18567283852E+01 0.17360338993E+01 0.17947878030E+01 0.18313814954E+01 0.19151124497E+01
 0.20417349826E+01 0.22095554743E+01 0.24194998153E+01 0.26747435479E+01 0.29802709867E+01
 0.33425009149E+01 0.37686131234E+01 0.42650329072E+01 0.48348740588E+01 0.54746784614E+01
 0.61712186943E+01 0.68993769000E+01 0.76220827582E+01 0.82928767097E+01 0.88610208703E+01
 0.92785046740E+01 0.95078073798E+01 0.95287870975E+01 0.93428767131E+01 0.89733882614E+01
 0.84619896356E+01 0.78624350596E+01 0.72329203744E+01 0.66284578552E+01 0.60948268190E+01
 0.56654299855E+01 0.53612094420E+01 0.51923383121E+01 0.51600220872E+01 0.52575664994E+01
 0.54707229623E+01 0.57774876777E+01 0.61476189283E+01 0.65427359138E+01 0.69182904856E+01
 0.72280058747E+01 0.74299412585E+01 0.74924893352E+01 0.73988435055E+01 0.71490879254E+01
 0.67595089448E+01 0.62592484205E+01 0.56851848677E+01 0.50764066182E+01 0.44694049952E+01
 0.38945750611E+01 0.33743359882E+01 0.29230095905E+01 0.25480954165E+01 0.22520275995E+01
 0.20335759986E+01 0.18887417428E+01 0.18115160844E+01 0.19241102266E+01 0.20017629719E+01
 0.21246076882E+01 0.22890826306E+01 0.24938758247E+01 0.27400116717E+01 0.30307572728E+01
 0.33715322815E+01 0.37699292349E+01 0.42355371408E+01 0.47787977450E+01 0.54082580560E+01
 0.61263855715E+01 0.69249450739E+01 0.77812850316E+01 0.86568024110E+01 0.94985306027E+01
 0.10244204427E+02 0.10830330062E+02 0.11201960218E+02 0.11322232290E+02 0.11179396498E+02
 0.10789383251E+02 0.10193208126E+02 0.94501779499E+01 0.86288524789E+01 0.77976344148E+01
 0.70164588544E+01 0.63309681403E+01 0.57702675573E+01 0.53481725329E+01 0.50664066014E+01
 0.49178435716E+01 0.48887814322E+01 0.49601969314E+01 0.51082133899E+01 0.53041688952E+01
 0.55151658975E+01 0.57061340983E+01 0.58435661701E+01 0.58998838105E+01 0.58570686399E+01
 0.57087517183E+01 0.54604492680E+01 0.51278227684E+01 0.47333446610E+01 0.43025255264E+01
 0.38609107845E+01 0.34320979588E+01 0.30362363530E+01 0.26888020646E+01 0.24001289437E+01
 0.21759587727E+01 0.20184108140E+01 0.19266072784E+01 0.18970078827E+01 0.20656054181E+01
 0.21899492877E+01 0.23591111679E+01 0.25698910973E+01 0.28209496460E+01 0.31128312803E+01
 0.34480446180E+01 0.38314232584E+01 0.42707383555E+01 0.47771602025E+01 0.53646926952E+01
 0.60476274228E+01 0.68357929444E+01 0.77285150654E+01 0.87089406065E+01 0.97404282146E+01
 0.10766393498E+02 0.11714491299E+02 0.12505155657E+02 0.13063324539E+02 0.13331080428E+02
 0.13278339508E+02 0.12908817235E+02 0.12259517400E+02 0.11393950138E+02 0.10391326850E+02
 0.93347659043E+01 0.83007679377E+01 0.73511162106E+01 0.65280500388E+01 0.58535150797E+01
 0.53323118026E+01 0.49572999999E+01 0.47141322708E+01 0.45840727726E+01 0.45451349995E+01
 0.45725341562E+01 0.46392357795E+01 0.47170620753E+01 0.47786546052E+01 0.48001917716E+01
 0.47641582988E+01 0.46612552965E+01 0.44909212346E+01 0.42604472229E+01 0.39829921435E+01
 0.36750757108E+01 0.33543320199E+01 0.30380606614E+01 0.27424303689E+01 0.24817796791E+01
 0.22677756209E+01 0.21087145856E+01 0.20092626430E+01 0.19705865395E+01 0.19907648848E+01
 0.22153125400E+01 0.23906484083E+01 0.26127821774E+01 0.28787337443E+01 0.31867868105E+01
 0.35364361253E+01 0.39285005445E+01 0.43659102354E+01 0.48551347607E+01 0.54075518503E+01
 0.60396505958E+01 0.67709845343E+01 0.76193481093E+01 0.85936967195E+01 0.96864199292E+01
 0.10867128661E+02 0.12079976032E+02 0.13245967062E+02 0.14270877368E+02 0.15058178823E+02
 0.15524832450E+02 0.15616481847E+02 0.15318128750E+02 0.14657217815E+02 0.13698204240E+02
 0.12530450655E+02 0.11253291244E+02 0.99621039659E+01 0.87375903465E+01 0.76389032182E+01
 0.67008877075E+01 0.59356984334E+01 0.53381068961E+01 0.48922668023E+01 0.45772737882E+01
 0.43702108892E+01 0.42471859901E+01 0.41836089170E+01 0.41546334528E+01 0.41362108358E+01
 0.41068523586E+01 0.40497108162E+01 0.39541765087E+01 0.38163920777E+01 0.36387482273E+01
 0.34287372475E+01 0.31973569124E+01 0.29572551800E+01 0.27212026741E+01 0.25014924981E+01
 0.23100409520E+01 0.21581964308E+01 0.20556481590E+01 0.20089774264E+01 0.20209096640E+01
 0.20907079693E+01 0.23687084255E+01 0.25975418732E+01 0.28779863426E+01 0.32074974455E+01
 0.35839219313E+01 0.40052633499E+01 0.44698099294E+01 0.49772722092E+01 0.55310332970E+01
 0.61406685327E+01 0.68232754170E+01 0.76022579831E+01 0.85028401517E+01 0.95444944305E+01
 0.10731568691E+02 0.12044366620E+02 0.13433281478E+02 0.14818164503E+02 0.16094265911E+02
 0.17144971489E+02 0.17859901998E+02 0.18154829627E+02 0.17988317649E+02 0.17370247347E+02
 0.16359711122E+02 0.15053143423E+02 0.13566544173E+02 0.12016954227E+02 0.10507449189E+02
 0.91175556304E+01 0.78989019533E+01 0.68753263663E+01 0.60469690516E+01 0.53975005214E+01
 0.49023228171E+01 0.45349130706E+01 0.42697406817E+01 0.40824732246E+01 0.39494506205E+01
 0.38479043976E+01 0.37571720428E+01 0.36603823865E+01 0.35459196929E+01 0.34080924307E+01
 0.32467739765E+01 0.30662763903E+01 0.28739840390E+01 0.26791141269E+01 0.24917317188E+01
 0.23221262991E+01 0.21805864712E+01 0.20772358948E+01 0.20213662546E+01 0.20201811289E+01
 0.20776676141E+01 0.21944477106E+01 0.25208317210E+01 0.28033162625E+01 0.31453086738E+01
 0.35451586518E+01 0.40006204594E+01 0.45081690659E+01 0.50630534651E+01 0.56607114885E+01
 0.62997023384E+01 0.69854032300E+01 0.77328074039E+01 0.85666114123E+01 0.95175134464E+01
 0.10614712398E+02 0.11875613824E+02 0.13294717374E+02 0.14834409908E+02 0.16420503993E+02
 0.17944770424E+02 0.19275680249E+02 0.20276996904E+02 0.20831402918E+02 0.20863615175E+02
 0.20356264833E+02 0.19353587259E+02 0.17952043632E+02 0.16281238014E+02 0.14481032984E+02
 0.12680884280E+02 0.10985385046E+02 0.94670228621E+01 0.81649965359E+01 0.70886047236E+01
 0.62242366899E+01 0.55446461585E+01 0.50179664545E+01 0.46136967762E+01 0.43047013669E+01
 0.40666472612E+01 0.38771174836E+01 0.37156811760E+01 0.35649569508E+01 0.34120939365E+01
 0.32498728660E+01 0.30766703939E+01 0.28951892818E+01 0.27108208550E+01 0.25306524146E+01
 0.23631771892E+01 0.22179544971E+01 0.21048265293E+01 0.20330950974E+01 0.20110297511E+01
 0.20454309960E+01 0.21409417481E+01 0.22995284839E+01 0.26667053221E+01 0.29999186500E+01
 0.34037020400E+01 0.38778116977E+01 0.44205451227E+01 0.50273937173E+01 0.56906903091E+01
 0.64010838054E+01 0.71509956935E+01 0.79393284873E+01 0.87757619437E+01 0.96825438234E+01
 0.10692212098E+02 0.11840874035E+02 0.13157826332E+02 0.14653182510E+02 0.16305937522E+02
 0.18055462197E+02 0.19799439150E+02 0.21400606645E+02 0.22703336441E+02 0.23558672109E+02
 0.23852966009E+02 0.23532218670E+02 0.22614214280E+02 0.21184554623E+02 0.19378601758E+02
 0.17355693279E+02 0.15273014378E+02 0.13264851425E+02 0.11430140109E+02 0.98284331783E+01
 0.84825248056E+01 0.73854731105E+01 0.65101490761E+01 0.58195521396E+01 0.52756965977E+01
 0.48449921599E+01 0.44995696669E+01 0.42160446015E+01 0.39740458507E+01 0.37559741074E+01
 0.35479770145E+01 0.33412137073E+01 0.31324034978E+01 0.29231727396E+01 0.27185280368E+01
 0.25253608167E+01 0.23516619946E+01 0.22062888521E+01 0.20986361354E+01 0.20379242119E+01
 0.20323953473E+01 0.20887327394E+01 0.22117013745E+01 0.24040198680E+01 0.28022501847E+01
 0.31793950572E+01 0.36411480813E+01 0.41892132049E+01 0.48232083110E+01 0.55386317558E+01
 0.63257739431E+01 0.71708402515E+01 0.80596219160E+01 0.89829080174E+01 0.99419878025E+01
 0.10952197862E+02 0.12042672053E+02 0.13251350079E+02 0.14615559365E+02 0.16159543689E+02
 0.17880999611E+02 0.19739237369E+02 0.21648095891E+02 0.23476923803E+02 0.25062319222E+02
 0.26231315403E+02 0.26832917807E+02 0.26770282066E+02 0.26023247976E+02 0.24653271211E+02
 0.22789585955E+02 0.20602505449E+02 0.18272901140E+02 0.15965530696E+02 0.13810542923E+02
 0.11894469347E+02 0.10259845146E+02 0.89112323279E+01 0.78250669702E+01 0.69611503748E+01
 0.62738042116E+01 0.57204948649E+01 0.52661987098E+01 0.48836014883E+01 0.45511708918E+01
 0.42514499682E+01 0.39706157015E+01 0.36990145522E+01 0.34319464848E+01 0.31699858381E+01
 0.29182458042E+01 0.26845887509E+01 0.24777399237E+01 0.23064458738E+01 0.21797018614E+01
 0.21069060077E+01 0.20970721367E+01 0.21575507480E+01 0.22933583932E+01 0.25075623617E+01
 0.29257380522E+01 0.33353569733E+01 0.38461258452E+01 0.44622287412E+01 0.51854608155E+01
 0.60125053296E+01 0.69330480338E+01 0.79301908344E+01 0.89837813098E+01 0.10075974707E+02
 0.11197434143E+02 0.12352294790E+02 0.13560123747E+02 0.14853556918E+02 0.16271213843E+02
 0.17846631793E+02 0.19594810799E+02 0.21498442071E+02 0.23496453903E+02 0.25478387227E+02
 0.27288719679E+02 0.28744359849E+02 0.29665072672E+02 0.29910899138E+02 0.29415359844E+02
 0.28202439502E+02 0.26381105396E+02 0.24120581901E+02 0.21616624222E+02 0.19059555805E+02
 0.16610386366E+02 0.14386598563E+02 0.12456959452E+02 0.10844184956E+02 0.95337231786E+01
 0.84861003579E+01 0.76499413693E+01 0.69731381793E+01 0.64103827073E+01 0.59263682238E+01
 0.54953860649E+01 0.50991621833E+01 0.47248112915E+01 0.43638511031E+01 0.40121839268E+01
 0.36703817495E+01 0.33434902173E+01 0.30398930643E+01 0.27695591515E+01 0.25426419132E+01
 0.23690759948E+01 0.22587132402E+01 0.22209971229E+01 0.22639454213E+01 0.23933219665E+01
 0.26129065786E+01 0.30395902352E+01 0.34648629680E+01 0.40097748572E+01 0.46812841051E+01
 0.54841585418E+01 0.64174957958E+01 0.74720902416E+01 0.86300186671E+01 0.98671084999E+01
 0.11157888261E+02 0.12481705296E+02 0.13828397061E+02 0.15202082773E+02 0.16621858907E+02
 0.18118430861E+02 0.19726346332E+02 0.21472459237E+02 0.23362045072E+02 0.25364537827E+02
 0.27401812111E+02 0.29343559413E+02 0.31015321756E+02 0.32222834506E+02 0.32790355573E+02
 0.32602726384E+02 0.31636081500E+02 0.29964975795E+02 0.27743888076E+02 0.25172308159E+02
 0.22457430896E+02 0.19784806369E+02 0.17300002431E+02 0.15099729369E+02 0.13230561524E+02
 0.11694346578E+02 0.10458946941E+02 0.94716737741E+01 0.86724236705E+01 0.80043065143E+01
 0.74204984433E+01 0.68869133479E+01 0.63814230105E+01 0.58913728120E+01 0.54111028549E+01
 0.49401707769E+01 0.44821410252E+01 0.40437414298E+01 0.36342832563E+01 0.32650258599E+01
 0.29481459552E+01 0.26955201478E+01 0.25179421623E+01 0.24249542365E+01 0.24247802645E+01
 0.25240173725E+01 0.27275825956E+01 0.31519390317E+01 0.35703582141E+01 0.41282933851E+01
 0.48353694546E+01 0.56997808184E+01 0.67241812372E+01 0.79022437248E+01 0.92173859336E+01
 0.10644204838E+02 0.12152210199E+02 0.13710839226E+02 0.15294686809E+02 0.16888213628E+02
 0.18489268221E+02 0.20110290027E+02 0.21775708342E+02 0.23514619625E+02 0.25349044337E+02
 0.27279018121E+02 0.29266546008E+02 0.31222244369E+02 0.33001328898E+02 0.34416043844E+02
 0.35270339748E+02 0.35407430829E+02 0.34750438150E+02 0.33326272637E+02 0.31261734935E+02
 0.28748646419E+02 0.26001458638E+02 0.23221349157E+02 0.20573518130E+02 0.18176704868E+02
 0.16100401970E+02 0.14367061886E+02 0.12958918166E+02 0.11828973153E+02 0.10914191640E+02
 0.10148204191E+02 0.94714183774E+01 0.88374597401E+01 0.82157274667E+01 0.75906443243E+01
 0.69588236631E+01 0.63254954023E+01 0.57011578074E+01 0.50989958042E+01 0.45332795580E+01
 0.40185444045E+01 0.35690104230E+01 0.31978801845E+01 0.29167224355E+01 0.27353208157E+01
 0.26618885125E+01 0.27032304926E+01 0.28648993647E+01 0.32772222258E+01 0.36610764585E+01
 0.42049749649E+01 0.49208295935E+01 0.58202381458E+01 0.69101596576E+01 0.81886941146E+01
 0.96428830044E+01 0.11249183311E+02 0.12975821014E+02 0.14785854461E+02 0.16640537180E+02
 0.18503463401E+02 0.20345926114E+02 0.22152666585E+02 0.23925670471E+02 0.25683298556E+02
 0.27453273780E+02 0.29259728717E+02 0.31105532104E+02 0.32945856429E+02 0.34671297156E+02
 0.36132984402E+02 0.37156917487E+02 0.37574281837E+02 0.37264700818E+02 0.36193678650E+02
 0.34427232118E+02 0.32119580287E+02 0.29483396062E+02 0.26742988867E+02 0.24076607947E+02
 0.21614068661E+02 0.19438093462E+02 0.17587005477E+02 0.16059194375E+02 0.14820041180E+02
 0.13811752869E+02 0.12964884806E+02 0.12209685146E+02 0.11485875732E+02 0.10749795737E+02
 0.99778025038E+01 0.91654592043E+01 0.83234863700E+01 0.74724192772E+01 0.66375237816E+01
 0.58445839865E+01 0.51168426091E+01 0.44734776796E+01 0.39296375306E+01 0.34972909512E+01
 0.31859525210E+01 0.30030113260E+01 0.29540836020E+01 0.30438235170E+01 0.34356897578E+01
 0.37532482844E+01 0.42512397556E+01 0.49432411074E+01 0.58438625779E+01 0.69644773201E+01
 0.83085457412E+01 0.98685958625E+01 0.11625817059E+02 0.13551187471E+02 0.15606354264E+02
 0.17744005933E+02 0.19909589295E+02 0.22046634086E+02 0.24105974207E+02 0.26056161906E+02
 0.27890577313E+02 0.29627479276E+02 0.31301696421E+02 0.32933456463E+02 0.34491436297E+02
 0.35932708452E+02 0.37190696596E+02 0.38159365383E+02 0.38701840172E+02 0.38685845876E+02
 0.38029285621E+02 0.36731575539E+02 0.34876776467E+02 0.32613524157E+02 0.30128014474E+02
 0.27622368591E+02 0.25270278648E+02 0.23159634417E+02 0.21331506252E+02 0.19793229547E+02
 0.18523229288E+02 0.17475580614E+02 0.16586325624E+02 0.15782236329E+02 0.14991517670E+02
 0.14155014674E+02 0.13235468972E+02 0.12222008754E+02 0.11128483973E+02 0.99869108884E+01
 0.88389924713E+01 0.77282660441E+01 0.66940768625E+01 0.57678674241E+01 0.49720651598E+01
 0.43211777101E+01 0.38238398729E+01 0.34846586204E+01 0.33057511204E+01 0.32885095231E+01
 0.36527933340E+01 0.38691231677E+01 0.42862115627E+01 0.49178494591E+01 0.57807986822E+01
 0.68903337758E+01 0.82553811435E+01 0.98750032846E+01 0.11737259629E+02 0.13819393306E+02
 0.16086918961E+02 0.18490702216E+02 0.20964622375E+02 0.23428360064E+02 0.25797869036E+02
 0.28001379511E+02 0.29994860530E+02 0.31770565544E+02 0.33348804539E+02 0.34709026971E+02
 0.35834755616E+02 0.36753729906E+02 0.37505097376E+02 0.38097185199E+02 0.38482646119E+02
 0.38569553489E+02 0.38262929697E+02 0.37509550520E+02 0.36319244285E+02 0.34757306294E+02
 0.32924263114E+02 0.30942364346E+02 0.28953875182E+02 0.27114538867E+02 0.25503736006E+02
 0.24125322456E+02 0.22962938979E+02 0.21982181304E+02 0.21130102402E+02 0.20337554926E+02
 0.19526674051E+02 0.18623423101E+02 0.17572644878E+02 0.16350655629E+02 0.14969953454E+02
 0.13473911577E+02 0.11924630772E+02 0.10389855398E+02 0.89329681859E+01 0.76065766967E+01
 0.64489185876E+01 0.54830871889E+01 0.47191848712E+01 0.41583048163E+01 0.37966682163E+01
 0.36292020352E+01 0.39599638683E+01 0.40359165419E+01 0.43351120311E+01 0.48683156893E+01
 0.56524233848E+01 0.67054162450E+01 0.80410623534E+01 0.96649786802E+01 0.11573012863E+02
 0.13750970273E+02 0.16172686964E+02 0.18794338435E+02 0.21547331517E+02 0.24336249035E+02
 0.27047499354E+02 0.29568425074E+02 0.31810096113E+02 0.33724686842E+02 0.35277584210E+02
 0.36375016407E+02 0.36989926366E+02 0.37196190622E+02 0.37139072467E+02 0.36975041233E+02
 0.36808216242E+02 0.36658665107E+02 0.36478825807E+02 0.36199893547E+02 0.35771012549E+02
 0.35168504215E+02 0.34384299759E+02 0.33419875195E+02 0.32300320668E+02 0.31098399510E+02
 0.29944376056E+02 0.28943228595E+02 0.28085363682E+02 0.27341132071E+02 0.26667470723E+02
 0.26002131240E+02 0.25264590452E+02 0.24366666548E+02 0.23231634444E+02 0.21815892352E+02
 0.20123914313E+02 0.18208872752E+02 0.16158752056E+02 0.14075694145E+02 0.12057885493E+02
 0.10188221387E+02 0.85286611266E+01 0.71183081763E+01 0.59748380729E+01 0.50990258044E+01
 0.44808728345E+01 0.41057321293E+01 0.43975380372E+01 0.42861505850E+01 0.44276311774E+01
 0.48242015249E+01 0.54888691254E+01 0.64398677144E+01 0.76943985392E+01 0.92637597863E+01
 0.11151199993E+02 0.13351707431E+02 0.15850098729E+02 0.18613720677E+02 0.21580977993E+02
 0.24653139322E+02 0.27698097964E+02 0.30568935747E+02 0.33131483930E+02 0.35289167990E+02
 0.36924051324E+02 0.37848096204E+02 0.37978375967E+02 0.37387371728E+02 0.36295157534E+02
 0.35010443067E+02 0.33836225737E+02 0.32983643472E+02 0.32537638431E+02 0.32481100768E+02
 0.32741785299E+02 0.33220242514E+02 0.33791097049E+02 0.34305183022E+02 0.34619605395E+02
 0.34651577839E+02 0.34424364523E+02 0.34073453681E+02 0.33754469306E+02 0.33472223625E+02
 0.33188925491E+02 0.32844922308E+02 0.32352388661E+02 0.31602960618E+02 0.30489852141E+02
 0.28938797107E+02 0.26936341641E+02 0.24541940299E+02 0.21876459729E+02 0.19092484641E+02
 0.16341488040E+02 0.13751189458E+02 0.11416360849E+02 0.93983803736E+01 0.77283370225E+01
 0.64117739874E+01 0.54350229900E+01 0.47729526685E+01 0.50188882922E+01 0.46598144860E+01
 0.45975389246E+01 0.48184352931E+01 0.53253589282E+01 0.61323066254E+01 0.72571143401E+01
 0.87150598735E+01 0.10515522464E+02 0.12661710309E+02 0.15149687310E+02 0.17961224231E+02
 0.21049458120E+02 0.24324492823E+02 0.27650040452E+02 0.30857630244E+02 0.33775184720E+02
 0.36256877639E+02 0.38100248783E+02 0.39005687613E+02 0.38789714828E+02 0.37463247328E+02
 0.35260036686E+02 0.32603881554E+02 0.30006551651E+02 0.27931708051E+02 0.26690509964E+02
 0.26412937182E+02 0.27079217438E+02 0.28558343593E+02 0.30622807949E+02 0.32959599957E+02
 0.35216565707E+02 0.37091316710E+02 0.38425007707E+02 0.39250036858E+02 0.39764729938E+02
 0.40197993719E+02 0.40573299031E+02 0.40828413527E+02 0.40855713324E+02 0.40508346416E+02
 0.39627628871E+02 0.38086089352E+02 0.35833281029E+02 0.32925345314E+02 0.29521536300E+02
 0.25846254737E+02 0.22134860573E+02 0.18588853410E+02 0.15354970314E+02 0.12525262383E+02
 0.10146528759E+02 0.82303345609E+01 0.67613445759E+01 0.57053808853E+01 0.58931640976E+01
 0.52070847530E+01 0.48837604209E+01 0.48860198027E+01 0.51986739680E+01 0.58247942961E+01
 0.67779871338E+01 0.80745085049E+01 0.97279957502E+01 0.11748027055E+02 0.14140043800E+02
 0.16900207615E+02 0.20000762259E+02 0.23370638097E+02 0.26883858810E+02 0.30366346756E+02
 0.33621557111E+02 0.36463377251E+02 0.38626530608E+02 0.39697106791E+02 0.39360142480E+02
 0.37509126059E+02 0.34315475291E+02 0.30242950503E+02 0.25970320055E+02 0.22229431260E+02
 0.19628852688E+02 0.18547084781E+02 0.19118913587E+02 0.21265467995E+02 0.24712802205E+02
 0.29004207990E+02 0.33557804761E+02 0.37795110650E+02 0.41298899948E+02 0.43922721152E+02
 0.45799189052E+02 0.47247683602E+02 0.48565325381E+02 0.49752784210E+02 0.50673230058E+02
 0.51114941940E+02 0.50828641455E+02 0.49589784003E+02 0.47270167849E+02 0.43894615899E+02
 0.39655422019E+02 0.34871144839E+02 0.29905494790E+02 0.25084715588E+02 0.20647766317E+02
 0.16737926007E+02 0.13421025237E+02 0.10709975580E+02 0.85835187737E+01 0.69975128315E+01
 0.71036446431E+01 0.59892785948E+01 0.53317408922E+01 0.50641291898E+01 0.51449525421E+01
 0.55581935763E+01 0.63063831492E+01 0.74018487594E+01 0.88595463924E+01 0.10693256960E+02
 0.12914959981E+02 0.15532338786E+02 0.18536889929E+02 0.21882339396E+02 0.25465058061E+02
 0.29121315065E+02 0.32646567905E+02 0.35828642808E+02 0.38376173854E+02 0.39780731998E+02
 0.39585825727E+02 0.37531124409E+02 0.33656785956E+02 0.28372911549E+02 0.22436794565E+02
 0.16803318054E+02 0.12396743334E+02 0.99162419174E+01 0.97520699752E+01 0.11986093132E+02
 0.16399252015E+02 0.22466403591E+02 0.29403184997E+02 0.36324954722E+02 0.42483366801E+02
 0.47467802010E+02 0.51273920170E+02 0.54220925547E+02 0.56767253338E+02 0.59212032428E+02
 0.61444465864E+02 0.63170695436E+02 0.64005951691E+02 0.63563975985E+02 0.61566395359E+02
 0.57942520391E+02 0.52881120811E+02 0.46801559283E+02 0.40246128836E+02 0.33740867202E+02
 0.27688833871E+02 0.22331996276E+02 0.17772794047E+02 0.14021284368E+02 0.11037732436E+02
 0.87578925570E+01 0.87403700588E+01 0.70758676654E+01 0.59932016174E+01 0.53924462118E+01
 0.51989628131E+01 0.53692385187E+01 0.58867606932E+01 0.67532813318E+01 0.79804119236E+01
 0.95833273837E+01 0.11577794297E+02 0.13978902003E+02 0.16793756195E+02 0.20001788120E+02
 0.23529533173E+02 0.27237254013E+02 0.30928900200E+02 0.34381370255E+02 0.37313461445E+02
 0.39170332101E+02 0.39365271194E+02 0.37473660821E+02 0.33360262654E+02 0.27295750412E+02
 0.20003386984E+02 0.12561571097E+02 0.61629265003E+01 0.18431351012E+01 0.31204775361E+00
 0.19085004170E+01 0.65890853057E+01 0.13889560415E+02 0.22923743390E+02 0.32533303413E+02
 0.41594593377E+02 0.49342864736E+02 0.55546178826E+02 0.60462292487E+02 0.64629224891E+02
 0.68587720590E+02 0.72498097477E+02 0.76020211788E+02 0.78608051538E+02 0.79648413943E+02
 0.78617767863E+02 0.75242915887E+02 0.69617739295E+02 0.62219253661E+02 0.53793643496E+02
 0.45151489661E+02 0.36968251927E+02 0.29675829910E+02 0.23464267947E+02 0.18351544685E+02
 0.14264954702E+02 0.11098776451E+02 0.10888900602E+02 0.85367450419E+01 0.69226459892E+01
 0.59122083040E+01 0.53938776671E+01 0.52894913386E+01 0.55554167018E+01 0.61754722298E+01
 0.71518112827E+01 0.84967721140E+01 0.10227076428E+02 0.12361494715E+02 0.14917263457E+02
 0.17895624898E+02 0.21255669264E+02 0.24891579267E+02 0.28630649158E+02 0.32254700214E+02
 0.35508258331E+02 0.37866374206E+02 0.38643876358E+02 0.37265121036E+02 0.33406059905E+02
 0.27140195721E+02 0.19048955447E+02 0.10203119383E+02 0.19580133033E+01 -.43609489056E+01
 -.77140798482E+01 -.74533536313E+01 -.33518699657E+01 0.43293684453E+01 0.14766071142E+02
 0.26648985528E+02 0.38507987864E+02 0.49160604351E+02 0.58041887312E+02 0.65256952196E+02
 0.71375161526E+02 0.77093771078E+02 0.82887157610E+02 0.88588944118E+02 0.93517381404E+02
 0.96801432892E+02 0.97588914867E+02 0.95277186132E+02 0.89717890273E+02 0.81321041291E+02
 0.70985741667E+02 0.59855498343E+02 0.49002463604E+02 0.39190079900E+02 0.30801084910E+02
 0.23908944428E+02 0.18407916836E+02 0.14126138408E+02 0.13619032899E+02 0.10431085888E+02
 0.81700384756E+01 0.66629116729E+01 0.57603195337E+01 0.53451500750E+01 0.53395909854E+01
 0.57025073518E+01 0.64202227077E+01 0.74966528871E+01 0.89456215122E+01 0.10786562565E+02
 0.13041827259E+02 0.15727687623E+02 0.18832485647E+02 0.22289250903E+02 0.25961006374E+02
 0.29650040589E+02 0.33123010930E+02 0.35958628113E+02 0.37434539820E+02 0.36855738661E+02
 0.33722576480E+02 0.27888933684E+02 0.19714633002E+02 0.10128706906E+02 0.50369250841E+00
 -.76483720103E+01 -.12999126127E+02 -.14586668234E+02 -.11871470520E+02 -.48100165055E+01
 0.60069823472E+01 0.19314992509E+02 0.33429874711E+02 0.46764598102E+02 0.58334356776E+02
 0.67972957378E+02 0.76191873230E+02 0.83808963857E+02 0.91525543557E+02 0.99522876288E+02
 0.10714719016E+03 0.11330383670E+03 0.11678353879E+03 0.11655704863E+03 0.11207155351E+03
 0.10347328697E+03 0.91650340123E+02 0.78022352686E+02 0.64134084686E+02 0.51242410052E+02