   9   9   0   0
  0.1255774E+02  0.4913700E-09  0.4913700E-09  0.5405130E-09  0.5000000E-15
  1.000000000000000E-004
  CAR 
 unknown system                          
     13.81182335    -20.44980713  301      1.19212279      1.00000000
    -20.450  0.0000E+00  0.0000E+00
    -20.336  0.0000E+00  0.0000E+00
    -20.221  0.0000E+00  0.0000E+00
    -20.107  0.0000E+00  0.0000E+00
    -19.993  0.0000E+00  0.0000E+00
    -19.879  0.0000E+00  0.0000E+00
    -19.765  0.0000E+00  0.0000E+00
    -19.650  0.0000E+00  0.0000E+00
    -19.536  0.0000E+00  0.0000E+00
    -19.422  0.0000E+00  0.0000E+00
    -19.308  0.0000E+00  0.0000E+00
    -19.194  0.0000E+00  0.0000E+00
    -19.079  0.0000E+00  0.0000E+00
    -18.965  0.0000E+00  0.0000E+00
    -18.851  0.0000E+00  0.0000E+00
    -18.737  0.0000E+00  0.0000E+00
    -18.623  0.0000E+00  0.0000E+00
    -18.508  0.0000E+00  0.0000E+00
    -18.394  0.5021E+00  0.9321E-02
    -18.280  0.1805E+01  0.1573E+00
    -18.166  0.4148E+01  0.4545E+00
    -18.051  0.7748E+01  0.1122E+01
    -17.937  0.3133E+01  0.1922E+01
    -17.823  0.0000E+00  0.2000E+01
    -17.709  0.1482E+01  0.2065E+01
    -17.595  0.3295E+01  0.2313E+01
    -17.480  0.6171E+01  0.2833E+01
    -17.366  0.7915E+01  0.3571E+01
    -17.252  0.9662E+00  0.3957E+01
    -17.138  0.0000E+00  0.4000E+01
    -17.024  0.5302E+00  0.4010E+01
    -16.909  0.2570E+01  0.4173E+01
    -16.795  0.7474E+01  0.4840E+01
    -16.681  0.3763E+01  0.5514E+01
    -16.567  0.2612E+01  0.5865E+01
    -16.453  0.6580E+01  0.6223E+01
    -16.338  0.6726E+01  0.7209E+01
    -16.224  0.4687E+01  0.7822E+01
    -16.110  0.1276E+02  0.9263E+01
    -15.996  0.0000E+00  0.1000E+02
    -15.882  0.2954E+02  0.1123E+02
    -15.767  0.0000E+00  0.1200E+02
    -15.653  0.0000E+00  0.1200E+02
    -15.539  0.0000E+00  0.1200E+02
    -15.425  0.0000E+00  0.1200E+02
    -15.311  0.0000E+00  0.1200E+02
    -15.196  0.0000E+00  0.1200E+02
    -15.082  0.0000E+00  0.1200E+02
    -14.968  0.0000E+00  0.1200E+02
    -14.854  0.0000E+00  0.1200E+02
    -14.740  0.0000E+00  0.1200E+02
    -14.625  0.0000E+00  0.1200E+02
    -14.511  0.0000E+00  0.1200E+02
    -14.397  0.0000E+00  0.1200E+02
    -14.283  0.0000E+00  0.1200E+02
    -14.169  0.0000E+00  0.1200E+02
    -14.054  0.0000E+00  0.1200E+02
    -13.940  0.0000E+00  0.1200E+02
    -13.826  0.0000E+00  0.1200E+02
    -13.712  0.0000E+00  0.1200E+02
    -13.597  0.0000E+00  0.1200E+02
    -13.483  0.0000E+00  0.1200E+02
    -13.369  0.0000E+00  0.1200E+02
    -13.255  0.0000E+00  0.1200E+02
    -13.141  0.0000E+00  0.1200E+02
    -13.026  0.0000E+00  0.1200E+02
    -12.912  0.0000E+00  0.1200E+02
    -12.798  0.0000E+00  0.1200E+02
    -12.684  0.0000E+00  0.1200E+02
    -12.570  0.0000E+00  0.1200E+02
    -12.455  0.0000E+00  0.1200E+02
    -12.341  0.0000E+00  0.1200E+02
    -12.227  0.0000E+00  0.1200E+02
    -12.113  0.0000E+00  0.1200E+02
    -11.999  0.0000E+00  0.1200E+02
    -11.884  0.0000E+00  0.1200E+02
    -11.770  0.0000E+00  0.1200E+02
    -11.656  0.0000E+00  0.1200E+02
    -11.542  0.0000E+00  0.1200E+02
    -11.428  0.0000E+00  0.1200E+02
    -11.313  0.0000E+00  0.1200E+02
    -11.199  0.0000E+00  0.1200E+02
    -11.085  0.0000E+00  0.1200E+02
    -10.971  0.0000E+00  0.1200E+02
    -10.857  0.0000E+00  0.1200E+02
    -10.742  0.0000E+00  0.1200E+02
    -10.628  0.0000E+00  0.1200E+02
    -10.514  0.0000E+00  0.1200E+02
    -10.400  0.0000E+00  0.1200E+02
    -10.286  0.0000E+00  0.1200E+02
    -10.171  0.0000E+00  0.1200E+02
    -10.057  0.0000E+00  0.1200E+02
     -9.943  0.0000E+00  0.1200E+02
     -9.829  0.0000E+00  0.1200E+02
     -9.714  0.0000E+00  0.1200E+02
     -9.600  0.0000E+00  0.1200E+02
     -9.486  0.0000E+00  0.1200E+02
     -9.372  0.0000E+00  0.1200E+02
     -9.258  0.0000E+00  0.1200E+02
     -9.143  0.0000E+00  0.1200E+02
     -9.029  0.0000E+00  0.1200E+02
     -8.915  0.0000E+00  0.1200E+02
     -8.801  0.0000E+00  0.1200E+02
     -8.687  0.0000E+00  0.1200E+02
     -8.572  0.0000E+00  0.1200E+02
     -8.458  0.0000E+00  0.1200E+02
     -8.344  0.0000E+00  0.1200E+02
     -8.230  0.1065E-01  0.1200E+02
     -8.116  0.2750E+00  0.1201E+02
     -8.001  0.4437E+00  0.1206E+02
     -7.887  0.6575E+00  0.1212E+02
     -7.773  0.8708E+00  0.1221E+02
     -7.659  0.1220E+01  0.1233E+02
     -7.545  0.1673E+01  0.1249E+02
     -7.430  0.3139E+01  0.1274E+02
     -7.316  0.6371E+01  0.1343E+02
     -7.202  0.1728E+01  0.1385E+02
     -7.088  0.4592E+00  0.1396E+02
     -6.974  0.2170E+00  0.1400E+02
     -6.859  0.2109E+00  0.1402E+02
     -6.745  0.3464E+00  0.1405E+02
     -6.631  0.5911E+00  0.1411E+02
     -6.517  0.1117E+01  0.1420E+02
     -6.403  0.2030E+01  0.1437E+02
     -6.288  0.3393E+01  0.1468E+02
     -6.174  0.4827E+01  0.1517E+02
     -6.060  0.2092E+01  0.1557E+02
     -5.946  0.1240E+01  0.1575E+02
     -5.832  0.7723E+00  0.1587E+02
     -5.717  0.5893E+00  0.1594E+02
     -5.603  0.2373E+00  0.1600E+02
     -5.489  0.2576E+00  0.1601E+02
     -5.375  0.2450E+01  0.1614E+02
     -5.260  0.3217E+01  0.1648E+02
     -5.146  0.3080E+01  0.1685E+02
     -5.032  0.2959E+01  0.1719E+02
     -4.918  0.2087E+01  0.1749E+02
     -4.804  0.1595E+01  0.1770E+02
     -4.689  0.1294E+01  0.1786E+02
     -4.575  0.6281E+00  0.1798E+02
     -4.461  0.4499E+01  0.1811E+02
     -4.347  0.9566E+01  0.1920E+02
     -4.233  0.4832E+01  0.1996E+02
     -4.118  0.8948E+01  0.2069E+02
     -4.004  0.6475E+01  0.2160E+02
     -3.890  0.1582E+01  0.2209E+02
     -3.776  0.7600E+01  0.2253E+02
     -3.662  0.6221E+01  0.2346E+02
     -3.547  0.2459E+01  0.2388E+02
     -3.433  0.2503E-01  0.2400E+02
     -3.319  0.0000E+00  0.2400E+02
     -3.205  0.0000E+00  0.2400E+02
     -3.091  0.0000E+00  0.2400E+02
     -2.976  0.0000E+00  0.2400E+02
     -2.862  0.0000E+00  0.2400E+02
     -2.748  0.0000E+00  0.2400E+02
     -2.634  0.0000E+00  0.2400E+02
     -2.520  0.0000E+00  0.2400E+02
     -2.405  0.0000E+00  0.2400E+02
     -2.291  0.0000E+00  0.2400E+02
     -2.177  0.1061E+02  0.2438E+02
     -2.063  0.7471E+01  0.2572E+02
     -1.949  0.7508E+01  0.2654E+02
     -1.834  0.5988E+01  0.2725E+02
     -1.720  0.3503E+01  0.2788E+02
     -1.606  0.7721E+01  0.2827E+02
     -1.492  0.8244E+01  0.2938E+02
     -1.377  0.1367E+01  0.2998E+02
     -1.263  0.7623E+01  0.3025E+02
     -1.149  0.1407E+02  0.3154E+02
     -1.035  0.8621E+00  0.3199E+02
     -0.921  0.2286E+02  0.3320E+02
     -0.806  0.9891E+00  0.3391E+02
     -0.692  0.5613E+01  0.3427E+02
     -0.578  0.9641E+01  0.3511E+02
     -0.464  0.7452E+01  0.3622E+02
     -0.350  0.7349E+01  0.3735E+02
     -0.235  0.4840E+01  0.3796E+02
     -0.121  0.8573E+01  0.3882E+02
     -0.007  0.5357E+01  0.3978E+02
      0.107  0.8070E+01  0.4040E+02
      0.221  0.9444E+01  0.4173E+02
      0.336  0.2226E+01  0.4205E+02
      0.450  0.1580E+02  0.4311E+02
      0.564  0.1652E+01  0.4382E+02
      0.678  0.4481E+01  0.4425E+02
      0.792  0.1131E+02  0.4499E+02
      0.907  0.5529E+01  0.4613E+02
      1.021  0.1072E+02  0.4690E+02
      1.135  0.3750E+01  0.4790E+02
      1.249  0.0000E+00  0.4800E+02
      1.363  0.0000E+00  0.4800E+02
      1.478  0.0000E+00  0.4800E+02
      1.592  0.0000E+00  0.4800E+02
      1.706  0.0000E+00  0.4800E+02
      1.820  0.0000E+00  0.4800E+02
      1.934  0.0000E+00  0.4800E+02
      2.049  0.0000E+00  0.4800E+02
      2.163  0.0000E+00  0.4800E+02
      2.277  0.0000E+00  0.4800E+02
      2.391  0.0000E+00  0.4800E+02
      2.505  0.0000E+00  0.4800E+02
      2.620  0.0000E+00  0.4800E+02
      2.734  0.0000E+00  0.4800E+02
      2.848  0.0000E+00  0.4800E+02
      2.962  0.0000E+00  0.4800E+02
      3.077  0.0000E+00  0.4800E+02
      3.191  0.0000E+00  0.4800E+02
      3.305  0.0000E+00  0.4800E+02
      3.419  0.0000E+00  0.4800E+02
      3.533  0.0000E+00  0.4800E+02
      3.648  0.0000E+00  0.4800E+02
      3.762  0.0000E+00  0.4800E+02
      3.876  0.0000E+00  0.4800E+02
      3.990  0.0000E+00  0.4800E+02
      4.104  0.0000E+00  0.4800E+02
      4.219  0.0000E+00  0.4800E+02
      4.333  0.0000E+00  0.4800E+02
      4.447  0.0000E+00  0.4800E+02
      4.561  0.0000E+00  0.4800E+02
      4.675  0.0000E+00  0.4800E+02
      4.790  0.0000E+00  0.4800E+02
      4.904  0.0000E+00  0.4800E+02
      5.018  0.0000E+00  0.4800E+02
      5.132  0.0000E+00  0.4800E+02
      5.246  0.0000E+00  0.4800E+02
      5.361  0.0000E+00  0.4800E+02
      5.475  0.0000E+00  0.4800E+02
      5.589  0.0000E+00  0.4800E+02
      5.703  0.0000E+00  0.4800E+02
      5.817  0.0000E+00  0.4800E+02
      5.932  0.0000E+00  0.4800E+02
      6.046  0.0000E+00  0.4800E+02
      6.160  0.0000E+00  0.4800E+02
      6.274  0.0000E+00  0.4800E+02
      6.388  0.0000E+00  0.4800E+02
      6.503  0.0000E+00  0.4800E+02
      6.617  0.0000E+00  0.4800E+02
      6.731  0.0000E+00  0.4800E+02
      6.845  0.0000E+00  0.4800E+02
      6.959  0.0000E+00  0.4800E+02
      7.074  0.0000E+00  0.4800E+02
      7.188  0.7809E-02  0.4800E+02
      7.302  0.4123E-01  0.4800E+02
      7.416  0.1010E+00  0.4801E+02
      7.531  0.1917E+00  0.4803E+02
      7.645  0.2427E+00  0.4805E+02
      7.759  0.2758E+00  0.4808E+02
      7.873  0.2942E+00  0.4811E+02
      7.987  0.3396E+00  0.4815E+02
      8.102  0.3878E+00  0.4819E+02
      8.216  0.4385E+00  0.4824E+02
      8.330  0.4917E+00  0.4829E+02
      8.444  0.5472E+00  0.4835E+02
      8.558  0.6812E+00  0.4842E+02
      8.673  0.8364E+00  0.4851E+02
      8.787  0.8294E+00  0.4860E+02
      8.901  0.8915E+00  0.4870E+02
      9.015  0.9557E+00  0.4881E+02
      9.129  0.1022E+01  0.4892E+02
      9.244  0.1157E+01  0.4904E+02
      9.358  0.1574E+01  0.4921E+02
      9.472  0.1379E+01  0.4938E+02
      9.586  0.1272E+01  0.4953E+02
      9.700  0.1403E+01  0.4968E+02
      9.815  0.1484E+01  0.4985E+02
      9.929  0.1434E+01  0.5006E+02
     10.043  0.1066E+01  0.5019E+02
     10.157  0.1785E+01  0.5033E+02
     10.271  0.6445E+01  0.5073E+02
     10.386  0.6851E+01  0.5175E+02
     10.500  0.4386E+01  0.5227E+02
     10.614  0.9155E+01  0.5301E+02
     10.728  0.5882E+01  0.5387E+02
     10.842  0.2661E+01  0.5436E+02
     10.957  0.2818E+01  0.5464E+02
     11.071  0.6743E+01  0.5517E+02
     11.185  0.4419E+01  0.5589E+02
     11.299  0.4510E+01  0.5641E+02
     11.414  0.6849E+01  0.5706E+02
     11.528  0.4858E+01  0.5778E+02
     11.642  0.2526E+00  0.5799E+02
     11.756  0.2413E-01  0.5800E+02
     11.870  0.0000E+00  0.5800E+02
     11.985  0.0000E+00  0.5800E+02
     12.099  0.0000E+00  0.5800E+02
     12.213  0.0000E+00  0.5800E+02
     12.327  0.0000E+00  0.5800E+02
     12.441  0.0000E+00  0.5800E+02
     12.556  0.0000E+00  0.5800E+02
     12.670  0.0000E+00  0.5800E+02
     12.784  0.0000E+00  0.5800E+02
     12.898  0.0000E+00  0.5800E+02
     13.012  0.0000E+00  0.5800E+02
     13.127  0.0000E+00  0.5800E+02
     13.241  0.0000E+00  0.5800E+02
     13.355  0.0000E+00  0.5800E+02
     13.469  0.0000E+00  0.5800E+02
     13.583  0.0000E+00  0.5800E+02
     13.698  0.0000E+00  0.5800E+02
     13.812  0.0000E+00  0.5800E+02
