Starting job 28173595 ("jobname") on c14-27 at Fri Sep 13 11:29:18 CEST 2019
 running on    1 total cores
 distrk:  each k-point on    1 cores,    1 groups
 distr:  one band on    1 cores,    1 groups
 using from now: INCAR     
 vasp.5.4.1 05Feb16 (build Mar 02 2016 14:09:44) complex                        
  
 POSCAR found :  2 types and       9 ions
 LDA part: xc-table for Pade appr. of Perdew
 POSCAR, INCAR and KPOINTS ok, starting setup
 WARNING: small aliasing (wrap around) errors must be expected
 FFT: planning ...
 WAVECAR not read
 entering main loop
       N       E                     dE             d eps       ncg     rms          rms(c)
DAV:   1     0.308432126366E+03    0.30843E+03   -0.25369E+04  5368   0.149E+03
DAV:   2    -0.606247438263E+02   -0.36906E+03   -0.36035E+03  7042   0.339E+02
DAV:   3    -0.801681011156E+02   -0.19543E+02   -0.19490E+02  6241   0.887E+01
DAV:   4    -0.804197302720E+02   -0.25163E+00   -0.25124E+00  6328   0.109E+01
DAV:   5    -0.804245117767E+02   -0.47815E-02   -0.47796E-02  6176   0.148E+00    0.188E+01
RMM:   6    -0.707150041620E+02    0.97095E+01   -0.42389E+01  5682   0.346E+01    0.513E+00
RMM:   7    -0.707031078604E+02    0.11896E-01   -0.17376E+00  6148   0.607E+00    0.340E+00
RMM:   8    -0.707219876228E+02   -0.18880E-01   -0.28762E-01  6053   0.431E+00    0.658E-01
RMM:   9    -0.707134972582E+02    0.84904E-02   -0.51878E-02  6251   0.121E+00    0.154E-01
RMM:  10    -0.707163889076E+02   -0.28916E-02   -0.17503E-02  6190   0.683E-01    0.203E-01
RMM:  11    -0.707154743347E+02    0.91457E-03   -0.46108E-03  6188   0.395E-01    0.181E-02
RMM:  12    -0.707155203259E+02   -0.45991E-04   -0.17103E-04  5720   0.790E-02    0.147E-02
RMM:  13    -0.707155209905E+02   -0.66462E-06   -0.11222E-05  4030   0.194E-02
   1 F= -.70715521E+02 E0= -.70715521E+02  d E =0.000000E+00

Currently Loaded Modulefiles:
  1) Anaconda3/5.1.0       3) vesta/3.3.8           5) intel/2016.1
  2) gnuplot/5.0.4         4) imagemagick/6.7.9-0   6) vasp/5.4.1.Feb16

Job script resource usage:
       JobID  MaxVMSize     MaxRSS 
------------ ---------- ---------- 
28173595.ba+    538440K    171703K 

Job step resource usage:
       JobID    JobName  AllocCPUS  MaxVMSize     MaxRSS    Elapsed ExitCode 
------------ ---------- ---------- ---------- ---------- ---------- -------- 
28173595        jobname          1                         00:02:26      0:0 

Job 28173595 ("jobname") completed on c14-27 at Fri Sep 13 11:31:43 CEST 2019
