<?xml version="1.0" encoding="ISO-8859-1"?>
<modeling>
 <generator>
  <i name="program" type="string">vasp </i>
  <i name="version" type="string">5.4.1  </i>
  <i name="subversion" type="string">05Feb16 (build Mar 02 2016 14:09:44) complex                          parallel </i>
  <i name="platform" type="string">Abel-impi-ifc-cuda </i>
  <i name="date" type="string">2019 09 13 </i>
  <i name="time" type="string">11:29:19 </i>
 </generator>
 <incar>
  <i type="string" name="PREC">normal    ! low/normal/accurate</i>
  <i type="string" name="ALGO"> Fast      ! Algorithm for electronic re</i>
  <i type="int" name="ISPIN">     1</i>
  <i type="int" name="NELMIN">     4</i>
  <i name="EDIFF">      0.00001000</i>
  <i type="int" name="NSW">     0</i>
  <i name="ENCUT">    500.00000000</i>
  <i type="string" name="LREAL"> Auto      ! Projection in reciprocal sp</i>
  <i type="int" name="ISMEAR">    -5</i>
  <i name="SIGMA">      0.20000000</i>
  <i type="logical" name="LWAVE"> F  </i>
  <v type="int" name="KPOINT_BSE">    -1     0     0     0</v>
 </incar>
 <kpoints>
  <generation param="Gamma">
   <v type="int" name="divisions">       6        6        5 </v>
   <v name="usershift">      0.00000000       0.00000000       0.00000000 </v>
   <v name="genvec1">      0.16666667       0.00000000       0.00000000 </v>
   <v name="genvec2">      0.00000000       0.16666667       0.00000000 </v>
   <v name="genvec3">      0.00000000       0.00000000       0.20000000 </v>
   <v name="shift">      0.00000000       0.00000000       0.00000000 </v>
  </generation>
  <varray name="kpointlist" >
   <v>       0.00000000       0.00000000       0.00000000 </v>
   <v>       0.16666667       0.00000000       0.00000000 </v>
   <v>       0.33333333       0.00000000       0.00000000 </v>
   <v>       0.50000000       0.00000000       0.00000000 </v>
   <v>       0.00000000       0.16666667       0.00000000 </v>
   <v>       0.16666667       0.16666667       0.00000000 </v>
   <v>       0.33333333       0.16666667       0.00000000 </v>
   <v>       0.50000000       0.16666667       0.00000000 </v>
   <v>      -0.33333333       0.16666667       0.00000000 </v>
   <v>      -0.16666667       0.16666667       0.00000000 </v>
   <v>       0.00000000       0.33333333       0.00000000 </v>
   <v>       0.16666667       0.33333333       0.00000000 </v>
   <v>       0.33333333       0.33333333       0.00000000 </v>
   <v>       0.50000000       0.33333333       0.00000000 </v>
   <v>      -0.33333333       0.33333333       0.00000000 </v>
   <v>      -0.16666667       0.33333333       0.00000000 </v>
   <v>       0.00000000       0.50000000       0.00000000 </v>
   <v>       0.16666667       0.50000000       0.00000000 </v>
   <v>       0.33333333       0.50000000       0.00000000 </v>
   <v>       0.50000000       0.50000000       0.00000000 </v>
   <v>       0.00000000       0.00000000       0.20000000 </v>
   <v>       0.16666667       0.00000000       0.20000000 </v>
   <v>       0.33333333       0.00000000       0.20000000 </v>
   <v>       0.50000000       0.00000000       0.20000000 </v>
   <v>      -0.33333333       0.00000000       0.20000000 </v>
   <v>      -0.16666667       0.00000000       0.20000000 </v>
   <v>       0.00000000       0.16666667       0.20000000 </v>
   <v>       0.16666667       0.16666667       0.20000000 </v>
   <v>       0.33333333       0.16666667       0.20000000 </v>
   <v>       0.50000000       0.16666667       0.20000000 </v>
   <v>      -0.33333333       0.16666667       0.20000000 </v>
   <v>      -0.16666667       0.16666667       0.20000000 </v>
   <v>       0.00000000       0.33333333       0.20000000 </v>
   <v>       0.16666667       0.33333333       0.20000000 </v>
   <v>       0.33333333       0.33333333       0.20000000 </v>
   <v>       0.50000000       0.33333333       0.20000000 </v>
   <v>      -0.33333333       0.33333333       0.20000000 </v>
   <v>      -0.16666667       0.33333333       0.20000000 </v>
   <v>       0.00000000       0.50000000       0.20000000 </v>
   <v>       0.16666667       0.50000000       0.20000000 </v>
   <v>       0.33333333       0.50000000       0.20000000 </v>
   <v>       0.50000000       0.50000000       0.20000000 </v>
   <v>      -0.33333333       0.50000000       0.20000000 </v>
   <v>      -0.16666667       0.50000000       0.20000000 </v>
   <v>       0.00000000      -0.33333333       0.20000000 </v>
   <v>       0.16666667      -0.33333333       0.20000000 </v>
   <v>       0.33333333      -0.33333333       0.20000000 </v>
   <v>       0.50000000      -0.33333333       0.20000000 </v>
   <v>      -0.33333333      -0.33333333       0.20000000 </v>
   <v>      -0.16666667      -0.33333333       0.20000000 </v>
   <v>       0.00000000      -0.16666667       0.20000000 </v>
   <v>       0.16666667      -0.16666667       0.20000000 </v>
   <v>       0.33333333      -0.16666667       0.20000000 </v>
   <v>       0.50000000      -0.16666667       0.20000000 </v>
   <v>      -0.33333333      -0.16666667       0.20000000 </v>
   <v>      -0.16666667      -0.16666667       0.20000000 </v>
   <v>       0.00000000       0.00000000       0.40000000 </v>
   <v>       0.16666667       0.00000000       0.40000000 </v>
   <v>       0.33333333       0.00000000       0.40000000 </v>
   <v>       0.50000000       0.00000000       0.40000000 </v>
   <v>      -0.33333333       0.00000000       0.40000000 </v>
   <v>      -0.16666667       0.00000000       0.40000000 </v>
   <v>       0.00000000       0.16666667       0.40000000 </v>
   <v>       0.16666667       0.16666667       0.40000000 </v>
   <v>       0.33333333       0.16666667       0.40000000 </v>
   <v>       0.50000000       0.16666667       0.40000000 </v>
   <v>      -0.33333333       0.16666667       0.40000000 </v>
   <v>      -0.16666667       0.16666667       0.40000000 </v>
   <v>       0.00000000       0.33333333       0.40000000 </v>
   <v>       0.16666667       0.33333333       0.40000000 </v>
   <v>       0.33333333       0.33333333       0.40000000 </v>
   <v>       0.50000000       0.33333333       0.40000000 </v>
   <v>      -0.33333333       0.33333333       0.40000000 </v>
   <v>      -0.16666667       0.33333333       0.40000000 </v>
   <v>       0.00000000       0.50000000       0.40000000 </v>
   <v>       0.16666667       0.50000000       0.40000000 </v>
   <v>       0.33333333       0.50000000       0.40000000 </v>
   <v>       0.50000000       0.50000000       0.40000000 </v>
   <v>      -0.33333333       0.50000000       0.40000000 </v>
   <v>      -0.16666667       0.50000000       0.40000000 </v>
   <v>       0.00000000      -0.33333333       0.40000000 </v>
   <v>       0.16666667      -0.33333333       0.40000000 </v>
   <v>       0.33333333      -0.33333333       0.40000000 </v>
   <v>       0.50000000      -0.33333333       0.40000000 </v>
   <v>      -0.33333333      -0.33333333       0.40000000 </v>
   <v>      -0.16666667      -0.33333333       0.40000000 </v>
   <v>       0.00000000      -0.16666667       0.40000000 </v>
   <v>       0.16666667      -0.16666667       0.40000000 </v>
   <v>       0.33333333      -0.16666667       0.40000000 </v>
   <v>       0.50000000      -0.16666667       0.40000000 </v>
   <v>      -0.33333333      -0.16666667       0.40000000 </v>
   <v>      -0.16666667      -0.16666667       0.40000000 </v>
  </varray>
  <varray name="weights" >
   <v>       0.00555556 </v>
   <v>       0.01111111 </v>
   <v>       0.01111111 </v>
   <v>       0.00555556 </v>
   <v>       0.01111111 </v>
   <v>       0.01111111 </v>
   <v>       0.01111111 </v>
   <v>       0.01111111 </v>
   <v>       0.01111111 </v>
   <v>       0.01111111 </v>
   <v>       0.01111111 </v>
   <v>       0.01111111 </v>
   <v>       0.01111111 </v>
   <v>       0.01111111 </v>
   <v>       0.01111111 </v>
   <v>       0.01111111 </v>
   <v>       0.00555556 </v>
   <v>       0.01111111 </v>
   <v>       0.01111111 </v>
   <v>       0.00555556 </v>
   <v>       0.01111111 </v>
   <v>       0.01111111 </v>
   <v>       0.01111111 </v>
   <v>       0.01111111 </v>
   <v>       0.01111111 </v>
   <v>       0.01111111 </v>
   <v>       0.01111111 </v>
   <v>       0.01111111 </v>
   <v>       0.01111111 </v>
   <v>       0.01111111 </v>
   <v>       0.01111111 </v>
   <v>       0.01111111 </v>
   <v>       0.01111111 </v>
   <v>       0.01111111 </v>
   <v>       0.01111111 </v>
   <v>       0.01111111 </v>
   <v>       0.01111111 </v>
   <v>       0.01111111 </v>
   <v>       0.01111111 </v>
   <v>       0.01111111 </v>
   <v>       0.01111111 </v>
   <v>       0.01111111 </v>
   <v>       0.01111111 </v>
   <v>       0.01111111 </v>
   <v>       0.01111111 </v>
   <v>       0.01111111 </v>
   <v>       0.01111111 </v>
   <v>       0.01111111 </v>
   <v>       0.01111111 </v>
   <v>       0.01111111 </v>
   <v>       0.01111111 </v>
   <v>       0.01111111 </v>
   <v>       0.01111111 </v>
   <v>       0.01111111 </v>
   <v>       0.01111111 </v>
   <v>       0.01111111 </v>
   <v>       0.01111111 </v>
   <v>       0.01111111 </v>
   <v>       0.01111111 </v>
   <v>       0.01111111 </v>
   <v>       0.01111111 </v>
   <v>       0.01111111 </v>
   <v>       0.01111111 </v>
   <v>       0.01111111 </v>
   <v>       0.01111111 </v>
   <v>       0.01111111 </v>
   <v>       0.01111111 </v>
   <v>       0.01111111 </v>
   <v>       0.01111111 </v>
   <v>       0.01111111 </v>
   <v>       0.01111111 </v>
   <v>       0.01111111 </v>
   <v>       0.01111111 </v>
   <v>       0.01111111 </v>
   <v>       0.01111111 </v>
   <v>       0.01111111 </v>
   <v>       0.01111111 </v>
   <v>       0.01111111 </v>
   <v>       0.01111111 </v>
   <v>       0.01111111 </v>
   <v>       0.01111111 </v>
   <v>       0.01111111 </v>
   <v>       0.01111111 </v>
   <v>       0.01111111 </v>
   <v>       0.01111111 </v>
   <v>       0.01111111 </v>
   <v>       0.01111111 </v>
   <v>       0.01111111 </v>
   <v>       0.01111111 </v>
   <v>       0.01111111 </v>
   <v>       0.01111111 </v>
   <v>       0.01111111 </v>
  </varray>
  <varray name="tetrahedronlist"  type="int" >
   <v type="int" >        2        2        5        6       27 </v>
   <v type="int" >        2        1        2        5       27 </v>
   <v type="int" >        2        1        2       21       27 </v>
   <v type="int" >        2        2        6       27       28 </v>
   <v type="int" >        2        2       22       27       28 </v>
   <v type="int" >        2        2       21       22       27 </v>
   <v type="int" >        2        3        6        7       28 </v>
   <v type="int" >        2        2        3        6       28 </v>
   <v type="int" >        2        2        3       22       28 </v>
   <v type="int" >        2        3        7       28       29 </v>
   <v type="int" >        2        3       23       28       29 </v>
   <v type="int" >        2        3       22       23       28 </v>
   <v type="int" >        2        4        7        8       29 </v>
   <v type="int" >        2        3        4        7       29 </v>
   <v type="int" >        2        3        4       23       29 </v>
   <v type="int" >        2        4        8       29       30 </v>
   <v type="int" >        2        4       24       29       30 </v>
   <v type="int" >        2        4       23       24       29 </v>
   <v type="int" >        2        3        8        9       30 </v>
   <v type="int" >        2        3        4        8       30 </v>
   <v type="int" >        2        3        4       24       30 </v>
   <v type="int" >        2        3        9       30       31 </v>
   <v type="int" >        2        3       25       30       31 </v>
   <v type="int" >        2        3       24       25       30 </v>
   <v type="int" >        2        2        9       10       31 </v>
   <v type="int" >        2        2        3        9       31 </v>
   <v type="int" >        2        2        3       25       31 </v>
   <v type="int" >        2        2       10       31       32 </v>
   <v type="int" >        2        2       26       31       32 </v>
   <v type="int" >        2        2       25       26       31 </v>
   <v type="int" >        2        1        5       10       32 </v>
   <v type="int" >        2        1        2       10       32 </v>
   <v type="int" >        2        1        2       26       32 </v>
   <v type="int" >        2        1        5       27       32 </v>
   <v type="int" >        2        1       21       27       32 </v>
   <v type="int" >        2        1       21       26       32 </v>
   <v type="int" >        2        6       11       12       33 </v>
   <v type="int" >        2        5        6       11       33 </v>
   <v type="int" >        2        5        6       27       33 </v>
   <v type="int" >        2        6       12       33       34 </v>
   <v type="int" >        2        6       28       33       34 </v>
   <v type="int" >        2        6       27       28       33 </v>
   <v type="int" >        2        7       12       13       34 </v>
   <v type="int" >        2        6        7       12       34 </v>
   <v type="int" >        2        6        7       28       34 </v>
   <v type="int" >        2        7       13       34       35 </v>
   <v type="int" >        2        7       29       34       35 </v>
   <v type="int" >        2        7       28       29       34 </v>
   <v type="int" >        2        8       13       14       35 </v>
   <v type="int" >        2        7        8       13       35 </v>
   <v type="int" >        2        7        8       29       35 </v>
   <v type="int" >        2        8       14       35       36 </v>
   <v type="int" >        2        8       30       35       36 </v>
   <v type="int" >        2        8       29       30       35 </v>
   <v type="int" >        2        9       14       15       36 </v>
   <v type="int" >        2        8        9       14       36 </v>
   <v type="int" >        2        8        9       30       36 </v>
   <v type="int" >        2        9       15       36       37 </v>
   <v type="int" >        2        9       31       36       37 </v>
   <v type="int" >        2        9       30       31       36 </v>
   <v type="int" >        2       10       15       16       37 </v>
   <v type="int" >        2        9       10       15       37 </v>
   <v type="int" >        2        9       10       31       37 </v>
   <v type="int" >        2       10       16       37       38 </v>
   <v type="int" >        2       10       32       37       38 </v>
   <v type="int" >        2       10       31       32       37 </v>
   <v type="int" >        2        5       11       16       38 </v>
   <v type="int" >        2        5       10       16       38 </v>
   <v type="int" >        2        5       10       32       38 </v>
   <v type="int" >        2        5       11       33       38 </v>
   <v type="int" >        2        5       27       33       38 </v>
   <v type="int" >        2        5       27       32       38 </v>
   <v type="int" >        2       12       17       18       39 </v>
   <v type="int" >        2       11       12       17       39 </v>
   <v type="int" >        2       11       12       33       39 </v>
   <v type="int" >        2       12       18       39       40 </v>
   <v type="int" >        2       12       34       39       40 </v>
   <v type="int" >        2       12       33       34       39 </v>
   <v type="int" >        2       13       18       19       40 </v>
   <v type="int" >        2       12       13       18       40 </v>
   <v type="int" >        2       12       13       34       40 </v>
   <v type="int" >        2       13       19       40       41 </v>
   <v type="int" >        2       13       35       40       41 </v>
   <v type="int" >        2       13       34       35       40 </v>
   <v type="int" >        2       14       19       20       41 </v>
   <v type="int" >        2       13       14       19       41 </v>
   <v type="int" >        2       13       14       35       41 </v>
   <v type="int" >        2       14       20       41       42 </v>
   <v type="int" >        2       14       36       41       42 </v>
   <v type="int" >        2       14       35       36       41 </v>
   <v type="int" >        2       15       19       20       42 </v>
   <v type="int" >        2       14       15       20       42 </v>
   <v type="int" >        2       14       15       36       42 </v>
   <v type="int" >        2       15       19       42       43 </v>
   <v type="int" >        2       15       37       42       43 </v>
   <v type="int" >        2       15       36       37       42 </v>
   <v type="int" >        2       16       18       19       43 </v>
   <v type="int" >        2       15       16       19       43 </v>
   <v type="int" >        2       15       16       37       43 </v>
   <v type="int" >        2       16       18       43       44 </v>
   <v type="int" >        2       16       38       43       44 </v>
   <v type="int" >        2       16       37       38       43 </v>
   <v type="int" >        2       11       17       18       44 </v>
   <v type="int" >        2       11       16       18       44 </v>
   <v type="int" >        2       11       16       38       44 </v>
   <v type="int" >        2       11       17       39       44 </v>
   <v type="int" >        2       11       33       39       44 </v>
   <v type="int" >        2       11       33       38       44 </v>
   <v type="int" >        2       11       16       18       45 </v>
   <v type="int" >        2       11       17       18       45 </v>
   <v type="int" >        2       17       18       39       45 </v>
   <v type="int" >        2       16       18       45       46 </v>
   <v type="int" >        2       18       40       45       46 </v>
   <v type="int" >        2       18       39       40       45 </v>
   <v type="int" >        2       15       16       19       46 </v>
   <v type="int" >        2       16       18       19       46 </v>
   <v type="int" >        2       18       19       40       46 </v>
   <v type="int" >        2       15       19       46       47 </v>
   <v type="int" >        2       19       41       46       47 </v>
   <v type="int" >        2       19       40       41       46 </v>
   <v type="int" >        2       14       15       20       47 </v>
   <v type="int" >        2       15       19       20       47 </v>
   <v type="int" >        2       19       20       41       47 </v>
   <v type="int" >        2       14       20       47       48 </v>
   <v type="int" >        2       20       42       47       48 </v>
   <v type="int" >        2       20       41       42       47 </v>
   <v type="int" >        2       13       14       19       48 </v>
   <v type="int" >        2       14       19       20       48 </v>
   <v type="int" >        2       19       20       42       48 </v>
   <v type="int" >        2       13       19       48       49 </v>
   <v type="int" >        2       19       43       48       49 </v>
   <v type="int" >        2       19       42       43       48 </v>
   <v type="int" >        2       12       13       18       49 </v>
   <v type="int" >        2       13       18       19       49 </v>
   <v type="int" >        2       18       19       43       49 </v>
   <v type="int" >        2       12       18       49       50 </v>
   <v type="int" >        2       18       44       49       50 </v>
   <v type="int" >        2       18       43       44       49 </v>
   <v type="int" >        2       11       12       17       50 </v>
   <v type="int" >        2       12       17       18       50 </v>
   <v type="int" >        2       17       18       44       50 </v>
   <v type="int" >        2       11       17       45       50 </v>
   <v type="int" >        2       17       39       45       50 </v>
   <v type="int" >        2       17       39       44       50 </v>
   <v type="int" >        2        5       10       16       51 </v>
   <v type="int" >        2        5       11       16       51 </v>
   <v type="int" >        2       11       16       45       51 </v>
   <v type="int" >        2       10       16       51       52 </v>
   <v type="int" >        2       16       46       51       52 </v>
   <v type="int" >        2       16       45       46       51 </v>
   <v type="int" >        2        9       10       15       52 </v>
   <v type="int" >        2       10       15       16       52 </v>
   <v type="int" >        2       15       16       46       52 </v>
   <v type="int" >        2        9       15       52       53 </v>
   <v type="int" >        2       15       47       52       53 </v>
   <v type="int" >        2       15       46       47       52 </v>
   <v type="int" >        2        8        9       14       53 </v>
   <v type="int" >        2        9       14       15       53 </v>
   <v type="int" >        2       14       15       47       53 </v>
   <v type="int" >        2        8       14       53       54 </v>
   <v type="int" >        2       14       48       53       54 </v>
   <v type="int" >        2       14       47       48       53 </v>
   <v type="int" >        2        7        8       13       54 </v>
   <v type="int" >        2        8       13       14       54 </v>
   <v type="int" >        2       13       14       48       54 </v>
   <v type="int" >        2        7       13       54       55 </v>
   <v type="int" >        2       13       49       54       55 </v>
   <v type="int" >        2       13       48       49       54 </v>
   <v type="int" >        2        6        7       12       55 </v>
   <v type="int" >        2        7       12       13       55 </v>
   <v type="int" >        2       12       13       49       55 </v>
   <v type="int" >        2        6       12       55       56 </v>
   <v type="int" >        2       12       50       55       56 </v>
   <v type="int" >        2       12       49       50       55 </v>
   <v type="int" >        2        5        6       11       56 </v>
   <v type="int" >        2        6       11       12       56 </v>
   <v type="int" >        2       11       12       50       56 </v>
   <v type="int" >        2        5       11       51       56 </v>
   <v type="int" >        2       11       45       51       56 </v>
   <v type="int" >        2       11       45       50       56 </v>
   <v type="int" >        2        1        2       10       21 </v>
   <v type="int" >        2        1        5       10       21 </v>
   <v type="int" >        2        5       10       21       51 </v>
   <v type="int" >        2        2       10       21       22 </v>
   <v type="int" >        2       10       21       22       52 </v>
   <v type="int" >        2       10       21       51       52 </v>
   <v type="int" >        2        2        3        9       22 </v>
   <v type="int" >        2        2        9       10       22 </v>
   <v type="int" >        2        9       10       22       52 </v>
   <v type="int" >        2        3        9       22       23 </v>
   <v type="int" >        2        9       22       23       53 </v>
   <v type="int" >        2        9       22       52       53 </v>
   <v type="int" >        2        3        4        8       23 </v>
   <v type="int" >        2        3        8        9       23 </v>
   <v type="int" >        2        8        9       23       53 </v>
   <v type="int" >        2        4        8       23       24 </v>
   <v type="int" >        2        8       23       24       54 </v>
   <v type="int" >        2        8       23       53       54 </v>
   <v type="int" >        2        3        4        7       24 </v>
   <v type="int" >        2        4        7        8       24 </v>
   <v type="int" >        2        7        8       24       54 </v>
   <v type="int" >        2        3        7       24       25 </v>
   <v type="int" >        2        7       24       25       55 </v>
   <v type="int" >        2        7       24       54       55 </v>
   <v type="int" >        2        2        3        6       25 </v>
   <v type="int" >        2        3        6        7       25 </v>
   <v type="int" >        2        6        7       25       55 </v>
   <v type="int" >        2        2        6       25       26 </v>
   <v type="int" >        2        6       25       26       56 </v>
   <v type="int" >        2        6       25       55       56 </v>
   <v type="int" >        2        1        2        5       26 </v>
   <v type="int" >        2        2        5        6       26 </v>
   <v type="int" >        2        5        6       26       56 </v>
   <v type="int" >        2        1        5       21       26 </v>
   <v type="int" >        2        5       21       26       51 </v>
   <v type="int" >        2        5       26       51       56 </v>
   <v type="int" >        2       22       27       28       63 </v>
   <v type="int" >        2       21       22       27       63 </v>
   <v type="int" >        2       21       22       57       63 </v>
   <v type="int" >        2       22       28       63       64 </v>
   <v type="int" >        2       22       58       63       64 </v>
   <v type="int" >        2       22       57       58       63 </v>
   <v type="int" >        2       23       28       29       64 </v>
   <v type="int" >        2       22       23       28       64 </v>
   <v type="int" >        2       22       23       58       64 </v>
   <v type="int" >        2       23       29       64       65 </v>
   <v type="int" >        2       23       59       64       65 </v>
   <v type="int" >        2       23       58       59       64 </v>
   <v type="int" >        2       24       29       30       65 </v>
   <v type="int" >        2       23       24       29       65 </v>
   <v type="int" >        2       23       24       59       65 </v>
   <v type="int" >        2       24       30       65       66 </v>
   <v type="int" >        2       24       60       65       66 </v>
   <v type="int" >        2       24       59       60       65 </v>
   <v type="int" >        2       25       30       31       66 </v>
   <v type="int" >        2       24       25       30       66 </v>
   <v type="int" >        2       24       25       60       66 </v>
   <v type="int" >        2       25       31       66       67 </v>
   <v type="int" >        2       25       61       66       67 </v>
   <v type="int" >        2       25       60       61       66 </v>
   <v type="int" >        2       26       31       32       67 </v>
   <v type="int" >        2       25       26       31       67 </v>
   <v type="int" >        2       25       26       61       67 </v>
   <v type="int" >        2       26       32       67       68 </v>
   <v type="int" >        2       26       62       67       68 </v>
   <v type="int" >        2       26       61       62       67 </v>
   <v type="int" >        2       21       27       32       68 </v>
   <v type="int" >        2       21       26       32       68 </v>
   <v type="int" >        2       21       26       62       68 </v>
   <v type="int" >        2       21       27       63       68 </v>
   <v type="int" >        2       21       57       63       68 </v>
   <v type="int" >        2       21       57       62       68 </v>
   <v type="int" >        2       28       33       34       69 </v>
   <v type="int" >        2       27       28       33       69 </v>
   <v type="int" >        2       27       28       63       69 </v>
   <v type="int" >        2       28       34       69       70 </v>
   <v type="int" >        2       28       64       69       70 </v>
   <v type="int" >        2       28       63       64       69 </v>
   <v type="int" >        2       29       34       35       70 </v>
   <v type="int" >        2       28       29       34       70 </v>
   <v type="int" >        2       28       29       64       70 </v>
   <v type="int" >        2       29       35       70       71 </v>
   <v type="int" >        2       29       65       70       71 </v>
   <v type="int" >        2       29       64       65       70 </v>
   <v type="int" >        2       30       35       36       71 </v>
   <v type="int" >        2       29       30       35       71 </v>
   <v type="int" >        2       29       30       65       71 </v>
   <v type="int" >        2       30       36       71       72 </v>
   <v type="int" >        2       30       66       71       72 </v>
   <v type="int" >        2       30       65       66       71 </v>
   <v type="int" >        2       31       36       37       72 </v>
   <v type="int" >        2       30       31       36       72 </v>
   <v type="int" >        2       30       31       66       72 </v>
   <v type="int" >        2       31       37       72       73 </v>
   <v type="int" >        2       31       67       72       73 </v>
   <v type="int" >        2       31       66       67       72 </v>
   <v type="int" >        2       32       37       38       73 </v>
   <v type="int" >        2       31       32       37       73 </v>
   <v type="int" >        2       31       32       67       73 </v>
   <v type="int" >        2       32       38       73       74 </v>
   <v type="int" >        2       32       68       73       74 </v>
   <v type="int" >        2       32       67       68       73 </v>
   <v type="int" >        2       27       33       38       74 </v>
   <v type="int" >        2       27       32       38       74 </v>
   <v type="int" >        2       27       32       68       74 </v>
   <v type="int" >        2       27       33       69       74 </v>
   <v type="int" >        2       27       63       69       74 </v>
   <v type="int" >        2       27       63       68       74 </v>
   <v type="int" >        2       34       39       40       75 </v>
   <v type="int" >        2       33       34       39       75 </v>
   <v type="int" >        2       33       34       69       75 </v>
   <v type="int" >        2       34       40       75       76 </v>
   <v type="int" >        2       34       70       75       76 </v>
   <v type="int" >        2       34       69       70       75 </v>
   <v type="int" >        2       35       40       41       76 </v>
   <v type="int" >        2       34       35       40       76 </v>
   <v type="int" >        2       34       35       70       76 </v>
   <v type="int" >        2       35       41       76       77 </v>
   <v type="int" >        2       35       71       76       77 </v>
   <v type="int" >        2       35       70       71       76 </v>
   <v type="int" >        2       36       41       42       77 </v>
   <v type="int" >        2       35       36       41       77 </v>
   <v type="int" >        2       35       36       71       77 </v>
   <v type="int" >        2       36       42       77       78 </v>
   <v type="int" >        2       36       72       77       78 </v>
   <v type="int" >        2       36       71       72       77 </v>
   <v type="int" >        2       37       42       43       78 </v>
   <v type="int" >        2       36       37       42       78 </v>
   <v type="int" >        2       36       37       72       78 </v>
   <v type="int" >        2       37       43       78       79 </v>
   <v type="int" >        2       37       73       78       79 </v>
   <v type="int" >        2       37       72       73       78 </v>
   <v type="int" >        2       38       43       44       79 </v>
   <v type="int" >        2       37       38       43       79 </v>
   <v type="int" >        2       37       38       73       79 </v>
   <v type="int" >        2       38       44       79       80 </v>
   <v type="int" >        2       38       74       79       80 </v>
   <v type="int" >        2       38       73       74       79 </v>
   <v type="int" >        2       33       39       44       80 </v>
   <v type="int" >        2       33       38       44       80 </v>
   <v type="int" >        2       33       38       74       80 </v>
   <v type="int" >        2       33       39       75       80 </v>
   <v type="int" >        2       33       69       75       80 </v>
   <v type="int" >        2       33       69       74       80 </v>
   <v type="int" >        2       40       45       46       81 </v>
   <v type="int" >        2       39       40       45       81 </v>
   <v type="int" >        2       39       40       75       81 </v>
   <v type="int" >        2       40       46       81       82 </v>
   <v type="int" >        2       40       76       81       82 </v>
   <v type="int" >        2       40       75       76       81 </v>
   <v type="int" >        2       41       46       47       82 </v>
   <v type="int" >        2       40       41       46       82 </v>
   <v type="int" >        2       40       41       76       82 </v>
   <v type="int" >        2       41       47       82       83 </v>
   <v type="int" >        2       41       77       82       83 </v>
   <v type="int" >        2       41       76       77       82 </v>
   <v type="int" >        2       42       47       48       83 </v>
   <v type="int" >        2       41       42       47       83 </v>
   <v type="int" >        2       41       42       77       83 </v>
   <v type="int" >        2       42       48       83       84 </v>
   <v type="int" >        2       42       78       83       84 </v>
   <v type="int" >        2       42       77       78       83 </v>
   <v type="int" >        2       43       48       49       84 </v>
   <v type="int" >        2       42       43       48       84 </v>
   <v type="int" >        2       42       43       78       84 </v>
   <v type="int" >        2       43       49       84       85 </v>
   <v type="int" >        2       43       79       84       85 </v>
   <v type="int" >        2       43       78       79       84 </v>
   <v type="int" >        2       44       49       50       85 </v>
   <v type="int" >        2       43       44       49       85 </v>
   <v type="int" >        2       43       44       79       85 </v>
   <v type="int" >        2       44       50       85       86 </v>
   <v type="int" >        2       44       80       85       86 </v>
   <v type="int" >        2       44       79       80       85 </v>
   <v type="int" >        2       39       45       50       86 </v>
   <v type="int" >        2       39       44       50       86 </v>
   <v type="int" >        2       39       44       80       86 </v>
   <v type="int" >        2       39       45       81       86 </v>
   <v type="int" >        2       39       75       81       86 </v>
   <v type="int" >        2       39       75       80       86 </v>
   <v type="int" >        2       46       51       52       87 </v>
   <v type="int" >        2       45       46       51       87 </v>
   <v type="int" >        2       45       46       81       87 </v>
   <v type="int" >        2       46       52       87       88 </v>
   <v type="int" >        2       46       82       87       88 </v>
   <v type="int" >        2       46       81       82       87 </v>
   <v type="int" >        2       47       52       53       88 </v>
   <v type="int" >        2       46       47       52       88 </v>
   <v type="int" >        2       46       47       82       88 </v>
   <v type="int" >        2       47       53       88       89 </v>
   <v type="int" >        2       47       83       88       89 </v>
   <v type="int" >        2       47       82       83       88 </v>
   <v type="int" >        2       48       53       54       89 </v>
   <v type="int" >        2       47       48       53       89 </v>
   <v type="int" >        2       47       48       83       89 </v>
   <v type="int" >        2       48       54       89       90 </v>
   <v type="int" >        2       48       84       89       90 </v>
   <v type="int" >        2       48       83       84       89 </v>
   <v type="int" >        2       49       54       55       90 </v>
   <v type="int" >        2       48       49       54       90 </v>
   <v type="int" >        2       48       49       84       90 </v>
   <v type="int" >        2       49       55       90       91 </v>
   <v type="int" >        2       49       85       90       91 </v>
   <v type="int" >        2       49       84       85       90 </v>
   <v type="int" >        2       50       55       56       91 </v>
   <v type="int" >        2       49       50       55       91 </v>
   <v type="int" >        2       49       50       85       91 </v>
   <v type="int" >        2       50       56       91       92 </v>
   <v type="int" >        2       50       86       91       92 </v>
   <v type="int" >        2       50       85       86       91 </v>
   <v type="int" >        2       45       51       56       92 </v>
   <v type="int" >        2       45       50       56       92 </v>
   <v type="int" >        2       45       50       86       92 </v>
   <v type="int" >        2       45       51       87       92 </v>
   <v type="int" >        2       45       81       87       92 </v>
   <v type="int" >        2       45       81       86       92 </v>
   <v type="int" >        2       21       22       52       57 </v>
   <v type="int" >        2       21       51       52       57 </v>
   <v type="int" >        2       51       52       57       87 </v>
   <v type="int" >        2       22       52       57       58 </v>
   <v type="int" >        2       52       57       58       88 </v>
   <v type="int" >        2       52       57       87       88 </v>
   <v type="int" >        2       22       23       53       58 </v>
   <v type="int" >        2       22       52       53       58 </v>
   <v type="int" >        2       52       53       58       88 </v>
   <v type="int" >        2       23       53       58       59 </v>
   <v type="int" >        2       53       58       59       89 </v>
   <v type="int" >        2       53       58       88       89 </v>
   <v type="int" >        2       23       24       54       59 </v>
   <v type="int" >        2       23       53       54       59 </v>
   <v type="int" >        2       53       54       59       89 </v>
   <v type="int" >        2       24       54       59       60 </v>
   <v type="int" >        2       54       59       60       90 </v>
   <v type="int" >        2       54       59       89       90 </v>
   <v type="int" >        2       24       25       55       60 </v>
   <v type="int" >        2       24       54       55       60 </v>
   <v type="int" >        2       54       55       60       90 </v>
   <v type="int" >        2       25       55       60       61 </v>
   <v type="int" >        2       55       60       61       91 </v>
   <v type="int" >        2       55       60       90       91 </v>
   <v type="int" >        2       25       26       56       61 </v>
   <v type="int" >        2       25       55       56       61 </v>
   <v type="int" >        2       55       56       61       91 </v>
   <v type="int" >        2       26       56       61       62 </v>
   <v type="int" >        2       56       61       62       92 </v>
   <v type="int" >        2       56       61       91       92 </v>
   <v type="int" >        2       21       26       51       62 </v>
   <v type="int" >        2       26       51       56       62 </v>
   <v type="int" >        2       51       56       62       92 </v>
   <v type="int" >        2       21       51       57       62 </v>
   <v type="int" >        2       51       57       62       87 </v>
   <v type="int" >        2       51       62       87       92 </v>
   <v type="int" >        2       58       63       64       87 </v>
   <v type="int" >        2       57       58       63       87 </v>
   <v type="int" >        2       57       57       58       87 </v>
   <v type="int" >        2       58       64       87       92 </v>
   <v type="int" >        2       58       62       87       92 </v>
   <v type="int" >        2       57       58       62       87 </v>
   <v type="int" >        2       59       64       65       92 </v>
   <v type="int" >        2       58       59       64       92 </v>
   <v type="int" >        2       58       59       62       92 </v>
   <v type="int" >        2       59       65       91       92 </v>
   <v type="int" >        2       59       61       91       92 </v>
   <v type="int" >        2       59       61       62       92 </v>
   <v type="int" >        2       60       65       66       91 </v>
   <v type="int" >        2       59       60       65       91 </v>
   <v type="int" >        2       59       60       61       91 </v>
   <v type="int" >        2       60       66       90       91 </v>
   <v type="int" >        2       60       60       90       91 </v>
   <v type="int" >        2       60       60       61       91 </v>
   <v type="int" >        2       61       66       67       90 </v>
   <v type="int" >        2       60       61       66       90 </v>
   <v type="int" >        2       60       60       61       90 </v>
   <v type="int" >        2       61       67       89       90 </v>
   <v type="int" >        2       59       61       89       90 </v>
   <v type="int" >        2       59       60       61       90 </v>
   <v type="int" >        2       62       67       68       89 </v>
   <v type="int" >        2       61       62       67       89 </v>
   <v type="int" >        2       59       61       62       89 </v>
   <v type="int" >        2       62       68       88       89 </v>
   <v type="int" >        2       58       62       88       89 </v>
   <v type="int" >        2       58       59       62       89 </v>
   <v type="int" >        2       57       63       68       88 </v>
   <v type="int" >        2       57       62       68       88 </v>
   <v type="int" >        2       57       58       62       88 </v>
   <v type="int" >        2       57       63       87       88 </v>
   <v type="int" >        2       57       57       87       88 </v>
   <v type="int" >        2       57       57       58       88 </v>
   <v type="int" >        2       64       69       70       81 </v>
   <v type="int" >        2       63       64       69       81 </v>
   <v type="int" >        2       63       64       81       87 </v>
   <v type="int" >        2       64       70       81       86 </v>
   <v type="int" >        2       64       81       86       92 </v>
   <v type="int" >        2       64       81       87       92 </v>
   <v type="int" >        2       65       70       71       86 </v>
   <v type="int" >        2       64       65       70       86 </v>
   <v type="int" >        2       64       65       86       92 </v>
   <v type="int" >        2       65       71       85       86 </v>
   <v type="int" >        2       65       85       86       91 </v>
   <v type="int" >        2       65       86       91       92 </v>
   <v type="int" >        2       66       71       72       85 </v>
   <v type="int" >        2       65       66       71       85 </v>
   <v type="int" >        2       65       66       85       91 </v>
   <v type="int" >        2       66       72       84       85 </v>
   <v type="int" >        2       66       84       85       90 </v>
   <v type="int" >        2       66       85       90       91 </v>
   <v type="int" >        2       67       72       73       84 </v>
   <v type="int" >        2       66       67       72       84 </v>
   <v type="int" >        2       66       67       84       90 </v>
   <v type="int" >        2       67       73       83       84 </v>
   <v type="int" >        2       67       83       84       89 </v>
   <v type="int" >        2       67       84       89       90 </v>
   <v type="int" >        2       68       73       74       83 </v>
   <v type="int" >        2       67       68       73       83 </v>
   <v type="int" >        2       67       68       83       89 </v>
   <v type="int" >        2       68       74       82       83 </v>
   <v type="int" >        2       68       82       83       88 </v>
   <v type="int" >        2       68       83       88       89 </v>
   <v type="int" >        2       63       69       74       82 </v>
   <v type="int" >        2       63       68       74       82 </v>
   <v type="int" >        2       63       68       82       88 </v>
   <v type="int" >        2       63       69       81       82 </v>
   <v type="int" >        2       63       81       82       87 </v>
   <v type="int" >        2       63       82       87       88 </v>
   <v type="int" >        2       70       75       75       76 </v>
   <v type="int" >        2       69       70       75       75 </v>
   <v type="int" >        2       69       70       75       81 </v>
   <v type="int" >        2       70       75       76       80 </v>
   <v type="int" >        2       70       75       80       86 </v>
   <v type="int" >        2       70       75       81       86 </v>
   <v type="int" >        2       71       76       77       80 </v>
   <v type="int" >        2       70       71       76       80 </v>
   <v type="int" >        2       70       71       80       86 </v>
   <v type="int" >        2       71       77       79       80 </v>
   <v type="int" >        2       71       79       80       85 </v>
   <v type="int" >        2       71       80       85       86 </v>
   <v type="int" >        2       72       77       78       79 </v>
   <v type="int" >        2       71       72       77       79 </v>
   <v type="int" >        2       71       72       79       85 </v>
   <v type="int" >        2       72       78       78       79 </v>
   <v type="int" >        2       72       78       79       84 </v>
   <v type="int" >        2       72       79       84       85 </v>
   <v type="int" >        2       73       78       78       79 </v>
   <v type="int" >        2       72       73       78       78 </v>
   <v type="int" >        2       72       73       78       84 </v>
   <v type="int" >        2       73       77       78       79 </v>
   <v type="int" >        2       73       77       78       83 </v>
   <v type="int" >        2       73       78       83       84 </v>
   <v type="int" >        2       74       77       79       80 </v>
   <v type="int" >        2       73       74       77       79 </v>
   <v type="int" >        2       73       74       77       83 </v>
   <v type="int" >        2       74       76       77       80 </v>
   <v type="int" >        2       74       76       77       82 </v>
   <v type="int" >        2       74       77       82       83 </v>
   <v type="int" >        2       69       75       76       80 </v>
   <v type="int" >        2       69       74       76       80 </v>
   <v type="int" >        2       69       74       76       82 </v>
   <v type="int" >        2       69       75       75       76 </v>
   <v type="int" >        2       69       75       76       81 </v>
   <v type="int" >        2       69       76       81       82 </v>
  </varray>
  <i name="volumeweight">      0.00092593 </i>
 </kpoints>
 <parameters>
  <separator name="general" >
   <i type="string" name="SYSTEM">unknown system</i>
   <i type="logical" name="LCOMPAT"> F  </i>
  </separator>
  <separator name="electronic" >
   <i type="string" name="PREC">normal</i>
   <i name="ENMAX">    500.00000000</i>
   <i name="ENAUG">    605.39200000</i>
   <i name="EDIFF">      0.00001000</i>
   <i type="int" name="IALGO">    68</i>
   <i type="int" name="IWAVPR">    10</i>
   <i type="int" name="NBANDS">    29</i>
   <i name="NELECT">     48.00000000</i>
   <i type="int" name="TURBO">     0</i>
   <i type="int" name="IRESTART">     0</i>
   <i type="int" name="NREBOOT">     0</i>
   <i type="int" name="NMIN">     0</i>
   <i name="EREF">      0.00000000</i>
   <separator name="electronic smearing" >
    <i type="int" name="ISMEAR">    -5</i>
    <i name="SIGMA">      0.20000000</i>
    <i name="KSPACING">      0.50000000</i>
    <i type="logical" name="KGAMMA"> T  </i>
   </separator>
   <separator name="electronic projectors" >
    <i type="logical" name="LREAL"> T  </i>
    <v name="ROPT">     -0.00050000     -0.00050000</v>
    <i type="int" name="LMAXPAW">  -100</i>
    <i type="int" name="LMAXMIX">     2</i>
    <i type="logical" name="NLSPLINE"> F  </i>
   </separator>
   <separator name="electronic startup" >
    <i type="int" name="ISTART">     0</i>
    <i type="int" name="ICHARG">     2</i>
    <i type="int" name="INIWAV">     1</i>
   </separator>
   <separator name="electronic spin" >
    <i type="int" name="ISPIN">     1</i>
    <i type="logical" name="LNONCOLLINEAR"> F  </i>
    <v name="MAGMOM">      1.00000000      1.00000000      1.00000000      1.00000000      1.00000000      1.00000000      1.00000000      1.00000000      1.00000000</v>
    <i name="NUPDOWN">     -1.00000000</i>
    <i type="logical" name="LSORBIT"> F  </i>
    <v name="SAXIS">      0.00000000      0.00000000      1.00000000</v>
    <i type="logical" name="LSPIRAL"> F  </i>
    <v name="QSPIRAL">      0.00000000      0.00000000      0.00000000</v>
    <i type="logical" name="LZEROZ"> F  </i>
   </separator>
   <separator name="electronic exchange-correlation" >
    <i type="logical" name="LASPH"> F  </i>
    <i type="logical" name="LMETAGGA"> F  </i>
   </separator>
   <separator name="electronic convergence" >
    <i type="int" name="NELM">    60</i>
    <i type="int" name="NELMDL">    -5</i>
    <i type="int" name="NELMIN">     4</i>
    <i name="ENINI">    500.00000000</i>
    <separator name="electronic convergence detail" >
     <i type="logical" name="LDIAG"> T  </i>
     <i type="logical" name="LSUBROT"> F  </i>
     <i name="WEIMIN">      0.00000000</i>
     <i name="EBREAK">      0.00000009</i>
     <i name="DEPER">      0.30000000</i>
     <i type="int" name="NRMM">     4</i>
     <i name="TIME">      0.40000000</i>
    </separator>
   </separator>
   <separator name="electronic mixer" >
    <i name="AMIX">      0.40000000</i>
    <i name="BMIX">      1.00000000</i>
    <i name="AMIN">      0.10000000</i>
    <i name="AMIX_MAG">      1.60000000</i>
    <i name="BMIX_MAG">      1.00000000</i>
    <separator name="electronic mixer details" >
     <i type="int" name="IMIX">     4</i>
     <i type="logical" name="MIXFIRST"> F  </i>
     <i type="int" name="MAXMIX">   -45</i>
     <i name="WC">    100.00000000</i>
     <i type="int" name="INIMIX">     1</i>
     <i type="int" name="MIXPRE">     1</i>
     <i type="int" name="MREMOVE">     5</i>
    </separator>
   </separator>
   <separator name="electronic dipolcorrection" >
    <i type="logical" name="LDIPOL"> F  </i>
    <i type="logical" name="LMONO"> F  </i>
    <i type="int" name="IDIPOL">     0</i>
    <i name="EPSILON">      1.00000000</i>
    <v name="DIPOL">   -100.00000000   -100.00000000   -100.00000000</v>
    <i name="EFIELD">      0.00000000</i>
   </separator>
  </separator>
  <separator name="grids" >
   <i type="int" name="NGX">    28</i>
   <i type="int" name="NGY">    28</i>
   <i type="int" name="NGZ">    30</i>
   <i type="int" name="NGXF">    56</i>
   <i type="int" name="NGYF">    56</i>
   <i type="int" name="NGZF">    60</i>
   <i type="logical" name="ADDGRID"> F  </i>
  </separator>
  <separator name="ionic" >
   <i type="int" name="NSW">     0</i>
   <i type="int" name="IBRION">    -1</i>
   <i type="int" name="ISIF">     2</i>
   <i name="PSTRESS">      0.00000000</i>
   <i name="EDIFFG">      0.00010000</i>
   <i type="int" name="NFREE">     0</i>
   <i name="POTIM">      0.50000000</i>
   <i name="SMASS">     -3.00000000</i>
   <i name="SCALEE">      1.00000000</i>
  </separator>
  <separator name="ionic md" >
   <i name="TEBEG">      0.00010000</i>
   <i name="TEEND">      0.00010000</i>
   <i type="int" name="NBLOCK">     1</i>
   <i type="int" name="KBLOCK">     1</i>
   <i type="int" name="NPACO">   256</i>
   <i name="APACO">     16.00000000</i>
  </separator>
  <separator name="symmetry" >
   <i type="int" name="ISYM">     2</i>
   <i name="SYMPREC">      0.00001000</i>
  </separator>
  <separator name="dos" >
   <i type="logical" name="LORBIT"> F  </i>
   <v name="RWIGS">     -1.00000000     -1.00000000</v>
   <i type="int" name="NEDOS">   301</i>
   <i name="EMIN">     10.00000000</i>
   <i name="EMAX">    -10.00000000</i>
   <i name="EFERMI">      0.00000000</i>
  </separator>
  <separator name="writing" >
   <i type="int" name="NWRITE">     2</i>
   <i type="logical" name="LWAVE"> F  </i>
   <i type="logical" name="LCHARG"> T  </i>
   <i type="logical" name="LPARD"> F  </i>
   <i type="logical" name="LVTOT"> F  </i>
   <i type="logical" name="LVHAR"> F  </i>
   <i type="logical" name="LELF"> F  </i>
   <i type="logical" name="LOPTICS"> F  </i>
   <v name="STM">      0.00000000      0.00000000      0.00000000      0.00000000      0.00000000      0.00000000      0.00000000</v>
  </separator>
  <separator name="performance" >
   <i type="int" name="NPAR">     1</i>
   <i type="int" name="NSIM">     4</i>
   <i type="int" name="NBLK">    -1</i>
   <i type="logical" name="LPLANE"> T  </i>
   <i type="logical" name="LSCALAPACK"> F  </i>
   <i type="logical" name="LSCAAWARE"> F  </i>
   <i type="logical" name="LSCALU"> F  </i>
   <i type="logical" name="LASYNC"> F  </i>
   <i type="logical" name="LORBITALREAL"> F  </i>
  </separator>
  <separator name="miscellaneous" >
   <i type="int" name="IDIOT">     3</i>
   <i type="logical" name="LMUSIC"> F  </i>
   <v name="POMASS">     28.08500000     16.00000000</v>
   <v name="DARWINR">      0.00000000      0.00000000</v>
   <v name="DARWINV">      1.00000000      1.00000000</v>
   <i type="logical" name="LCORR"> T  </i>
  </separator>
  <i type="logical" name="GGA_COMPAT"> T  </i>
  <i type="logical" name="LBERRY"> F  </i>
  <i type="int" name="ICORELEVEL">     0</i>
  <i type="logical" name="LDAU"> F  </i>
  <i type="int" name="I_CONSTRAINED_M">     0</i>
  <separator name="electronic exchange-correlation" >
   <i type="string" name="GGA">--</i>
   <i type="int" name="VOSKOWN">     0</i>
   <i type="logical" name="LHFCALC"> F  </i>
   <i type="string" name="PRECFOCK"></i>
   <i type="logical" name="LSYMGRAD"> F  </i>
   <i type="logical" name="LHFONE"> F  </i>
   <i type="logical" name="LRHFCALC"> F  </i>
   <i type="logical" name="LTHOMAS"> F  </i>
   <i type="logical" name="LMODELHF"> F  </i>
   <i name="ENCUT4O">     -1.00000000</i>
   <i type="int" name="EXXOEP">     0</i>
   <i type="int" name="FOURORBIT">     0</i>
   <i name="AEXX">      0.00000000</i>
   <i name="HFALPHA">      0.00000000</i>
   <i name="MCALPHA">      0.00000000</i>
   <i name="ALDAX">      1.00000000</i>
   <i name="AGGAX">      1.00000000</i>
   <i name="ALDAC">      1.00000000</i>
   <i name="AGGAC">      1.00000000</i>
   <i type="int" name="NKREDX">     1</i>
   <i type="int" name="NKREDY">     1</i>
   <i type="int" name="NKREDZ">     1</i>
   <i type="logical" name="SHIFTRED"> F  </i>
   <i type="logical" name="ODDONLY"> F  </i>
   <i type="logical" name="EVENONLY"> F  </i>
   <i type="int" name="LMAXFOCK">     0</i>
   <i type="int" name="NMAXFOCKAE">     0</i>
   <i type="logical" name="LFOCKAEDFT"> F  </i>
   <i name="HFSCREEN">      0.00000000</i>
   <i name="HFSCREENC">      0.00000000</i>
   <i type="int" name="NBANDSGWLOW">     0</i>
  </separator>
  <separator name="vdW DFT" >
   <i type="logical" name="LUSE_VDW"> F  </i>
   <i name="Zab_VDW">     -0.84910000</i>
   <i name="PARAM1">      0.12340000</i>
   <i name="PARAM2">      1.00000000</i>
   <i name="PARAM3">      0.00000000</i>
  </separator>
  <separator name="model GW" >
   <i type="int" name="MODEL_GW">     0</i>
   <i name="MODEL_EPS0">      7.53464495</i>
   <i name="MODEL_ALPHA">      1.00000000</i>
  </separator>
  <separator name="linear response parameters" >
   <i type="logical" name="LEPSILON"> F  </i>
   <i type="logical" name="LRPA"> F  </i>
   <i type="logical" name="LNABLA"> F  </i>
   <i type="logical" name="LVEL"> F  </i>
   <i type="int" name="KINTER">     0</i>
   <i name="CSHIFT">      0.10000000</i>
   <i name="OMEGAMAX">     -1.00000000</i>
   <i name="DEG_THRESHOLD">      0.00200000</i>
  </separator>
  <separator name="orbital magnetization" >
   <i type="logical" name="NUCIND"> F  </i>
   <v name="MAGPOS">      0.00000000      0.00000000      0.00000000</v>
   <i type="logical" name="LNICSALL"> T  </i>
   <i type="logical" name="ORBITALMAG"> F  </i>
   <i type="logical" name="LMAGBLOCH"> F  </i>
   <i type="logical" name="LCHIMAG"> F  </i>
   <i type="logical" name="LGAUGE"> T  </i>
   <i type="int" name="MAGATOM">     0</i>
   <v name="MAGDIPOL">      0.00000000      0.00000000      0.00000000</v>
   <v name="AVECCONST">      0.00000000      0.00000000      0.00000000</v>
  </separator>
  <separator name="response functions" >
   <i type="logical" name="LADDER"> F  </i>
   <i type="logical" name="LFXC"> F  </i>
   <i type="logical" name="LHARTREE"> T  </i>
   <i type="int" name="IBSE">     0</i>
   <v type="int" name="KPOINT">    -1     0     0     0</v>
   <i type="logical" name="LTCTE"> F  </i>
   <i type="logical" name="LTETE"> F  </i>
   <i type="logical" name="LTRIPLET"> F  </i>
   <i type="logical" name="LFXCEPS"> F  </i>
   <i type="logical" name="LFXHEG"> F  </i>
   <i type="int" name="NATURALO">     0</i>
   <i type="logical" name="L2ORDER"> F  </i>
   <i type="logical" name="LUSEW"> F  </i>
   <i name="ENCUTGW">     -2.00000000</i>
   <i name="ENCUTGWSOFT">     -2.00000000</i>
   <i name="ENCUTLF">     -1.00000000</i>
   <i type="int" name="LMAXMP2">    -1</i>
   <i name="SCISSOR">      0.00000000</i>
   <i type="int" name="NOMEGA">     0</i>
   <i type="int" name="NOMEGAR">     0</i>
   <i type="int" name="NBANDSGW">    -1</i>
   <i type="int" name="NBANDSO">    -1</i>
   <i type="int" name="NBANDSV">    -1</i>
   <i type="int" name="NELM">     1</i>
   <i type="int" name="NELMHF">     1</i>
   <i type="int" name="DIM">     3</i>
   <i type="int" name="ANTIRES">     0</i>
   <i name="OMEGAMAX">    -30.00000000</i>
   <i name="OMEGAMIN">    -30.00000000</i>
   <i name="OMEGATL">   -200.00000000</i>
   <i type="int" name="OMEGAGRID">     0</i>
   <i name="CSHIFT">     -0.10000000</i>
   <i type="logical" name="SELFENERGY"> F  </i>
   <i type="logical" name="LSPECTRAL"> F  </i>
   <i type="logical" name="LSPECTRALGW"> F  </i>
   <i type="logical" name="LSINGLES"> F  </i>
   <i type="logical" name="LFERMIGW"> F  </i>
   <i type="logical" name="ODDONLYGW"> F  </i>
   <i type="logical" name="EVENONLYGW"> F  </i>
   <i type="int" name="NKREDLFX">     1</i>
   <i type="int" name="NKREDLFY">     1</i>
   <i type="int" name="NKREDLFZ">     1</i>
   <i type="int" name="MAXMEM">  1800</i>
   <i type="int" name="TELESCOPE">     0</i>
   <i type="int" name="TAUPAR">     1</i>
   <i type="int" name="OMEGAPAR">    -1</i>
   <i name="LAMBDA">      1.00000000</i>
  </separator>
  <separator name="External order field" >
   <i name="OFIELD_KAPPA">      0.00000000</i>
   <v name="OFIELD_K">      0.00000000      0.00000000      0.00000000</v>
   <i name="OFIELD_Q6_NEAR">      0.00000000</i>
   <i name="OFIELD_Q6_FAR">      0.00000000</i>
   <i name="OFIELD_A">      0.00000000</i>
  </separator>
 </parameters>
 <atominfo>
  <atoms>       9 </atoms>
  <types>       2 </types>
  <array name="atoms" >
   <dimension dim="1">ion</dimension>
   <field type="string">element</field>
   <field type="int">atomtype</field>
   <set>
    <rc><c>Si</c><c>   1</c></rc>
    <rc><c>Si</c><c>   1</c></rc>
    <rc><c>Si</c><c>   1</c></rc>
    <rc><c>O </c><c>   2</c></rc>
    <rc><c>O </c><c>   2</c></rc>
    <rc><c>O </c><c>   2</c></rc>
    <rc><c>O </c><c>   2</c></rc>
    <rc><c>O </c><c>   2</c></rc>
    <rc><c>O </c><c>   2</c></rc>
   </set>
  </array>
  <array name="atomtypes" >
   <dimension dim="1">type</dimension>
   <field type="int">atomspertype</field>
   <field type="string">element</field>
   <field>mass</field>
   <field>valence</field>
   <field type="string">pseudopotential</field>
   <set>
    <rc><c>   3</c><c>Si</c><c>     28.08500000</c><c>      4.00000000</c><c> PAW_PBE Si 05Jan2001                   </c></rc>
    <rc><c>   6</c><c>O </c><c>     16.00000000</c><c>      6.00000000</c><c> PAW_PBE O 08Apr2002                    </c></rc>
   </set>
  </array>
 </atominfo>
 <structure name="initialpos" >
  <crystal>
   <varray name="basis" >
    <v>       4.91370000       0.00000000       0.00000000 </v>
    <v>      -2.45685000       4.25538903       0.00000000 </v>
    <v>       0.00000000       0.00000000       5.40513000 </v>
   </varray>
   <i name="volume">    113.01967420 </i>
   <varray name="rec_basis" >
    <v>       0.20351263       0.11749807       0.00000000 </v>
    <v>       0.00000000       0.23499614       0.00000000 </v>
    <v>       0.00000000       0.00000000       0.18500943 </v>
   </varray>
  </crystal>
  <varray name="positions" >
   <v>       0.46980000       0.02000000       0.66667000 </v>
   <v>       0.00000000       0.46980000       0.33333000 </v>
   <v>       0.53020000       0.53020000       0.00000000 </v>
   <v>       0.41450000       0.26620000       0.78560000 </v>
   <v>       0.73380000       0.14830000       0.45227000 </v>
   <v>       0.85170000       0.58550000       0.11893000 </v>
   <v>       0.14830000       0.73380000       0.54773000 </v>
   <v>       0.26620000       0.41450000       0.21440000 </v>
   <v>       0.58550000       0.85170000       0.88107000 </v>
  </varray>
 </structure>
 <calculation>
  <scstep>
   <time name="dav">    9.43    9.43</time>
   <time name="total">    9.57    9.60</time>
   <energy>
    <i name="alphaZ">     69.72802778 </i>
    <i name="ewald">  -1886.62880430 </i>
    <i name="hartreedc">   -937.03789542 </i>
    <i name="XCdc">    142.00811387 </i>
    <i name="pawpsdc">   1574.92322788 </i>
    <i name="pawaedc">  -1533.24131965 </i>
    <i name="eentropy">      0.00000000 </i>
    <i name="bandstr">    -24.65660151 </i>
    <i name="atom">   2903.33737771 </i>
    <i name="e_fr_energy">    308.43212637 </i>
    <i name="e_wo_entrp">    308.43212637 </i>
    <i name="e_0_energy">    308.43212637 </i>
   </energy>
  </scstep>
  <scstep>
   <time name="dav">   11.70   11.70</time>
   <time name="total">   11.71   11.71</time>
   <energy>
    <i name="e_fr_energy">    -60.62474383 </i>
    <i name="e_wo_entrp">    -60.62474383 </i>
    <i name="e_0_energy">    -60.62474383 </i>
   </energy>
  </scstep>
  <scstep>
   <time name="dav">   10.59   10.59</time>
   <time name="total">   10.59   10.60</time>
   <energy>
    <i name="e_fr_energy">    -80.16810112 </i>
    <i name="e_wo_entrp">    -80.16810112 </i>
    <i name="e_0_energy">    -80.16810112 </i>
   </energy>
  </scstep>
  <scstep>
   <time name="dav">   10.79   10.79</time>
   <time name="total">   10.80   10.80</time>
   <energy>
    <i name="e_fr_energy">    -80.41973027 </i>
    <i name="e_wo_entrp">    -80.41973027 </i>
    <i name="e_0_energy">    -80.41973027 </i>
   </energy>
  </scstep>
  <scstep>
   <time name="dav">   10.51   10.50</time>
   <time name="total">   11.21   11.21</time>
   <energy>
    <i name="e_fr_energy">    -80.42451178 </i>
    <i name="e_wo_entrp">    -80.42451178 </i>
    <i name="e_0_energy">    -80.42451178 </i>
   </energy>
  </scstep>
  <scstep>
   <time name="diag">    1.78    1.79</time>
   <time name="diis">    6.33    6.33</time>
   <time name="orth">    0.18    0.18</time>
   <time name="total">    9.10    9.11</time>
   <energy>
    <i name="e_fr_energy">    -70.71500416 </i>
    <i name="e_wo_entrp">    -70.71500416 </i>
    <i name="e_0_energy">    -70.71500416 </i>
   </energy>
  </scstep>
  <scstep>
   <time name="diag">    1.78    1.78</time>
   <time name="diis">    6.87    6.87</time>
   <time name="orth">    0.18    0.18</time>
   <time name="total">    9.65    9.65</time>
   <energy>
    <i name="e_fr_energy">    -70.70310786 </i>
    <i name="e_wo_entrp">    -70.70310786 </i>
    <i name="e_0_energy">    -70.70310786 </i>
   </energy>
  </scstep>
  <scstep>
   <time name="diag">    1.80    1.80</time>
   <time name="diis">    6.83    6.82</time>
   <time name="orth">    0.18    0.18</time>
   <time name="total">    9.62    9.63</time>
   <energy>
    <i name="e_fr_energy">    -70.72198762 </i>
    <i name="e_wo_entrp">    -70.72198762 </i>
    <i name="e_0_energy">    -70.72198762 </i>
   </energy>
  </scstep>
  <scstep>
   <time name="diag">    1.78    1.78</time>
   <time name="diis">    7.00    7.00</time>
   <time name="orth">    0.18    0.18</time>
   <time name="total">    9.78    9.78</time>
   <energy>
    <i name="e_fr_energy">    -70.71349726 </i>
    <i name="e_wo_entrp">    -70.71349726 </i>
    <i name="e_0_energy">    -70.71349726 </i>
   </energy>
  </scstep>
  <scstep>
   <time name="diag">    1.78    1.78</time>
   <time name="diis">    6.93    6.93</time>
   <time name="orth">    0.18    0.18</time>
   <time name="total">    9.71    9.72</time>
   <energy>
    <i name="e_fr_energy">    -70.71638891 </i>
    <i name="e_wo_entrp">    -70.71638891 </i>
    <i name="e_0_energy">    -70.71638891 </i>
   </energy>
  </scstep>
  <scstep>
   <time name="diag">    1.79    1.79</time>
   <time name="diis">    6.93    6.93</time>
   <time name="orth">    0.18    0.18</time>
   <time name="total">    9.71    9.71</time>
   <energy>
    <i name="e_fr_energy">    -70.71547433 </i>
    <i name="e_wo_entrp">    -70.71547433 </i>
    <i name="e_0_energy">    -70.71547433 </i>
   </energy>
  </scstep>
  <scstep>
   <time name="diag">    1.79    1.78</time>
   <time name="diis">    6.49    6.49</time>
   <time name="orth">    0.18    0.18</time>
   <time name="total">    9.27    9.28</time>
   <energy>
    <i name="e_fr_energy">    -70.71552033 </i>
    <i name="e_wo_entrp">    -70.71552033 </i>
    <i name="e_0_energy">    -70.71552033 </i>
   </energy>
  </scstep>
  <scstep>
   <time name="diag">    1.79    1.79</time>
   <time name="diis">    4.82    4.82</time>
   <time name="orth">    0.18    0.18</time>
   <time name="total">    6.90    6.91</time>
   <energy>
    <i name="alphaZ">     69.72802778 </i>
    <i name="ewald">  -1886.62880430 </i>
    <i name="hartreedc">  -1071.76824764 </i>
    <i name="XCdc">    151.14902458 </i>
    <i name="pawpsdc">   2055.41970752 </i>
    <i name="pawaedc">  -2016.19746653 </i>
    <i name="eentropy">      0.00000000 </i>
    <i name="bandstr">   -275.75514011 </i>
    <i name="atom">   2903.33737771 </i>
    <i name="e_fr_energy">    -70.71552099 </i>
    <i name="e_wo_entrp">    -70.71552099 </i>
    <i name="e_0_energy">    -70.71552099 </i>
   </energy>
  </scstep>
  <structure>
   <crystal>
    <varray name="basis" >
     <v>       4.91370000       0.00000000       0.00000000 </v>
     <v>      -2.45685000       4.25538903       0.00000000 </v>
     <v>       0.00000000       0.00000000       5.40513000 </v>
    </varray>
    <i name="volume">    113.01967420 </i>
    <varray name="rec_basis" >
     <v>       0.20351263       0.11749807       0.00000000 </v>
     <v>       0.00000000       0.23499614       0.00000000 </v>
     <v>       0.00000000       0.00000000       0.18500943 </v>
    </varray>
   </crystal>
   <varray name="positions" >
    <v>       0.46980000       0.02000000       0.66667000 </v>
    <v>       0.00000000       0.46980000       0.33333000 </v>
    <v>       0.53020000       0.53020000       0.00000000 </v>
    <v>       0.41450000       0.26620000       0.78560000 </v>
    <v>       0.73380000       0.14830000       0.45227000 </v>
    <v>       0.85170000       0.58550000       0.11893000 </v>
    <v>       0.14830000       0.73380000       0.54773000 </v>
    <v>       0.26620000       0.41450000       0.21440000 </v>
    <v>       0.58550000       0.85170000       0.88107000 </v>
   </varray>
  </structure>
  <varray name="forces" >
   <v>       3.06671143      -4.70566198      -0.99365632 </v>
   <v>      -0.08066545       0.67185740       0.08944450 </v>
   <v>      -0.55302646       0.57600015       0.19236766 </v>
   <v>      -2.42456704       2.55456040       1.41495277 </v>
   <v>      -0.09818784      -0.38680005       0.08449853 </v>
   <v>       0.41282216       0.17387724      -0.07206364 </v>
   <v>      -0.17911487       0.44425472       0.23815118 </v>
   <v>       0.57644982      -0.45038096      -0.11746921 </v>
   <v>      -0.72042175       1.12229306      -0.83622545 </v>
  </varray>
  <varray name="stress" >
   <v>      90.81626945     -27.56900443     -40.10111879 </v>
   <v>     -27.56900456     100.97619120      27.76802073 </v>
   <v>     -40.10111883      27.76802079      67.24477209 </v>
  </varray>
  <energy>
   <i name="e_fr_energy">    -70.71552099 </i>
   <i name="e_wo_entrp">    -70.71552099 </i>
   <i name="e_0_energy">      0.00000000 </i>
  </energy>
  <time name="totalsc">  140.23  140.64</time>
  <eigenvalues>
   <array>
    <dimension dim="1">band</dimension>
    <dimension dim="2">kpoint</dimension>
    <dimension dim="3">spin</dimension>
    <field>eigene</field>
    <field>occ</field>
    <set>
     <set comment="spin 1">
      <set comment="kpoint 1">
       <r>  -18.4498    1.0000 </r>
       <r>  -17.1462    1.0000 </r>
       <r>  -16.7857    1.0000 </r>
       <r>  -16.1710    1.0000 </r>
       <r>  -16.0402    1.0000 </r>
       <r>  -15.9602    1.0000 </r>
       <r>   -7.2667    1.0000 </r>
       <r>   -7.1075    1.0000 </r>
       <r>   -4.5326    1.0000 </r>
       <r>   -4.2243    1.0000 </r>
       <r>   -4.1282    1.0000 </r>
       <r>   -4.1098    1.0000 </r>
       <r>   -1.9431    1.0000 </r>
       <r>   -1.8370    1.0000 </r>
       <r>   -1.7497    1.0000 </r>
       <r>   -1.2599    1.0000 </r>
       <r>   -0.5485    1.0000 </r>
       <r>   -0.4339    1.0000 </r>
       <r>   -0.3880    1.0000 </r>
       <r>    0.1503    1.0000 </r>
       <r>    0.2329    1.0000 </r>
       <r>    0.4768    1.0000 </r>
       <r>    0.7557    1.0000 </r>
       <r>    0.8631    1.0000 </r>
       <r>    7.0999    0.0000 </r>
       <r>   10.3292    0.0000 </r>
       <r>   10.4305    0.0000 </r>
       <r>   10.8566    0.0000 </r>
       <r>   10.9559    0.0000 </r>
      </set>
      <set comment="kpoint 2">
       <r>  -18.3803    1.0000 </r>
       <r>  -17.1746    1.0000 </r>
       <r>  -16.7766    1.0000 </r>
       <r>  -16.2745    1.0000 </r>
       <r>  -16.0821    1.0000 </r>
       <r>  -15.9095    1.0000 </r>
       <r>   -7.2974    1.0000 </r>
       <r>   -6.9285    1.0000 </r>
       <r>   -4.5583    1.0000 </r>
       <r>   -4.2929    1.0000 </r>
       <r>   -4.1671    1.0000 </r>
       <r>   -3.9797    1.0000 </r>
       <r>   -2.0110    1.0000 </r>
       <r>   -1.8683    1.0000 </r>
       <r>   -1.6312    1.0000 </r>
       <r>   -1.1845    1.0000 </r>
       <r>   -0.7429    1.0000 </r>
       <r>   -0.4619    1.0000 </r>
       <r>   -0.3906    1.0000 </r>
       <r>    0.0959    1.0000 </r>
       <r>    0.1345    1.0000 </r>
       <r>    0.3890    1.0000 </r>
       <r>    0.8408    1.0000 </r>
       <r>    0.9392    1.0000 </r>
       <r>    7.5229    0.0000 </r>
       <r>   10.3510    0.0000 </r>
       <r>   10.4721    0.0000 </r>
       <r>   10.8729    0.0000 </r>
       <r>   11.0856    0.0000 </r>
      </set>
      <set comment="kpoint 3">
       <r>  -18.2087    1.0000 </r>
       <r>  -17.2710    1.0000 </r>
       <r>  -16.7583    1.0000 </r>
       <r>  -16.4550    1.0000 </r>
       <r>  -16.1144    1.0000 </r>
       <r>  -15.8761    1.0000 </r>
       <r>   -7.3623    1.0000 </r>
       <r>   -6.5078    1.0000 </r>
       <r>   -4.6179    1.0000 </r>
       <r>   -4.5340    1.0000 </r>
       <r>   -4.1823    1.0000 </r>
       <r>   -3.6752    1.0000 </r>
       <r>   -2.1293    1.0000 </r>
       <r>   -1.6909    1.0000 </r>
       <r>   -1.6110    1.0000 </r>
       <r>   -1.2984    1.0000 </r>
       <r>   -0.9836    1.0000 </r>
       <r>   -0.5503    1.0000 </r>
       <r>   -0.4462    1.0000 </r>
       <r>    0.0321    1.0000 </r>
       <r>    0.0740    1.0000 </r>
       <r>    0.2941    1.0000 </r>
       <r>    0.9163    1.0000 </r>
       <r>    1.0462    1.0000 </r>
       <r>    8.5210    0.0000 </r>
       <r>   10.3779    0.0000 </r>
       <r>   10.5975    0.0000 </r>
       <r>   11.0560    0.0000 </r>
       <r>   11.4774    0.0000 </r>
      </set>
      <set comment="kpoint 4">
       <r>  -18.0918    1.0000 </r>
       <r>  -17.3575    1.0000 </r>
       <r>  -16.7499    1.0000 </r>
       <r>  -16.5306    1.0000 </r>
       <r>  -16.1284    1.0000 </r>
       <r>  -15.8680    1.0000 </r>
       <r>   -7.3941    1.0000 </r>
       <r>   -6.2450    1.0000 </r>
       <r>   -4.7681    1.0000 </r>
       <r>   -4.5685    1.0000 </r>
       <r>   -4.1914    1.0000 </r>
       <r>   -3.5066    1.0000 </r>
       <r>   -2.1322    1.0000 </r>
       <r>   -1.7701    1.0000 </r>
       <r>   -1.6004    1.0000 </r>
       <r>   -1.3103    1.0000 </r>
       <r>   -1.0511    1.0000 </r>
       <r>   -0.6292    1.0000 </r>
       <r>   -0.5190    1.0000 </r>
       <r>    0.0498    1.0000 </r>
       <r>    0.0704    1.0000 </r>
       <r>    0.2736    1.0000 </r>
       <r>    0.9189    1.0000 </r>
       <r>    1.0955    1.0000 </r>
       <r>    9.3516    0.0000 </r>
       <r>   10.0903    0.0000 </r>
       <r>   10.7770    0.0000 </r>
       <r>   10.9342    0.0000 </r>
       <r>   11.5673    0.0000 </r>
      </set>
      <set comment="kpoint 5">
       <r>  -18.3745    1.0000 </r>
       <r>  -17.1856    1.0000 </r>
       <r>  -16.8097    1.0000 </r>
       <r>  -16.1784    1.0000 </r>
       <r>  -16.1078    1.0000 </r>
       <r>  -15.9408    1.0000 </r>
       <r>   -7.2530    1.0000 </r>
       <r>   -6.9839    1.0000 </r>
       <r>   -4.5416    1.0000 </r>
       <r>   -4.2886    1.0000 </r>
       <r>   -4.2007    1.0000 </r>
       <r>   -3.9488    1.0000 </r>
       <r>   -2.0610    1.0000 </r>
       <r>   -1.8082    1.0000 </r>
       <r>   -1.6859    1.0000 </r>
       <r>   -1.1511    1.0000 </r>
       <r>   -0.6853    1.0000 </r>
       <r>   -0.4993    1.0000 </r>
       <r>   -0.4506    1.0000 </r>
       <r>    0.1105    1.0000 </r>
       <r>    0.1787    1.0000 </r>
       <r>    0.3828    1.0000 </r>
       <r>    0.8434    1.0000 </r>
       <r>    0.9318    1.0000 </r>
       <r>    7.5203    0.0000 </r>
       <r>   10.3465    0.0000 </r>
       <r>   10.4378    0.0000 </r>
       <r>   10.9398    0.0000 </r>
       <r>   11.0572    0.0000 </r>
      </set>
      <set comment="kpoint 6">
       <r>  -18.2513    1.0000 </r>
       <r>  -17.2530    1.0000 </r>
       <r>  -16.8025    1.0000 </r>
       <r>  -16.3242    1.0000 </r>
       <r>  -16.1310    1.0000 </r>
       <r>  -15.8994    1.0000 </r>
       <r>   -7.3424    1.0000 </r>
       <r>   -6.6277    1.0000 </r>
       <r>   -4.6935    1.0000 </r>
       <r>   -4.4095    1.0000 </r>
       <r>   -4.1173    1.0000 </r>
       <r>   -3.7747    1.0000 </r>
       <r>   -2.0893    1.0000 </r>
       <r>   -1.7927    1.0000 </r>
       <r>   -1.6074    1.0000 </r>
       <r>   -1.1926    1.0000 </r>
       <r>   -1.0158    1.0000 </r>
       <r>   -0.5303    1.0000 </r>
       <r>   -0.3307    1.0000 </r>
       <r>   -0.0267    1.0000 </r>
       <r>    0.1451    1.0000 </r>
       <r>    0.2896    1.0000 </r>
       <r>    0.9413    1.0000 </r>
       <r>    0.9773    1.0000 </r>
       <r>    8.2258    0.0000 </r>
       <r>   10.4344    0.0000 </r>
       <r>   10.5486    0.0000 </r>
       <r>   11.0123    0.0000 </r>
       <r>   11.2683    0.0000 </r>
      </set>
      <set comment="kpoint 7">
       <r>  -18.0809    1.0000 </r>
       <r>  -17.3726    1.0000 </r>
       <r>  -16.8075    1.0000 </r>
       <r>  -16.4519    1.0000 </r>
       <r>  -16.1330    1.0000 </r>
       <r>  -15.8792    1.0000 </r>
       <r>   -7.4016    1.0000 </r>
       <r>   -6.1748    1.0000 </r>
       <r>   -5.0362    1.0000 </r>
       <r>   -4.4371    1.0000 </r>
       <r>   -4.1024    1.0000 </r>
       <r>   -3.5256    1.0000 </r>
       <r>   -2.0998    1.0000 </r>
       <r>   -1.7615    1.0000 </r>
       <r>   -1.6750    1.0000 </r>
       <r>   -1.2660    1.0000 </r>
       <r>   -1.0546    1.0000 </r>
       <r>   -0.6620    1.0000 </r>
       <r>   -0.3631    1.0000 </r>
       <r>   -0.1511    1.0000 </r>
       <r>    0.0281    1.0000 </r>
       <r>    0.4022    1.0000 </r>
       <r>    0.9119    1.0000 </r>
       <r>    1.0934    1.0000 </r>
       <r>    9.2330    0.0000 </r>
       <r>   10.3406    0.0000 </r>
       <r>   10.6860    0.0000 </r>
       <r>   11.1276    0.0000 </r>
       <r>   11.6507    0.0000 </r>
      </set>
      <set comment="kpoint 8">
       <r>  -18.0752    1.0000 </r>
       <r>  -17.3796    1.0000 </r>
       <r>  -16.8047    1.0000 </r>
       <r>  -16.4733    1.0000 </r>
       <r>  -16.1133    1.0000 </r>
       <r>  -15.8787    1.0000 </r>
       <r>   -7.3920    1.0000 </r>
       <r>   -6.1829    1.0000 </r>
       <r>   -5.0462    1.0000 </r>
       <r>   -4.4225    1.0000 </r>
       <r>   -4.1186    1.0000 </r>
       <r>   -3.5246    1.0000 </r>
       <r>   -2.0940    1.0000 </r>
       <r>   -1.7756    1.0000 </r>
       <r>   -1.6860    1.0000 </r>
       <r>   -1.2130    1.0000 </r>
       <r>   -0.9899    1.0000 </r>
       <r>   -0.6640    1.0000 </r>
       <r>   -0.4951    1.0000 </r>
       <r>   -0.1785    1.0000 </r>
       <r>    0.0620    1.0000 </r>
       <r>    0.4355    1.0000 </r>
       <r>    0.8833    1.0000 </r>
       <r>    1.1288    1.0000 </r>
       <r>    9.2427    0.0000 </r>
       <r>   10.3204    0.0000 </r>
       <r>   10.6680    0.0000 </r>
       <r>   11.1238    0.0000 </r>
       <r>   11.4629    0.0000 </r>
      </set>
      <set comment="kpoint 9">
       <r>  -18.2443    1.0000 </r>
       <r>  -17.2601    1.0000 </r>
       <r>  -16.8016    1.0000 </r>
       <r>  -16.3797    1.0000 </r>
       <r>  -16.0755    1.0000 </r>
       <r>  -15.8996    1.0000 </r>
       <r>   -7.3110    1.0000 </r>
       <r>   -6.6582    1.0000 </r>
       <r>   -4.7164    1.0000 </r>
       <r>   -4.3875    1.0000 </r>
       <r>   -4.1345    1.0000 </r>
       <r>   -3.7735    1.0000 </r>
       <r>   -2.0944    1.0000 </r>
       <r>   -1.8344    1.0000 </r>
       <r>   -1.5161    1.0000 </r>
       <r>   -1.1560    1.0000 </r>
       <r>   -0.9694    1.0000 </r>
       <r>   -0.6003    1.0000 </r>
       <r>   -0.3858    1.0000 </r>
       <r>   -0.1471    1.0000 </r>
       <r>    0.1934    1.0000 </r>
       <r>    0.3508    1.0000 </r>
       <r>    0.8725    1.0000 </r>
       <r>    1.0746    1.0000 </r>
       <r>    8.2281    0.0000 </r>
       <r>   10.3701    0.0000 </r>
       <r>   10.5810    0.0000 </r>
       <r>   11.0263    0.0000 </r>
       <r>   11.2382    0.0000 </r>
      </set>
      <set comment="kpoint 10">
       <r>  -18.3718    1.0000 </r>
       <r>  -17.1872    1.0000 </r>
       <r>  -16.8112    1.0000 </r>
       <r>  -16.2338    1.0000 </r>
       <r>  -16.0456    1.0000 </r>
       <r>  -15.9467    1.0000 </r>
       <r>   -7.2057    1.0000 </r>
       <r>   -7.0312    1.0000 </r>
       <r>   -4.5497    1.0000 </r>
       <r>   -4.3036    1.0000 </r>
       <r>   -4.1806    1.0000 </r>
       <r>   -3.9527    1.0000 </r>
       <r>   -2.0721    1.0000 </r>
       <r>   -1.8314    1.0000 </r>
       <r>   -1.6205    1.0000 </r>
       <r>   -1.1387    1.0000 </r>
[...]
       <r>    1.0243    1.0000 </r>
       <r>    9.1966    0.0000 </r>
       <r>   10.0798    0.0000 </r>
       <r>   10.4814    0.0000 </r>
       <r>   11.0010    0.0000 </r>
       <r>   11.2330    0.0000 </r>
      </set>
      <set comment="kpoint 90">
       <r>  -18.0224    1.0000 </r>
       <r>  -17.3883    1.0000 </r>
       <r>  -16.8525    1.0000 </r>
       <r>  -16.4546    1.0000 </r>
       <r>  -16.1695    1.0000 </r>
       <r>  -15.8624    1.0000 </r>
       <r>   -7.2357    1.0000 </r>
       <r>   -6.1553    1.0000 </r>
       <r>   -5.3202    1.0000 </r>
       <r>   -4.3651    1.0000 </r>
       <r>   -3.9224    1.0000 </r>
       <r>   -3.8025    1.0000 </r>
       <r>   -2.1760    1.0000 </r>
       <r>   -2.0108    1.0000 </r>
       <r>   -1.4220    1.0000 </r>
       <r>   -1.1843    1.0000 </r>
       <r>   -0.8938    1.0000 </r>
       <r>   -0.6324    1.0000 </r>
       <r>   -0.1784    1.0000 </r>
       <r>   -0.0006    1.0000 </r>
       <r>    0.2325    1.0000 </r>
       <r>    0.3310    1.0000 </r>
       <r>    0.6538    1.0000 </r>
       <r>    0.8926    1.0000 </r>
       <r>    9.8917    0.0000 </r>
       <r>   10.4017    0.0000 </r>
       <r>   10.7073    0.0000 </r>
       <r>   11.0904    0.0000 </r>
       <r>   11.6089    0.0000 </r>
      </set>
      <set comment="kpoint 91">
       <r>  -18.0157    1.0000 </r>
       <r>  -17.4352    1.0000 </r>
       <r>  -16.7544    1.0000 </r>
       <r>  -16.4974    1.0000 </r>
       <r>  -16.1823    1.0000 </r>
       <r>  -15.8649    1.0000 </r>
       <r>   -7.2594    1.0000 </r>
       <r>   -6.1130    1.0000 </r>
       <r>   -5.3349    1.0000 </r>
       <r>   -4.3673    1.0000 </r>
       <r>   -3.9099    1.0000 </r>
       <r>   -3.8086    1.0000 </r>
       <r>   -2.1616    1.0000 </r>
       <r>   -2.0125    1.0000 </r>
       <r>   -1.4469    1.0000 </r>
       <r>   -1.1928    1.0000 </r>
       <r>   -0.9407    1.0000 </r>
       <r>   -0.5862    1.0000 </r>
       <r>   -0.1488    1.0000 </r>
       <r>   -0.0050    1.0000 </r>
       <r>    0.2245    1.0000 </r>
       <r>    0.3804    1.0000 </r>
       <r>    0.5950    1.0000 </r>
       <r>    0.8968    1.0000 </r>
       <r>    9.8137    0.0000 </r>
       <r>   10.5520    0.0000 </r>
       <r>   10.7829    0.0000 </r>
       <r>   11.1195    0.0000 </r>
       <r>   11.3181    0.0000 </r>
      </set>
      <set comment="kpoint 92">
       <r>  -18.0748    1.0000 </r>
       <r>  -17.6123    1.0000 </r>
       <r>  -16.5757    1.0000 </r>
       <r>  -16.3922    1.0000 </r>
       <r>  -16.1511    1.0000 </r>
       <r>  -15.8560    1.0000 </r>
       <r>   -7.7058    1.0000 </r>
       <r>   -5.8781    1.0000 </r>
       <r>   -5.1774    1.0000 </r>
       <r>   -4.3476    1.0000 </r>
       <r>   -4.1300    1.0000 </r>
       <r>   -3.7266    1.0000 </r>
       <r>   -2.0670    1.0000 </r>
       <r>   -1.9070    1.0000 </r>
       <r>   -1.4223    1.0000 </r>
       <r>   -1.2900    1.0000 </r>
       <r>   -0.9396    1.0000 </r>
       <r>   -0.4912    1.0000 </r>
       <r>   -0.3520    1.0000 </r>
       <r>   -0.1744    1.0000 </r>
       <r>    0.1302    1.0000 </r>
       <r>    0.5895    1.0000 </r>
       <r>    0.7686    1.0000 </r>
       <r>    0.9471    1.0000 </r>
       <r>    9.1974    0.0000 </r>
       <r>   10.0724    0.0000 </r>
       <r>   10.6093    0.0000 </r>
       <r>   10.9163    0.0000 </r>
       <r>   11.5285    0.0000 </r>
      </set>
     </set>
    </set>
   </array>
  </eigenvalues>
  <separator name="orbital magnetization" >
   <v name="MAGDIPOLOUT">      0.00000000      0.00000000      0.00000000</v>
  </separator>
  <dos>
   <i name="efermi">      1.19212279 </i>
   <total>
    <array>
     <dimension dim="1">gridpoints</dimension>
     <dimension dim="2">spin</dimension>
     <field>energy</field>
     <field>total</field>
     <field>integrated</field>
     <set>
      <set comment="spin 1">
       <r>   -20.4498     0.0000     0.0000 </r>
       <r>   -20.3356     0.0000     0.0000 </r>
       <r>   -20.2214     0.0000     0.0000 </r>
       <r>   -20.1072     0.0000     0.0000 </r>
       <r>   -19.9930     0.0000     0.0000 </r>
       <r>   -19.8788     0.0000     0.0000 </r>
       <r>   -19.7646     0.0000     0.0000 </r>
       <r>   -19.6504     0.0000     0.0000 </r>
       <r>   -19.5362     0.0000     0.0000 </r>
       <r>   -19.4220     0.0000     0.0000 </r>
       <r>   -19.3078     0.0000     0.0000 </r>
       <r>   -19.1935     0.0000     0.0000 </r>
       <r>   -19.0793     0.0000     0.0000 </r>
       <r>   -18.9651     0.0000     0.0000 </r>
       <r>   -18.8509     0.0000     0.0000 </r>
       <r>   -18.7367     0.0000     0.0000 </r>
       <r>   -18.6225     0.0000     0.0000 </r>
       <r>   -18.5083     0.0000     0.0000 </r>
       <r>   -18.3941     0.5021     0.0093 </r>
       <r>   -18.2799     1.8049     0.1573 </r>
       <r>   -18.1657     4.1479     0.4545 </r>
       <r>   -18.0515     7.7481     1.1220 </r>
       <r>   -17.9373     3.1331     1.9220 </r>
       <r>   -17.8231     0.0000     2.0000 </r>
       <r>   -17.7089     1.4822     2.0652 </r>
       <r>   -17.5947     3.2948     2.3133 </r>
       <r>   -17.4805     6.1714     2.8326 </r>
       <r>   -17.3663     7.9151     3.5712 </r>
       <r>   -17.2521     0.9662     3.9565 </r>
       <r>   -17.1378     0.0000     4.0000 </r>
       <r>   -17.0236     0.5302     4.0100 </r>
       <r>   -16.9094     2.5699     4.1729 </r>
       <r>   -16.7952     7.4737     4.8397 </r>
       <r>   -16.6810     3.7634     5.5137 </r>
       <r>   -16.5668     2.6121     5.8655 </r>
       <r>   -16.4526     6.5795     6.2225 </r>
       <r>   -16.3384     6.7258     7.2092 </r>
       <r>   -16.2242     4.6868     7.8217 </r>
       <r>   -16.1100    12.7595     9.2630 </r>
       <r>   -15.9958     0.0000    10.0000 </r>
       <r>   -15.8816    29.5438    11.2276 </r>
       <r>   -15.7674     0.0000    12.0000 </r>
       <r>   -15.6532     0.0000    12.0000 </r>
       <r>   -15.5390     0.0000    12.0000 </r>
       <r>   -15.4248     0.0000    12.0000 </r>
       <r>   -15.3106     0.0000    12.0000 </r>
       <r>   -15.1964     0.0000    12.0000 </r>
       <r>   -15.0822     0.0000    12.0000 </r>
       <r>   -14.9679     0.0000    12.0000 </r>
       <r>   -14.8537     0.0000    12.0000 </r>
       <r>   -14.7395     0.0000    12.0000 </r>
       <r>   -14.6253     0.0000    12.0000 </r>
       <r>   -14.5111     0.0000    12.0000 </r>
       <r>   -14.3969     0.0000    12.0000 </r>
       <r>   -14.2827     0.0000    12.0000 </r>
       <r>   -14.1685     0.0000    12.0000 </r>
       <r>   -14.0543     0.0000    12.0000 </r>
       <r>   -13.9401     0.0000    12.0000 </r>
       <r>   -13.8259     0.0000    12.0000 </r>
       <r>   -13.7117     0.0000    12.0000 </r>
       <r>   -13.5975     0.0000    12.0000 </r>
       <r>   -13.4833     0.0000    12.0000 </r>
       <r>   -13.3691     0.0000    12.0000 </r>
       <r>   -13.2549     0.0000    12.0000 </r>
       <r>   -13.1407     0.0000    12.0000 </r>
       <r>   -13.0265     0.0000    12.0000 </r>
       <r>   -12.9122     0.0000    12.0000 </r>
       <r>   -12.7980     0.0000    12.0000 </r>
       <r>   -12.6838     0.0000    12.0000 </r>
       <r>   -12.5696     0.0000    12.0000 </r>
       <r>   -12.4554     0.0000    12.0000 </r>
       <r>   -12.3412     0.0000    12.0000 </r>
       <r>   -12.2270     0.0000    12.0000 </r>
       <r>   -12.1128     0.0000    12.0000 </r>
       <r>   -11.9986     0.0000    12.0000 </r>
       <r>   -11.8844     0.0000    12.0000 </r>
       <r>   -11.7702     0.0000    12.0000 </r>
       <r>   -11.6560     0.0000    12.0000 </r>
       <r>   -11.5418     0.0000    12.0000 </r>
       <r>   -11.4276     0.0000    12.0000 </r>
       <r>   -11.3134     0.0000    12.0000 </r>
       <r>   -11.1992     0.0000    12.0000 </r>
       <r>   -11.0850     0.0000    12.0000 </r>
       <r>   -10.9708     0.0000    12.0000 </r>
       <r>   -10.8566     0.0000    12.0000 </r>
       <r>   -10.7423     0.0000    12.0000 </r>
       <r>   -10.6281     0.0000    12.0000 </r>
       <r>   -10.5139     0.0000    12.0000 </r>
       <r>   -10.3997     0.0000    12.0000 </r>
       <r>   -10.2855     0.0000    12.0000 </r>
       <r>   -10.1713     0.0000    12.0000 </r>
       <r>   -10.0571     0.0000    12.0000 </r>
       <r>    -9.9429     0.0000    12.0000 </r>
       <r>    -9.8287     0.0000    12.0000 </r>
       <r>    -9.7145     0.0000    12.0000 </r>
       <r>    -9.6003     0.0000    12.0000 </r>
       <r>    -9.4861     0.0000    12.0000 </r>
       <r>    -9.3719     0.0000    12.0000 </r>
       <r>    -9.2577     0.0000    12.0000 </r>
       <r>    -9.1435     0.0000    12.0000 </r>
       <r>    -9.0293     0.0000    12.0000 </r>
       <r>    -8.9151     0.0000    12.0000 </r>
       <r>    -8.8009     0.0000    12.0000 </r>
       <r>    -8.6866     0.0000    12.0000 </r>
       <r>    -8.5724     0.0000    12.0000 </r>
       <r>    -8.4582     0.0000    12.0000 </r>
       <r>    -8.3440     0.0000    12.0000 </r>
       <r>    -8.2298     0.0107    12.0000 </r>
       <r>    -8.1156     0.2750    12.0149 </r>
       <r>    -8.0014     0.4437    12.0611 </r>
       <r>    -7.8872     0.6575    12.1237 </r>
       <r>    -7.7730     0.8708    12.2116 </r>
       <r>    -7.6588     1.2198    12.3287 </r>
       <r>    -7.5446     1.6732    12.4924 </r>
       <r>    -7.4304     3.1388    12.7442 </r>
       <r>    -7.3162     6.3707    13.4267 </r>
       <r>    -7.2020     1.7284    13.8483 </r>
       <r>    -7.0878     0.4592    13.9649 </r>
       <r>    -6.9736     0.2170    14.0005 </r>
       <r>    -6.8594     0.2109    14.0228 </r>
       <r>    -6.7452     0.3464    14.0543 </r>
       <r>    -6.6309     0.5911    14.1055 </r>
       <r>    -6.5167     1.1165    14.2020 </r>
       <r>    -6.4025     2.0304    14.3721 </r>
       <r>    -6.2883     3.3935    14.6818 </r>
       <r>    -6.1741     4.8265    15.1687 </r>
       <r>    -6.0599     2.0920    15.5672 </r>
       <r>    -5.9457     1.2397    15.7538 </r>
       <r>    -5.8315     0.7723    15.8655 </r>
       <r>    -5.7173     0.5893    15.9416 </r>
       <r>    -5.6031     0.2373    15.9952 </r>
       <r>    -5.4889     0.2576    16.0080 </r>
       <r>    -5.3747     2.4496    16.1418 </r>
       <r>    -5.2605     3.2173    16.4814 </r>
       <r>    -5.1463     3.0799    16.8534 </r>
       <r>    -5.0321     2.9588    17.1940 </r>
       <r>    -4.9179     2.0872    17.4926 </r>
       <r>    -4.8037     1.5952    17.7004 </r>
       <r>    -4.6895     1.2939    17.8635 </r>
       <r>    -4.5753     0.6281    17.9845 </r>
       <r>    -4.4610     4.4987    18.1079 </r>
       <r>    -4.3468     9.5657    19.1980 </r>
       <r>    -4.2326     4.8324    19.9625 </r>
       <r>    -4.1184     8.9483    20.6851 </r>
       <r>    -4.0042     6.4753    21.5988 </r>
       <r>    -3.8900     1.5816    22.0869 </r>
       <r>    -3.7758     7.5997    22.5307 </r>
       <r>    -3.6616     6.2210    23.4563 </r>
       <r>    -3.5474     2.4594    23.8817 </r>
       <r>    -3.4332     0.0250    23.9999 </r>
       <r>    -3.3190     0.0000    24.0000 </r>
       <r>    -3.2048     0.0000    24.0000 </r>
       <r>    -3.0906     0.0000    24.0000 </r>
       <r>    -2.9764     0.0000    24.0000 </r>
       <r>    -2.8622     0.0000    24.0000 </r>
       <r>    -2.7480     0.0000    24.0000 </r>
       <r>    -2.6338     0.0000    24.0000 </r>
       <r>    -2.5196     0.0000    24.0000 </r>
       <r>    -2.4053     0.0000    24.0000 </r>
       <r>    -2.2911     0.0000    24.0000 </r>
       <r>    -2.1769    10.6071    24.3846 </r>
       <r>    -2.0627     7.4713    25.7182 </r>
       <r>    -1.9485     7.5079    26.5417 </r>
       <r>    -1.8343     5.9884    27.2460 </r>
       <r>    -1.7201     3.5027    27.8796 </r>
       <r>    -1.6059     7.7207    28.2724 </r>
       <r>    -1.4917     8.2444    29.3775 </r>
       <r>    -1.3775     1.3674    29.9787 </r>
       <r>    -1.2633     7.6227    30.2452 </r>
       <r>    -1.1491    14.0714    31.5419 </r>
       <r>    -1.0349     0.8621    31.9925 </r>
       <r>    -0.9207    22.8580    33.1992 </r>
       <r>    -0.8065     0.9891    33.9055 </r>
       <r>    -0.6923     5.6128    34.2678 </r>
       <r>    -0.5781     9.6414    35.1125 </r>
       <r>    -0.4639     7.4517    36.2199 </r>
       <r>    -0.3497     7.3487    37.3492 </r>
       <r>    -0.2354     4.8404    37.9567 </r>
       <r>    -0.1212     8.5728    38.8245 </r>
       <r>    -0.0070     5.3567    39.7787 </r>
       <r>     0.1072     8.0698    40.4047 </r>
       <r>     0.2214     9.4435    41.7267 </r>
       <r>     0.3356     2.2257    42.0512 </r>
       <r>     0.4498    15.7958    43.1148 </r>
       <r>     0.5640     1.6521    43.8179 </r>
       <r>     0.6782     4.4809    44.2469 </r>
       <r>     0.7924    11.3103    44.9922 </r>
       <r>     0.9066     5.5295    46.1343 </r>
       <r>     1.0208    10.7236    46.8995 </r>
       <r>     1.1350     3.7500    47.8965 </r>
       <r>     1.2492     0.0000    48.0000 </r>
       <r>     1.3634     0.0000    48.0000 </r>
       <r>     1.4776     0.0000    48.0000 </r>
       <r>     1.5918     0.0000    48.0000 </r>
       <r>     1.7060     0.0000    48.0000 </r>
       <r>     1.8203     0.0000    48.0000 </r>
       <r>     1.9345     0.0000    48.0000 </r>
       <r>     2.0487     0.0000    48.0000 </r>
       <r>     2.1629     0.0000    48.0000 </r>
       <r>     2.2771     0.0000    48.0000 </r>
       <r>     2.3913     0.0000    48.0000 </r>
       <r>     2.5055     0.0000    48.0000 </r>
       <r>     2.6197     0.0000    48.0000 </r>
       <r>     2.7339     0.0000    48.0000 </r>
       <r>     2.8481     0.0000    48.0000 </r>
       <r>     2.9623     0.0000    48.0000 </r>
       <r>     3.0765     0.0000    48.0000 </r>
       <r>     3.1907     0.0000    48.0000 </r>
       <r>     3.3049     0.0000    48.0000 </r>
       <r>     3.4191     0.0000    48.0000 </r>
       <r>     3.5333     0.0000    48.0000 </r>
       <r>     3.6475     0.0000    48.0000 </r>
       <r>     3.7617     0.0000    48.0000 </r>
       <r>     3.8760     0.0000    48.0000 </r>
       <r>     3.9902     0.0000    48.0000 </r>
       <r>     4.1044     0.0000    48.0000 </r>
       <r>     4.2186     0.0000    48.0000 </r>
       <r>     4.3328     0.0000    48.0000 </r>
       <r>     4.4470     0.0000    48.0000 </r>
       <r>     4.5612     0.0000    48.0000 </r>
       <r>     4.6754     0.0000    48.0000 </r>
       <r>     4.7896     0.0000    48.0000 </r>
       <r>     4.9038     0.0000    48.0000 </r>
       <r>     5.0180     0.0000    48.0000 </r>
       <r>     5.1322     0.0000    48.0000 </r>
       <r>     5.2464     0.0000    48.0000 </r>
       <r>     5.3606     0.0000    48.0000 </r>
       <r>     5.4748     0.0000    48.0000 </r>
       <r>     5.5890     0.0000    48.0000 </r>
       <r>     5.7032     0.0000    48.0000 </r>
       <r>     5.8174     0.0000    48.0000 </r>
       <r>     5.9316     0.0000    48.0000 </r>
       <r>     6.0459     0.0000    48.0000 </r>
       <r>     6.1601     0.0000    48.0000 </r>
       <r>     6.2743     0.0000    48.0000 </r>
       <r>     6.3885     0.0000    48.0000 </r>
       <r>     6.5027     0.0000    48.0000 </r>
       <r>     6.6169     0.0000    48.0000 </r>
       <r>     6.7311     0.0000    48.0000 </r>
       <r>     6.8453     0.0000    48.0000 </r>
       <r>     6.9595     0.0000    48.0000 </r>
       <r>     7.0737     0.0000    48.0000 </r>
       <r>     7.1879     0.0078    48.0002 </r>
       <r>     7.3021     0.0412    48.0028 </r>
       <r>     7.4163     0.1010    48.0106 </r>
       <r>     7.5305     0.1917    48.0270 </r>
       <r>     7.6447     0.2427    48.0519 </r>
       <r>     7.7589     0.2758    48.0817 </r>
       <r>     7.8731     0.2942    48.1143 </r>
       <r>     7.9873     0.3396    48.1504 </r>
       <r>     8.1016     0.3878    48.1919 </r>
       <r>     8.2158     0.4385    48.2391 </r>
       <r>     8.3300     0.4917    48.2922 </r>
       <r>     8.4442     0.5472    48.3515 </r>
       <r>     8.5584     0.6812    48.4205 </r>
       <r>     8.6726     0.8364    48.5072 </r>
       <r>     8.7868     0.8294    48.6042 </r>
       <r>     8.9010     0.8915    48.7024 </r>
       <r>     9.0152     0.9557    48.8079 </r>
       <r>     9.1294     1.0221    48.9208 </r>
       <r>     9.2436     1.1573    49.0418 </r>
       <r>     9.3578     1.5741    49.2079 </r>
       <r>     9.4720     1.3793    49.3812 </r>
       <r>     9.5862     1.2724    49.5308 </r>
       <r>     9.7004     1.4027    49.6799 </r>
       <r>     9.8146     1.4842    49.8487 </r>
       <r>     9.9288     1.4344    50.0550 </r>
       <r>    10.0430     1.0655    50.1898 </r>
       <r>    10.1572     1.7850    50.3314 </r>
       <r>    10.2715     6.4446    50.7332 </r>
       <r>    10.3857     6.8505    51.7544 </r>
       <r>    10.4999     4.3858    52.2665 </r>
       <r>    10.6141     9.1553    53.0066 </r>
       <r>    10.7283     5.8820    53.8712 </r>
       <r>    10.8425     2.6606    54.3604 </r>
       <r>    10.9567     2.8181    54.6418 </r>
       <r>    11.0709     6.7432    55.1662 </r>
       <r>    11.1851     4.4190    55.8903 </r>
       <r>    11.2993     4.5101    56.4056 </r>
       <r>    11.4135     6.8492    57.0643 </r>
       <r>    11.5277     4.8580    57.7831 </r>
       <r>    11.6419     0.2526    57.9870 </r>
       <r>    11.7561     0.0241    57.9996 </r>
       <r>    11.8703     0.0000    58.0000 </r>
       <r>    11.9845     0.0000    58.0000 </r>
       <r>    12.0987     0.0000    58.0000 </r>
       <r>    12.2129     0.0000    58.0000 </r>
       <r>    12.3272     0.0000    58.0000 </r>
       <r>    12.4414     0.0000    58.0000 </r>
       <r>    12.5556     0.0000    58.0000 </r>
       <r>    12.6698     0.0000    58.0000 </r>
       <r>    12.7840     0.0000    58.0000 </r>
       <r>    12.8982     0.0000    58.0000 </r>
       <r>    13.0124     0.0000    58.0000 </r>
       <r>    13.1266     0.0000    58.0000 </r>
       <r>    13.2408     0.0000    58.0000 </r>
       <r>    13.3550     0.0000    58.0000 </r>
       <r>    13.4692     0.0000    58.0000 </r>
       <r>    13.5834     0.0000    58.0000 </r>
       <r>    13.6976     0.0000    58.0000 </r>
       <r>    13.8118     0.0000    58.0000 </r>
      </set>
     </set>
    </array>
   </total>
  </dos>
 </calculation>
 <structure name="finalpos" >
  <crystal>
   <varray name="basis" >
    <v>       4.91370000       0.00000000       0.00000000 </v>
    <v>      -2.45685000       4.25538903       0.00000000 </v>
    <v>       0.00000000       0.00000000       5.40513000 </v>
   </varray>
   <i name="volume">    113.01967420 </i>
   <varray name="rec_basis" >
    <v>       0.20351263       0.11749807       0.00000000 </v>
    <v>       0.00000000       0.23499614       0.00000000 </v>
    <v>       0.00000000       0.00000000       0.18500943 </v>
   </varray>
  </crystal>
  <varray name="positions" >
   <v>       0.46980000       0.02000000       0.66667000 </v>
   <v>       0.00000000       0.46980000       0.33333000 </v>
   <v>       0.53020000       0.53020000       0.00000000 </v>
   <v>       0.41450000       0.26620000       0.78560000 </v>
   <v>       0.73380000       0.14830000       0.45227000 </v>
   <v>       0.85170000       0.58550000       0.11893000 </v>
   <v>       0.14830000       0.73380000       0.54773000 </v>
   <v>       0.26620000       0.41450000       0.21440000 </v>
   <v>       0.58550000       0.85170000       0.88107000 </v>
  </varray>
 </structure>
</modeling>
