unknown system                          
   1.00000000000000     
     3.905268    0.000000    0.000000
     0.000000    3.905268    0.000000
     0.000000    0.000000    3.905268
   Sr   Ti   O 
     1     1     3
Direct
  0.000000  0.000000  0.000000
  0.500000  0.500000  0.500000
  0.500000  0.500000  0.000000
  0.500000  0.000000  0.500000
  0.000000  0.500000  0.500000
 
   56   56   56
  193.21      193.22      193.02      191.91      188.91      183.07      173.70      160.63      144.22      125.37    
  105.28      85.280      66.597      50.200      36.670      26.150      18.405      12.943      9.1830      6.6479    
  4.9643      3.8551      3.1293      2.6602      2.3632      2.1814      2.0760      2.0221      2.0056      2.0221    
  2.0760      2.1814      2.3632      2.6602      3.1293      3.8551      4.9643      6.6479      9.1830      12.943    
  18.405      26.150      36.670      50.200      66.597      85.280      105.28      125.37      144.22      160.63    
  173.70      183.07      188.91      191.91      193.02      193.22      193.22      193.20      192.88      191.57    
  188.36      182.31      172.76      159.57      143.11      124.28      104.28      84.400      65.870      49.634    
  36.253      25.861      18.216      12.825      9.1134      6.6111      4.9491      3.8542      3.1379      2.6751    
  2.3823      2.2031      2.0992      2.0459      2.0296      2.0459      2.0992      2.2031      2.3823      2.6751    
  3.1379      3.8542      4.9491      6.6111      9.1134      12.825      18.216      25.861      36.253      49.634    
  65.870      84.400      104.28      124.28      143.11      159.57      172.76      182.31      188.36      191.57    
  192.88      193.20      193.02      192.88      192.20      190.38      186.56      179.91      169.87      156.35    
  139.78      121.03      101.29      81.802      63.732      47.972      35.034      25.018      17.664      12.481    
  8.9118      6.5054      4.9067      3.8533      3.1647      2.7201      2.4393      2.2675      2.1679      2.1168    
  2.1011      2.1168      2.1679      2.2675      2.4393      2.7201      3.1647      3.8533      4.9067      6.5054    
  8.9118      12.481      17.664      25.018      35.034      47.972      63.732      81.802      101.29      121.03    
  139.78      156.35      169.87      179.91      186.56      190.38      192.20      192.88      191.91      191.57    
  190.38      187.79      183.08      175.57      164.83      150.89      134.22      115.69      96.425      77.604    
  60.301      45.320      33.099      23.685      16.795      11.942      8.5989      6.3448      4.8468      3.8597    
  3.2148      2.7993      2.5375      2.3780      2.2858      2.2385      2.2241      2.2385      2.2858      2.3780    
  2.5375      2.7993      3.2148      3.8597      4.8468      6.3448      8.5989      11.942      16.795      23.685    
  33.099      45.320      60.301      77.604      96.425      115.69      134.22      150.89      164.83      175.57    
  183.08      187.79      190.38      191.57      188.91      188.36      186.56      183.08      177.36      168.90    
  157.45      143.15      126.51      108.40      89.871      72.009      55.771      41.849      30.585      21.965    
  15.681      11.256      8.2071      6.1521      4.7863      3.8871      3.3011      2.9255      2.6906      2.5488    
  2.4677      2.4266      2.4141      2.4266      2.4677      2.5488      2.6906      2.9255      3.3011      3.8871    
  4.7863      6.1521      8.2071      11.256      15.681      21.965      30.585      41.849      55.771      72.009    
  89.871      108.40      126.51      143.15      157.45      168.90      177.36      183.08      186.56      188.36    
  183.07      182.31      179.91      175.57      168.90      159.60      147.60      133.15      116.80      99.395    
  81.905      65.299      50.402      37.777      27.665      19.985      14.409      10.481      7.7778      5.9573    
  4.7490      3.9562      3.4436      3.1191      2.9199      2.8024      2.7369      2.7044      2.6947      2.7044    
  2.7369      2.8024      2.9199      3.1191      3.4436      3.9562      4.7490      5.9573      7.7778      10.481    
  14.409      19.985      27.665      37.777      50.402      65.299      81.905      99.395      116.80      133.15    
  147.60      159.60      168.90      175.57      179.91      182.31      173.70      172.76      169.87      164.83    
  157.45      147.60      135.37      121.11      105.39      89.030      72.893      57.823      44.501      33.359    
  24.532      17.883      13.073      9.6841      7.3582      5.7961      4.7641      4.0934      3.6671      3.4047    
  3.2502      3.1640      3.1192      3.0984      3.0925      3.0984      3.1192      3.1640      3.2502      3.4047    
  3.6671      4.0934      4.7641      5.7961      7.3582      9.6841      13.073      17.883      24.532      33.359    
  44.501      57.823      72.893      89.030      105.39      121.11      135.37      147.60      157.45      164.83    
  169.87      172.76      160.63      159.57      156.35      150.89      143.15      133.15      121.11      107.44    
  92.748      77.771      63.279      49.978      38.403      28.857      21.382      15.796      11.764      8.9321    
  6.9979      5.7077      4.8653      4.3296      4.0017      3.8125      3.7124      3.6658      3.6480      3.6432    
  3.6425      3.6432      3.6480      3.6658      3.7124      3.8125      4.0017      4.3296      4.8653      5.7077    
  6.9979      8.9321      11.764      15.796      21.382      28.857      38.403      49.978      63.279      77.771    
  92.748      107.44      121.11      133.15      143.15      150.89      156.35      159.57      144.22      143.11    
  139.78      134.22      126.51      116.80      105.39      92.748      79.451      66.165      53.551      42.175    
  32.436      24.519      18.391      13.843      10.570      8.2877      6.7446      5.7315      5.0887      4.7006    
  4.4850      4.3827      4.3501      4.3544      4.3727      4.3893      4.3958      4.3893      4.3727      4.3544    
  4.3501      4.3827      4.4850      4.7006      5.0887      5.7315      6.7446      8.2877      10.570      13.843    
  18.391      24.519      32.436      42.175      53.551      66.165      79.451      92.748      105.39      116.80    
  126.51      134.22      139.78      143.11      125.37      124.28      121.03      115.69      108.40      99.395    
  89.030      77.771      66.165      54.792      44.192      34.800      26.891      20.553      15.700      12.119    
  9.5622      7.8045      6.6417      5.9069      5.4733      5.2483      5.1637      5.1683      5.2221      5.2940    
  5.3610      5.4072      5.4236      5.4072      5.3610      5.2940      5.2221      5.1683      5.1637      5.2483    
  5.4733      5.9069      6.6417      7.8045      9.5622      12.119      15.700      20.553      26.891      34.800    
  44.192      54.792      66.165      77.771      89.030      99.395      108.40      115.69      121.03      124.28    
  105.28      104.28      101.29      96.425      89.871      81.905      72.893      63.279      53.551      44.192    
  35.626      28.168      21.988      17.104      13.400      10.691      8.7928      7.5248      6.7280      6.2739    
  6.0644      6.0252      6.0992      6.2397      6.4080      6.5721      6.7069      6.7948      6.8252      6.7948    
  6.7069      6.5721      6.4080      6.2397      6.0992      6.0252      6.0644      6.2739      6.7280      7.5248    
  8.7928      10.691      13.400      17.104      21.988      28.168      35.626      44.192      53.551      63.279    
  72.893      81.905      89.871      96.425      101.29      104.28      85.280      84.400      81.802      77.604    
  72.009      65.299      57.823      49.978      42.175      34.800      28.168      22.492      17.861      14.249    
  11.540      9.6032      8.2965      7.4822      7.0417      6.8792      6.9196      7.1026      7.3770      7.6972    
  8.0220      8.3151      8.5467      8.6947      8.7455      8.6947      8.5467      8.3151      8.0220      7.6972    
  7.3770      7.1026      6.9196      6.8792      7.0417      7.4822      8.2965      9.6032      11.540      14.249    
  17.861      22.492      28.168      34.800      42.175      49.978      57.823      65.299      72.009      77.604    
  81.802      84.400      66.597      65.870      63.732      60.301      55.771      50.402      44.501      38.403    
  32.436      26.891      21.988      17.861      14.546      11.996      10.137      8.8711      8.0938      7.7065    
  7.6254      7.7813      8.1161      8.5775      9.1154      9.6805      10.224      10.701      11.073      11.308    
  11.389      11.308      11.073      10.701      10.224      9.6805      9.1154      8.5775      8.1161      7.7813    
  7.6254      7.7065      8.0938      8.8711      10.137      11.996      14.546      17.861      21.988      26.891    
  32.436      38.403      44.501      50.402      55.771      60.301      63.732      65.870      50.200      49.634    
  47.972      45.320      41.849      37.777      33.359      28.857      24.519      20.553      17.104      14.249    
  11.996      10.323      9.1784      8.4936      8.1985      8.2294      8.5310      9.0543      9.7519      10.574    
  11.467      12.371      13.224      13.965      14.539      14.903      15.027      14.903      14.539      13.965    
  13.224      12.371      11.467      10.574      9.7519      9.0543      8.5310      8.2294      8.1985      8.4936    
  9.1784      10.323      11.996      14.249      17.104      20.553      24.519      28.857      33.359      37.777    
  41.849      45.320      47.972      49.634      36.670      36.253      35.034      33.099      30.585      27.665    
  24.532      21.382      18.391      15.700      13.400      11.540      10.137      9.1784      8.6328      8.4607    
  8.6239      9.0879      9.8202      10.786      11.945      13.244      14.620      15.997      17.293      18.420    
  19.295      19.851      20.041      19.851      19.295      18.420      17.293      15.997      14.620      13.244    
  11.945      10.786      9.8202      9.0879      8.6239      8.4607      8.6328      9.1784      10.137      11.540    
  13.400      15.700      18.391      21.382      24.532      27.665      30.585      33.099      35.034      36.253    
  26.150      25.861      25.018      23.685      21.965      19.985      17.883      15.796      13.843      12.119    
  10.691      9.6032      8.8711      8.4936      8.4607      8.7612      9.3853      10.324      11.562      13.077    
  14.831      16.769      18.814      20.869      22.816      24.523      25.861      26.715      27.009      26.715    
  25.861      24.523      22.816      20.869      18.814      16.769      14.831      13.077      11.562      10.324    
  9.3853      8.7612      8.4607      8.4936      8.8711      9.6032      10.691      12.119      13.843      15.796    
  17.883      19.985      21.965      23.685      25.018      25.861      18.405      18.216      17.664      16.795    
  15.681      14.409      13.073      11.764      10.570      9.5622      8.7928      8.2965      8.0938      8.1985    
  8.6239      9.3853      10.499      11.978      13.827      16.035      18.572      21.384      24.381      27.432    
  30.363      32.969      35.031      36.359      36.817      36.359      35.031      32.969      30.363      27.432    
  24.381      21.384      18.572      16.035      13.827      11.978      10.499      9.3853      8.6239      8.1985    
  8.0938      8.2965      8.7928      9.5622      10.570      11.764      13.073      14.409      15.681      16.795    
  17.664      18.216      12.943      12.825      12.481      11.942      11.256      10.481      9.6841      8.9321    
  8.2877      7.8045      7.5248      7.4822      7.7065      8.2294      9.0879      10.324      11.978      14.090    
  16.686      19.782      23.369      27.401      31.777      36.313      40.744      44.736      47.928      49.995    
  50.711      49.995      47.928      44.736      40.744      36.313      31.777      27.401      23.369      19.782    
  16.686      14.090      11.978      10.324      9.0879      8.2294      7.7065      7.4822      7.5248      7.8045    
  8.2877      8.9321      9.6841      10.481      11.256      11.942      12.481      12.825      9.1830      9.1134    
  8.9118      8.5989      8.2071      7.7778      7.3582      6.9979      6.7446      6.6417      6.7280      7.0417    
  7.6254      8.5310      9.8202      11.562      13.827      16.686      20.208      24.455      29.463      35.213    
  41.582      48.305      54.964      61.019      65.891      69.066      70.171      69.066      65.891      61.019    
  54.964      48.305      41.582      35.213      29.463      24.455      20.208      16.686      13.827      11.562    
  9.8202      8.5310      7.6254      7.0417      6.7280      6.6417      6.7446      6.9979      7.3582      7.7778    
  8.2071      8.5989      8.9118      9.1134      6.6479      6.6111      6.5054      6.3448      6.1521      5.9573    
  5.7961      5.7077      5.7315      5.9069      6.2739      6.8792      7.7813      9.0543      10.786      13.077    
  16.035      19.782      24.455      30.198      37.124      45.252      54.420      64.223      74.062      83.235    
  90.812      95.835      97.597      95.835      90.812      83.235      74.062      64.223      54.420      45.252    
  37.124      30.198      24.455      19.782      16.035      13.077      10.786      9.0543      7.7813      6.8792    
  6.2739      5.9069      5.7315      5.7077      5.7961      5.9573      6.1521      6.3448      6.5054      6.6111    
  4.9643      4.9491      4.9067      4.8468      4.7863      4.7490      4.7641      4.8653      5.0887      5.4733    
  6.0644      6.9196      8.1161      9.7519      11.945      14.831      18.572      23.369      29.463      37.124    
  46.572      57.863      70.768      84.968      99.784      113.90      125.65      133.46      136.20      133.46    
  125.65      113.90      99.784      84.968      70.768      57.863      46.572      37.124      29.463      23.369    
  18.572      14.831      11.945      9.7519      8.1161      6.9196      6.0644      5.4733      5.0887      4.8653    
  4.7641      4.7490      4.7863      4.8468      4.9067      4.9491      3.8551      3.8542      3.8533      3.8597    
  3.8871      3.9562      4.0934      4.3296      4.7006      5.2483      6.0252      7.1026      8.5775      10.574    
  13.244      16.769      21.384      27.401      35.213      45.252      57.863      73.150      91.282      111.95    
  133.78      154.53      171.68      182.97      186.91      182.97      171.68      154.53      133.78      111.95    
  91.282      73.150      57.863      45.252      35.213      27.401      21.384      16.769      13.244      10.574    
  8.5775      7.1026      6.0252      5.2483      4.7006      4.3296      4.0934      3.9562      3.8871      3.8597    
  3.8533      3.8542      3.1293      3.1379      3.1647      3.2148      3.3011      3.4436      3.6671      4.0017    
  4.4850      5.1637      6.0992      7.3770      9.1154      11.467      14.620      18.814      24.381      31.777    
  41.582      54.420      70.768      91.282      116.45      145.35      175.60      203.90      226.88      241.82    
  246.99      241.82      226.88      203.90      175.60      145.35      116.45      91.282      70.768      54.420    
  41.582      31.777      24.381      18.814      14.620      11.467      9.1154      7.3770      6.0992      5.1637    
  4.4850      4.0017      3.6671      3.4436      3.3011      3.2148      3.1647      3.1379      2.6602      2.6751    
  2.7201      2.7993      2.9255      3.1191      3.4047      3.8125      4.3827      5.1683      6.2397      7.6972    
  9.6805      12.371      15.997      20.869      27.432      36.313      48.305      64.223      84.968      111.95    
  145.35      183.31      222.25      257.85      286.14      304.20      310.40      304.20      286.14      257.85    
  222.25      183.31      145.35      111.95      84.968      64.223      48.305      36.313      27.432      20.869    
  15.997      12.371      9.6805      7.6972      6.2397      5.1683      4.3827      3.8125      3.4047      3.1191    
  2.9255      2.7993      2.7201      2.6751      2.3632      2.3823      2.4393      2.5375      2.6906      2.9199    
  3.2502      3.7124      4.3501      5.2221      6.4080      8.0220      10.224      13.224      17.293      22.816    
  30.363      40.744      54.964      74.062      99.784      133.78      175.60      222.25      268.96      310.54    
  342.78      362.99      369.85      362.99      342.78      310.54      268.96      222.25      175.60      133.78    
  99.784      74.062      54.964      40.744      30.363      22.816      17.293      13.224      10.224      8.0220    
  6.4080      5.2221      4.3501      3.7124      3.2502      2.9199      2.6906      2.5375      2.4393      2.3823    
  2.1814      2.2031      2.2675      2.3780      2.5488      2.8024      3.1640      3.6658      4.3544      5.2940    
  6.5721      8.3151      10.701      13.965      18.420      24.523      32.969      44.736      61.019      83.235    
  113.90      154.53      203.90      257.85      310.54      356.25      390.85      412.13      419.27      412.13    
  390.85      356.25      310.54      257.85      203.90      154.53      113.90      83.235      61.019      44.736    
  32.969      24.523      18.420      13.965      10.701      8.3151      6.5721      5.2940      4.3544      3.6658    
  3.1640      2.8024      2.5488      2.3780      2.2675      2.2031      2.0760      2.0992      2.1679      2.2858    
  2.4677      2.7369      3.1192      3.6480      4.3727      5.3610      6.7069      8.5467      11.073      14.539    
  19.295      25.861      35.031      47.928      65.891      90.812      125.65      171.68      226.88      286.14    
  342.78      390.85      426.48      448.04      455.22      448.04      426.48      390.85      342.78      286.14    
  226.88      171.68      125.65      90.812      65.891      47.928      35.031      25.861      19.295      14.539    
  11.073      8.5467      6.7069      5.3610      4.3727      3.6480      3.1192      2.7369      2.4677      2.2858    
  2.1679      2.0992      2.0221      2.0459      2.1168      2.2385      2.4266      2.7044      3.0984      3.6432    
  4.3893      5.4072      6.7948      8.6947      11.308      14.903      19.851      26.715      36.359      49.995    
  69.066      95.835      133.46      182.97      241.82      304.20      362.99      412.13      448.04      469.53    
  476.63      469.53      448.04      412.13      362.99      304.20      241.82      182.97      133.46      95.835    
  69.066      49.995      36.359      26.715      19.851      14.903      11.308      8.6947      6.7948      5.4072    
  4.3893      3.6432      3.0984      2.7044      2.4266      2.2385      2.1168      2.0459      2.0056      2.0296    
  2.1011      2.2241      2.4141      2.6947      3.0925      3.6425      4.3958      5.4236      6.8252      8.7455    
  11.389      15.027      20.041      27.009      36.817      50.711      70.171      97.597      136.20      186.91    
  246.99      310.40      369.85      419.27      455.22      476.63      483.70      476.63      455.22      419.27    
  369.85      310.40      246.99      186.91      136.20      97.597      70.171      50.711      36.817      27.009    
  20.041      15.027      11.389      8.7455      6.8252      5.4236      4.3958      3.6425      3.0925      2.6947    
  2.4141      2.2241      2.1011      2.0296      2.0221      2.0459      2.1168      2.2385      2.4266      2.7044    
  3.0984      3.6432      4.3893      5.4072      6.7948      8.6947      11.308      14.903      19.851      26.715    
  36.359      49.995      69.066      95.835      133.46      182.97      241.82      304.20      362.99      412.13    
  448.04      469.53      476.63      469.53      448.04      412.13      362.99      304.20      241.82      182.97    
  133.46      95.835      69.066      49.995      36.359      26.715      19.851      14.903      11.308      8.6947    
  6.7948      5.4072      4.3893      3.6432      3.0984      2.7044      2.4266      2.2385      2.1168      2.0459    
  2.0760      2.0992      2.1679      2.2858      2.4677      2.7369      3.1192      3.6480      4.3727      5.3610    
  6.7069      8.5467      11.073      14.539      19.295      25.861      35.031      47.928      65.891      90.812    
  125.65      171.68      226.88      286.14      342.78      390.85      426.48      448.04      455.22      448.04    
  426.48      390.85      342.78      286.14      226.88      171.68      125.65      90.812      65.891      47.928    
  35.031      25.861      19.295      14.539      11.073      8.5467      6.7069      5.3610      4.3727      3.6480    
  3.1192      2.7369      2.4677      2.2858      2.1679      2.0992      2.1814      2.2031      2.2675      2.3780    
  2.5488      2.8024      3.1640      3.6658      4.3544      5.2940      6.5721      8.3151      10.701      13.965    
  18.420      24.523      32.969      44.736      61.019      83.235      113.90      154.53      203.90      257.85    
  310.54      356.25      390.85      412.13      419.27      412.13      390.85      356.25      310.54      257.85    
  203.90      154.53      113.90      83.235      61.019      44.736      32.969      24.523      18.420      13.965    
  10.701      8.3151      6.5721      5.2940      4.3544      3.6658      3.1640      2.8024      2.5488      2.3780    
  2.2675      2.2031      2.3632      2.3823      2.4393      2.5375      2.6906      2.9199      3.2502      3.7124    
  4.3501      5.2221      6.4080      8.0220      10.224      13.224      17.293      22.816      30.363      40.744    
  54.964      74.062      99.784      133.78      175.60      222.25      268.96      310.54      342.78      362.99    
  369.85      362.99      342.78      310.54      268.96      222.25      175.60      133.78      99.784      74.062    
  54.964      40.744      30.363      22.816      17.293      13.224      10.224      8.0220      6.4080      5.2221    
  4.3501      3.7124      3.2502      2.9199      2.6906      2.5375      2.4393      2.3823      2.6602      2.6751    
  2.7201      2.7993      2.9255      3.1191      3.4047      3.8125      4.3827      5.1683      6.2397      7.6972    
  9.6805      12.371      15.997      20.869      27.432      36.313      48.305      64.223      84.968      111.95    
  145.35      183.31      222.25      257.85      286.14      304.20      310.40      304.20      286.14      257.85    
  222.25      183.31      145.35      111.95      84.968      64.223      48.305      36.313      27.432      20.869    
  15.997      12.371      9.6805      7.6972      6.2397      5.1683      4.3827      3.8125      3.4047      3.1191    
  2.9255      2.7993      2.7201      2.6751      3.1293      3.1379      3.1647      3.2148      3.3011      3.4436    
  3.6671      4.0017      4.4850      5.1637      6.0992      7.3770      9.1154      11.467      14.620      18.814    
  24.381      31.777      41.582      54.420      70.768      91.282      116.45      145.35      175.60      203.90    
  226.88      241.82      246.99      241.82      226.88      203.90      175.60      145.35      116.45      91.282    
  70.768      54.420      41.582      31.777      24.381      18.814      14.620      11.467      9.1154      7.3770    
  6.0992      5.1637      4.4850      4.0017      3.6671      3.4436      3.3011      3.2148      3.1647      3.1379    
  3.8551      3.8542      3.8533      3.8597      3.8871      3.9562      4.0934      4.3296      4.7006      5.2483    
  6.0252      7.1026      8.5775      10.574      13.244      16.769      21.384      27.401      35.213      45.252    
  57.863      73.150      91.282      111.95      133.78      154.53      171.68      182.97      186.91      182.97    
  171.68      154.53      133.78      111.95      91.282      73.150      57.863      45.252      35.213      27.401    
  21.384      16.769      13.244      10.574      8.5775      7.1026      6.0252      5.2483      4.7006      4.3296    
  4.0934      3.9562      3.8871      3.8597      3.8533      3.8542      4.9643      4.9491      4.9067      4.8468    
  4.7863      4.7490      4.7641      4.8653      5.0887      5.4733      6.0644      6.9196      8.1161      9.7519    
  11.945      14.831      18.572      23.369      29.463      37.124      46.572      57.863      70.768      84.968    
  99.784      113.90      125.65      133.46      136.20      133.46      125.65      113.90      99.784      84.968    
  70.768      57.863      46.572      37.124      29.463      23.369      18.572      14.831      11.945      9.7519    
  8.1161      6.9196      6.0644      5.4733      5.0887      4.8653      4.7641      4.7490      4.7863      4.8468    
  4.9067      4.9491      6.6479      6.6111      6.5054      6.3448      6.1521      5.9573      5.7961      5.7077    
  5.7315      5.9069      6.2739      6.8792      7.7813      9.0543      10.786      13.077      16.035      19.782    
  24.455      30.198      37.124      45.252      54.420      64.223      74.062      83.235      90.812      95.835    
  97.597      95.835      90.812      83.235      74.062      64.223      54.420      45.252      37.124      30.198    
  24.455      19.782      16.035      13.077      10.786      9.0543      7.7813      6.8792      6.2739      5.9069    
  5.7315      5.7077      5.7961      5.9573      6.1521      6.3448      6.5054      6.6111      9.1830      9.1134    
  8.9118      8.5989      8.2071      7.7778      7.3582      6.9979      6.7446      6.6417      6.7280      7.0417    
  7.6254      8.5310      9.8202      11.562      13.827      16.686      20.208      24.455      29.463      35.213    
  41.582      48.305      54.964      61.019      65.891      69.066      70.171      69.066      65.891      61.019    
  54.964      48.305      41.582      35.213      29.463      24.455      20.208      16.686      13.827      11.562    
  9.8202      8.5310      7.6254      7.0417      6.7280      6.6417      6.7446      6.9979      7.3582      7.7778    
  8.2071      8.5989      8.9118      9.1134      12.943      12.825      12.481      11.942      11.256      10.481    
  9.6841      8.9321      8.2877      7.8045      7.5248      7.4822      7.7065      8.2294      9.0879      10.324    
  11.978      14.090      16.686      19.782      23.369      27.401      31.777      36.313      40.744      44.736    
  47.928      49.995      50.711      49.995      47.928      44.736      40.744      36.313      31.777      27.401    
  23.369      19.782      16.686      14.090      11.978      10.324      9.0879      8.2294      7.7065      7.4822    
  7.5248      7.8045      8.2877      8.9321      9.6841      10.481      11.256      11.942      12.481      12.825    
  18.405      18.216      17.664      16.795      15.681      14.409      13.073      11.764      10.570      9.5622    
  8.7928      8.2965      8.0938      8.1985      8.6239      9.3853      10.499      11.978      13.827      16.035    
  18.572      21.384      24.381      27.432      30.363      32.969      35.031      36.359      36.817      36.359    
  35.031      32.969      30.363      27.432      24.381      21.384      18.572      16.035      13.827      11.978    
  10.499      9.3853      8.6239      8.1985      8.0938      8.2965      8.7928      9.5622      10.570      11.764    
  13.073      14.409      15.681      16.795      17.664      18.216      26.150      25.861      25.018      23.685    
  21.965      19.985      17.883      15.796      13.843      12.119      10.691      9.6032      8.8711      8.4936    
  8.4607      8.7612      9.3853      10.324      11.562      13.077      14.831      16.769      18.814      20.869    
  22.816      24.523      25.861      26.715      27.009      26.715      25.861      24.523      22.816      20.869    
  18.814      16.769      14.831      13.077      11.562      10.324      9.3853      8.7612      8.4607      8.4936    
  8.8711      9.6032      10.691      12.119      13.843      15.796      17.883      19.985      21.965      23.685    
  25.018      25.861      36.670      36.253      35.034      33.099      30.585      27.665      24.532      21.382    
  18.391      15.700      13.400      11.540      10.137      9.1784      8.6328      8.4607      8.6239      9.0879    
  9.8202      10.786      11.945      13.244      14.620      15.997      17.293      18.420      19.295      19.851    
  20.041      19.851      19.295      18.420      17.293      15.997      14.620      13.244      11.945      10.786    
  9.8202      9.0879      8.6239      8.4607      8.6328      9.1784      10.137      11.540      13.400      15.700    
  18.391      21.382      24.532      27.665      30.585      33.099      35.034      36.253      50.200      49.634    
  47.972      45.320      41.849      37.777      33.359      28.857      24.519      20.553      17.104      14.249    
  11.996      10.323      9.1784      8.4936      8.1985      8.2294      8.5310      9.0543      9.7519      10.574    
  11.467      12.371      13.224      13.965      14.539      14.903      15.027      14.903      14.539      13.965    