unknown system                          
   1.00000000000000     
     3.905268    0.000000    0.000000
     0.000000    3.905268    0.000000
     0.000000    0.000000    3.905268
   Sr   Ti   O 
     1     1     3
Direct
  0.000000  0.000000  0.000000
  0.500000  0.500000  0.500000
  0.500000  0.500000  0.000000
  0.500000  0.000000  0.500000
  0.000000  0.500000  0.500000
 
   56   56   56
 0.19320762912E+03 0.19322496764E+03 0.19302367427E+03 0.19190600310E+03 0.18890894514E+03
 0.18306883050E+03 0.17370404253E+03 0.16062757671E+03 0.14422252583E+03 0.12537108095E+03
 0.10528211784E+03 0.85279564683E+02 0.66596605503E+02 0.50200434423E+02 0.36669557727E+02
 0.26150041470E+02 0.18405360268E+02 0.12942727241E+02 0.91830137971E+01 0.66479424132E+01
 0.49643004998E+01 0.38550755730E+01 0.31293396437E+01 0.26601521978E+01 0.23631813209E+01
 0.21813771555E+01 0.20760163604E+01 0.20220556088E+01 0.20055513278E+01 0.20220556088E+01
 0.20760163604E+01 0.21813771555E+01 0.23631813209E+01 0.26601521978E+01 0.31293396437E+01
 0.38550755730E+01 0.49643004998E+01 0.66479424132E+01 0.91830137971E+01 0.12942727241E+02
 0.18405360268E+02 0.26150041470E+02 0.36669557727E+02 0.50200434423E+02 0.66596605503E+02
 0.85279564683E+02 0.10528211784E+03 0.12537108095E+03 0.14422252583E+03 0.16062757671E+03
 0.17370404253E+03 0.18306883050E+03 0.18890894514E+03 0.19190600310E+03 0.19302367427E+03
 0.19322496764E+03 0.19322496764E+03 0.19319940346E+03 0.19287574154E+03 0.19157474984E+03
 0.18836200086E+03 0.18230784683E+03 0.17276335616E+03 0.15956609794E+03 0.14311149907E+03
 0.12428157544E+03 0.10427519872E+03 0.84400128813E+02 0.65870490102E+02 0.49634261844E+02
 0.36253160390E+02 0.25861216539E+02 0.18215980827E+02 0.12824606241E+02 0.91134066005E+01
 0.66110980661E+01 0.49491031283E+01 0.38541542027E+01 0.31379299669E+01 0.26751115052E+01
 0.23823186826E+01 0.22030978241E+01 0.20991783321E+01 0.20458977548E+01 0.20295864282E+01
 0.20458977548E+01 0.20991783321E+01 0.22030978241E+01 0.23823186826E+01 0.26751115052E+01
 0.31379299669E+01 0.38541542027E+01 0.49491031283E+01 0.66110980661E+01 0.91134066005E+01
 0.12824606241E+02 0.18215980827E+02 0.25861216539E+02 0.36253160390E+02 0.49634261844E+02
 0.65870490102E+02 0.84400128813E+02 0.10427519872E+03 0.12428157544E+03 0.14311149907E+03
 0.15956609794E+03 0.17276335616E+03 0.18230784683E+03 0.18836200086E+03 0.19157474984E+03
 0.19287574154E+03 0.19319940346E+03 0.19302367427E+03 0.19287574154E+03 0.19220370242E+03
 0.19038272175E+03 0.18656159902E+03 0.17990875547E+03 0.16986849651E+03 0.15634765958E+03
 0.13977563366E+03 0.12103266355E+03 0.10128784692E+03 0.81801558594E+02 0.63732268689E+02
 0.47972016094E+02 0.35033910374E+02 0.25017524474E+02 0.17663937342E+02 0.12480902020E+02
 0.89117676678E+01 0.65053607454E+01 0.49066696374E+01 0.38533407642E+01 0.31646617428E+01
 0.27201269023E+01 0.24392762274E+01 0.22675145352E+01 0.21679002113E+01 0.21167681345E+01
 0.21010972747E+01 0.21167681345E+01 0.21679002113E+01 0.22675145352E+01 0.24392762274E+01
 0.27201269023E+01 0.31646617428E+01 0.38533407642E+01 0.49066696374E+01 0.65053607454E+01
 0.89117676678E+01 0.12480902020E+02 0.17663937342E+02 0.25017524474E+02 0.35033910374E+02
 0.47972016094E+02 0.63732268689E+02 0.81801558594E+02 0.10128784692E+03 0.12103266355E+03
 0.13977563366E+03 0.15634765958E+03 0.16986849651E+03 0.17990875547E+03 0.18656159902E+03
 0.19038272175E+03 0.19220370242E+03 0.19287574154E+03 0.19190600310E+03 0.19157474984E+03
 0.19038272175E+03 0.18779132734E+03 0.18307929213E+03 0.17556538046E+03 0.16483411379E+03
 0.15089412547E+03 0.13422230169E+03 0.11569234147E+03 0.96424603255E+02 0.77604031385E+02
 0.60301158340E+02 0.45320219322E+02 0.33098965071E+02 0.23684810568E+02 0.16795489182E+02
 0.11942229484E+02 0.85988670765E+01 0.63448234235E+01 0.48467886964E+01 0.38596706559E+01
 0.32147715788E+01 0.27992829041E+01 0.25375308623E+01 0.23779839870E+01 0.22857589981E+01
 0.22385498491E+01 0.22241046706E+01 0.22385498491E+01 0.22857589981E+01 0.23779839870E+01
 0.25375308623E+01 0.27992829041E+01 0.32147715788E+01 0.38596706559E+01 0.48467886964E+01
 0.63448234235E+01 0.85988670765E+01 0.11942229484E+02 0.16795489182E+02 0.23684810568E+02
 0.33098965071E+02 0.45320219322E+02 0.60301158340E+02 0.77604031385E+02 0.96424603255E+02
 0.11569234147E+03 0.13422230169E+03 0.15089412547E+03 0.16483411379E+03 0.17556538046E+03
 0.18307929213E+03 0.18779132734E+03 0.19038272175E+03 0.19157474984E+03 0.18890894514E+03
 0.18836200086E+03 0.18656159902E+03 0.18307929213E+03 0.17735665566E+03 0.16889664643E+03
 0.15745124065E+03 0.14314664508E+03 0.12651016994E+03 0.10840037922E+03 0.89871419185E+02
 0.72009448982E+02 0.55771165905E+02 0.41848502269E+02 0.30584833857E+02 0.21964851023E+02
 0.15681448667E+02 0.11255843532E+02 0.82070768231E+01 0.61521172025E+01 0.47863238731E+01
 0.38870506746E+01 0.33010853718E+01 0.29254772796E+01 0.26906315959E+01 0.25488467060E+01
 0.24677466114E+01 0.24266290571E+01 0.24141224855E+01 0.24266290571E+01 0.24677466114E+01
 0.25488467060E+01 0.26906315959E+01 0.29254772796E+01 0.33010853718E+01 0.38870506746E+01
 0.47863238731E+01 0.61521172025E+01 0.82070768231E+01 0.11255843532E+02 0.15681448667E+02
 0.21964851023E+02 0.30584833857E+02 0.41848502269E+02 0.55771165905E+02 0.72009448982E+02
 0.89871419185E+02 0.10840037922E+03 0.12651016994E+03 0.14314664508E+03 0.15745124065E+03
 0.16889664643E+03 0.17735665566E+03 0.18307929213E+03 0.18656159902E+03 0.18836200086E+03
 0.18306883050E+03 0.18230784683E+03 0.17990875547E+03 0.17556538046E+03 0.16889664643E+03
 0.15960122945E+03 0.14760380920E+03 0.13314654128E+03 0.11679976719E+03 0.99395072587E+02
 0.81904998918E+02 0.65299020271E+02 0.50401688883E+02 0.37777125441E+02 0.27664781930E+02
 0.19984555934E+02 0.14409076647E+02 0.10481073967E+02 0.77777637775E+01 0.59572926982E+01
 0.47489734927E+01 0.39562264083E+01 0.34435610455E+01 0.31191081232E+01 0.29199330660E+01
 0.28024271141E+01 0.27368955230E+01 0.27044224486E+01 0.26946824328E+01 0.27044224486E+01
 0.27368955230E+01 0.28024271141E+01 0.29199330660E+01 0.31191081232E+01 0.34435610455E+01
 0.39562264083E+01 0.47489734927E+01 0.59572926982E+01 0.77777637775E+01 0.10481073967E+02
 0.14409076647E+02 0.19984555934E+02 0.27664781930E+02 0.37777125441E+02 0.50401688883E+02
 0.65299020271E+02 0.81904998918E+02 0.99395072587E+02 0.11679976719E+03 0.13314654128E+03
 0.14760380920E+03 0.15960122945E+03 0.16889664643E+03 0.17556538046E+03 0.17990875547E+03
 0.18230784683E+03 0.17370404253E+03 0.17276335616E+03 0.16986849651E+03 0.16483411379E+03
 0.15745124065E+03 0.14760380920E+03 0.13537448346E+03 0.12110506116E+03 0.10539340484E+03
 0.89030118069E+02 0.72893067864E+02 0.57822703827E+02 0.44501173068E+02 0.33359035097E+02
 0.24532353148E+02 0.17882728014E+02 0.13072623099E+02 0.96840639894E+01 0.73582063514E+01
 0.57961249921E+01 0.47641444570E+01 0.40934345686E+01 0.36670808060E+01 0.34046939546E+01
 0.32501610486E+01 0.31639979922E+01 0.31191506072E+01 0.30984246891E+01 0.30924912423E+01
 0.30984246891E+01 0.31191506072E+01 0.31639979922E+01 0.32501610486E+01 0.34046939546E+01
 0.36670808060E+01 0.40934345686E+01 0.47641444570E+01 0.57961249921E+01 0.73582063514E+01
 0.96840639894E+01 0.13072623099E+02 0.17882728014E+02 0.24532353148E+02 0.33359035097E+02
 0.44501173068E+02 0.57822703827E+02 0.72893067864E+02 0.89030118069E+02 0.10539340484E+03
 0.12110506116E+03 0.13537448346E+03 0.14760380920E+03 0.15745124065E+03 0.16483411379E+03
 0.16986849651E+03 0.17276335616E+03 0.16062757671E+03 0.15956609794E+03 0.15634765958E+03
 0.15089412547E+03 0.14314664508E+03 0.13314654128E+03 0.12110506116E+03 0.10743723820E+03
 0.92747681865E+02 0.77770900705E+02 0.63279364088E+02 0.49977594030E+02 0.38403206825E+02
 0.28857214693E+02 0.21382351676E+02 0.15795691280E+02 0.11764392050E+02 0.89320658079E+01
 0.69978904600E+01 0.57076511720E+01 0.48653345487E+01 0.43296233382E+01 0.40017493107E+01
 0.38124864857E+01 0.37123541550E+01 0.36657878952E+01 0.36480318867E+01 0.36431637075E+01
 0.36424588243E+01 0.36431637075E+01 0.36480318867E+01 0.36657878952E+01 0.37123541550E+01
 0.38124864857E+01 0.40017493107E+01 0.43296233382E+01 0.48653345487E+01 0.57076511720E+01
 0.69978904600E+01 0.89320658079E+01 0.11764392050E+02 0.15795691280E+02 0.21382351676E+02
 0.28857214693E+02 0.38403206825E+02 0.49977594030E+02 0.63279364088E+02 0.77770900705E+02
 0.92747681865E+02 0.10743723820E+03 0.12110506116E+03 0.13314654128E+03 0.14314664508E+03
 0.15089412547E+03 0.15634765958E+03 0.15956609794E+03 0.14422252583E+03 0.14311149907E+03
 0.13977563366E+03 0.13422230169E+03 0.12651016994E+03 0.11679976719E+03 0.10539340484E+03
 0.92747681865E+02 0.79450606977E+02 0.66165429721E+02 0.53551159333E+02 0.42175100793E+02
 0.32436305130E+02 0.24519272407E+02 0.18391249192E+02 0.13843344327E+02 0.10570307896E+02
 0.82877144069E+01 0.67445959453E+01 0.57315382270E+01 0.50887291244E+01 0.47005984448E+01
 0.44850113253E+01 0.43827498129E+01 0.43500518249E+01 0.43544428526E+01 0.43726543548E+01
 0.43893102113E+01 0.43957832072E+01 0.43893102113E+01 0.43726543548E+01 0.43544428526E+01
 0.43500518249E+01 0.43827498129E+01 0.44850113253E+01 0.47005984448E+01 0.50887291244E+01
 0.57315382270E+01 0.67445959453E+01 0.82877144069E+01 0.10570307896E+02 0.13843344327E+02
 0.18391249192E+02 0.24519272407E+02 0.32436305130E+02 0.42175100793E+02 0.53551159333E+02
 0.66165429721E+02 0.79450606977E+02 0.92747681865E+02 0.10539340484E+03 0.11679976719E+03
 0.12651016994E+03 0.13422230169E+03 0.13977563366E+03 0.14311149907E+03 0.12537108095E+03
 0.12428157544E+03 0.12103266355E+03 0.11569234147E+03 0.10840037922E+03 0.99395072587E+02
 0.89030118069E+02 0.77770900705E+02 0.66165429721E+02 0.54792009038E+02 0.44191876498E+02
 0.34800067807E+02 0.26890815830E+02 0.20552508510E+02 0.15699695112E+02 0.12118829970E+02
 0.95621554874E+01 0.78044579696E+01 0.66416507793E+01 0.59068629543E+01 0.54733434081E+01
 0.52483031794E+01 0.51637348348E+01 0.51683019685E+01 0.52220818527E+01 0.52940288329E+01
 0.53610019550E+01 0.54072131856E+01 0.54235967289E+01 0.54072131856E+01 0.53610019550E+01
 0.52940288329E+01 0.52220818527E+01 0.51683019685E+01 0.51637348348E+01 0.52483031794E+01
 0.54733434081E+01 0.59068629543E+01 0.66416507793E+01 0.78044579696E+01 0.95621554874E+01
 0.12118829970E+02 0.15699695112E+02 0.20552508510E+02 0.26890815830E+02 0.34800067807E+02
 0.44191876498E+02 0.54792009038E+02 0.66165429721E+02 0.77770900705E+02 0.89030118069E+02
 0.99395072587E+02 0.10840037922E+03 0.11569234147E+03 0.12103266355E+03 0.12428157544E+03
 0.10528211784E+03 0.10427519872E+03 0.10128784692E+03 0.96424603255E+02 0.89871419185E+02
 0.81904998918E+02 0.72893067864E+02 0.63279364088E+02 0.53551159333E+02 0.44191876498E+02
 0.35626110033E+02 0.28168368239E+02 0.21988485776E+02 0.17103777207E+02 0.13400287460E+02
 0.10691279013E+02 0.87927637471E+01 0.75247804069E+01 0.67280033170E+01 0.62739284195E+01
 0.60643645485E+01 0.60252430340E+01 0.60991930492E+01 0.62397208275E+01 0.64080327314E+01
 0.65721086446E+01 0.67069191212E+01 0.67947506119E+01 0.68251701078E+01 0.67947506119E+01
 0.67069191212E+01 0.65721086446E+01 0.64080327314E+01 0.62397208275E+01 0.60991930492E+01
 0.60252430340E+01 0.60643645485E+01 0.62739284195E+01 0.67280033170E+01 0.75247804069E+01
 0.87927637471E+01 0.10691279013E+02 0.13400287460E+02 0.17103777207E+02 0.21988485776E+02
 0.28168368239E+02 0.35626110033E+02 0.44191876498E+02 0.53551159333E+02 0.63279364088E+02
 0.72893067864E+02 0.81904998918E+02 0.89871419185E+02 0.96424603255E+02 0.10128784692E+03
 0.10427519872E+03 0.85279564683E+02 0.84400128813E+02 0.81801558594E+02 0.77604031385E+02
 0.72009448982E+02 0.65299020271E+02 0.57822703827E+02 0.49977594030E+02 0.42175100793E+02
 0.34800067807E+02 0.28168368239E+02 0.22492073644E+02 0.17861358171E+02 0.14248576058E+02
 0.11540069732E+02 0.96032317842E+01 0.82964626956E+01 0.74822244863E+01 0.70417052095E+01
 0.68792298065E+01 0.69196423102E+01 0.71025943010E+01 0.73769505744E+01 0.76971505869E+01
 0.80219698198E+01 0.83151241154E+01 0.85467231231E+01 0.86946634314E+01 0.87454793790E+01
 0.86946634314E+01 0.85467231231E+01 0.83151241154E+01 0.80219698198E+01 0.76971505869E+01
 0.73769505744E+01 0.71025943010E+01 0.69196423102E+01 0.68792298065E+01 0.70417052095E+01
 0.74822244863E+01 0.82964626956E+01 0.96032317842E+01 0.11540069732E+02 0.14248576058E+02
 0.17861358171E+02 0.22492073644E+02 0.28168368239E+02 0.34800067807E+02 0.42175100793E+02
 0.49977594030E+02 0.57822703827E+02 0.65299020271E+02 0.72009448982E+02 0.77604031385E+02
 0.81801558594E+02 0.84400128813E+02 0.66596605503E+02 0.65870490102E+02 0.63732268689E+02
 0.60301158340E+02 0.55771165905E+02 0.50401688883E+02 0.44501173068E+02 0.38403206825E+02
 0.32436305130E+02 0.26890815830E+02 0.21988485776E+02 0.17861358171E+02 0.14545610751E+02
 0.11996310215E+02 0.10136897682E+02 0.88711459485E+01 0.80938004279E+01 0.77065282924E+01
 0.76254198076E+01 0.77813400558E+01 0.81160908116E+01 0.85774656165E+01 0.91154300650E+01
 0.96804715146E+01 0.10224143695E+02 0.10701212001E+02 0.11072559691E+02 0.11308040044E+02
 0.11388688131E+02 0.11308040044E+02 0.11072559691E+02 0.10701212001E+02 0.10224143695E+02
 0.96804715146E+01 0.91154300650E+01 0.85774656165E+01 0.81160908116E+01 0.77813400558E+01
 0.76254198076E+01 0.77065282924E+01 0.80938004279E+01 0.88711459485E+01 0.10136897682E+02
 0.11996310215E+02 0.14545610751E+02 0.17861358171E+02 0.21988485776E+02 0.26890815830E+02
 0.32436305130E+02 0.38403206825E+02 0.44501173068E+02 0.50401688883E+02 0.55771165905E+02
 0.60301158340E+02 0.63732268689E+02 0.65870490102E+02 0.50200434423E+02 0.49634261844E+02
 0.47972016094E+02 0.45320219322E+02 0.41848502269E+02 0.37777125441E+02 0.33359035097E+02
 0.28857214693E+02 0.24519272407E+02 0.20552508510E+02 0.17103777207E+02 0.14248576058E+02
 0.11996310215E+02 0.10323297517E+02 0.91784313526E+01 0.84936088486E+01 0.81985409477E+01
 0.82293941350E+01 0.85309730756E+01 0.90542564009E+01 0.97519433856E+01 0.10574350933E+02
 0.11467073347E+02 0.12370894294E+02 0.13223845540E+02 0.13964997127E+02 0.14539343488E+02
 0.14902947634E+02 0.15027421343E+02 0.14902947634E+02 0.14539343488E+02 0.13964997127E+02
 0.13223845540E+02 0.12370894294E+02 0.11467073347E+02 0.10574350933E+02 0.97519433856E+01
 0.90542564009E+01 0.85309730756E+01 0.82293941350E+01 0.81985409477E+01 0.84936088486E+01
 0.91784313526E+01 0.10323297517E+02 0.11996310215E+02 0.14248576058E+02 0.17103777207E+02
 0.20552508510E+02 0.24519272407E+02 0.28857214693E+02 0.33359035097E+02 0.37777125441E+02
 0.41848502269E+02 0.45320219322E+02 0.47972016094E+02 0.49634261844E+02 0.36669557727E+02
 0.36253160390E+02 0.35033910374E+02 0.33098965071E+02 0.30584833857E+02 0.27664781930E+02
 0.24532353148E+02 0.21382351676E+02 0.18391249192E+02 0.15699695112E+02 0.13400287460E+02
 0.11540069732E+02 0.10136897682E+02 0.91784313526E+01 0.86327766918E+01 0.84606976723E+01
 0.86238834675E+01 0.90878514873E+01 0.98202100912E+01 0.10786353845E+02 0.11944823595E+02
 0.13243852267E+02 0.14619759059E+02 0.15997423532E+02 0.17293090135E+02 0.18419774675E+02
 0.19295129439E+02 0.19850778555E+02 0.20041306083E+02 0.19850778555E+02 0.19295129439E+02
 0.18419774675E+02 0.17293090135E+02 0.15997423532E+02 0.14619759059E+02 0.13243852267E+02
 0.11944823595E+02 0.10786353845E+02 0.98202100912E+01 0.90878514873E+01 0.86238834675E+01
 0.84606976723E+01 0.86327766918E+01 0.91784313526E+01 0.10136897682E+02 0.11540069732E+02
 0.13400287460E+02 0.15699695112E+02 0.18391249192E+02 0.21382351676E+02 0.24532353148E+02
 0.27664781930E+02 0.30584833857E+02 0.33098965071E+02 0.35033910374E+02 0.36253160390E+02
 0.26150041470E+02 0.25861216539E+02 0.25017524474E+02 0.23684810568E+02 0.21964851023E+02
 0.19984555934E+02 0.17882728014E+02 0.15795691280E+02 0.13843344327E+02 0.12118829970E+02
 0.10691279013E+02 0.96032317842E+01 0.88711459485E+01 0.84936088486E+01 0.84606976723E+01
 0.87611574587E+01 0.93853007429E+01 0.10323508633E+02 0.11561859345E+02 0.13076918856E+02
 0.14831091971E+02 0.16768922688E+02 0.18814325529E+02 0.20869329364E+02 0.22815968394E+02
 0.24523323915E+02 0.25860597591E+02 0.26714720266E+02 0.27008566844E+02 0.26714720266E+02
 0.25860597591E+02 0.24523323915E+02 0.22815968394E+02 0.20869329364E+02 0.18814325529E+02
 0.16768922688E+02 0.14831091971E+02 0.13076918856E+02 0.11561859345E+02 0.10323508633E+02
 0.93853007429E+01 0.87611574587E+01 0.84606976723E+01 0.84936088486E+01 0.88711459485E+01
 0.96032317842E+01 0.10691279013E+02 0.12118829970E+02 0.13843344327E+02 0.15795691280E+02
 0.17882728014E+02 0.19984555934E+02 0.21964851023E+02 0.23684810568E+02 0.25017524474E+02
 0.25861216539E+02 0.18405360268E+02 0.18215980827E+02 0.17663937342E+02 0.16795489182E+02
 0.15681448667E+02 0.14409076647E+02 0.13072623099E+02 0.11764392050E+02 0.10570307896E+02
 0.95621554874E+01 0.87927637471E+01 0.82964626956E+01 0.80938004279E+01 0.81985409477E+01
 0.86238834675E+01 0.93853007429E+01 0.10499179737E+02 0.11978420414E+02 0.13827009110E+02
 0.16034837365E+02 0.18572438391E+02 0.21384406568E+02 0.24381252726E+02 0.27432122685E+02
 0.30363404247E+02 0.32968526991E+02 0.35031157201E+02 0.36358583776E+02 0.36817037734E+02
 0.36358583776E+02 0.35031157201E+02 0.32968526991E+02 0.30363404247E+02 0.27432122685E+02
 0.24381252726E+02 0.21384406568E+02 0.18572438391E+02 0.16034837365E+02 0.13827009110E+02
 0.11978420414E+02 0.10499179737E+02 0.93853007429E+01 0.86238834675E+01 0.81985409477E+01
 0.80938004279E+01 0.82964626956E+01 0.87927637471E+01 0.95621554874E+01 0.10570307896E+02
 0.11764392050E+02 0.13072623099E+02 0.14409076647E+02 0.15681448667E+02 0.16795489182E+02
 0.17663937342E+02 0.18215980827E+02 0.12942727241E+02 0.12824606241E+02 0.12480902020E+02
 0.11942229484E+02 0.11255843532E+02 0.10481073967E+02 0.96840639894E+01 0.89320658079E+01
 0.82877144069E+01 0.78044579696E+01 0.75247804069E+01 0.74822244863E+01 0.77065282924E+01
 0.82293941350E+01 0.90878514873E+01 0.10323508633E+02 0.11978420414E+02 0.14089941294E+02
 0.16686273717E+02 0.19781767550E+02 0.23368557263E+02 0.27401417785E+02 0.31776800030E+02
 0.36313191011E+02 0.40744353275E+02 0.44735836357E+02 0.47927585185E+02 0.49994808346E+02
 0.50710977267E+02 0.49994808346E+02 0.47927585185E+02 0.44735836357E+02 0.40744353275E+02
 0.36313191011E+02 0.31776800030E+02 0.27401417785E+02 0.23368557263E+02 0.19781767550E+02
 0.16686273717E+02 0.14089941294E+02 0.11978420414E+02 0.10323508633E+02 0.90878514873E+01
 0.82293941350E+01 0.77065282924E+01 0.74822244863E+01 0.75247804069E+01 0.78044579696E+01
 0.82877144069E+01 0.89320658079E+01 0.96840639894E+01 0.10481073967E+02 0.11255843532E+02
 0.11942229484E+02 0.12480902020E+02 0.12824606241E+02 0.91830137971E+01 0.91134066005E+01
 0.89117676678E+01 0.85988670765E+01 0.82070768231E+01 0.77777637775E+01 0.73582063514E+01
 0.69978904600E+01 0.67445959453E+01 0.66416507793E+01 0.67280033170E+01 0.70417052095E+01
 0.76254198076E+01 0.85309730756E+01 0.98202100912E+01 0.11561859345E+02 0.13827009110E+02
 0.16686273717E+02 0.20208407586E+02 0.24455024577E+02 0.29463491439E+02 0.35213488229E+02
 0.41582277484E+02 0.48305187463E+02 0.54963872605E+02 0.61019294876E+02 0.65891095821E+02
 0.69066072430E+02 0.70171113914E+02 0.69066072430E+02 0.65891095821E+02 0.61019294876E+02
 0.54963872605E+02 0.48305187463E+02 0.41582277484E+02 0.35213488229E+02 0.29463491439E+02
 0.24455024577E+02 0.20208407586E+02 0.16686273717E+02 0.13827009110E+02 0.11561859345E+02
 0.98202100912E+01 0.85309730756E+01 0.76254198076E+01 0.70417052095E+01 0.67280033170E+01
 0.66416507793E+01 0.67445959453E+01 0.69978904600E+01 0.73582063514E+01 0.77777637775E+01
 0.82070768231E+01 0.85988670765E+01 0.89117676678E+01 0.91134066005E+01 0.66479424132E+01
 0.66110980661E+01 0.65053607454E+01 0.63448234235E+01 0.61521172025E+01 0.59572926982E+01
 0.57961249921E+01 0.57076511720E+01 0.57315382270E+01 0.59068629543E+01 0.62739284195E+01
 0.68792298065E+01 0.77813400558E+01 0.90542564009E+01 0.10786353845E+02 0.13076918856E+02
 0.16034837365E+02 0.19781767550E+02 0.24455024577E+02 0.30197982199E+02 0.37124410574E+02
 0.45252172700E+02 0.54420263566E+02 0.64222981138E+02 0.74061774526E+02 0.83235034593E+02
 0.90811596837E+02 0.95835159494E+02 0.97596594831E+02 0.95835159494E+02 0.90811596837E+02
 0.83235034593E+02 0.74061774526E+02 0.64222981138E+02 0.54420263566E+02 0.45252172700E+02
 0.37124410574E+02 0.30197982199E+02 0.24455024577E+02 0.19781767550E+02 0.16034837365E+02
 0.13076918856E+02 0.10786353845E+02 0.90542564009E+01 0.77813400558E+01 0.68792298065E+01
 0.62739284195E+01 0.59068629543E+01 0.57315382270E+01 0.57076511720E+01 0.57961249921E+01
 0.59572926982E+01 0.61521172025E+01 0.63448234235E+01 0.65053607454E+01 0.66110980661E+01
 0.49643004998E+01 0.49491031283E+01 0.49066696374E+01 0.48467886964E+01 0.47863238731E+01
 0.47489734927E+01 0.47641444570E+01 0.48653345487E+01 0.50887291244E+01 0.54733434081E+01
 0.60643645485E+01 0.69196423102E+01 0.81160908116E+01 0.97519433856E+01 0.11944823595E+02
 0.14831091971E+02 0.18572438391E+02 0.23368557263E+02 0.29463491439E+02 0.37124410574E+02
 0.46572493137E+02 0.57863251414E+02 0.70768272723E+02 0.84967823199E+02 0.99783507457E+02
 0.11389949308E+03 0.12565401192E+03 0.13346073966E+03 0.13619731718E+03 0.13346073966E+03
 0.12565401192E+03 0.11389949308E+03 0.99783507457E+02 0.84967823199E+02 0.70768272723E+02
 0.57863251414E+02 0.46572493137E+02 0.37124410574E+02 0.29463491439E+02 0.23368557263E+02
 0.18572438391E+02 0.14831091971E+02 0.11944823595E+02 0.97519433856E+01 0.81160908116E+01
 0.69196423102E+01 0.60643645485E+01 0.54733434081E+01 0.50887291244E+01 0.48653345487E+01
 0.47641444570E+01 0.47489734927E+01 0.47863238731E+01 0.48467886964E+01 0.49066696374E+01
 0.49491031283E+01 0.38550755730E+01 0.38541542027E+01 0.38533407642E+01 0.38596706559E+01
 0.38870506746E+01 0.39562264083E+01 0.40934345686E+01 0.43296233382E+01 0.47005984448E+01
 0.52483031794E+01 0.60252430340E+01 0.71025943010E+01 0.85774656165E+01 0.10574350933E+02
 0.13243852267E+02 0.16768922688E+02 0.21384406568E+02 0.27401417785E+02 0.35213488229E+02
 0.45252172700E+02 0.57863251414E+02 0.73150405503E+02 0.91281964983E+02 0.11195421276E+03
 0.13378139012E+03 0.15453336750E+03 0.17167710295E+03 0.18297033228E+03 0.18690955716E+03
 0.18297033228E+03 0.17167710295E+03 0.15453336750E+03 0.13378139012E+03 0.11195421276E+03
 0.91281964983E+02 0.73150405503E+02 0.57863251414E+02 0.45252172700E+02 0.35213488229E+02
 0.27401417785E+02 0.21384406568E+02 0.16768922688E+02 0.13243852267E+02 0.10574350933E+02
 0.85774656165E+01 0.71025943010E+01 0.60252430340E+01 0.52483031794E+01 0.47005984448E+01
 0.43296233382E+01 0.40934345686E+01 0.39562264083E+01 0.38870506746E+01 0.38596706559E+01
 0.38533407642E+01 0.38541542027E+01 0.31293396437E+01 0.31379299669E+01 0.31646617428E+01
 0.32147715788E+01 0.33010853718E+01 0.34435610455E+01 0.36670808060E+01 0.40017493107E+01
 0.44850113253E+01 0.51637348348E+01 0.60991930492E+01 0.73769505744E+01 0.91154300650E+01
 0.11467073347E+02 0.14619759059E+02 0.18814325529E+02 0.24381252726E+02 0.31776800030E+02
 0.41582277484E+02 0.54420263566E+02 0.70768272723E+02 0.91281964983E+02 0.11645091747E+03
 0.14535193716E+03 0.17559836172E+03 0.20389917688E+03 0.22688462073E+03 0.24181827877E+03
 0.24698746845E+03 0.24181827877E+03 0.22688462073E+03 0.20389917688E+03 0.17559836172E+03
 0.14535193716E+03 0.11645091747E+03 0.91281964983E+02 0.70768272723E+02 0.54420263566E+02
 0.41582277484E+02 0.31776800030E+02 0.24381252726E+02 0.18814325529E+02 0.14619759059E+02
 0.11467073347E+02 0.91154300650E+01 0.73769505744E+01 0.60991930492E+01 0.51637348348E+01
 0.44850113253E+01 0.40017493107E+01 0.36670808060E+01 0.34435610455E+01 0.33010853718E+01
 0.32147715788E+01 0.31646617428E+01 0.31379299669E+01 0.26601521978E+01 0.26751115052E+01
 0.27201269023E+01 0.27992829041E+01 0.29254772796E+01 0.31191081232E+01 0.34046939546E+01
 0.38124864857E+01 0.43827498129E+01 0.51683019685E+01 0.62397208275E+01 0.76971505869E+01
 0.96804715146E+01 0.12370894294E+02 0.15997423532E+02 0.20869329364E+02 0.27432122685E+02
 0.36313191011E+02 0.48305187463E+02 0.64222981138E+02 0.84967823199E+02 0.11195421276E+03
 0.14535193716E+03 0.18330932445E+03 0.22225213902E+03 0.25785346043E+03 0.28613779975E+03
 0.30420128879E+03 0.31039528571E+03 0.30420128879E+03 0.28613779975E+03 0.25785346043E+03
 0.22225213902E+03 0.18330932445E+03 0.14535193716E+03 0.11195421276E+03 0.84967823199E+02
 0.64222981138E+02 0.48305187463E+02 0.36313191011E+02 0.27432122685E+02 0.20869329364E+02
 0.15997423532E+02 0.12370894294E+02 0.96804715146E+01 0.76971505869E+01 0.62397208275E+01
 0.51683019685E+01 0.43827498129E+01 0.38124864857E+01 0.34046939546E+01 0.31191081232E+01
 0.29254772796E+01 0.27992829041E+01 0.27201269023E+01 0.26751115052E+01 0.23631813209E+01
 0.23823186826E+01 0.24392762274E+01 0.25375308623E+01 0.26906315959E+01 0.29199330660E+01
 0.32501610486E+01 0.37123541550E+01 0.43500518249E+01 0.52220818527E+01 0.64080327314E+01
 0.80219698198E+01 0.10224143695E+02 0.13223845540E+02 0.17293090135E+02 0.22815968394E+02
 0.30363404247E+02 0.40744353275E+02 0.54963872605E+02 0.74061774526E+02 0.99783507457E+02
 0.13378139012E+03 0.17559836172E+03 0.22225213902E+03 0.26895514112E+03 0.31054150759E+03
 0.34278484460E+03 0.36299099327E+03 0.36984822350E+03 0.36299099327E+03 0.34278484460E+03
 0.31054150759E+03 0.26895514112E+03 0.22225213902E+03 0.17559836172E+03 0.13378139012E+03
 0.99783507457E+02 0.74061774526E+02 0.54963872605E+02 0.40744353275E+02 0.30363404247E+02
 0.22815968394E+02 0.17293090135E+02 0.13223845540E+02 0.10224143695E+02 0.80219698198E+01
 0.64080327314E+01 0.52220818527E+01 0.43500518249E+01 0.37123541550E+01 0.32501610486E+01
 0.29199330660E+01 0.26906315959E+01 0.25375308623E+01 0.24392762274E+01 0.23823186826E+01
 0.21813771555E+01 0.22030978241E+01 0.22675145352E+01 0.23779839870E+01 0.25488467060E+01
 0.28024271141E+01 0.31639979922E+01 0.36657878952E+01 0.43544428526E+01 0.52940288329E+01
 0.65721086446E+01 0.83151241154E+01 0.10701212001E+02 0.13964997127E+02 0.18419774675E+02
 0.24523323915E+02 0.32968526991E+02 0.44735836357E+02 0.61019294876E+02 0.83235034593E+02
 0.11389949308E+03 0.15453336750E+03 0.20389917688E+03 0.25785346043E+03 0.31054150759E+03
 0.35625264570E+03 0.39084991564E+03 0.41212731147E+03 0.41927360244E+03 0.41212731147E+03
 0.39084991564E+03 0.35625264570E+03 0.31054150759E+03 0.25785346043E+03 0.20389917688E+03
 0.15453336750E+03 0.11389949308E+03 0.83235034593E+02 0.61019294876E+02 0.44735836357E+02
 0.32968526991E+02 0.24523323915E+02 0.18419774675E+02 0.13964997127E+02 0.10701212001E+02
 0.83151241154E+01 0.65721086446E+01 0.52940288329E+01 0.43544428526E+01 0.36657878952E+01
 0.31639979922E+01 0.28024271141E+01 0.25488467060E+01 0.23779839870E+01 0.22675145352E+01
 0.22030978241E+01 0.20760163604E+01 0.20991783321E+01 0.21679002113E+01 0.22857589981E+01
 0.24677466114E+01 0.27368955230E+01 0.31191506072E+01 0.36480318867E+01 0.43726543548E+01
 0.53610019550E+01 0.67069191212E+01 0.85467231231E+01 0.11072559691E+02 0.14539343488E+02
 0.19295129439E+02 0.25860597591E+02 0.35031157201E+02 0.47927585185E+02 0.65891095821E+02
 0.90811596837E+02 0.12565401192E+03 0.17167710295E+03 0.22688462073E+03 0.28613779975E+03
 0.34278484460E+03 0.39084991564E+03 0.42648136311E+03 0.44803999044E+03 0.45521552137E+03
 0.44803999044E+03 0.42648136311E+03 0.39084991564E+03 0.34278484460E+03 0.28613779975E+03
 0.22688462073E+03 0.17167710295E+03 0.12565401192E+03 0.90811596837E+02 0.65891095821E+02
 0.47927585185E+02 0.35031157201E+02 0.25860597591E+02 0.19295129439E+02 0.14539343488E+02
 0.11072559691E+02 0.85467231231E+01 0.67069191212E+01 0.53610019550E+01 0.43726543548E+01
 0.36480318867E+01 0.31191506072E+01 0.27368955230E+01 0.24677466114E+01 0.22857589981E+01
 0.21679002113E+01 0.20991783321E+01 0.20220556088E+01 0.20458977548E+01 0.21167681345E+01
 0.22385498491E+01 0.24266290571E+01 0.27044224486E+01 0.30984246891E+01 0.36431637075E+01
 0.43893102113E+01 0.54072131856E+01 0.67947506119E+01 0.86946634314E+01 0.11308040044E+02
 0.14902947634E+02 0.19850778555E+02 0.26714720266E+02 0.36358583776E+02 0.49994808346E+02
 0.69066072430E+02 0.95835159494E+02 0.13346073966E+03 0.18297033228E+03 0.24181827877E+03
 0.30420128879E+03 0.36299099327E+03 0.41212731147E+03 0.44803999044E+03 0.46952641472E+03
 0.47663343989E+03 0.46952641472E+03 0.44803999044E+03 0.41212731147E+03 0.36299099327E+03
 0.30420128879E+03 0.24181827877E+03 0.18297033228E+03 0.13346073966E+03 0.95835159494E+02
 0.69066072430E+02 0.49994808346E+02 0.36358583776E+02 0.26714720266E+02 0.19850778555E+02
 0.14902947634E+02 0.11308040044E+02 0.86946634314E+01 0.67947506119E+01 0.54072131856E+01
 0.43893102113E+01 0.36431637075E+01 0.30984246891E+01 0.27044224486E+01 0.24266290571E+01
 0.22385498491E+01 0.21167681345E+01 0.20458977548E+01 0.20055513278E+01 0.20295864282E+01
 0.21010972747E+01 0.22241046706E+01 0.24141224855E+01 0.26946824328E+01 0.30924912423E+01
 0.36424588243E+01 0.43957832072E+01 0.54235967289E+01 0.68251701078E+01 0.87454793790E+01
 0.11388688131E+02 0.15027421343E+02 0.20041306083E+02 0.27008566844E+02 0.36817037734E+02
 0.50710977267E+02 0.70171113914E+02 0.97596594831E+02 0.13619731718E+03 0.18690955716E+03
 0.24698746845E+03 0.31039528571E+03 0.36984822350E+03 0.41927360244E+03 0.45521552137E+03
 0.47663343989E+03 0.48370201415E+03 0.47663343989E+03 0.45521552137E+03 0.41927360244E+03
 0.36984822350E+03 0.31039528571E+03 0.24698746845E+03 0.18690955716E+03 0.13619731718E+03
 0.97596594831E+02 0.70171113914E+02 0.50710977267E+02 0.36817037734E+02 0.27008566844E+02
 0.20041306083E+02 0.15027421343E+02 0.11388688131E+02 0.87454793790E+01 0.68251701078E+01
 0.54235967289E+01 0.43957832072E+01 0.36424588243E+01 0.30924912423E+01 0.26946824328E+01
 0.24141224855E+01 0.22241046706E+01 0.21010972747E+01 0.20295864282E+01 0.20220556088E+01