   5   5   0   0
  0.1191194E+02  0.3905268E-09  0.3905268E-09  0.3905268E-09  0.5000000E-15
  1.000000000000000E-004
  CAR 
 unknown system                          
     12.85183404    -32.12753465  301      2.58154486      1.00000000
    -32.128  0.0000E+00  0.0000E+00
    -31.978  0.0000E+00  0.0000E+00
    -31.828  0.0000E+00  0.0000E+00
    -31.678  0.0000E+00  0.0000E+00
    -31.528  0.0000E+00  0.0000E+00
    -31.378  0.0000E+00  0.0000E+00
    -31.228  0.0000E+00  0.0000E+00
    -31.078  0.0000E+00  0.0000E+00
    -30.928  0.0000E+00  0.0000E+00
    -30.778  0.0000E+00  0.0000E+00
    -30.628  0.0000E+00  0.0000E+00
    -30.478  0.0000E+00  0.0000E+00
    -30.328  0.0000E+00  0.0000E+00
    -30.178  0.0000E+00  0.0000E+00
    -30.028  0.1527E+02  0.1948E+01
    -29.879  0.0000E+00  0.2000E+01
    -29.729  0.0000E+00  0.2000E+01
    -29.579  0.0000E+00  0.2000E+01
    -29.429  0.0000E+00  0.2000E+01
    -29.279  0.0000E+00  0.2000E+01
    -29.129  0.0000E+00  0.2000E+01
    -28.979  0.0000E+00  0.2000E+01
    -28.829  0.0000E+00  0.2000E+01
    -28.679  0.0000E+00  0.2000E+01
    -28.529  0.0000E+00  0.2000E+01
    -28.379  0.0000E+00  0.2000E+01
    -28.229  0.0000E+00  0.2000E+01
    -28.079  0.0000E+00  0.2000E+01
    -27.929  0.0000E+00  0.2000E+01
    -27.780  0.0000E+00  0.2000E+01
    -27.630  0.0000E+00  0.2000E+01
    -27.480  0.0000E+00  0.2000E+01
    -27.330  0.0000E+00  0.2000E+01
    -27.180  0.0000E+00  0.2000E+01
    -27.030  0.0000E+00  0.2000E+01
    -26.880  0.0000E+00  0.2000E+01
    -26.730  0.0000E+00  0.2000E+01
    -26.580  0.0000E+00  0.2000E+01
    -26.430  0.0000E+00  0.2000E+01
    -26.280  0.0000E+00  0.2000E+01
    -26.130  0.0000E+00  0.2000E+01
    -25.980  0.0000E+00  0.2000E+01
    -25.830  0.0000E+00  0.2000E+01
    -25.680  0.0000E+00  0.2000E+01
    -25.531  0.0000E+00  0.2000E+01
    -25.381  0.0000E+00  0.2000E+01
    -25.231  0.0000E+00  0.2000E+01
    -25.081  0.0000E+00  0.2000E+01
    -24.931  0.0000E+00  0.2000E+01
    -24.781  0.0000E+00  0.2000E+01
    -24.631  0.0000E+00  0.2000E+01
    -24.481  0.0000E+00  0.2000E+01
    -24.331  0.0000E+00  0.2000E+01
    -24.181  0.0000E+00  0.2000E+01
    -24.031  0.0000E+00  0.2000E+01
    -23.881  0.0000E+00  0.2000E+01
    -23.731  0.0000E+00  0.2000E+01
    -23.581  0.0000E+00  0.2000E+01
    -23.432  0.0000E+00  0.2000E+01
    -23.282  0.0000E+00  0.2000E+01
    -23.132  0.0000E+00  0.2000E+01
    -22.982  0.0000E+00  0.2000E+01
    -22.832  0.0000E+00  0.2000E+01
    -22.682  0.0000E+00  0.2000E+01
    -22.532  0.0000E+00  0.2000E+01
    -22.382  0.0000E+00  0.2000E+01
    -22.232  0.0000E+00  0.2000E+01
    -22.082  0.0000E+00  0.2000E+01
    -21.932  0.0000E+00  0.2000E+01
    -21.782  0.0000E+00  0.2000E+01
    -21.632  0.0000E+00  0.2000E+01
    -21.482  0.0000E+00  0.2000E+01
    -21.332  0.0000E+00  0.2000E+01
    -21.183  0.0000E+00  0.2000E+01
    -21.033  0.0000E+00  0.2000E+01
    -20.883  0.0000E+00  0.2000E+01
    -20.733  0.0000E+00  0.2000E+01
    -20.583  0.0000E+00  0.2000E+01
    -20.433  0.0000E+00  0.2000E+01
    -20.283  0.0000E+00  0.2000E+01
    -20.133  0.0000E+00  0.2000E+01
    -19.983  0.0000E+00  0.2000E+01
    -19.833  0.0000E+00  0.2000E+01
    -19.683  0.0000E+00  0.2000E+01
    -19.533  0.0000E+00  0.2000E+01
    -19.383  0.0000E+00  0.2000E+01
    -19.233  0.0000E+00  0.2000E+01
    -19.084  0.0000E+00  0.2000E+01
    -18.934  0.0000E+00  0.2000E+01
    -18.784  0.0000E+00  0.2000E+01
    -18.634  0.0000E+00  0.2000E+01
    -18.484  0.0000E+00  0.2000E+01
    -18.334  0.0000E+00  0.2000E+01
    -18.184  0.0000E+00  0.2000E+01
    -18.034  0.0000E+00  0.2000E+01
    -17.884  0.0000E+00  0.2000E+01
    -17.734  0.0000E+00  0.2000E+01
    -17.584  0.0000E+00  0.2000E+01
    -17.434  0.0000E+00  0.2000E+01
    -17.284  0.0000E+00  0.2000E+01
    -17.134  0.0000E+00  0.2000E+01
    -16.984  0.0000E+00  0.2000E+01
    -16.835  0.0000E+00  0.2000E+01
    -16.685  0.0000E+00  0.2000E+01
    -16.535  0.0000E+00  0.2000E+01
    -16.385  0.0000E+00  0.2000E+01
    -16.235  0.0000E+00  0.2000E+01
    -16.085  0.0000E+00  0.2000E+01
    -15.935  0.0000E+00  0.2000E+01
    -15.785  0.0000E+00  0.2000E+01
    -15.635  0.0000E+00  0.2000E+01
    -15.485  0.0000E+00  0.2000E+01
    -15.335  0.0000E+00  0.2000E+01
    -15.185  0.0000E+00  0.2000E+01
    -15.035  0.0000E+00  0.2000E+01
    -14.885  0.2309E+01  0.2123E+01
    -14.736  0.3191E+01  0.2748E+01
    -14.586  0.2294E+01  0.3169E+01
    -14.436  0.1745E+01  0.3463E+01
    -14.286  0.1411E+01  0.3708E+01
    -14.136  0.7182E+00  0.3851E+01
    -13.986  0.3116E+01  0.4033E+01
    -13.836  0.1432E+02  0.5471E+01
    -13.686  0.8518E+01  0.7833E+01
    -13.536  0.0000E+00  0.8000E+01
    -13.386  0.0000E+00  0.8000E+01
    -13.236  0.0000E+00  0.8000E+01
    -13.086  0.0000E+00  0.8000E+01
    -12.936  0.0000E+00  0.8000E+01
    -12.786  0.0000E+00  0.8000E+01
    -12.636  0.0000E+00  0.8000E+01
    -12.487  0.0000E+00  0.8000E+01
    -12.337  0.1066E+01  0.8026E+01
    -12.187  0.4658E+01  0.8461E+01
    -12.037  0.8044E+01  0.1058E+02
    -11.887  0.9268E+01  0.1199E+02
    -11.737  0.1005E+02  0.1349E+02
    -11.587  0.2304E-01  0.1400E+02
    -11.437  0.0000E+00  0.1400E+02
    -11.287  0.0000E+00  0.1400E+02
    -11.137  0.0000E+00  0.1400E+02
    -10.987  0.0000E+00  0.1400E+02
    -10.837  0.0000E+00  0.1400E+02
    -10.687  0.0000E+00  0.1400E+02
    -10.537  0.0000E+00  0.1400E+02
    -10.388  0.0000E+00  0.1400E+02
    -10.238  0.0000E+00  0.1400E+02
    -10.088  0.0000E+00  0.1400E+02
     -9.938  0.0000E+00  0.1400E+02
     -9.788  0.0000E+00  0.1400E+02
     -9.638  0.0000E+00  0.1400E+02
     -9.488  0.0000E+00  0.1400E+02
     -9.338  0.0000E+00  0.1400E+02
     -9.188  0.0000E+00  0.1400E+02
     -9.038  0.0000E+00  0.1400E+02
     -8.888  0.0000E+00  0.1400E+02
     -8.738  0.0000E+00  0.1400E+02
     -8.588  0.0000E+00  0.1400E+02
     -8.438  0.0000E+00  0.1400E+02
     -8.288  0.0000E+00  0.1400E+02
     -8.139  0.0000E+00  0.1400E+02
     -7.989  0.0000E+00  0.1400E+02
     -7.839  0.0000E+00  0.1400E+02
     -7.689  0.0000E+00  0.1400E+02
     -7.539  0.0000E+00  0.1400E+02
     -7.389  0.0000E+00  0.1400E+02
     -7.239  0.0000E+00  0.1400E+02
     -7.089  0.0000E+00  0.1400E+02
     -6.939  0.0000E+00  0.1400E+02
     -6.789  0.0000E+00  0.1400E+02
     -6.639  0.0000E+00  0.1400E+02
     -6.489  0.0000E+00  0.1400E+02
     -6.339  0.0000E+00  0.1400E+02
     -6.189  0.0000E+00  0.1400E+02
     -6.040  0.0000E+00  0.1400E+02
     -5.890  0.0000E+00  0.1400E+02
     -5.740  0.0000E+00  0.1400E+02
     -5.590  0.0000E+00  0.1400E+02
     -5.440  0.0000E+00  0.1400E+02
     -5.290  0.0000E+00  0.1400E+02
     -5.140  0.0000E+00  0.1400E+02
     -4.990  0.0000E+00  0.1400E+02
     -4.840  0.0000E+00  0.1400E+02
     -4.690  0.0000E+00  0.1400E+02
     -4.540  0.0000E+00  0.1400E+02
     -4.390  0.0000E+00  0.1400E+02
     -4.240  0.0000E+00  0.1400E+02
     -4.090  0.0000E+00  0.1400E+02
     -3.940  0.0000E+00  0.1400E+02
     -3.791  0.0000E+00  0.1400E+02
     -3.641  0.0000E+00  0.1400E+02
     -3.491  0.0000E+00  0.1400E+02
     -3.341  0.0000E+00  0.1400E+02
     -3.191  0.0000E+00  0.1400E+02
     -3.041  0.0000E+00  0.1400E+02
     -2.891  0.0000E+00  0.1400E+02
     -2.741  0.0000E+00  0.1400E+02
     -2.591  0.0000E+00  0.1400E+02
     -2.441  0.0000E+00  0.1400E+02
     -2.291  0.0000E+00  0.1400E+02
     -2.141  0.0000E+00  0.1400E+02
     -1.991  0.0000E+00  0.1400E+02
     -1.841  0.1952E+01  0.1409E+02
     -1.691  0.7523E+01  0.1478E+02
     -1.542  0.3224E+01  0.1548E+02
     -1.392  0.4366E+01  0.1625E+02
     -1.242  0.3428E+01  0.1683E+02
     -1.092  0.3432E+01  0.1734E+02
     -0.942  0.5166E+01  0.1798E+02
     -0.792  0.4930E+01  0.1875E+02
     -0.642  0.5224E+01  0.1951E+02
     -0.492  0.6666E+01  0.2036E+02
     -0.342  0.8858E+01  0.2144E+02
     -0.192  0.3740E+01  0.2264E+02
     -0.042  0.3189E+01  0.2315E+02
      0.108  0.2444E+01  0.2356E+02
      0.258  0.2147E+01  0.2390E+02
      0.408  0.1863E+01  0.2419E+02
      0.557  0.2745E+01  0.2453E+02
      0.707  0.3170E+01  0.2498E+02
      0.857  0.3278E+01  0.2547E+02
      1.007  0.1144E+01  0.2577E+02
      1.157  0.2235E+01  0.2600E+02
      1.307  0.4912E+01  0.2653E+02
      1.457  0.6031E+01  0.2747E+02
      1.607  0.5816E+01  0.2853E+02
      1.757  0.5968E+01  0.2940E+02
      1.907  0.4709E+01  0.3022E+02
      2.057  0.3460E+01  0.3082E+02
      2.207  0.2731E+01  0.3129E+02
      2.357  0.1977E+01  0.3163E+02
      2.507  0.1513E+01  0.3194E+02
      2.657  0.0000E+00  0.3200E+02
      2.806  0.0000E+00  0.3200E+02
      2.956  0.0000E+00  0.3200E+02
      3.106  0.0000E+00  0.3200E+02
      3.256  0.0000E+00  0.3200E+02
      3.406  0.0000E+00  0.3200E+02
      3.556  0.0000E+00  0.3200E+02
      3.706  0.0000E+00  0.3200E+02
      3.856  0.0000E+00  0.3200E+02
      4.006  0.0000E+00  0.3200E+02
      4.156  0.0000E+00  0.3200E+02
      4.306  0.0000E+00  0.3200E+02
      4.456  0.1714E+00  0.3201E+02
      4.606  0.5544E+00  0.3206E+02
      4.756  0.9705E+00  0.3218E+02
      4.905  0.1587E+01  0.3238E+02
      5.055  0.1471E+01  0.3261E+02
      5.205  0.1473E+01  0.3283E+02
      5.355  0.1676E+01  0.3306E+02
      5.505  0.1886E+01  0.3333E+02
      5.655  0.2718E+01  0.3365E+02
      5.805  0.3148E+01  0.3411E+02
      5.955  0.3546E+01  0.3461E+02
      6.105  0.4068E+01  0.3517E+02
      6.255  0.6312E+01  0.3630E+02
      6.405  0.3989E+01  0.3699E+02
      6.555  0.2617E+01  0.3750E+02
      6.705  0.1233E+01  0.3783E+02
      6.855  0.6067E-01  0.3790E+02
      7.005  0.5728E-01  0.3791E+02
      7.154  0.5398E-01  0.3791E+02
      7.304  0.5078E-01  0.3792E+02
      7.454  0.4767E-01  0.3793E+02
      7.604  0.4465E-01  0.3794E+02
      7.754  0.4173E-01  0.3794E+02
      7.904  0.3890E-01  0.3795E+02
      8.054  0.3633E-01  0.3795E+02
      8.204  0.5078E-01  0.3796E+02
      8.354  0.9345E-01  0.3797E+02
      8.504  0.1518E+00  0.3799E+02
      8.654  0.1917E+00  0.3802E+02
      8.804  0.2156E+00  0.3805E+02
      8.954  0.2552E+00  0.3808E+02
      9.104  0.3088E+00  0.3812E+02
      9.253  0.3669E+00  0.3817E+02
      9.403  0.4428E+00  0.3823E+02
      9.553  0.5394E+00  0.3831E+02
      9.703  0.6353E+00  0.3840E+02
      9.853  0.9705E+00  0.3852E+02
     10.003  0.1500E+01  0.3870E+02
     10.153  0.1334E+01  0.3891E+02
     10.303  0.1540E+01  0.3912E+02
     10.453  0.1762E+01  0.3937E+02
     10.603  0.2257E+01  0.3967E+02
     10.753  0.1167E+01  0.3997E+02
     10.903  0.0000E+00  0.4000E+02
     11.053  0.0000E+00  0.4000E+02
     11.203  0.0000E+00  0.4000E+02
     11.353  0.0000E+00  0.4000E+02
     11.502  0.0000E+00  0.4000E+02
     11.652  0.0000E+00  0.4000E+02
     11.802  0.0000E+00  0.4000E+02
     11.952  0.0000E+00  0.4000E+02
     12.102  0.0000E+00  0.4000E+02
     12.252  0.0000E+00  0.4000E+02
     12.402  0.0000E+00  0.4000E+02
     12.552  0.0000E+00  0.4000E+02
     12.702  0.0000E+00  0.4000E+02
     12.852  0.0000E+00  0.4000E+02
