unknown system                          
   1.00000000000000     
     4.913700    0.000000    0.000000
    -2.456850    4.255389    0.000000
     0.000000    0.000000    5.405130
   Si   O 
     3     6
Direct
  0.469800  0.000000  0.666670
  0.000000  0.469800  0.333330
  0.530200  0.530200  0.000000
  0.414500  0.266200  0.785600
  0.733800  0.148300  0.452270
  0.851700  0.585500  0.118930
  0.148300  0.733800  0.547730
  0.266200  0.414500  0.214400
  0.585500  0.851700  0.881070
 
   48   48   56
  1.4531      1.3841      1.3879      1.4428      1.5324      1.6469      1.7811      1.9317      2.0961      2.2699    
  2.4464      2.6172      2.7754      2.9198      3.0583      3.2093      3.3970      3.6478      3.9946      4.4946    
  5.2486      6.4014      8.1161      10.535      13.749      17.791      22.627      28.121      33.961      39.588    
  44.214      46.997      47.333      45.112      40.775      35.126      29.029      23.161      17.926      13.503    
  9.9394      7.2053      5.2163      3.8406      2.9200      2.3062      1.8914      1.6162      1.3841      1.3095    
  1.3169      1.3871      1.5030      1.6535      1.8329      2.0373      2.2622      2.5017      2.7475      2.9875    
  3.2071      3.3940      3.5439      3.6647      3.7768      3.9084      4.0910      4.3618      4.7779      5.4311    
  6.4448      7.9466      10.033      12.747      16.061      19.872      23.972      28.025      31.566      34.071    
  35.093      34.414      32.133      28.637      24.459      20.112      15.986      12.328      9.2693      6.8521    
  5.0454      3.7586      2.8696      2.2598      1.8396      1.5561      1.3879      1.3169      1.3316      1.4169    
  1.5567      1.7395      1.9593      2.2132      2.4974      2.8060      3.1293      3.4522      3.7536      4.0110    
  4.2062      4.3328      4.4007      4.4356      4.4727      4.5501      4.7096      5.0071      5.5208      6.3461    
  7.5747      9.2675      11.432      14.005      16.846      19.730      22.365      24.422      25.595      25.679    
  24.638      22.620      19.914      16.858      13.767      10.886      8.3808      6.3398      4.7728      3.6257    
  2.8100      2.2350      1.8311      1.5557      1.4428      1.3871      1.4169      1.5203      1.6843      1.8981    
  2.1560      2.4565      2.7995      3.1818      3.5935      4.0164      4.4241      4.7838      5.0628      5.2375    
  5.3020      5.2723      5.1837      5.0819      5.0146      5.0286      5.1748      5.5157      6.1222      7.0566    
  8.3471      9.9699      11.842      13.825      15.730      17.335      18.423      18.826      18.469      17.389    
  15.725      13.680      11.477      9.3217      7.3719      5.7263      4.4214      3.4388      2.7235      2.2096    
  1.8433      1.5925      1.5324      1.5030      1.5567      1.6843      1.8752      2.1208      2.4164      2.7631    
  3.1653      3.6249      4.1354      4.6775      5.2189      5.7166      6.1220      6.3926      6.5026      6.4521    
  6.2691      6.0037      5.7163      5.4658      5.3035      5.2768      5.4329      5.8161      6.4559      7.3543    
  8.4764      9.7455      11.043      12.218      13.111      13.591      13.578      13.060      12.093      10.791    
  9.2991      7.7682      6.3261      5.0623      4.0236      3.2162      2.6142      2.1758      1.8624      1.6509    
  1.6469      1.6535      1.7395      1.8981      2.1208      2.4004      2.7349      3.1284      3.5901      4.1288    
  4.7451      5.4228      6.1254      6.7983      7.3766      7.7962      8.0078      7.9902      7.7574      7.3570    
  6.8594      6.3436      5.8816      5.5292      5.3243      5.2930      5.4547      5.8196      6.3780      7.0891    
  7.8799      8.6529      9.3010      9.7246      9.8502      9.6447      9.1216      8.3369      7.3762      6.3389    
  5.3200      4.3948      3.6090      2.9779      2.4935      2.1358      1.8837      1.7229      1.7811      1.8329    
  1.9593      2.1560      2.4164      2.7349      3.1111      3.5519      4.0719      4.6886      5.4124      6.2345    
  7.1188      8.0020      8.8011      9.4275      9.8039      9.8825      9.6569      9.1650      8.4817      7.7041    
  6.9316      6.2461      5.7007      5.3221      5.1201      5.0947      5.2356      5.5174      5.8984      6.3218    
  6.7195      7.0191      7.1582      7.0988      6.8340      6.3853      5.7952      5.1219      4.4303      3.7794    
  3.2094      2.7383      2.3681      2.0937      1.9083      1.8056      1.9317      2.0373      2.2132      2.4565    
  2.7631      3.1284      3.5519      4.0418      4.6183      5.3083      6.1339      7.0984      8.1729      9.2913    
  10.355      11.247      11.859      12.108      11.959      11.434      10.605      9.5825      8.4918      7.4492    
  6.5436      5.8248      5.3047      4.9684      4.7906      4.7462      4.8103      4.9507      5.1227      5.2742    
  5.3565      5.3352      5.1946      4.9375      4.5825      4.1596      3.7059      3.2598      2.8542      2.5119    
  2.2441      2.0533      1.9385      1.8984      2.0961      2.2622      2.4974      2.7995      3.1653      3.5901    
  4.0719      4.6183      5.2522      6.0086      6.9236      8.0167      9.2735      10.633      11.989      13.200    
  14.120      14.624      14.637      14.153      13.235      12.002      10.601      9.1861      7.8871      6.7914    
  5.9325      5.2980      4.8521      4.5573      4.3828      4.3005      4.2791      4.2835      4.2782      4.2328    
  4.1271      3.9553      3.7248      3.4506      3.1501      2.8440      2.5571      2.3141      2.1326      2.0194    
  1.9754      2.0006      2.2699      2.5017      2.8060      3.1818      3.6249      4.1288      4.6886      5.3083    
  6.0086      6.8292      7.8192      9.0178      10.431      12.014      13.663      15.223      16.514      17.359    
  17.632      17.285      16.357      14.968      13.287      11.502      9.7848      8.2632      7.0101      6.0406    
  5.3247      4.8089      4.4393      4.1752      3.9890      3.8578      3.7558      3.6556      3.5348      3.3816    
  3.1952      2.9825      2.7551      2.5288      2.3224      2.1555      2.0438      1.9971      2.0189      2.1096    
  2.4464      2.7475      3.1293      3.5935      4.1354      4.7451      5.4124      6.1339      6.9236      7.8192    
  8.8776      10.156      11.686      13.449      15.357      17.259      18.949      20.207      20.842      20.745    
  19.912      18.450      16.544      14.414      12.274      10.297      8.6020      7.2432      6.2099      5.4457    
  4.8783      4.4481      4.1173      3.8615      3.6589      3.4867      3.3233      3.1515      2.9616      2.7537    
  2.5399      2.3391      2.1702      2.0484      1.9858      1.9914      2.0698      2.2215      2.6172      2.9875    
  3.4522      4.0164      4.6775      5.4228      6.2345      7.0984      8.0167      9.0178      10.156      11.500    
  13.105      14.984      17.084      19.272      21.340      23.037      24.112      24.382      23.774      22.358    
  20.315      17.894      15.354      12.921      10.763      8.9688      7.5583      6.4901      5.6918      5.0872    
  4.6157      4.2372      3.9265      3.6649      3.4339      3.2148      2.9932      2.7640      2.5336      2.3187    
  2.1411      2.0218      1.9764      2.0130      2.1326      2.3339      2.7754      3.2071      3.7536      4.4241    
  5.2189      6.1254      7.1188      8.1729      9.2735      10.431      11.686      13.105      14.758      16.690    
  18.889      21.262      23.626      25.724      27.265      27.988      27.739      26.516      24.469      21.858    
  18.983      16.124      13.499      11.246      9.4206      8.0082      6.9453      6.1440      5.5197      5.0106    
  4.5805      4.2086      3.8785      3.5756      3.2891      3.0123      2.7432      2.4894      2.2711      2.1169    
  2.0512      2.0853      2.2187      2.4484      2.9198      3.3940      4.0110      4.7838      5.7166      6.7983    
  8.0020      9.2913      10.633      12.014      13.449      14.984      16.690      18.631      20.837      23.268    
  25.794      28.184      30.137      31.339      31.547      30.667      28.786      26.141      23.052      19.842    
  16.789      14.089      11.847      10.081      8.7364      7.7193      6.9285      6.2814      5.7227      5.2200    
  4.7561      4.3229      3.9170      3.5369      3.1822      2.8576      2.5774      2.3654      2.2471      2.2395    
  2.3486      2.5744      3.0583      3.5439      4.2062      5.0628      6.1220      7.3766      8.8011      10.355    
  11.989      13.663      15.357      17.084      18.889      20.837      22.987      25.355      27.879      30.393    
  32.628      34.248      34.940      34.513      32.963      30.471      27.346      23.938      20.572      17.504    
  14.894      12.797      11.178      9.9459      8.9904      8.2084      7.5195      6.8728      6.2442      5.6284    
  5.0308      4.4630      3.9403      3.4782      3.0895      2.7870      2.5855      2.5015      2.5474      2.7306    
  3.2093      3.6647      4.3328      5.2375      6.3926      7.7962      9.4275      11.247      13.200      15.223    
  17.259      19.272      21.262      23.268      25.355      27.577      29.948      32.389      34.701      36.577    
  37.683      37.749      36.660      34.505      31.549      28.158      24.685      21.424      18.574      16.231    
  14.393      12.984      11.889      10.989      10.179      9.3873      8.5728      7.7258      6.8606      6.0086    
  5.2089      4.4970      3.8977      3.4252      3.0871      2.8895      2.8382      2.9406      3.3970      3.7768    
  4.4007      5.3020      6.5026      8.0078      9.8039      11.859      14.120      16.514      18.949      21.340    
  23.626      25.794      27.879      29.948      32.064      34.209      36.268      38.057      39.320      39.786    
  39.254      37.685      35.222      32.151      28.839      25.641      22.784      20.384      18.468      16.980    
  15.809      14.830      13.925      13.001      11.996      10.885      9.6859      8.4511      7.2466      6.1367    
  5.1739      4.3951      3.8172      3.4375      3.2435      3.2274      3.6478      3.9084      4.4356      5.2723    
  6.4521      7.9902      9.8825      12.108      14.624      17.359      20.207      23.037      25.724      28.184    
  30.393      32.389      34.209      35.821      37.226      38.433      39.380      39.910      39.823      38.986    
  37.394      35.180      32.568      29.836      27.290      25.128      23.379      21.995      20.878      19.911    
  18.973      17.957      16.779      15.394      13.811      12.096      10.347      8.6712      7.1647      5.9011    
  4.9217      4.2318      3.8078      3.6184      3.9946      4.0910      4.4727      5.1837      6.2691      7.7574    
  9.6569      11.959      14.637      17.632      20.842      24.112      27.265      30.137      32.628      34.701    
  36.268      37.226      37.645      37.737      37.725      37.717      37.666      37.437      36.911      36.036    
  34.833      33.365      31.761      30.226      28.962      27.953      27.118      26.350      25.525      24.521    
  23.229      21.582      19.576      17.284      14.845      12.423      10.174      8.2160      6.6248      5.4330    
  4.6286      4.1660      4.4946      4.3618      4.5501      5.0819      6.0037      7.3570      9.1650      11.434    
  14.153      17.285      20.745      24.382      27.988      31.339      34.248      36.577      38.057      38.433    
  37.737      36.310      34.683      33.357      32.622      32.518      32.919      33.631      34.432      35.083    
  35.386      35.289      34.955      34.656      34.424      34.164      33.739      32.986      31.744      29.903    
  27.444      24.462      21.157      17.773      14.544      11.646      9.1975      7.2683      5.8741      4.9751    
  5.2486      4.7779      4.7096      5.0146      5.7163      6.8594      8.4817      10.605      13.235      16.357    
  19.912      23.774      27.739      31.547      34.940      37.683      39.320      39.380      37.725      34.683    
  31.007      27.624      25.316      24.511      25.275      27.399      30.466      33.891      37.032      39.412    
  40.915      41.818      42.557      43.214      43.641      43.593      42.783      40.983      38.119      34.319    
  29.890      25.218      20.669      16.514      12.924      9.9952      7.7636      6.2078      6.4014      5.4311    
  5.0071      5.0286      5.4658      6.3436      7.7041      9.5825      12.002      14.968      18.450      22.358    
  26.516      30.667      34.513      37.749      39.786      39.910      37.717      33.357      27.624      21.774    
  17.125      14.664      14.863      17.709      22.753      29.144      35.764      41.555      45.917      48.913    
  51.113      53.125      54.968      56.298      56.613      55.426      52.469      47.834      41.966      35.513    
  29.108      23.220      18.105      13.865      10.523      8.0582      8.1161      6.4448      5.5208      5.1748    
  5.3035      5.8816      6.9316      8.4918      10.601      13.287      16.544      20.315      24.469      28.786    
  32.963      36.660      39.254      39.823      37.666      32.622      25.316      17.125      9.8019      4.9247    
  3.5304      6.0168      12.150      21.036      31.190      40.925      48.971      54.957      59.396      63.213    
  67.008      70.480      72.871      73.283      71.026      65.938      58.515      49.743      40.733      32.366    
  25.119      19.128      14.351      10.709      10.535      7.9466      6.3461      5.5157      5.2768      5.5292    
  6.2461      7.4492      9.1861      11.502      14.414      17.894      21.858      26.141      30.471      34.505    
  37.685      38.986      37.437      32.518      24.511      14.664      4.9247     -2.6457     -6.4183     -5.4407    
 0.49365      10.734      23.706      37.233      49.308      58.908      66.267      72.452      78.554      84.772    
  90.190      93.438      93.185      88.697      80.216      68.950      56.616      44.806      34.520      26.094    
  19.430      14.307      13.749      10.033      7.5747      6.1222      5.4329      5.3243      5.7007      6.5436    
  7.8871      9.7848      12.274      15.354      18.983      23.052      27.346      31.549      35.222      37.394    
  36.911      32.919      25.275      14.863      3.5304     -6.4183     -12.863     -14.277     -9.8897     0.13673    
  14.497      30.857      46.606      59.939      70.555      79.458      88.070      97.213      106.23      113.38    
  116.64      114.41      106.25      93.184      77.385      61.340      46.968      35.170      25.965      18.962    
  17.791      12.747      9.2675      7.0566      5.8161      5.2930      5.3221      5.8248      6.7914      8.2632    
  10.297      12.921      16.124      19.842      23.938      28.158      32.151      35.180      36.036      33.631    
  27.399      17.709      6.0168     -5.4407     -14.277     -18.493     -16.747     -8.5640      5.3312      22.867    
  41.154      57.674      71.390      82.959      93.967      105.73      118.24      129.72      137.61      139.42    
  133.61      120.49      102.22      81.974      62.833      46.722      34.169      24.754      22.627      16.061    
  11.432      8.3471      6.4559      5.4547      5.1201      5.3047      5.9325      7.0101      8.6020      10.763    
  13.499      16.789      20.572      24.685      28.839      32.568      34.833      34.432      30.466      22.753    
  12.150     0.49365     -9.8897     -16.747     -18.249     -13.253     -1.7173      14.917      33.931      52.390    
  68.484      82.242      95.115      108.79      123.93      139.25      152.03      159.20      157.87      146.97    
  128.20      105.10      81.521      60.680      44.097      31.694      28.121      19.872      14.005      9.9699    
  7.3543      5.8196      5.0947      4.9684      5.2980      6.0406      7.2432      8.9688      11.246      14.089    
  17.504      21.424      25.641      29.836      33.365      35.083      33.891      29.144      21.036      10.734    
 0.13673     -8.5640     -13.253     -12.213     -4.5981      9.0273      26.572      45.136      62.338      77.407    
  91.315      105.85      122.27      140.08      156.80      169.32      173.88      167.71      151.04      127.30    
  100.96      76.039      55.337      39.589      33.961      23.972      16.846      11.842      8.4764      6.3780    
  5.2356      4.7906      4.8521      5.3247      6.2099      7.5583      9.4206      11.847      14.894      18.574    
  22.784      27.290      31.761      35.386      37.032      35.764      31.190      23.706      14.497      5.3312    
 -1.7173     -4.5981     -1.7726      7.1662      21.095      37.645      54.250      69.416      83.376      97.656    
  113.84      132.24      151.05      167.37      177.49      177.50      165.75      144.29      117.75      90.658    
  66.745      47.873      39.588      28.025      19.730      13.825      9.7455      7.0891      5.5174      4.7462    
  4.5573      4.8089      5.4457      6.4901      8.0082      10.081      12.797      16.231      20.384      25.128    
  30.226      35.289      39.412      41.555      40.925      37.233      30.857      22.867      14.917      9.0273    
  7.1662      10.612      19.344      31.905      46.045      59.877      72.860      85.903      100.54      117.68    
  136.43      154.26      167.99      173.67      168.29      151.98      128.23      101.68      76.478      55.515    
  44.214      31.566      22.365      15.730      11.043      7.8799      5.8984      4.8103      4.3828      4.4393    
  4.8783      5.6918      6.9453      8.7364      11.178      14.393      18.468      23.379      28.962      34.955    
  40.915      45.917      48.971      49.308      46.606      41.154      33.931      26.572      21.095      19.344    
  22.272      29.509      39.555      50.621      61.617      72.684      84.919      99.449      116.20      133.45    
  148.35      157.63      158.06      148.22      129.80      106.52      82.494      61.174      46.997      34.071    
  24.422      17.335      12.218      8.6529      6.3218      4.9507      4.3005      4.1752      4.4481      5.0872    
  6.1440      7.7193      9.9459      12.984      16.980      21.995      27.953      34.656      41.818      48.913    
  54.957      58.908      59.939      57.674      52.390      45.136      37.645      31.905      29.509      31.068    
  36.058      43.216      51.318      59.881      69.361      80.682      94.218      109.08      123.24      133.87    
  138.18      134.22      122.07      103.96      83.332      63.622      47.333      35.093      25.595      18.423    
  13.111      9.3010      6.7195      5.1227      4.2791      3.9890      4.1173      4.6157      5.5197      6.9285    
  8.9904      11.889      15.809      20.878      27.118      34.424      42.557      51.113      59.396      66.267    
  70.555      71.390      68.484      62.338      54.250      46.045      39.555      36.058      35.907      38.581    
  43.134      48.819      55.517      63.682      73.681      85.193      97.048      107.26      113.45      113.64    
  107.05      94.638      78.757      62.246      45.112      34.414      25.679      18.826      13.591      9.7246    
  7.0191      5.2742      4.2835      3.8578      3.8615      4.2372      5.0106      6.2814      8.2084      10.989    
  14.830      19.911      26.350      34.164      43.214      53.125      63.213      72.452      79.458      82.959    
  82.242      77.407      69.416      59.877      50.621      43.216      38.581      36.865      37.621      40.211    
  44.211      49.589      56.413      64.551      73.438      81.884      88.196      90.651      88.161      80.802    
  69.866      57.338      40.775      32.133      24.638      18.469      13.578      9.8502      7.1582      5.3565    
  4.2782      3.7558      3.6589      3.9265      4.5805      5.7227      7.5195      10.179      13.925      18.973    
  25.525      33.739      43.641      54.968      67.008      78.554      88.070      93.967      95.115      91.315    
  83.376      72.860      61.617      51.318      43.134      37.621      34.785      34.280      35.671      38.626    
  42.872      48.206      54.308      60.530      65.835      68.980      68.930      65.307      58.595      49.961    
  35.126      28.637      22.620      17.389      13.060      9.6447      7.0988      5.3352      4.2328      3.6556    
  3.4867      3.6649      4.2086      5.2200      6.8728      9.3873      13.001      17.957      24.521      32.986    
  43.593      56.298      70.480      84.772      97.213      105.73      108.79      105.85      97.656      85.903    
  72.684      59.881      48.819      40.211      34.280      30.918      29.827      30.575      32.722      35.907    
  39.809      44.030      47.974      50.859      51.895      50.580      46.933      41.499      29.029      24.459    
  19.914      15.725      12.093      9.1216      6.8340      5.1946      4.1271      3.5348      3.3233      3.4339    
  3.8785      4.7561      6.2442      8.5728      11.996      16.779      23.229      31.744      42.783      56.613    
  72.871      90.190      106.23      118.24      123.93      122.27      113.84      100.54      84.919      69.361    
  55.517      44.211      35.671      29.827      26.434      25.118      25.428      26.909      29.171      31.860    
  34.583      36.856      38.147      38.020      36.299      33.155      23.161      20.112      16.858      13.680    
  10.791      8.3369      6.3853      4.9375      3.9553      3.3816      3.1515      3.2148      3.5756      4.3229    
  5.6284      7.7258      10.885      15.394      21.582      29.903      40.983      55.426      73.283      93.438    
  113.38      129.72      139.25      140.08      132.24      117.68      99.449      80.682      63.682      49.589    
  38.626      30.575      25.118      21.907      20.535      20.551      21.520      23.060      24.825      26.469    
  27.636      28.001      27.354      25.679      17.926      15.986      13.767      11.477      9.2991      7.3762    
  5.7952      4.5825      3.7248      3.1952      2.9616      2.9932      3.2891      3.9170      5.0308      6.8606    
  9.6859      13.811      19.576      27.444      38.119      52.469      71.026      93.185      116.64      137.61    
  152.03      156.80      151.05      136.43      116.20      94.218      73.681      56.413      42.872      32.722    
  25.428      20.535      17.650      16.357      16.214      16.813      17.805      18.892      19.802      20.294    
  20.181      19.376      13.503      12.328      10.886      9.3217      7.7682      6.3389      5.1219      4.1596    
  3.4506      2.9825      2.7537      2.7640      3.0123      3.5369      4.4630      6.0086      8.4511      12.096    
  17.284      24.462      34.319      47.834      65.938      88.697      114.41      139.42      159.20      169.32    
  167.37      154.26      133.45      109.08      85.193      64.551      48.206      35.907      26.909      20.551    
  16.357      13.912      12.781      12.550      12.872      13.459      14.067      14.499      14.604      14.282    
  9.9394      9.2693      8.3808      7.3719      6.3261      5.3200      4.4303      3.7059      3.1501      2.7551    
  2.5399      2.5336      2.7432      3.1822      3.9403      5.2089      7.2466      10.347      14.845      21.157    
  29.890      41.966      58.515      80.216      106.25      133.61      157.87      173.88      177.49      167.99    
  148.35      123.24      97.048      73.438      54.308      39.809      29.171      21.520      16.214      12.781    
  10.788      9.8347      9.5718      9.7046      9.9933      10.266      10.405      10.318      7.2053      6.8521    
  6.3398      5.7263      5.0623      4.3948      3.7794      3.2598      2.8440      2.5288      2.3391      2.3187    
  2.4894      2.8576      3.4782      4.4970      6.1367      8.6712      12.423      17.773      25.218      35.513    
  49.743      68.950      93.184      120.49      146.97      167.71      177.50      173.67      157.63      133.87    
  107.26      81.884      60.530      44.030      31.860      23.060      16.813      12.550      9.8347      8.2752    
  7.5160      7.2493      7.2340      7.3106      7.3823      7.3712      5.2163      5.0454      4.7728      4.4214    
  4.0236      3.6090      3.2094      2.8542      2.5571      2.3224      2.1702      2.1411      2.2711      2.5774    
  3.0895      3.8977      5.1739      7.1647      10.174      14.544      20.669      29.108      40.733      56.616    
  77.385      102.22      128.20      151.04      165.75      168.29      158.06      138.18      113.45      88.196    
  65.835      47.974      34.583      24.825      17.805      12.872      9.5718      7.5160      6.3434      5.7397    
  5.4639      5.3562      5.3211      5.2938      3.8406      3.7586      3.6257      3.4388      3.2162      2.9779    
  2.7383      2.5119      2.3141      2.1555      2.0484      2.0218      2.1169      2.3654      2.7870      3.4252    
  4.3951      5.9011      8.2160      11.646      16.514      23.220      32.366      44.806      61.340      81.974    
  105.10      127.30      144.29      151.98      148.22      134.22      113.64      90.651      68.980      50.859    
  36.856      26.469      18.892      13.459      9.7046      7.2493      5.7397      4.8644      4.3815      4.1221    
  3.9817      3.9015      2.9200      2.8696      2.8100      2.7235      2.6142      2.4935      2.3681      2.2441    
  2.1326      2.0438      1.9858      1.9764      2.0512      2.2471      2.5855      3.0871      3.8172      4.9217    
  6.6248      9.1975      12.924      18.105      25.119      34.520      46.968      62.833      81.521      100.96    
  117.75      128.23      129.80      122.07      107.05      88.161      68.930      51.895      38.147      27.636    
  19.802      14.067      9.9933      7.2340      5.4639      4.3815      3.7392      3.3591      3.1307      2.9957    
  2.3062      2.2598      2.2350      2.2096      2.1758      2.1358      2.0937      2.0533      2.0194      1.9971    
  1.9914      2.0130      2.0853      2.2395      2.5015      2.8895      3.4375      4.2318      5.4330      7.2683    
  9.9952      13.865      19.128      26.094      35.170      46.722      60.680      76.039      90.658      101.68    
  106.52      103.96      94.638      80.802      65.307      50.580      38.020      28.001      20.294      14.499    
  10.266      7.3106      5.3562      4.1221      3.3591      2.8841      2.5857      2.4047      1.8914      1.8396    
  1.8311      1.8433      1.8624      1.8837      1.9083      1.9385      1.9754      2.0189      2.0698      2.1326    
  2.2187      2.3486      2.5474      2.8382      3.2435      3.8078      4.6286      5.8741      7.7636      10.523    
  14.351      19.430      25.965      34.169      44.097      55.337      66.745      76.478      82.494      83.332    
  78.757      69.866      58.595      46.933      36.299      27.354      20.181      14.604      10.405      7.3823    
  5.3211      3.9817      3.1307      2.5857      2.2332      2.0133      1.6162      1.5561      1.5557      1.5925    
  1.6509      1.7229      1.8056      1.8984      2.0006      2.1096      2.2215      2.3339      2.4484      2.5744    
  2.7306      2.9406      3.2274      3.6184      4.1660      4.9751      6.2078      8.0582      10.709      14.307    
  18.962      24.754      31.694      39.589      47.873      55.515      61.174      63.622      62.246      57.338    
  49.961      41.499      33.155      25.679      19.376      14.282      10.318      7.3712      5.2938      3.9015    
  2.9957      2.4047      2.0133      1.7606      1.4641      1.4164      1.4201      1.4550      1.5088      1.5769    
  1.6573      1.7481      1.8470      1.9517      2.0582      2.1614      2.2574      2.3460      2.4344      2.5391    
  2.6827      2.8880      3.1781      3.5882      4.1832      5.0648      6.3571      8.1740      10.586      13.595    
  17.132      21.043      25.075      28.850      31.885      33.684      33.901      32.475      29.657      25.910    
  21.750      17.622      13.838      10.582      7.9300      5.8806      4.3757      3.3210      2.6053      2.1233    
  1.7977      1.5851      1.3791      1.3267      1.3337      1.3824      1.4596      1.5588      1.6780      1.8146    
  1.9639      2.1207      2.2797      2.4340      2.5746      2.6933      2.7884      2.8679      2.9497      3.0577    
  3.2168      3.4532      3.8027      4.3239      5.1027      6.2376      7.8098      9.8527      12.334      15.149    
  18.120      20.993      23.455      25.174      25.874      25.421      23.873      21.466      18.533      15.414    
  12.393      9.6769      7.3915      5.5833      4.2265      3.2468      2.5534      2.0668      1.7302      1.5081    
  1.3888      1.3415      1.3562      1.4188      1.5174      1.6446      1.7974      1.9731      2.1670      2.3728    
  2.5835      2.7904      2.9814      3.1430      3.2647      3.3437      3.3889      3.4206      3.4669      3.5563    
  3.7163      3.9807      4.3999      5.0411      5.9758      7.2556      8.8898      10.827      12.949      15.079    