unknown system                          
   1.00000000000000     
     4.913700    0.000000    0.000000
    -2.456850    4.255389    0.000000
     0.000000    0.000000    5.405130
   Si   O 
     3     6
Direct
  0.469800  0.000000  0.666670
  0.000000  0.469800  0.333330
  0.530200  0.530200  0.000000
  0.414500  0.266200  0.785600
  0.733800  0.148300  0.452270
  0.851700  0.585500  0.118930
  0.148300  0.733800  0.547730
  0.266200  0.414500  0.214400
  0.585500  0.851700  0.881070
 
   48   48   56
 0.14531495160E+01 0.13840680622E+01 0.13878829789E+01 0.14428362160E+01 0.15324109551E+01
 0.16468949010E+01 0.17810597643E+01 0.19317346991E+01 0.20961099174E+01 0.22699426054E+01
 0.24464363112E+01 0.26172296353E+01 0.27754483439E+01 0.29198000444E+01 0.30583332887E+01
 0.32092584521E+01 0.33970117842E+01 0.36478367266E+01 0.39945915134E+01 0.44945664028E+01
 0.52485531848E+01 0.64014191291E+01 0.81161331635E+01 0.10534723964E+02 0.13749119811E+02
 0.17791434280E+02 0.22627241478E+02 0.28120789231E+02 0.33960672077E+02 0.39587852398E+02
 0.44214131231E+02 0.46997231579E+02 0.47333162426E+02 0.45112308958E+02 0.40774943689E+02
 0.35126001275E+02 0.29029310945E+02 0.23161321694E+02 0.17925886921E+02 0.13503257832E+02
 0.99394067820E+01 0.72052590446E+01 0.52163001229E+01 0.38405547651E+01 0.29200017407E+01
 0.23062196377E+01 0.18914170189E+01 0.16161734301E+01 0.13840680622E+01 0.13094746930E+01
 0.13168713547E+01 0.13871435833E+01 0.15029916093E+01 0.16534607373E+01 0.18329149454E+01
 0.20373312160E+01 0.22621634187E+01 0.25016517981E+01 0.27474757855E+01 0.29874698068E+01
 0.32070623028E+01 0.33939584717E+01 0.35438794206E+01 0.36647046094E+01 0.37767585486E+01
 0.39084124916E+01 0.40910249313E+01 0.43617827587E+01 0.47778831954E+01 0.54311348932E+01
 0.64447625129E+01 0.79465960920E+01 0.10033480105E+02 0.12746585395E+02 0.16060555581E+02
 0.19871589334E+02 0.23972478187E+02 0.28025439626E+02 0.31565933758E+02 0.34070808706E+02
 0.35092842510E+02 0.34413501573E+02 0.32132802916E+02 0.28637078141E+02 0.24458919029E+02
 0.20111965539E+02 0.15986190466E+02 0.12328269403E+02 0.92692519883E+01 0.68520962421E+01
 0.50454421997E+01 0.37585846108E+01 0.28695782423E+01 0.22597957378E+01 0.18396233270E+01
 0.15561189389E+01 0.13878829789E+01 0.13168713547E+01 0.13316120119E+01 0.14169075099E+01
 0.15567140905E+01 0.17394589820E+01 0.19593192892E+01 0.22131903980E+01 0.24973779957E+01
 0.28059618810E+01 0.31293102998E+01 0.34521698266E+01 0.37536456701E+01 0.40109854292E+01
 0.42061688941E+01 0.43328038925E+01 0.44007375998E+01 0.44356115173E+01 0.44726801957E+01
 0.45500529751E+01 0.47096381962E+01 0.50071470682E+01 0.55208045865E+01 0.63460827289E+01
 0.75746827928E+01 0.92675385811E+01 0.11431907921E+02 0.14005391491E+02 0.16846035830E+02
 0.19730391218E+02 0.22365447824E+02 0.24422117975E+02 0.25594849850E+02 0.25679106615E+02
 0.24637995888E+02 0.22620301101E+02 0.19913698662E+02 0.16858136515E+02 0.13766996856E+02
 0.10885629565E+02 0.83807916924E+01 0.63398351466E+01 0.47727566922E+01 0.36257350644E+01
 0.28099981044E+01 0.22350091562E+01 0.18310530039E+01 0.15556709349E+01 0.14428362160E+01
 0.13871435833E+01 0.14169075099E+01 0.15202956686E+01 0.16842727746E+01 0.18981324025E+01
 0.21559855402E+01 0.24564796514E+01 0.27995211645E+01 0.31818209119E+01 0.35934977087E+01
 0.40164212187E+01 0.44240792164E+01 0.47838108954E+01 0.50628419443E+01 0.52374933322E+01
 0.53019543089E+01 0.52723092641E+01 0.51836765021E+01 0.50818743336E+01 0.50146137017E+01
 0.50286028782E+01 0.51748492448E+01 0.55157148079E+01 0.61222413963E+01 0.70565509201E+01
 0.83470569528E+01 0.99698717263E+01 0.11842403842E+02 0.13825348559E+02 0.15729887407E+02
 0.17335228165E+02 0.18423261741E+02 0.18826055434E+02 0.18468741210E+02 0.17388856412E+02
 0.15724676343E+02 0.13679530120E+02 0.11477076783E+02 0.93217344172E+01 0.73718858264E+01
 0.57263156040E+01 0.44214487765E+01 0.34388321881E+01 0.27235090483E+01 0.22096350064E+01
 0.18432859996E+01 0.15924536581E+01 0.15324109551E+01 0.15029916093E+01 0.15567140905E+01
 0.16842727746E+01 0.18752247784E+01 0.21207637568E+01 0.24163568422E+01 0.27630570061E+01
 0.31652676146E+01 0.36249424109E+01 0.41353699042E+01 0.46774553416E+01 0.52189483966E+01
 0.57165552017E+01 0.61220459301E+01 0.63926058630E+01 0.65025868319E+01 0.64521140572E+01
 0.62691316313E+01 0.60037117999E+01 0.57163360861E+01 0.54657500685E+01 0.53034839483E+01
 0.52767748530E+01 0.54329052784E+01 0.58160798287E+01 0.64558957720E+01 0.73542761707E+01
 0.84763812158E+01 0.97455361981E+01 0.11042884895E+02 0.12217532174E+02 0.13111195934E+02
 0.13591086051E+02 0.13577837496E+02 0.13059785012E+02 0.12093258158E+02 0.10790931798E+02
 0.92991238609E+01 0.77682449809E+01 0.63261094952E+01 0.50623033712E+01 0.40236019569E+01
 0.32162153207E+01 0.26142414997E+01 0.21758118917E+01 0.18624199154E+01 0.16509349465E+01
 0.16468949010E+01 0.16534607373E+01 0.17394589820E+01 0.18981324025E+01 0.21207637568E+01
 0.24003855557E+01 0.27349058661E+01 0.31284462891E+01 0.35900819396E+01 0.41288009823E+01
 0.47451097098E+01 0.54228261407E+01 0.61253851272E+01 0.67982761996E+01 0.73765529467E+01
 0.77961500958E+01 0.80077883658E+01 0.79901877719E+01 0.77574209343E+01 0.73569816269E+01
 0.68594467332E+01 0.63435958108E+01 0.58816162645E+01 0.55292247653E+01 0.53243458862E+01
 0.52929833626E+01 0.54546643231E+01 0.58196334295E+01 0.63779736876E+01 0.70890955901E+01
 0.78798883421E+01 0.86529113946E+01 0.93009593200E+01 0.97245874792E+01 0.98501966953E+01
 0.96446814740E+01 0.91216074473E+01 0.83368630558E+01 0.73762345468E+01 0.63389202660E+01
 0.53199966010E+01 0.43947718479E+01 0.36090013318E+01 0.29779441052E+01 0.24935419610E+01
 0.21357773334E+01 0.18837357845E+01 0.17229337377E+01 0.17810597643E+01 0.18329149454E+01
 0.19593192892E+01 0.21559855402E+01 0.24163568422E+01 0.27349058661E+01 0.31110774100E+01
 0.35518813729E+01 0.40718695648E+01 0.46885515539E+01 0.54123563903E+01 0.62344736522E+01
 0.71188007722E+01 0.80019716119E+01 0.88011332890E+01 0.94275207238E+01 0.98039360851E+01
 0.98824952341E+01 0.96568965426E+01 0.91650115338E+01 0.84817243642E+01 0.77041238398E+01
 0.69315996719E+01 0.62460747413E+01 0.57007448986E+01 0.53221260740E+01 0.51200611383E+01
 0.50947128055E+01 0.52356130174E+01 0.55174330585E+01 0.58984063088E+01 0.63218361653E+01
 0.67194619198E+01 0.70190567253E+01 0.71581705746E+01 0.70987739917E+01 0.68340372186E+01
 0.63852800881E+01 0.57952239697E+01 0.51218954445E+01 0.44303285368E+01 0.37794321672E+01
 0.32094252423E+01 0.27382905430E+01 0.23680778953E+01 0.20937197153E+01 0.19083410531E+01
 0.18055543653E+01 0.19317346991E+01 0.20373312160E+01 0.22131903980E+01 0.24564796514E+01
 0.27630570061E+01 0.31284462891E+01 0.35518813729E+01 0.40418307070E+01 0.46183213905E+01
 0.53082536481E+01 0.61339079066E+01 0.70983610230E+01 0.81728802593E+01 0.92912619950E+01
 0.10354679162E+02 0.11247295937E+02 0.11858796206E+02 0.12107626379E+02 0.11959079154E+02
 0.11433903482E+02 0.10604990545E+02 0.95825455037E+01 0.84917693823E+01 0.74492236200E+01
 0.65435575145E+01 0.58247577718E+01 0.53046718630E+01 0.49684248203E+01 0.47905938948E+01
 0.47461745958E+01 0.48103097139E+01 0.49506725172E+01 0.51227052049E+01 0.52741960546E+01
 0.53565492442E+01 0.53352338888E+01 0.51946070849E+01 0.49375371572E+01 0.45824732759E+01
 0.41595643349E+01 0.37059231677E+01 0.32597972567E+01 0.28542058994E+01 0.25119134991E+01
 0.22440963684E+01 0.20533354736E+01 0.19385459691E+01 0.18983598615E+01 0.20961099174E+01
 0.22621634187E+01 0.24973779957E+01 0.27995211645E+01 0.31652676146E+01 0.35900819396E+01
 0.40718695648E+01 0.46183213905E+01 0.52521968987E+01 0.60086471609E+01 0.69236289979E+01
 0.80167456081E+01 0.92735460006E+01 0.10633386149E+02 0.11988975933E+02 0.13200309747E+02
 0.14120041165E+02 0.14623636733E+02 0.14636843780E+02 0.14153144513E+02 0.13235486850E+02
 0.12001931903E+02 0.10601287367E+02 0.91861333383E+01 0.78870985612E+01 0.67913738045E+01
 0.59324510726E+01 0.52979753596E+01 0.48520976045E+01 0.45573114958E+01 0.43828308953E+01
 0.43005436113E+01 0.42791453711E+01 0.42834903003E+01 0.42782194061E+01 0.42328159254E+01
 0.41271196558E+01 0.39553138635E+01 0.37248389822E+01 0.34505659142E+01 0.31500949872E+01
 0.28440287699E+01 0.25571025207E+01 0.23141395289E+01 0.21325860922E+01 0.20194251784E+01
 0.19753642003E+01 0.20005746175E+01 0.22699426054E+01 0.25016517981E+01 0.28059618810E+01
 0.31818209120E+01 0.36249424109E+01 0.41288009823E+01 0.46885515539E+01 0.53082536481E+01
 0.60086471609E+01 0.68292322730E+01 0.78192019017E+01 0.90178114081E+01 0.10431157327E+02
 0.12014019600E+02 0.13662894434E+02 0.15223466938E+02 0.16513587853E+02 0.17358928972E+02
 0.17632490412E+02 0.17285208559E+02 0.16357303402E+02 0.14967726235E+02 0.13286958902E+02
 0.11502349849E+02 0.97848235507E+01 0.82632478421E+01 0.70101422820E+01 0.60406381825E+01
 0.53247015900E+01 0.48089217395E+01 0.44393392050E+01 0.41752095031E+01 0.39890306510E+01
 0.38577851969E+01 0.37557767993E+01 0.36555763789E+01 0.35347901158E+01 0.33816339723E+01
 0.31952456908E+01 0.29824757196E+01 0.27550832332E+01 0.25287832910E+01 0.23224449482E+01
 0.21554836665E+01 0.20438499121E+01 0.19971279110E+01 0.20188518046E+01 0.21095650492E+01
 0.24464363112E+01 0.27474757855E+01 0.31293102998E+01 0.35934977087E+01 0.41353699043E+01
 0.47451097098E+01 0.54123563903E+01 0.61339079066E+01 0.69236289979E+01 0.78192019017E+01
 0.88775751810E+01 0.10156206686E+02 0.11686361464E+02 0.13448529807E+02 0.15357169506E+02
 0.17259069312E+02 0.18949369880E+02 0.20206816767E+02 0.20842088298E+02 0.20744752933E+02
 0.19912259557E+02 0.18450146267E+02 0.16543816239E+02 0.14414012437E+02 0.12273507904E+02
 0.10296682434E+02 0.86020417285E+01 0.72431820705E+01 0.62099133898E+01 0.54456515403E+01
 0.48782812490E+01 0.44481193952E+01 0.41172779367E+01 0.38614875420E+01 0.36589295752E+01
 0.34866908870E+01 0.33232609057E+01 0.31515457732E+01 0.29615649261E+01 0.27537393801E+01
 0.25399326994E+01 0.23390779609E+01 0.21701520915E+01 0.20484078882E+01 0.19858109711E+01
 0.19914044330E+01 0.20698444391E+01 0.22215433201E+01 0.26172296353E+01 0.29874698068E+01
 0.34521698266E+01 0.40164212187E+01 0.46774553416E+01 0.54228261407E+01 0.62344736522E+01
 0.70983610230E+01 0.80167456081E+01 0.90178114081E+01 0.10156206686E+02 0.11499947074E+02
 0.13104876120E+02 0.14984354359E+02 0.17084337981E+02 0.19271622986E+02 0.21339855069E+02
 0.23036684791E+02 0.24112485810E+02 0.24381507482E+02 0.23774265525E+02 0.22357790855E+02
 0.20314728207E+02 0.17893631017E+02 0.15353733372E+02 0.12921395325E+02 0.10762507134E+02
 0.89688474911E+01 0.75582933105E+01 0.64901131131E+01 0.56917755721E+01 0.50872051160E+01
 0.46157245240E+01 0.42371838294E+01 0.39265229359E+01 0.36649251730E+01 0.34338588445E+01
 0.32147545692E+01 0.29931846560E+01 0.27639661094E+01 0.25336236716E+01 0.23187323444E+01
 0.21410757708E+01 0.20217714571E+01 0.19764473709E+01 0.20129918507E+01 0.21326401605E+01
 0.23339022458E+01 0.27754483439E+01 0.32070623028E+01 0.37536456701E+01 0.44240792164E+01
 0.52189483966E+01 0.61253851272E+01 0.71188007722E+01 0.81728802593E+01 0.92735460006E+01
 0.10431157327E+02 0.11686361464E+02 0.13104876120E+02 0.14757743181E+02 0.16690176695E+02
 0.18889365709E+02 0.21261741378E+02 0.23625549197E+02 0.25723821219E+02 0.27264628622E+02
 0.27987850815E+02 0.27738709605E+02 0.26515526311E+02 0.24469225530E+02 0.21858313286E+02
 0.18983016715E+02 0.16123807830E+02 0.13499164340E+02 0.11246238194E+02 0.94205858992E+01
 0.80082206430E+01 0.69453341008E+01 0.61439985422E+01 0.55196785502E+01 0.50105939159E+01
 0.45805397027E+01 0.42085887286E+01 0.38784502312E+01 0.35756230414E+01 0.32891419648E+01
 0.30122562236E+01 0.27432081720E+01 0.24894088955E+01 0.22711152245E+01 0.21168517002E+01
 0.20511550516E+01 0.20852560366E+01 0.22187162427E+01 0.24483648777E+01 0.29198000444E+01
 0.33939584717E+01 0.40109854292E+01 0.47838108954E+01 0.57165552018E+01 0.67982761996E+01
 0.80019716119E+01 0.92912619950E+01 0.10633386149E+02 0.12014019600E+02 0.13448529807E+02
 0.14984354359E+02 0.16690176695E+02 0.18631404002E+02 0.20837285255E+02 0.23268463499E+02
 0.25793563630E+02 0.28183873820E+02 0.30137405897E+02 0.31339233306E+02 0.31546808428E+02
 0.30666775737E+02 0.28785777919E+02 0.26141279932E+02 0.23051874968E+02 0.19842417602E+02
 0.16789029462E+02 0.14088625542E+02 0.11846878321E+02 0.10080797979E+02 0.87364016330E+01
 0.77192647231E+01 0.69284745346E+01 0.62814359071E+01 0.57226979712E+01 0.52199827367E+01
 0.47561185185E+01 0.43228770030E+01 0.39169529624E+01 0.35368515321E+01 0.31822376402E+01
 0.28576260238E+01 0.25773920624E+01 0.23654342132E+01 0.22471112590E+01 0.22395230455E+01
 0.23485553835E+01 0.25744226585E+01 0.30583332887E+01 0.35438794206E+01 0.42061688941E+01
 0.50628419443E+01 0.61220459301E+01 0.73765529467E+01 0.88011332890E+01 0.10354679162E+02
 0.11988975933E+02 0.13662894434E+02 0.15357169506E+02 0.17084337981E+02 0.18889365709E+02
 0.20837285255E+02 0.22986864275E+02 0.25354726640E+02 0.27878926457E+02 0.30393355394E+02
 0.32627563206E+02 0.34247609742E+02 0.34940274512E+02 0.34513345845E+02 0.32962753250E+02
 0.30471176819E+02 0.27346095484E+02 0.23937708158E+02 0.20571506108E+02 0.17503625986E+02
 0.14893782039E+02 0.12796808052E+02 0.11177819026E+02 0.99458633954E+01 0.89904237124E+01
 0.82083875947E+01 0.75195430089E+01 0.68728355688E+01 0.62442055947E+01 0.56284094576E+01
 0.50308035481E+01 0.44630070366E+01 0.39403283979E+01 0.34781573803E+01 0.30895377546E+01
 0.27869775837E+01 0.25855396280E+01 0.25015127477E+01 0.25474348196E+01 0.27306148272E+01
 0.32092584521E+01 0.36647046094E+01 0.43328038925E+01 0.52374933322E+01 0.63926058630E+01
 0.77961500958E+01 0.94275207238E+01 0.11247295937E+02 0.13200309747E+02 0.15223466938E+02
 0.17259069312E+02 0.19271622986E+02 0.21261741378E+02 0.23268463499E+02 0.25354726640E+02
 0.27577452833E+02 0.29947733233E+02 0.32388670111E+02 0.34700964640E+02 0.36577248847E+02
 0.37683012050E+02 0.37748668471E+02 0.36660328467E+02 0.34504721767E+02 0.31549110456E+02
 0.28157761647E+02 0.24685388130E+02 0.21424385230E+02 0.18574466282E+02 0.16231217039E+02
 0.14392719603E+02 0.12983595722E+02 0.11889244529E+02 0.10988875691E+02 0.10179276367E+02
 0.93872859678E+01 0.85728052561E+01 0.77257939638E+01 0.68605858240E+01 0.60086294271E+01
 0.52088800185E+01 0.44969557378E+01 0.38977383325E+01 0.34251663294E+01 0.30870738343E+01
 0.28894753948E+01 0.28381894240E+01 0.29405818507E+01 0.33970117842E+01 0.37767585486E+01
 0.44007375998E+01 0.53019543089E+01 0.65025868319E+01 0.80077883658E+01 0.98039360851E+01
 0.11858796206E+02 0.14120041165E+02 0.16513587853E+02 0.18949369880E+02 0.21339855069E+02
 0.23625549197E+02 0.25793563630E+02 0.27878926457E+02 0.29947733233E+02 0.32063670669E+02
 0.34209351708E+02 0.36268227559E+02 0.38056562704E+02 0.39320263104E+02 0.39785628740E+02
 0.39253854153E+02 0.37684928142E+02 0.35221696706E+02 0.32151024684E+02 0.28839027208E+02
 0.25641487323E+02 0.22783520026E+02 0.20383976307E+02 0.18468173048E+02 0.16979824315E+02
 0.15809246466E+02 0.14829678746E+02 0.13924724451E+02 0.13001142629E+02 0.11995945506E+02
 0.10884796068E+02 0.96859165054E+01 0.84510570988E+01 0.72466193072E+01 0.61366638279E+01
 0.51739235341E+01 0.43951417749E+01 0.38171823306E+01 0.34375109717E+01 0.32435463903E+01
 0.32274485126E+01 0.36478367266E+01 0.39084124916E+01 0.44356115173E+01 0.52723092641E+01
 0.64521140572E+01 0.79901877719E+01 0.98824952342E+01 0.12107626379E+02 0.14623636733E+02
 0.17358928972E+02 0.20206816767E+02 0.23036684791E+02 0.25723821219E+02 0.28183873820E+02
 0.30393355394E+02 0.32388670111E+02 0.34209351708E+02 0.35820692917E+02 0.37225838630E+02
 0.38433148867E+02 0.39380441243E+02 0.39909576520E+02 0.39823185466E+02 0.38985546933E+02
 0.37393771298E+02 0.35179791628E+02 0.32567893858E+02 0.29835953497E+02 0.27289622635E+02
 0.25128432718E+02 0.23379317719E+02 0.21994625017E+02 0.20878033301E+02 0.19910701601E+02
 0.18973077032E+02 0.17957469514E+02 0.16779258495E+02 0.15393771929E+02 0.13811338525E+02
 0.12096256092E+02 0.10347146803E+02 0.86711874076E+01 0.71646910799E+01 0.59010554864E+01
 0.49216957914E+01 0.42317526868E+01 0.38077508768E+01 0.36183523579E+01 0.39945915134E+01
 0.40910249313E+01 0.44726801957E+01 0.51836765021E+01 0.62691316313E+01 0.77574209343E+01
 0.96568965426E+01 0.11959079154E+02 0.14636843780E+02 0.17632490412E+02 0.20842088298E+02
 0.24112485810E+02 0.27264628622E+02 0.30137405897E+02 0.32627563206E+02 0.34700964640E+02
 0.36268227558E+02 0.37225838629E+02 0.37645153899E+02 0.37737026835E+02 0.37725049649E+02
 0.37717094207E+02 0.37666198310E+02 0.37437432277E+02 0.36910540270E+02 0.36036464232E+02
 0.34832616200E+02 0.33365399583E+02 0.31760990227E+02 0.30226451166E+02 0.28961505272E+02
 0.27952519644E+02 0.27117511254E+02 0.26349503757E+02 0.25525368406E+02 0.24520874976E+02
 0.23228998519E+02 0.21582143110E+02 0.19576279691E+02 0.17284431401E+02 0.14844583345E+02
 0.12423073769E+02 0.10174118679E+02 0.82159996468E+01 0.66248029087E+01 0.54329756357E+01
 0.46285915374E+01 0.41660309453E+01 0.44945664028E+01 0.43617827587E+01 0.45500529751E+01
 0.50818743336E+01 0.60037117999E+01 0.73569816269E+01 0.91650115338E+01 0.11433903482E+02
 0.14153144513E+02 0.17285208559E+02 0.20744752933E+02 0.24381507482E+02 0.27987850815E+02
 0.31339233306E+02 0.34247609742E+02 0.36577248847E+02 0.38056562702E+02 0.38433148864E+02
 0.37737026833E+02 0.36309921921E+02 0.34683029471E+02 0.33357388976E+02 0.32622472426E+02
 0.32518057805E+02 0.32918666692E+02 0.33630907793E+02 0.34432075209E+02 0.35082873454E+02
 0.35385557642E+02 0.35288998643E+02 0.34955239617E+02 0.34656481850E+02 0.34423746338E+02
 0.34163599379E+02 0.33739348721E+02 0.32985925320E+02 0.31744086641E+02 0.29903284817E+02
 0.27444011792E+02 0.24462428705E+02 0.21156670348E+02 0.17773475937E+02 0.14544076821E+02
 0.11645702660E+02 0.91975395684E+01 0.72682823947E+01 0.58740546047E+01 0.49750690287E+01
 0.52485531848E+01 0.47778831954E+01 0.47096381962E+01 0.50146137017E+01 0.57163360861E+01
 0.68594467332E+01 0.84817243642E+01 0.10604990545E+02 0.13235486850E+02 0.16357303402E+02
 0.19912259557E+02 0.23774265525E+02 0.27738709605E+02 0.31546808428E+02 0.34940274512E+02
 0.37683012049E+02 0.39320263101E+02 0.39380441237E+02 0.37725049644E+02 0.34683029467E+02
 0.31006580491E+02 0.27623743493E+02 0.25315645583E+02 0.24510987756E+02 0.25275059580E+02
 0.27399291067E+02 0.30466365183E+02 0.33890779463E+02 0.37032210800E+02 0.39411870398E+02
 0.40914674792E+02 0.41818203497E+02 0.42556864202E+02 0.43213993122E+02 0.43641385796E+02
 0.43592664534E+02 0.42782571190E+02 0.40982940866E+02 0.38118962126E+02 0.34319465937E+02
 0.29889743462E+02 0.25218272557E+02 0.20669006170E+02 0.16513941893E+02 0.12924343625E+02
 0.99951828546E+01 0.77635936820E+01 0.62078395852E+01 0.64014191291E+01 0.54311348932E+01
 0.50071470682E+01 0.50286028782E+01 0.54657500685E+01 0.63435958108E+01 0.77041238398E+01
 0.95825455037E+01 0.12001931903E+02 0.14967726235E+02 0.18450146267E+02 0.22357790855E+02
 0.26515526311E+02 0.30666775737E+02 0.34513345845E+02 0.37748668470E+02 0.39785628736E+02
 0.39909576513E+02 0.37717094198E+02 0.33357388969E+02 0.27623743489E+02 0.21773729506E+02
 0.17125391029E+02 0.14663633266E+02 0.14863091040E+02 0.17708966956E+02 0.22752603420E+02
 0.29144076505E+02 0.35764377079E+02 0.41554939084E+02 0.45917401298E+02 0.48913265122E+02
 0.51113043549E+02 0.53125071423E+02 0.54968359759E+02 0.56297913493E+02 0.56612529894E+02
 0.55425555270E+02 0.52468785257E+02 0.47833681249E+02 0.41966162742E+02 0.35512776094E+02
 0.29108343359E+02 0.23219620878E+02 0.18104509767E+02 0.13865033750E+02 0.10523107871E+02
 0.80581738068E+01 0.81161331636E+01 0.64447625129E+01 0.55208045865E+01 0.51748492449E+01
 0.53034839483E+01 0.58816162646E+01 0.69315996719E+01 0.84917693823E+01 0.10601287367E+02
 0.13286958902E+02 0.16543816239E+02 0.20314728207E+02 0.24469225530E+02 0.28785777919E+02
 0.32962753250E+02 0.36660328467E+02 0.39253854149E+02 0.39823185458E+02 0.37666198299E+02
 0.32622472416E+02 0.25315645575E+02 0.17125391025E+02 0.98018985483E+01 0.49246713004E+01
 0.35304164187E+01 0.60168110214E+01 0.12149879701E+02 0.21035669465E+02 0.31190405773E+02
 0.40925011486E+02 0.48971142359E+02 0.54957314263E+02 0.59396414812E+02 0.63213492988E+02
 0.67007633493E+02 0.70479707327E+02 0.72870900576E+02 0.73283460956E+02 0.71026106771E+02
 0.65938036238E+02 0.58514632601E+02 0.49742644321E+02 0.40733310910E+02 0.32365695973E+02
 0.25119202024E+02 0.19128094097E+02 0.14351204587E+02 0.10709318314E+02 0.10534723964E+02
 0.79465960920E+01 0.63460827289E+01 0.55157148079E+01 0.52767748530E+01 0.55292247653E+01
 0.62460747413E+01 0.74492236200E+01 0.91861333383E+01 0.11502349849E+02 0.14414012437E+02
 0.17893631017E+02 0.21858313286E+02 0.26141279932E+02 0.30471176819E+02 0.34504721767E+02
 0.37684928139E+02 0.38985546925E+02 0.37437432265E+02 0.32518057792E+02 0.24510987745E+02
 0.14663633259E+02 0.49246712971E+01 -.26456545487E+01 -.64182569524E+01 -.54407288469E+01
 0.49365389344E+00 0.10733751703E+02 0.23706244186E+02 0.37232872226E+02 0.49307751157E+02
 0.58907721727E+02 0.66267488403E+02 0.72452195444E+02 0.78554116591E+02 0.84771947810E+02
 0.90190405684E+02 0.93437615716E+02 0.93185062177E+02 0.88696726412E+02 0.80216252590E+02
 0.68950197217E+02 0.56616220174E+02 0.44805607398E+02 0.34520219584E+02 0.26093866931E+02
 0.19430230980E+02 0.14307064335E+02 0.13749119811E+02 0.10033480105E+02 0.75746827928E+01
 0.61222413963E+01 0.54329052785E+01 0.53243458862E+01 0.57007448986E+01 0.65435575145E+01
 0.78870985613E+01 0.97848235507E+01 0.12273507904E+02 0.15353733372E+02 0.18983016715E+02
 0.23051874968E+02 0.27346095484E+02 0.31549110456E+02 0.35221696705E+02 0.37393771292E+02
 0.36910540259E+02 0.32918666678E+02 0.25275059567E+02 0.14863091031E+02 0.35304164131E+01
 -.64182569547E+01 -.12862845608E+02 -.14276608306E+02 -.98897415516E+01 0.13673213457E+00
 0.14496983091E+02 0.30857392243E+02 0.46605753428E+02 0.59939327502E+02 0.70555330624E+02
 0.79457779614E+02 0.88069672783E+02 0.97212967950E+02 0.10623010134E+03 0.11338048917E+03
 0.11663558980E+03 0.11440671369E+03 0.10624887645E+03 0.93183701081E+02 0.77384510939E+02
 0.61339920606E+02 0.46968043676E+02 0.35169595402E+02 0.25965450178E+02 0.18961688717E+02
 0.17791434280E+02 0.12746585395E+02 0.92675385812E+01 0.70565509201E+01 0.58160798287E+01
 0.52929833626E+01 0.53221260741E+01 0.58247577719E+01 0.67913738045E+01 0.82632478421E+01
 0.10296682434E+02 0.12921395325E+02 0.16123807830E+02 0.19842417602E+02 0.23937708158E+02
 0.28157761647E+02 0.32151024684E+02 0.35179791624E+02 0.36036464224E+02 0.33630907781E+02
 0.27399291054E+02 0.17708966946E+02 0.60168110146E+01 -.54407288503E+01 -.14276608307E+02
 -.18492657883E+02 -.16746675898E+02 -.85640202626E+01 0.53311655767E+01 0.22866747425E+02
 0.41153651526E+02 0.57674452410E+02 0.71389618310E+02 0.82959467158E+02 0.93967434174E+02
 0.10573134647E+03 0.11823654908E+03 0.12972042097E+03 0.13760782326E+03 0.13941721984E+03
 0.13360879966E+03 0.12049065842E+03 0.10221678138E+03 0.81974150372E+02 0.62832799410E+02
 0.46722130983E+02 0.34169347591E+02 0.24754191863E+02 0.22627241478E+02 0.16060555581E+02
 0.11431907921E+02 0.83470569528E+01 0.64558957720E+01 0.54546643231E+01 0.51200611383E+01
 0.53046718630E+01 0.59324510726E+01 0.70101422820E+01 0.86020417285E+01 0.10762507134E+02
 0.13499164340E+02 0.16789029462E+02 0.20571506108E+02 0.24685388130E+02 0.28839027208E+02
 0.32567893856E+02 0.34832616194E+02 0.34432075200E+02 0.30466365172E+02 0.22752603411E+02
 0.12149879695E+02 0.49365388993E+00 -.98897415528E+01 -.16746675898E+02 -.18248619198E+02
 -.13253080573E+02 -.17172799752E+01 0.14916544736E+02 0.33931294497E+02 0.52389565601E+02
 0.68483680676E+02 0.82242125770E+02 0.95115473073E+02 0.10878534234E+03 0.12392520159E+03
 0.13925215671E+03 0.15202939704E+03 0.15920042647E+03 0.15787465287E+03 0.14696800771E+03
 0.12820164234E+03 0.10510197617E+03 0.81520748780E+02 0.60680075657E+02 0.44096719690E+02
 0.31693728568E+02 0.28120789231E+02 0.19871589334E+02 0.14005391491E+02 0.99698717263E+01
 0.73542761707E+01 0.58196334295E+01 0.50947128055E+01 0.49684248203E+01 0.52979753596E+01
 0.60406381825E+01 0.72431820705E+01 0.89688474911E+01 0.11246238194E+02 0.14088625542E+02
 0.17503625986E+02 0.21424385230E+02 0.25641487323E+02 0.29835953497E+02 0.33365399580E+02
 0.35082873448E+02 0.33890779455E+02 0.29144076498E+02 0.21035669460E+02 0.10733751701E+02
 0.13673213455E+00 -.85640202614E+01 -.13253080572E+02 -.12213179281E+02 -.45980831190E+01
 0.90273260825E+01 0.26571593288E+02 0.45136434043E+02 0.62338092030E+02 0.77407123815E+02
 0.91314776576E+02 0.10585224406E+03 0.12227015488E+03 0.14007518157E+03 0.15680402797E+03
 0.16932320869E+03 0.17388086415E+03 0.16770546134E+03 0.15104191621E+03 0.12729953806E+03
 0.10095591671E+03 0.76038918381E+02 0.55337214148E+02 0.39589133289E+02 0.33960672077E+02
 0.23972478187E+02 0.16846035830E+02 0.11842403842E+02 0.84763812158E+01 0.63779736876E+01
 0.52356130174E+01 0.47905938948E+01 0.48520976045E+01 0.53247015900E+01 0.62099133898E+01
 0.75582933105E+01 0.94205858992E+01 0.11846878321E+02 0.14893782039E+02 0.18574466282E+02
 0.22783520026E+02 0.27289622635E+02 0.31760990226E+02 0.35385557639E+02 0.37032210795E+02
 0.35764377075E+02 0.31190405770E+02 0.23706244186E+02 0.14496983093E+02 0.53311655802E+01
 -.17172799718E+01 -.45980831167E+01 -.17725999333E+01 0.71661565045E+01 0.21095099916E+02
 0.37645380396E+02 0.54250478940E+02 0.69416247882E+02 0.83375658446E+02 0.97655830278E+02
 0.11384004540E+03 0.13224170555E+03 0.15105178140E+03 0.16736910350E+03 0.17748596602E+03
 0.17749546345E+03 0.16574963011E+03 0.14429182407E+03 0.11774802687E+03 0.90657829921E+02
 0.66744973100E+02 0.47873351956E+02 0.39587852398E+02 0.28025439626E+02 0.19730391218E+02
 0.13825348559E+02 0.97455361981E+01 0.70890955901E+01 0.55174330585E+01 0.47461745958E+01
 0.45573114958E+01 0.48089217395E+01 0.54456515403E+01 0.64901131131E+01 0.80082206430E+01
 0.10080797979E+02 0.12796808052E+02 0.16231217039E+02 0.20383976307E+02 0.25128432718E+02
 0.30226451166E+02 0.35288998642E+02 0.39411870397E+02 0.41554939083E+02 0.40925011486E+02
 0.37232872229E+02 0.30857392248E+02 0.22866747432E+02 0.14916544743E+02 0.90273260882E+01
 0.71661565079E+01 0.10612011157E+02 0.19343682089E+02 0.31905472775E+02 0.46044641143E+02
 0.59876987779E+02 0.72859703150E+02 0.85902952936E+02 0.10054002257E+03 0.11767899816E+03
 0.13643008211E+03 0.15425857016E+03 0.16798815856E+03 0.17366540737E+03 0.16828669345E+03
 0.15198011400E+03 0.12822648542E+03 0.10167982942E+03 0.76478271253E+02 0.55515445833E+02
 0.44214131231E+02 0.31565933758E+02 0.22365447824E+02 0.15729887407E+02 0.11042884895E+02
 0.78798883421E+01 0.58984063088E+01 0.48103097139E+01 0.43828308953E+01 0.44393392050E+01
 0.48782812490E+01 0.56917755721E+01 0.69453341008E+01 0.87364016330E+01 0.11177819026E+02
 0.14392719603E+02 0.18468173048E+02 0.23379317719E+02 0.28961505272E+02 0.34955239617E+02
 0.40914674792E+02 0.45917401298E+02 0.48971142360E+02 0.49307751161E+02 0.46605753436E+02
 0.41153651536E+02 0.33931294508E+02 0.26571593298E+02 0.21095099923E+02 0.19343682093E+02
 0.22272351783E+02 0.29508779819E+02 0.39555246214E+02 0.50621196231E+02 0.61617057868E+02
 0.72684423845E+02 0.84919365044E+02 0.99448816768E+02 0.11620254389E+03 0.13344833284E+03
 0.14834529718E+03 0.15763372731E+03 0.15805541840E+03 0.14822228330E+03 0.12979687310E+03
 0.10652343990E+03 0.82494329819E+02 0.61174408595E+02 0.46997231579E+02 0.34070808706E+02
 0.24422117975E+02 0.17335228165E+02 0.12217532174E+02 0.86529113946E+01 0.63218361653E+01
 0.49506725172E+01 0.43005436113E+01 0.41752095031E+01 0.44481193952E+01 0.50872051160E+01
 0.61439985422E+01 0.77192647231E+01 0.99458633954E+01 0.12983595722E+02 0.16979824315E+02
 0.21994625017E+02 0.27952519644E+02 0.34656481850E+02 0.41818203497E+02 0.48913265122E+02
 0.54957314265E+02 0.58907721731E+02 0.59939327510E+02 0.57674452421E+02 0.52389565614E+02
 0.45136434056E+02 0.37645380408E+02 0.31905472784E+02 0.29508779823E+02 0.31068151668E+02
 0.36057705308E+02 0.43215689377E+02 0.51317896150E+02 0.59881413734E+02 0.69360521570E+02
 0.80682006695E+02 0.94218177018E+02 0.10908447815E+03 0.12323970903E+03 0.13387218298E+03
 0.13818231584E+03 0.13421958170E+03 0.12206739987E+03 0.10395697224E+03 0.83332378319E+02
 0.63621657843E+02 0.47333162426E+02 0.35092842510E+02 0.25594849850E+02 0.18423261741E+02
 0.13111195934E+02 0.93009593200E+01 0.67194619198E+01 0.51227052049E+01 0.42791453711E+01
 0.39890306510E+01 0.41172779367E+01 0.46157245240E+01 0.55196785502E+01 0.69284745346E+01
 0.89904237124E+01 0.11889244529E+02 0.15809246466E+02 0.20878033301E+02 0.27117511254E+02
 0.34423746338E+02 0.42556864202E+02 0.51113043549E+02 0.59396414812E+02 0.66267488405E+02
 0.70555330630E+02 0.71389618320E+02 0.68483680688E+02 0.62338092044E+02 0.54250478953E+02
 0.46044641154E+02 0.39555246221E+02 0.36057705311E+02 0.35906863632E+02 0.38581021991E+02
 0.43133787194E+02 0.48818881180E+02 0.55516969865E+02 0.63682087302E+02 0.73681295977E+02
 0.85192839518E+02 0.97047592466E+02 0.10725927366E+03 0.11345421408E+03 0.11364027320E+03
 0.10705451915E+03 0.94637856138E+02 0.78757213568E+02 0.62245990807E+02 0.45112308958E+02
 0.34413501573E+02 0.25679106615E+02 0.18826055434E+02 0.13591086051E+02 0.97245874792E+01
 0.70190567253E+01 0.52741960546E+01 0.42834903003E+01 0.38577851969E+01 0.38614875420E+01
 0.42371838294E+01 0.50105939159E+01 0.62814359071E+01 0.82083875947E+01 0.10988875691E+02
 0.14829678746E+02 0.19910701601E+02 0.26349503757E+02 0.34163599379E+02 0.43213993122E+02
 0.53125071423E+02 0.63213492988E+02 0.72452195445E+02 0.79457779616E+02 0.82959467163E+02
 0.82242125779E+02 0.77407123826E+02 0.69416247894E+02 0.59876987790E+02 0.50621196240E+02
 0.43215689382E+02 0.38581021994E+02 0.36864793642E+02 0.37621209446E+02 0.40210736268E+02