   9   9   0   0
  0.1255774E+02  0.4913700E-09  0.4913700E-09  0.5405130E-09  0.5000000E-15
  1.000000000000000E-004
  CAR 
 unknown system                          
     13.66929973    -20.37701556  301      1.10053500      1.00000000
    -20.377  0.0000E+00  0.0000E+00
    -20.264  0.0000E+00  0.0000E+00
    -20.150  0.0000E+00  0.0000E+00
    -20.037  0.0000E+00  0.0000E+00
    -19.923  0.0000E+00  0.0000E+00
    -19.810  0.0000E+00  0.0000E+00
    -19.696  0.0000E+00  0.0000E+00
    -19.583  0.0000E+00  0.0000E+00
    -19.469  0.0000E+00  0.0000E+00
    -19.356  0.0000E+00  0.0000E+00
    -19.242  0.0000E+00  0.0000E+00
    -19.129  0.0000E+00  0.0000E+00
    -19.015  0.0000E+00  0.0000E+00
    -18.902  0.0000E+00  0.0000E+00
    -18.788  0.0000E+00  0.0000E+00
    -18.675  0.0000E+00  0.0000E+00
    -18.561  0.0000E+00  0.0000E+00
    -18.448  0.0000E+00  0.0000E+00
    -18.334  0.9515E-01  0.1357E-02
    -18.221  0.1264E+01  0.6608E-01
    -18.107  0.2228E+01  0.2766E+00
    -17.994  0.3984E+01  0.6166E+00
    -17.880  0.1176E+02  0.1300E+01
    -17.767  0.2679E+00  0.2013E+01
    -17.653  0.8485E+00  0.2073E+01
    -17.540  0.1763E+01  0.2218E+01
    -17.426  0.3020E+01  0.2486E+01
    -17.313  0.2495E+01  0.3620E+01
    -17.199  0.1399E+01  0.3838E+01
    -17.086  0.6260E+00  0.3950E+01
    -16.972  0.1773E+00  0.3992E+01
    -16.859  0.8906E+01  0.4251E+01
    -16.745  0.4746E+01  0.5232E+01
    -16.632  0.2392E+01  0.5625E+01
    -16.518  0.1497E+01  0.5835E+01
    -16.405  0.6332E+00  0.5957E+01
    -16.291  0.1253E+00  0.5996E+01
    -16.178  0.5826E+02  0.1121E+02
    -16.064  0.0000E+00  0.1200E+02
    -15.951  0.0000E+00  0.1200E+02
    -15.838  0.0000E+00  0.1200E+02
    -15.724  0.0000E+00  0.1200E+02
    -15.611  0.0000E+00  0.1200E+02
    -15.497  0.0000E+00  0.1200E+02
    -15.384  0.0000E+00  0.1200E+02
    -15.270  0.0000E+00  0.1200E+02
    -15.157  0.0000E+00  0.1200E+02
    -15.043  0.0000E+00  0.1200E+02
    -14.930  0.0000E+00  0.1200E+02
    -14.816  0.0000E+00  0.1200E+02
    -14.703  0.0000E+00  0.1200E+02
    -14.589  0.0000E+00  0.1200E+02
    -14.476  0.0000E+00  0.1200E+02
    -14.362  0.0000E+00  0.1200E+02
    -14.249  0.0000E+00  0.1200E+02
    -14.135  0.0000E+00  0.1200E+02
    -14.022  0.0000E+00  0.1200E+02
    -13.908  0.0000E+00  0.1200E+02
    -13.795  0.0000E+00  0.1200E+02
    -13.681  0.0000E+00  0.1200E+02
    -13.568  0.0000E+00  0.1200E+02
    -13.454  0.0000E+00  0.1200E+02
    -13.341  0.0000E+00  0.1200E+02
    -13.227  0.0000E+00  0.1200E+02
    -13.114  0.0000E+00  0.1200E+02
    -13.000  0.0000E+00  0.1200E+02
    -12.887  0.0000E+00  0.1200E+02
    -12.773  0.0000E+00  0.1200E+02
    -12.660  0.0000E+00  0.1200E+02
    -12.546  0.0000E+00  0.1200E+02
    -12.433  0.0000E+00  0.1200E+02
    -12.319  0.0000E+00  0.1200E+02
    -12.206  0.0000E+00  0.1200E+02
    -12.092  0.0000E+00  0.1200E+02
    -11.979  0.0000E+00  0.1200E+02
    -11.865  0.0000E+00  0.1200E+02
    -11.752  0.0000E+00  0.1200E+02
    -11.638  0.0000E+00  0.1200E+02
    -11.525  0.0000E+00  0.1200E+02
    -11.411  0.0000E+00  0.1200E+02
    -11.298  0.0000E+00  0.1200E+02
    -11.185  0.0000E+00  0.1200E+02
    -11.071  0.0000E+00  0.1200E+02
    -10.958  0.0000E+00  0.1200E+02
    -10.844  0.0000E+00  0.1200E+02
    -10.731  0.0000E+00  0.1200E+02
    -10.617  0.0000E+00  0.1200E+02
    -10.504  0.0000E+00  0.1200E+02
    -10.390  0.0000E+00  0.1200E+02
    -10.277  0.0000E+00  0.1200E+02
    -10.163  0.0000E+00  0.1200E+02
    -10.050  0.0000E+00  0.1200E+02
     -9.936  0.0000E+00  0.1200E+02
     -9.823  0.0000E+00  0.1200E+02
     -9.709  0.0000E+00  0.1200E+02
     -9.596  0.0000E+00  0.1200E+02
     -9.482  0.0000E+00  0.1200E+02
     -9.369  0.0000E+00  0.1200E+02
     -9.255  0.0000E+00  0.1200E+02
     -9.142  0.0000E+00  0.1200E+02
     -9.028  0.0000E+00  0.1200E+02
     -8.915  0.0000E+00  0.1200E+02
     -8.801  0.0000E+00  0.1200E+02
     -8.688  0.0000E+00  0.1200E+02
     -8.574  0.0000E+00  0.1200E+02
     -8.461  0.0000E+00  0.1200E+02
     -8.347  0.0000E+00  0.1200E+02
     -8.234  0.1025E-01  0.1200E+02
     -8.120  0.1017E+00  0.1201E+02
     -8.007  0.2879E+00  0.1203E+02
     -7.893  0.6004E+00  0.1208E+02
     -7.780  0.9217E+00  0.1216E+02
     -7.666  0.1144E+01  0.1228E+02
     -7.553  0.1785E+01  0.1244E+02
     -7.439  0.2802E+01  0.1270E+02
     -7.326  0.7727E+01  0.1317E+02
     -7.212  0.3265E+01  0.1388E+02
     -7.099  0.1226E-01  0.1400E+02
     -6.985  0.6723E-01  0.1400E+02
     -6.872  0.1663E+00  0.1402E+02
     -6.758  0.3134E+00  0.1404E+02
     -6.645  0.5339E+00  0.1409E+02
     -6.532  0.8323E+00  0.1417E+02
     -6.418  0.1208E+01  0.1428E+02
     -6.305  0.1756E+01  0.1445E+02
     -6.191  0.1162E+02  0.1502E+02
     -6.078  0.1511E+01  0.1560E+02
     -5.964  0.1108E+01  0.1574E+02
     -5.851  0.7656E+00  0.1585E+02
     -5.737  0.4843E+00  0.1592E+02
     -5.624  0.2640E+00  0.1596E+02
     -5.510  0.1432E+00  0.1598E+02
     -5.397  0.1466E+01  0.1603E+02
     -5.283  0.3693E+01  0.1637E+02
     -5.170  0.3710E+01  0.1679E+02
     -5.056  0.2875E+01  0.1717E+02
     -4.943  0.2088E+01  0.1745E+02
     -4.829  0.1449E+01  0.1765E+02
     -4.716  0.1070E+01  0.1779E+02
     -4.602  0.7618E+00  0.1789E+02
     -4.489  0.1025E+01  0.1798E+02
     -4.375  0.1599E+02  0.1843E+02
     -4.262  0.8101E+01  0.2002E+02
     -4.148  0.6904E+01  0.2089E+02
     -4.035  0.9825E+01  0.2185E+02
     -3.921  0.8005E+00  0.2207E+02
     -3.808  0.1031E+02  0.2278E+02
     -3.694  0.3949E+01  0.2368E+02
     -3.581  0.1629E+01  0.2398E+02
     -3.467  0.0000E+00  0.2400E+02
     -3.354  0.0000E+00  0.2400E+02
     -3.240  0.0000E+00  0.2400E+02
     -3.127  0.0000E+00  0.2400E+02
     -3.013  0.0000E+00  0.2400E+02
     -2.900  0.0000E+00  0.2400E+02
     -2.786  0.0000E+00  0.2400E+02
     -2.673  0.0000E+00  0.2400E+02
     -2.559  0.0000E+00  0.2400E+02
     -2.446  0.0000E+00  0.2400E+02
     -2.332  0.0000E+00  0.2400E+02
     -2.219  0.0000E+00  0.2400E+02
     -2.105  0.1100E+02  0.2438E+02
     -1.992  0.8015E+01  0.2583E+02
     -1.879  0.6371E+01  0.2653E+02
     -1.765  0.5756E+01  0.2738E+02
     -1.652  0.4825E+01  0.2791E+02
     -1.538  0.1092E+02  0.2902E+02
     -1.425  0.4419E+01  0.2988E+02
     -1.311  0.4190E+00  0.3001E+02
     -1.198  0.1146E+02  0.3045E+02
     -1.084  0.2965E+01  0.3193E+02
     -0.971  0.1318E+02  0.3244E+02
     -0.857  0.1307E+01  0.3387E+02
     -0.744  0.4348E+00  0.3396E+02
     -0.630  0.8095E+01  0.3475E+02
     -0.517  0.1048E+02  0.3572E+02
     -0.403  0.1358E+02  0.3676E+02
     -0.290  0.4907E+01  0.3768E+02
     -0.176  0.9531E+01  0.3847E+02
     -0.063  0.7692E+01  0.3964E+02
      0.051  0.8528E+01  0.4023E+02
      0.164  0.8368E+01  0.4184E+02
      0.278  0.2137E+01  0.4202E+02
      0.391  0.1393E+02  0.4319E+02
      0.505  0.2103E+01  0.4379E+02
      0.618  0.6267E+01  0.4430E+02
      0.732  0.8889E+01  0.4521E+02
      0.845  0.4908E+01  0.4619E+02
      0.959  0.1517E+02  0.4693E+02
      1.072  0.0000E+00  0.4800E+02
      1.186  0.0000E+00  0.4800E+02
      1.299  0.0000E+00  0.4800E+02
      1.413  0.0000E+00  0.4800E+02
      1.526  0.0000E+00  0.4800E+02
      1.640  0.0000E+00  0.4800E+02
      1.753  0.0000E+00  0.4800E+02
      1.867  0.0000E+00  0.4800E+02
      1.980  0.0000E+00  0.4800E+02
      2.094  0.0000E+00  0.4800E+02
      2.207  0.0000E+00  0.4800E+02
      2.321  0.0000E+00  0.4800E+02
      2.434  0.0000E+00  0.4800E+02
      2.548  0.0000E+00  0.4800E+02
      2.661  0.0000E+00  0.4800E+02
      2.774  0.0000E+00  0.4800E+02
      2.888  0.0000E+00  0.4800E+02
      3.001  0.0000E+00  0.4800E+02
      3.115  0.0000E+00  0.4800E+02
      3.228  0.0000E+00  0.4800E+02
      3.342  0.0000E+00  0.4800E+02
      3.455  0.0000E+00  0.4800E+02
      3.569  0.0000E+00  0.4800E+02
      3.682  0.0000E+00  0.4800E+02
      3.796  0.0000E+00  0.4800E+02
      3.909  0.0000E+00  0.4800E+02
      4.023  0.0000E+00  0.4800E+02
      4.136  0.0000E+00  0.4800E+02
      4.250  0.0000E+00  0.4800E+02
      4.363  0.0000E+00  0.4800E+02
      4.477  0.0000E+00  0.4800E+02
      4.590  0.0000E+00  0.4800E+02
      4.704  0.0000E+00  0.4800E+02
      4.817  0.0000E+00  0.4800E+02
      4.931  0.0000E+00  0.4800E+02
      5.044  0.0000E+00  0.4800E+02
      5.158  0.0000E+00  0.4800E+02
      5.271  0.0000E+00  0.4800E+02
      5.385  0.0000E+00  0.4800E+02
      5.498  0.0000E+00  0.4800E+02
      5.612  0.0000E+00  0.4800E+02
      5.725  0.0000E+00  0.4800E+02
      5.839  0.0000E+00  0.4800E+02
      5.952  0.0000E+00  0.4800E+02
      6.066  0.0000E+00  0.4800E+02
      6.179  0.0000E+00  0.4800E+02
      6.293  0.0000E+00  0.4800E+02
      6.406  0.0000E+00  0.4800E+02
      6.520  0.0000E+00  0.4800E+02
      6.633  0.0000E+00  0.4800E+02
      6.747  0.0000E+00  0.4800E+02
      6.860  0.0000E+00  0.4800E+02
      6.974  0.0000E+00  0.4800E+02
      7.087  0.0000E+00  0.4800E+02
      7.200  0.3246E-02  0.4800E+02
      7.314  0.1752E-01  0.4800E+02
      7.427  0.4317E-01  0.4800E+02
      7.541  0.8018E-01  0.4801E+02
      7.654  0.1286E+00  0.4802E+02
      7.768  0.1887E+00  0.4804E+02
      7.881  0.2634E+00  0.4807E+02
      7.995  0.3531E+00  0.4810E+02
      8.108  0.4061E+00  0.4814E+02
      8.222  0.4528E+00  0.4819E+02
      8.335  0.4941E+00  0.4825E+02
      8.449  0.5311E+00  0.4831E+02
      8.562  0.6031E+00  0.4837E+02
      8.676  0.6819E+00  0.4844E+02
      8.789  0.7658E+00  0.4852E+02
      8.903  0.8550E+00  0.4862E+02
      9.016  0.9494E+00  0.4872E+02
      9.130  0.1048E+01  0.4883E+02
      9.243  0.1456E+01  0.4896E+02
      9.357  0.1994E+01  0.4916E+02
      9.470  0.1846E+01  0.4938E+02
      9.584  0.1614E+01  0.4958E+02
      9.697  0.1510E+01  0.4976E+02
      9.811  0.1463E+01  0.4993E+02
      9.924  0.1403E+01  0.5009E+02
     10.038  0.9083E+00  0.5023E+02
     10.151  0.1109E+01  0.5034E+02
     10.265  0.3113E+01  0.5056E+02
     10.378  0.8284E+01  0.5121E+02
     10.492  0.5745E+01  0.5218E+02
     10.605  0.5687E+01  0.5275E+02
     10.719  0.6936E+01  0.5348E+02
     10.832  0.3792E+01  0.5429E+02
     10.946  0.4002E+01  0.5468E+02
     11.059  0.4865E+01  0.5518E+02
     11.173  0.5894E+01  0.5580E+02
     11.286  0.4616E+01  0.5633E+02
     11.400  0.7638E+01  0.5713E+02
     11.513  0.3855E+01  0.5777E+02
     11.627  0.2935E+00  0.5800E+02
     11.740  0.0000E+00  0.5800E+02
     11.853  0.0000E+00  0.5800E+02
     11.967  0.0000E+00  0.5800E+02
     12.080  0.0000E+00  0.5800E+02
     12.194  0.0000E+00  0.5800E+02
     12.307  0.0000E+00  0.5800E+02
     12.421  0.0000E+00  0.5800E+02
     12.534  0.0000E+00  0.5800E+02
     12.648  0.0000E+00  0.5800E+02
     12.761  0.0000E+00  0.5800E+02
     12.875  0.0000E+00  0.5800E+02
     12.988  0.0000E+00  0.5800E+02
     13.102  0.0000E+00  0.5800E+02
     13.215  0.0000E+00  0.5800E+02
     13.329  0.0000E+00  0.5800E+02
     13.442  0.0000E+00  0.5800E+02
     13.556  0.0000E+00  0.5800E+02
     13.669  0.0000E+00  0.5800E+02
