Automatically generated mesh
      24
Reciprocal lattice
    0.00000000000000    0.00000000000000    0.00000000000000             1
    0.25000000000000    0.00000000000000    0.00000000000000             4
    0.50000000000000    0.00000000000000    0.00000000000000             2
    0.25000000000000    0.25000000000000    0.00000000000000             2
    0.50000000000000    0.25000000000000    0.00000000000000             4
   -0.25000000000000    0.25000000000000    0.00000000000000             2
    0.50000000000000    0.50000000000000    0.00000000000000             1
    0.00000000000000    0.00000000000000    0.25000000000000             2
    0.25000000000000    0.00000000000000    0.25000000000000             4
    0.50000000000000    0.00000000000000    0.25000000000000             4
   -0.25000000000000   -0.00000000000000    0.25000000000000             4
    0.25000000000000    0.25000000000000    0.25000000000000             4
    0.50000000000000    0.25000000000000    0.25000000000000             4
   -0.25000000000000    0.25000000000000    0.25000000000000             2
    0.25000000000000    0.50000000000000    0.25000000000000             4
    0.50000000000000    0.50000000000000    0.25000000000000             2
    0.25000000000000   -0.25000000000000    0.25000000000000             2
    0.00000000000000    0.00000000000000    0.50000000000000             1
    0.25000000000000    0.00000000000000    0.50000000000000             4
    0.50000000000000    0.00000000000000    0.50000000000000             2
    0.25000000000000    0.25000000000000    0.50000000000000             2
    0.50000000000000    0.25000000000000    0.50000000000000             4
   -0.25000000000000    0.25000000000000    0.50000000000000             2
    0.50000000000000    0.50000000000000    0.50000000000000             1
Tetrahedra
        96    0.00260416666667
         4         2         2         4        11
         4         1         2         2        11
         4         1         2         8        11
         4         2         4        11        12
         4         2         9        11        12
         4         2         8         9        11
         4         3         4         5        12
         4         2         3         4        12
         4         2         3         9        12
         4         3         5        12        13
         4         3        10        12        13
         4         3         9        10        12
         4         2         5         6        13
         4         2         3         5        13
         4         2         3        10        13
         4         2         6        13        14
         4         2        11        13        14
         4         2        10        11        13
         4         1         2         6        14
         4         1         2        11        14
         4         1         8        11        14
         4         3         4         5        10
         4         2         3         4        10
         4         2         4        10        11
         4         4         5        10        15
         4         4        10        12        15
         4         4        10        11        12
         4         5         5         7        15
         4         4         5         5        15
         4         4         5        12        15
         4         5         7        15        16
         4         5        13        15        16
         4         5        12        13        15
         4         5         6         7        16
         4         5         6        13        16
         4         6        13        14        16
         4         2         5         6         9
         4         2         3         5         9
         4         3         5         9        10
         4         5         6         9        17
         4         5         9        15        17
         4         5         9        10        15
         4         5         6         7        17
         4         5         7        15        17
         4         7        15        16        17
         4         1         2         6         8
         4         2         6         8         9
         4         6         8         9        17
         4         9        11        12        19
         4         8         9        11        19
         4         8         9        18        19
         4         9        12        19        21
         4         9        19        19        21
         4         9        18        19        19
         4        10        12        13        21
         4         9        10        12        21
         4         9        10        19        21
         4        10        13        21        22
         4        10        20        21        22
         4        10        19        20        21
         4        11        13        14        22
         4        10        11        13        22
         4        10        11        20        22
         4        11        14        22        23
         4        11        19        22        23
         4        11        19        20        22
         4         8        11        14        23
         4         8        11        19        23
         4         8        18        19        23
         4        10        12        15        20
         4        10        11        12        20
         4        11        12        19        20
         4        12        15        20        22
         4        12        20        21        22
         4        12        19        20        21
         4        13        15        16        22
         4        12        13        15        22
         4        12        13        21        22
         4        13        16        22        24
         4        13        22        22        24
         4        13        21        22        22
         4        13        14        16        24
         4        13        14        22        24
         4        14        22        23        24
         4         9        15        17        19
         4         9        10        15        19
         4        10        15        19        20
         4        15        17        19        23
         4        15        19        22        23
         4        15        19        20        22
         4        15        16        17        23
         4        15        16        22        23
         4        16        22        23        24
         4         8         9        17        18
         4         9        17        18        19
         4        17        18        19        23
