       N       E                     dE             d eps       ncg     rms          rms(c)
DAV:   1     0.275212493985E+03    0.27521E+03   -0.22668E+04  1408   0.125E+03
DAV:   2    -0.631433961827E+02   -0.33836E+03   -0.33271E+03  1820   0.318E+02
DAV:   3    -0.803447213428E+02   -0.17201E+02   -0.17160E+02  1627   0.822E+01
DAV:   4    -0.805528704790E+02   -0.20815E+00   -0.20783E+00  1656   0.977E+00
DAV:   5    -0.805567679236E+02   -0.38974E-02   -0.38963E-02  1622   0.131E+00    0.184E+01
RMM:   6    -0.711581263490E+02    0.93986E+01   -0.40105E+01  1487   0.331E+01    0.516E+00
RMM:   7    -0.711352232402E+02    0.22903E-01   -0.17719E+00  1602   0.609E+00    0.339E+00
RMM:   8    -0.711507151531E+02   -0.15492E-01   -0.26603E-01  1565   0.402E+00    0.628E-01
RMM:   9    -0.711427705575E+02    0.79446E-02   -0.50873E-02  1631   0.118E+00    0.136E-01
RMM:  10    -0.711461766286E+02   -0.34061E-02   -0.20080E-02  1606   0.730E-01    0.247E-01
RMM:  11    -0.711446360646E+02    0.15406E-02   -0.31665E-03  1627   0.322E-01    0.732E-02
RMM:  12    -0.711445627249E+02    0.73340E-04   -0.10223E-03  1624   0.166E-01    0.603E-03
RMM:  13    -0.711445666243E+02   -0.38994E-05   -0.30751E-05  1222   0.315E-02
   1 F= -.71144567E+02 E0= -.71144567E+02  d E =0.000000E+00
