 vasp.5.4.1 05Feb16 (build Mar 02 2016 14:09:44) complex                        
  
 executed on   Abel-impi-ifc-cuda date 2019.09.13  12:00:45
 running on    1 total cores
 distrk:  each k-point on    1 cores,    1 groups
 distr:  one band on NCORES_PER_BAND=   1 cores,    1 groups


--------------------------------------------------------------------------------------------------------


 INCAR:
 POTCAR:   PAW_PBE Si 05Jan2001                   
 POTCAR:   PAW_PBE O 08Apr2002                    
 POTCAR:   PAW_PBE Si 05Jan2001                   
   VRHFIN =Si: s2p2                                                             
   LEXCH  = PE                                                                  
   EATOM  =   103.0669 eV,    7.5752 Ry                                         
                                                                                
   TITEL  = PAW_PBE Si 05Jan2001                                                
   LULTRA =        F    use ultrasoft PP ?                                      
   IUNSCR =        1    unscreen: 0-lin 1-nonlin 2-no                           
   RPACOR =    1.500    partial core radius                                     
   POMASS =   28.085; ZVAL   =    4.000    mass and valenz                      
   RCORE  =    1.900    outmost cutoff radius                                   
   RWIGS  =    2.480; RWIGS  =    1.312    wigner-seitz radius (au A)           
   ENMAX  =  245.345; ENMIN  =  184.009 eV                                      
   ICORE  =        2    local potential                                         
   LCOR   =        T    correct aug charges                                     
   LPAW   =        T    paw PP                                                  
   EAUG   =  322.069                                                            
   DEXC   =    -.007                                                            
   RMAX   =    2.944    core radius for proj-oper                               
   RAUG   =    1.300    factor for augmentation sphere                          
   RDEP   =    1.993    radius for radial grids                                 
   QCUT   =   -4.246; QGAM   =    8.493    optimization parameters              
                                                                                
   Description                                                                  
     l     E      TYP  RCUT    TYP  RCUT                                        
     0   .000     23  1.900                                                     
     0   .000     23  1.900                                                     
     1   .000     23  1.900                                                     
     1   .000     23  1.900                                                     
     2   .000      7  1.900                                                     
  local pseudopotential read in
  partial core-charges read in
  atomic valenz-charges read in
  non local Contribution for L=           0  read in
    real space projection operators read in
  non local Contribution for L=           0  read in
    real space projection operators read in
  non local Contribution for L=           1  read in
    real space projection operators read in
  non local Contribution for L=           1  read in
    real space projection operators read in
    PAW grid and wavefunctions read in
 
   number of l-projection  operators is LMAX  =           4
   number of lm-projection operators is LMMAX =           8
 
 POTCAR:   PAW_PBE O 08Apr2002                    
   VRHFIN =O: s2p4                                                              
   LEXCH  = PE                                                                  
   EATOM  =   432.3788 eV,   31.7789 Ry                                         
                                                                                
   TITEL  = PAW_PBE O 08Apr2002                                                 
   LULTRA =        F    use ultrasoft PP ?                                      
   IUNSCR =        0    unscreen: 0-lin 1-nonlin 2-no                           
   RPACOR =     .000    partial core radius                                     
   POMASS =   16.000; ZVAL   =    6.000    mass and valenz                      
   RCORE  =    1.520    outmost cutoff radius                                   
   RWIGS  =    1.550; RWIGS  =     .820    wigner-seitz radius (au A)           
   ENMAX  =  400.000; ENMIN  =  300.000 eV                                      
   ICORE  =        2    local potential                                         
   LCOR   =        T    correct aug charges                                     
   LPAW   =        T    paw PP                                                  
   EAUG   =  605.392                                                            
   DEXC   =     .000                                                            
   RMAX   =    2.264    core radius for proj-oper                               
   RAUG   =    1.300    factor for augmentation sphere                          
   RDEP   =    1.550    radius for radial grids                                 
   QCUT   =   -5.520; QGAM   =   11.041    optimization parameters              
                                                                                
   Description                                                                  
     l     E      TYP  RCUT    TYP  RCUT                                        
     0   .000     23  1.200                                                     
     0  -.700     23  1.200                                                     
     1   .000     23  1.520                                                     
     1   .600     23  1.520                                                     
     2   .000      7  1.500                                                     
  local pseudopotential read in
  atomic valenz-charges read in
  non local Contribution for L=           0  read in
    real space projection operators read in
  non local Contribution for L=           0  read in
    real space projection operators read in
  non local Contribution for L=           1  read in
    real space projection operators read in
  non local Contribution for L=           1  read in
    real space projection operators read in
    PAW grid and wavefunctions read in
 
   number of l-projection  operators is LMAX  =           4
   number of lm-projection operators is LMMAX =           8
 
 Optimization of the real space projectors (new method)

 maximal supplied QI-value         = 19.84
 optimisation between [QCUT,QGAM] = [ 10.12, 20.44] = [ 28.68,116.96] Ry 
 Optimized for a Real-space Cutoff    1.23 Angstroem

   l    n(q)    QCUT    max X(q) W(low)/X(q) W(high)/X(q)  e(spline) 
   0      7    10.119     8.708    0.24E-04    0.14E-04    0.43E-08
   0      7    10.119   106.241    0.56E-04    0.21E-03    0.45E-07
   1      7    10.119     5.901    0.36E-04    0.73E-05    0.14E-07
   1      7    10.119    73.241    0.33E-03    0.48E-03    0.11E-06
 Optimization of the real space projectors (new method)

 maximal supplied QI-value         = 24.76
 optimisation between [QCUT,QGAM] = [ 10.15, 20.30] = [ 28.85,115.39] Ry 
 Optimized for a Real-space Cutoff    1.30 Angstroem

   l    n(q)    QCUT    max X(q) W(low)/X(q) W(high)/X(q)  e(spline) 
   0      8    10.150     4.192    0.55E-04    0.58E-04    0.78E-07
   0      8    10.150     8.473    0.46E-03    0.68E-03    0.23E-06
   1      7    10.150     2.474    0.11E-03    0.93E-04    0.33E-07
   1      7    10.150     3.912    0.46E-03    0.50E-03    0.15E-06
 PAW_PBE Si 05Jan2001                   :
 energy of atom  1       EATOM= -103.0669
 kinetic energy error for atom=    0.0012 (will be added to EATOM!!)
 PAW_PBE O 08Apr2002                    :
 energy of atom  2       EATOM= -432.3788
 kinetic energy error for atom=    0.1156 (will be added to EATOM!!)
 
 
 POSCAR: SiO2_P3221_icsd_34644                   
  positions in direct lattice
  No initial velocities read in
 exchange correlation table for  LEXCH =        8
   RHO(1)=    0.500       N(1)  =     2000
   RHO(2)=  100.500       N(2)  =     4000
 


--------------------------------------------------------------------------------------------------------


 ion  position               nearest neighbor table
   1  0.470  0.000  0.667-   4 1.60   7 1.60   9 1.62   5 1.62   3 3.06   3 3.06   2 3.06   2 3.06

   2  0.000  0.470  0.333-   8 1.60   5 1.60   6 1.62   7 1.62   3 3.06   3 3.06   1 3.06   1 3.06

   3  0.530  0.530  0.000-   6 1.60   9 1.60   8 1.62   4 1.62   2 3.06   2 3.06   1 3.06   1 3.06

   4  0.414  0.266  0.786-   1 1.60   3 1.62
   5  0.734  0.148  0.452-   2 1.60   1 1.62
   6  0.852  0.586  0.119-   3 1.60   2 1.62
   7  0.148  0.734  0.548-   1 1.60   2 1.62
   8  0.266  0.414  0.214-   2 1.60   3 1.62
   9  0.586  0.852  0.881-   3 1.60   1 1.62
 
  LATTYP: Found a hexagonal cell.
 ALAT       =     4.9137000030
 C/A-ratio  =     1.1000122101
  
  Lattice vectors:
  
 A1 = (   4.9137000000,   0.0000000000,   0.0000000000)
 A2 = (  -2.4568500000,   4.2553890300,   0.0000000000)
 A3 = (   0.0000000000,   0.0000000000,   5.4051300000)


Analysis of symmetry for initial positions (statically):
=====================================================================
 Subroutine PRICEL returns:
 Original cell was already a primitive cell.
 

 Routine SETGRP: Setting up the symmetry group for a 
 hexagonal supercell.


 Subroutine GETGRP returns: Found  2 space group operations
 (whereof  2 operations were pure point group operations)
 out of a pool of 24 trial point group operations.


The static configuration has the point symmetry C_2 .


Analysis of symmetry for dynamics (positions and initial velocities):
=====================================================================
 Subroutine PRICEL returns:
 Original cell was already a primitive cell.
 

 Routine SETGRP: Setting up the symmetry group for a 
 hexagonal supercell.


 Subroutine GETGRP returns: Found  2 space group operations
 (whereof  2 operations were pure point group operations)
 out of a pool of 24 trial point group operations.


The dynamic configuration has the point symmetry C_2 .


 Subroutine INISYM returns: Found  2 space group operations
 (whereof  2 operations are pure point group operations),
 and found     1 'primitive' translations

 
 
 KPOINTS: k-density: 3.0                          

Automatic generation of k-mesh.
Space group operators:
 irot       det(A)        alpha          n_x          n_y          n_z        tau_x        tau_y        tau_z
    1     1.000000     0.000001     1.000000     0.000000     0.000000     0.000000     0.000000     0.000000
    2     1.000000   180.000000    -0.500000    -0.866025     0.000000     0.000000     0.000000     0.000000
 
 Subroutine IBZKPT returns following result:
 ===========================================
 
 Found     24 irreducible k-points:
 
 Following reciprocal coordinates:
            Coordinates               Weight
  0.000000  0.000000  0.000000      1.000000
  0.250000  0.000000  0.000000      4.000000
  0.500000  0.000000  0.000000      2.000000
  0.250000  0.250000  0.000000      2.000000
  0.500000  0.250000  0.000000      4.000000
 -0.250000  0.250000  0.000000      2.000000
  0.500000  0.500000  0.000000      1.000000
  0.000000  0.000000  0.250000      2.000000
  0.250000  0.000000  0.250000      4.000000
  0.500000  0.000000  0.250000      4.000000
 -0.250000 -0.000000  0.250000      4.000000
  0.250000  0.250000  0.250000      4.000000
  0.500000  0.250000  0.250000      4.000000
 -0.250000  0.250000  0.250000      2.000000
  0.250000  0.500000  0.250000      4.000000
  0.500000  0.500000  0.250000      2.000000
  0.250000 -0.250000  0.250000      2.000000
  0.000000  0.000000  0.500000      1.000000
  0.250000  0.000000  0.500000      4.000000
  0.500000  0.000000  0.500000      2.000000
  0.250000  0.250000  0.500000      2.000000
  0.500000  0.250000  0.500000      4.000000
 -0.250000  0.250000  0.500000      2.000000
  0.500000  0.500000  0.500000      1.000000
 
 Following cartesian coordinates:
            Coordinates               Weight
  0.000000  0.000000  0.000000      1.000000
  0.050878  0.029375  0.000000      4.000000
  0.101756  0.058749  0.000000      2.000000
  0.050878  0.088124  0.000000      2.000000
  0.101756  0.117498  0.000000      4.000000
 -0.050878  0.029375  0.000000      2.000000
  0.101756  0.176247  0.000000      1.000000
  0.000000  0.000000  0.046252      2.000000
  0.050878  0.029375  0.046252      4.000000
  0.101756  0.058749  0.046252      4.000000
 -0.050878 -0.029375  0.046252      4.000000
  0.050878  0.088124  0.046252      4.000000
  0.101756  0.117498  0.046252      4.000000
 -0.050878  0.029375  0.046252      2.000000
  0.050878  0.146873  0.046252      4.000000
  0.101756  0.176247  0.046252      2.000000
  0.050878 -0.029375  0.046252      2.000000
  0.000000  0.000000  0.092505      1.000000
  0.050878  0.029375  0.092505      4.000000
  0.101756  0.058749  0.092505      2.000000
  0.050878  0.088124  0.092505      2.000000
  0.101756  0.117498  0.092505      4.000000
 -0.050878  0.029375  0.092505      2.000000
  0.101756  0.176247  0.092505      1.000000
 
 TETIRR: Found     96 inequivalent tetrahedra from      384


--------------------------------------------------------------------------------------------------------




 Dimension of arrays:
   k-points           NKPTS =     24   k-points in BZ     NKDIM =     24   number of bands    NBANDS=     29
   number of dos      NEDOS =    301   number of ions     NIONS =      9
   non local maximal  LDIM  =      4   non local SUM 2l+1 LMDIM =      8
   total plane-waves  NPLWV =  16128
   max r-space proj   IRMAX =   1367   max aug-charges    IRDMAX=   4970
   dimension x,y,z NGX =    24 NGY =   24 NGZ =   28
   dimension x,y,z NGXF=    48 NGYF=   48 NGZF=   56
   support grid    NGXF=    48 NGYF=   48 NGZF=   56
   ions per type =               3   6
 NGX,Y,Z   is equivalent  to a cutoff of   8.12,  8.12,  8.61 a.u.
 NGXF,Y,Z  is equivalent  to a cutoff of  16.24, 16.24, 17.22 a.u.


 I would recommend the setting:
   dimension x,y,z NGX =    24 NGY =   24 NGZ =   26
 SYSTEM =  unknown system                          
 POSCAR =  SiO2_P3221_icsd_34644                   

 Startparameter for this run:
   NWRITE =      2    write-flag & timer
   PREC   = normal    normal or accurate (medium, high low for compatibility)
   ISTART =      0    job   : 0-new  1-cont  2-samecut
   ICHARG =      2    charge: 1-file 2-atom 10-const
   ISPIN  =      1    spin polarized calculation?
   LNONCOLLINEAR =      F non collinear calculations
   LSORBIT =      F    spin-orbit coupling
   INIWAV =      1    electr: 0-lowe 1-rand  2-diag
   LASPH  =      F    aspherical Exc in radial PAW
   METAGGA=      F    non-selfconsistent MetaGGA calc.

 Electronic Relaxation 1
   ENCUT  =  400.0 eV  29.40 Ry    5.42 a.u.   8.01  8.01  8.81*2*pi/ulx,y,z
   ENINI  =  400.0     initial cutoff
   ENAUG  =  605.4 eV  augmentation charge cutoff
   NELM   =     60;   NELMIN=  4; NELMDL= -5     # of ELM steps 
   EDIFF  = 0.1E-04   stopping-criterion for ELM
   LREAL  =      T    real-space projection
   NLSPLINE    = F    spline interpolate recip. space projectors
   LCOMPAT=      F    compatible to vasp.4.4
   GGA_COMPAT  = T    GGA compatible to vasp.4.4-vasp.4.6
   LMAXPAW     = -100 max onsite density
   LMAXMIX     =    2 max onsite mixed and CHGCAR
   VOSKOWN=      0    Vosko Wilk Nusair interpolation
   ROPT   =   -0.00050  -0.00050
 Ionic relaxation
   EDIFFG = 0.1E-03   stopping-criterion for IOM
   NSW    =      0    number of steps for IOM
   NBLOCK =      1;   KBLOCK =      1    inner block; outer block 
   IBRION =     -1    ionic relax: 0-MD 1-quasi-New 2-CG
   NFREE  =      0    steps in history (QN), initial steepest desc. (CG)
   ISIF   =      2    stress and relaxation
   IWAVPR =     10    prediction:  0-non 1-charg 2-wave 3-comb
   ISYM   =      2    0-nonsym 1-usesym 2-fastsym
   LCORR  =      T    Harris-Foulkes like correction to forces

   POTIM  = 0.5000    time-step for ionic-motion
   TEIN   =    0.0    initial temperature
   TEBEG  =    0.0;   TEEND  =   0.0 temperature during run
   SMASS  =  -3.00    Nose mass-parameter (am)
   estimated Nose-frequenzy (Omega)   =  0.10E-29 period in steps =****** mass=  -0.552E-27a.u.
   SCALEE = 1.0000    scale energy and forces
   NPACO  =    256;   APACO  = 16.0  distance and # of slots for P.C.
   PSTRESS=    0.0 pullay stress

  Mass of Ions in am
   POMASS =  28.09 16.00
  Ionic Valenz
   ZVAL   =   4.00  6.00
  Atomic Wigner-Seitz radii
   RWIGS  =  -1.00 -1.00
  virtual crystal weights 
   VCA    =   1.00  1.00
   NELECT =      48.0000    total number of electrons
   NUPDOWN=      -1.0000    fix difference up-down

 DOS related values:
   EMIN   =  10.00;   EMAX   =-10.00  energy-range for DOS
   EFERMI =   0.00
   ISMEAR =    -5;   SIGMA  =   0.20  broadening in eV -4-tet -1-fermi 0-gaus

 Electronic relaxation 2 (details)
   IALGO  =     68    algorithm
   LDIAG  =      T    sub-space diagonalisation (order eigenvalues)
   LSUBROT=      F    optimize rotation matrix (better conditioning)
   TURBO    =      0    0=normal 1=particle mesh
   IRESTART =      0    0=no restart 2=restart with 2 vectors
   NREBOOT  =      0    no. of reboots
   NMIN     =      0    reboot dimension
   EREF     =   0.00    reference energy to select bands
   IMIX   =      4    mixing-type and parameters
     AMIX     =   0.40;   BMIX     =  1.00
     AMIX_MAG =   1.60;   BMIX_MAG =  1.00
     AMIN     =   0.10
     WC   =   100.;   INIMIX=   1;  MIXPRE=   1;  MAXMIX= -45

 Intra band minimization:
   WEIMIN = 0.0000     energy-eigenvalue tresh-hold
   EBREAK =  0.86E-07  absolut break condition
   DEPER  =   0.30     relativ break condition  

   TIME   =   0.40     timestep for ELM

  volume/ion in A,a.u.               =      12.56        84.74
  Fermi-wavevector in a.u.,A,eV,Ry     =   1.230563  2.325427 20.603106  1.514286
  Thomas-Fermi vector in A             =   2.365407
 
 Write flags
   LWAVE  =      F    write WAVECAR
   LCHARG =      T    write CHGCAR
   LVTOT  =      F    write LOCPOT, total local potential
   LVHAR  =      F    write LOCPOT, Hartree potential only
   LELF   =      F    write electronic localiz. function (ELF)
   LORBIT =      0    0 simple, 1 ext, 2 COOP (PROOUT)


 Dipole corrections
   LMONO  =      F    monopole corrections only (constant potential shift)
   LDIPOL =      F    correct potential (dipole corrections)
   IDIPOL =      0    1-x, 2-y, 3-z, 4-all directions 
   EPSILON=  1.0000000 bulk dielectric constant

 Exchange correlation treatment:
   GGA     =    --    GGA type
   LEXCH   =     8    internal setting for exchange type
   VOSKOWN=      0    Vosko Wilk Nusair interpolation
   LHFCALC =     F    Hartree Fock is set to
   LHFONE  =     F    Hartree Fock one center treatment
   AEXX    =    0.0000 exact exchange contribution

 Linear response parameters
   LEPSILON=     F    determine dielectric tensor
   LRPA    =     F    only Hartree local field effects (RPA)
   LNABLA  =     F    use nabla operator in PAW spheres
   LVEL    =     F    velocity operator in full k-point grid
   LINTERFAST=   F  fast interpolation
   KINTER  =     0    interpolate to denser k-point grid
   CSHIFT  =0.1000    complex shift for real part using Kramers Kronig
   OMEGAMAX=  -1.0    maximum frequency
   DEG_THRESHOLD= 0.2000000E-02 threshold for treating states as degnerate
   RTIME   =    0.100 relaxation time in fs

 Orbital magnetization related:
   ORBITALMAG=     F  switch on orbital magnetization
   LCHIMAG   =     F  perturbation theory with respect to B field
   DQ        =  0.001000  dq finite difference perturbation B field



--------------------------------------------------------------------------------------------------------


 Static calculation
 charge density and potential will be updated during run
 non-spin polarized calculation
 RMM-DIIS sequential band-by-band and
  variant of blocked Davidson during initial phase
 perform sub-space diagonalisation
    before iterative eigenvector-optimisation
 modified Broyden-mixing scheme, WC =      100.0
 initial mixing is a Kerker type mixing with AMIX =  0.4000 and BMIX =      1.0000
 Hartree-type preconditioning will be used
 using additional bands            5
 real space projection scheme for non local part
 use partial core corrections
 calculate Harris-corrections to forces 
   (improved forces if not selfconsistent)
 use gradient corrections 
 use of overlap-Matrix (Vanderbilt PP)
 Fermi weights with tetrahedron method with Bloechl corrections


--------------------------------------------------------------------------------------------------------


  energy-cutoff  :      400.00
  volume of cell :      113.02
      direct lattice vectors                 reciprocal lattice vectors
     4.913700000  0.000000000  0.000000000     0.203512628  0.117498070  0.000000000
    -2.456850000  4.255389030  0.000000000     0.000000000  0.234996141  0.000000000
     0.000000000  0.000000000  5.405130000     0.000000000  0.000000000  0.185009426

  length of vectors
     4.913700000  4.913700003  5.405130000     0.234996141  0.234996141  0.185009426


 
 k-points in units of 2pi/SCALE and weight: k-density: 3.0                          
   0.00000000  0.00000000  0.00000000       0.016
   0.05087816  0.02937452  0.00000000       0.062
   0.10175631  0.05874904  0.00000000       0.031
   0.05087816  0.08812355  0.00000000       0.031
   0.10175631  0.11749807  0.00000000       0.062
  -0.05087816  0.02937452  0.00000000       0.031
   0.10175631  0.17624711  0.00000000       0.016
   0.00000000  0.00000000  0.04625236       0.031
   0.05087816  0.02937452  0.04625236       0.062
   0.10175631  0.05874904  0.04625236       0.062
  -0.05087816 -0.02937452  0.04625236       0.062
   0.05087816  0.08812355  0.04625236       0.062
   0.10175631  0.11749807  0.04625236       0.062
  -0.05087816  0.02937452  0.04625236       0.031
   0.05087816  0.14687259  0.04625236       0.062
   0.10175631  0.17624711  0.04625236       0.031
   0.05087816 -0.02937452  0.04625236       0.031
   0.00000000  0.00000000  0.09250471       0.016
   0.05087816  0.02937452  0.09250471       0.062
   0.10175631  0.05874904  0.09250471       0.031
   0.05087816  0.08812355  0.09250471       0.031
   0.10175631  0.11749807  0.09250471       0.062
  -0.05087816  0.02937452  0.09250471       0.031
   0.10175631  0.17624711  0.09250471       0.016
 
 k-points in reciprocal lattice and weights: k-density: 3.0                          
   0.00000000  0.00000000  0.00000000       0.016
   0.25000000  0.00000000  0.00000000       0.062
   0.50000000  0.00000000  0.00000000       0.031
   0.25000000  0.25000000  0.00000000       0.031
   0.50000000  0.25000000  0.00000000       0.062
  -0.25000000  0.25000000  0.00000000       0.031
   0.50000000  0.50000000  0.00000000       0.016
   0.00000000  0.00000000  0.25000000       0.031
   0.25000000  0.00000000  0.25000000       0.062
   0.50000000  0.00000000  0.25000000       0.062
  -0.25000000 -0.00000000  0.25000000       0.062
   0.25000000  0.25000000  0.25000000       0.062
   0.50000000  0.25000000  0.25000000       0.062
  -0.25000000  0.25000000  0.25000000       0.031
   0.25000000  0.50000000  0.25000000       0.062
   0.50000000  0.50000000  0.25000000       0.031
   0.25000000 -0.25000000  0.25000000       0.031
   0.00000000  0.00000000  0.50000000       0.016
   0.25000000  0.00000000  0.50000000       0.062
   0.50000000  0.00000000  0.50000000       0.031
   0.25000000  0.25000000  0.50000000       0.031
   0.50000000  0.25000000  0.50000000       0.062
  -0.25000000  0.25000000  0.50000000       0.031
   0.50000000  0.50000000  0.50000000       0.016
 
 position of ions in fractional coordinates (direct lattice) 
   0.46980000  0.00000000  0.66667000
   0.00000000  0.46980000  0.33333000
   0.53020000  0.53020000  0.00000000
   0.41450000  0.26620000  0.78560000
   0.73380000  0.14830000  0.45227000
   0.85170000  0.58550000  0.11893000
   0.14830000  0.73380000  0.54773000
   0.26620000  0.41450000  0.21440000
   0.58550000  0.85170000  0.88107000
 
 position of ions in cartesian coordinates  (Angst):
   2.30845626  0.00000000  3.60343802
  -1.15422813  1.99918177  1.80169198
   1.30262187  2.25620726  0.00000000
   1.38271518  1.13278456  4.24627013
   3.24132221  0.63107419  2.44457815
   2.74651261  2.49153028  0.64283211
  -1.07413482  3.12260447  2.96055185
   0.28966261  1.76385875  1.15885987
   0.78447221  3.62431484  4.76229789
 


--------------------------------------------------------------------------------------------------------


 k-point  1 :   0.0000 0.0000 0.0000  plane waves:    2009
 k-point  2 :   0.2500 0.0000 0.0000  plane waves:    2050
 k-point  3 :   0.5000 0.0000 0.0000  plane waves:    2058
 k-point  4 :   0.2500 0.2500 0.0000  plane waves:    2064
 k-point  5 :   0.5000 0.2500 0.0000  plane waves:    2064
 k-point  6 :  -0.2500 0.2500 0.0000  plane waves:    2050
 k-point  7 :   0.5000 0.5000 0.0000  plane waves:    2058
 k-point  8 :   0.0000 0.0000 0.2500  plane waves:    2022
 k-point  9 :   0.2500 0.0000 0.2500  plane waves:    2045
 k-point 10 :   0.5000 0.0000 0.2500  plane waves:    2056
 k-point 11 :  -0.2500-0.0000 0.2500  plane waves:    2045
 k-point 12 :   0.2500 0.2500 0.2500  plane waves:    2058
 k-point 13 :   0.5000 0.2500 0.2500  plane waves:    2058
 k-point 14 :  -0.2500 0.2500 0.2500  plane waves:    2045
 k-point 15 :   0.2500 0.5000 0.2500  plane waves:    2058
 k-point 16 :   0.5000 0.5000 0.2500  plane waves:    2056
 k-point 17 :   0.2500-0.2500 0.2500  plane waves:    2045
 k-point 18 :   0.0000 0.0000 0.5000  plane waves:    2058
 k-point 19 :   0.2500 0.0000 0.5000  plane waves:    2050
 k-point 20 :   0.5000 0.0000 0.5000  plane waves:    2052
 k-point 21 :   0.2500 0.2500 0.5000  plane waves:    2058
 k-point 22 :   0.5000 0.2500 0.5000  plane waves:    2058
 k-point 23 :  -0.2500 0.2500 0.5000  plane waves:    2050
 k-point 24 :   0.5000 0.5000 0.5000  plane waves:    2052

 maximum and minimum number of plane-waves per node :      2064     2009

 maximum number of plane-waves:      2064
 maximum index in each direction: 
   IXMAX=    8   IYMAX=    8   IZMAX=    8
   IXMIN=   -8   IYMIN=   -8   IZMIN=   -9

 WARNING: aliasing errors must be expected set NGX to  34 to avoid them
 WARNING: aliasing errors must be expected set NGY to  34 to avoid them
 WARNING: aliasing errors must be expected set NGZ to  36 to avoid them
 aliasing errors are usually negligible using standard VASP settings
 and one can safely disregard these warnings

 serial   3D FFT for wavefunctions
 parallel 3D FFT for charge:
    minimum data exchange during FFTs selected (reduces bandwidth)


 total amount of memory used by VASP on root node    67393. kBytes
========================================================================

   base      :      30000. kBytes
   nonlr-proj:        968. kBytes
   fftplans  :       4548. kBytes
   grid      :       8064. kBytes
   one-center:         27. kBytes
   wavefun   :      23786. kBytes
 
     INWAV:  cpu time    0.0010: real time    0.0001
 Broyden mixing: mesh for mixing (old mesh)
   NGX = 17   NGY = 17   NGZ = 17
  (NGX  = 48   NGY  = 48   NGZ  = 56)
  gives a total of   4913 points

 initial charge density was supplied:
 charge density of overlapping atoms calculated
 number of electron      48.0000000 magnetization 
 keeping initial charge density in first step


--------------------------------------------------------------------------------------------------------


 Maximum index for non-local projection operator         1282
 Maximum index for augmentation-charges         4640 (set IRDMAX)


--------------------------------------------------------------------------------------------------------


 First call to EWALD:  gamma=   0.367
 Maximum number of real-space cells 3x 3x 3
 Maximum number of reciprocal cells 3x 3x 3

 FEWALD executed in parallel
    FEWALD:  cpu time    0.0010: real time    0.0018


----------------------------------------- Iteration    1(   1)  ---------------------------------------


    POTLOK:  cpu time    0.0690: real time    0.0687
    SETDIJ:  cpu time    0.0120: real time    0.0121
     EDDAV:  cpu time    2.0237: real time    2.0242
 BZINTS: Fermi energy: 16.167339; 48.000000 electrons
         Band energy: -56.635748;  BLOECHL correction: -0.036955
       DOS:  cpu time    0.0050: real time    0.0046
    --------------------------------------------
      LOOP:  cpu time    2.1127: real time    2.1633

 eigenvalue-minimisations  :  1408
 total energy-change (2. order) : 0.2752125E+03  (-0.2266829E+04)
 number of electron      48.0000000 magnetization 
 augmentation part       48.0000000 magnetization 

 Free energy of the ion-electron system (eV)
  ---------------------------------------------------
  alpha Z        PSCENC =        69.72802778
  Ewald energy   TEWEN  =     -1887.20590689
  -Hartree energ DENC   =      -937.14514242
  -exchange      EXHF   =         0.00000000
  -V(xc)+E(xc)   XCENC  =       142.01294050
  PAW double counting   =      1574.92322788    -1533.24131965
  entropy T*S    EENTRO =         0.00000000
  eigenvalues    EBANDS =       -56.63574812
  atomic energy  EATOM  =      2902.77641490
  Solvation  Ediel_sol  =         0.00000000
  ---------------------------------------------------
  free energy    TOTEN  =       275.21249399 eV

  energy without entropy =      275.21249399  energy(sigma->0) =      275.21249399


--------------------------------------------------------------------------------------------------------




----------------------------------------- Iteration    1(   2)  ---------------------------------------


     EDDAV:  cpu time    2.4676: real time    2.4683
 BZINTS: Fermi energy: -1.021297; 48.000000 electrons
         Band energy:-394.991638;  BLOECHL correction:  0.000000
       DOS:  cpu time    0.0010: real time    0.0011
    --------------------------------------------
      LOOP:  cpu time    2.4716: real time    2.5357

 eigenvalue-minimisations  :  1820
 total energy-change (2. order) :-0.3383559E+03  (-0.3327057E+03)
 number of electron      48.0000000 magnetization 
 augmentation part       48.0000000 magnetization 

 Free energy of the ion-electron system (eV)
  ---------------------------------------------------
  alpha Z        PSCENC =        69.72802778
  Ewald energy   TEWEN  =     -1887.20590689
  -Hartree energ DENC   =      -937.14514242
  -exchange      EXHF   =         0.00000000
  -V(xc)+E(xc)   XCENC  =       142.01294050
  PAW double counting   =      1574.92322788    -1533.24131965
  entropy T*S    EENTRO =         0.00000000
  eigenvalues    EBANDS =      -394.99163829
  atomic energy  EATOM  =      2902.77641490
  Solvation  Ediel_sol  =         0.00000000
  ---------------------------------------------------
  free energy    TOTEN  =       -63.14339618 eV

  energy without entropy =      -63.14339618  energy(sigma->0) =      -63.14339618


--------------------------------------------------------------------------------------------------------




----------------------------------------- Iteration    1(   3)  ---------------------------------------


     EDDAV:  cpu time    2.2417: real time    2.2406
 BZINTS: Fermi energy: -2.120828; 48.000000 electrons
         Band energy:-412.192963;  BLOECHL correction:  0.000000
       DOS:  cpu time    0.0010: real time    0.0010
    --------------------------------------------
      LOOP:  cpu time    2.2437: real time    2.2470

 eigenvalue-minimisations  :  1627
 total energy-change (2. order) :-0.1720133E+02  (-0.1715958E+02)
 number of electron      48.0000000 magnetization 
 augmentation part       48.0000000 magnetization 

 Free energy of the ion-electron system (eV)
  ---------------------------------------------------
  alpha Z        PSCENC =        69.72802778
  Ewald energy   TEWEN  =     -1887.20590689
  -Hartree energ DENC   =      -937.14514242
  -exchange      EXHF   =         0.00000000
  -V(xc)+E(xc)   XCENC  =       142.01294050
  PAW double counting   =      1574.92322788    -1533.24131965
  entropy T*S    EENTRO =         0.00000000
  eigenvalues    EBANDS =      -412.19296345
  atomic energy  EATOM  =      2902.77641490
  Solvation  Ediel_sol  =         0.00000000
  ---------------------------------------------------
  free energy    TOTEN  =       -80.34472134 eV

  energy without entropy =      -80.34472134  energy(sigma->0) =      -80.34472134


--------------------------------------------------------------------------------------------------------




----------------------------------------- Iteration    1(   4)  ---------------------------------------


     EDDAV:  cpu time    2.2887: real time    2.2882
 BZINTS: Fermi energy: -2.141740; 48.000000 electrons
         Band energy:-412.401113;  BLOECHL correction:  0.000000
       DOS:  cpu time    0.0000: real time    0.0008
    --------------------------------------------
      LOOP:  cpu time    2.2897: real time    2.3017

 eigenvalue-minimisations  :  1656
 total energy-change (2. order) :-0.2081491E+00  (-0.2078251E+00)
 number of electron      48.0000000 magnetization 
 augmentation part       48.0000000 magnetization 

 Free energy of the ion-electron system (eV)
  ---------------------------------------------------
  alpha Z        PSCENC =        69.72802778
  Ewald energy   TEWEN  =     -1887.20590689
  -Hartree energ DENC   =      -937.14514242
  -exchange      EXHF   =         0.00000000
  -V(xc)+E(xc)   XCENC  =       142.01294050
  PAW double counting   =      1574.92322788    -1533.24131965
  entropy T*S    EENTRO =         0.00000000
  eigenvalues    EBANDS =      -412.40111259
  atomic energy  EATOM  =      2902.77641490
  Solvation  Ediel_sol  =         0.00000000
  ---------------------------------------------------
  free energy    TOTEN  =       -80.55287048 eV

  energy without entropy =      -80.55287048  energy(sigma->0) =      -80.55287048


--------------------------------------------------------------------------------------------------------




----------------------------------------- Iteration    1(   5)  ---------------------------------------


     EDDAV:  cpu time    2.2417: real time    2.2407
 BZINTS: Fermi energy: -2.175839; 48.000000 electrons
         Band energy:-412.405010;  BLOECHL correction:  0.000000
       DOS:  cpu time    0.0000: real time    0.0008
    CHARGE:  cpu time    0.1280: real time    0.1275
    MIXING:  cpu time    0.0020: real time    0.0019
    --------------------------------------------
      LOOP:  cpu time    2.3726: real time    2.3766

 eigenvalue-minimisations  :  1622
 total energy-change (2. order) :-0.3897445E-02  (-0.3896315E-02)
 number of electron      48.0000146 magnetization 
 augmentation part        4.4338865 magnetization 

 Broyden mixing:
  rms(total) = 0.18436E+01    rms(broyden)= 0.18424E+01
  rms(prec ) = 0.34492E+01
  weight for this iteration     100.00

 Free energy of the ion-electron system (eV)
  ---------------------------------------------------
  alpha Z        PSCENC =        69.72802778
  Ewald energy   TEWEN  =     -1887.20590689
  -Hartree energ DENC   =      -937.14514242
  -exchange      EXHF   =         0.00000000
  -V(xc)+E(xc)   XCENC  =       142.01294050
  PAW double counting   =      1574.92322788    -1533.24131965
  entropy T*S    EENTRO =         0.00000000
  eigenvalues    EBANDS =      -412.40501003
  atomic energy  EATOM  =      2902.77641490
  Solvation  Ediel_sol  =         0.00000000
  ---------------------------------------------------
  free energy    TOTEN  =       -80.55676792 eV

  energy without entropy =      -80.55676792  energy(sigma->0) =      -80.55676792


--------------------------------------------------------------------------------------------------------




----------------------------------------- Iteration    1(   6)  ---------------------------------------


    POTLOK:  cpu time    0.0660: real time    0.0669
    SETDIJ:  cpu time    0.0130: real time    0.0125
    EDDIAG:  cpu time    0.3359: real time    0.3361
  RMM-DIIS:  cpu time    1.3778: real time    1.3772
    ORTHCH:  cpu time    0.0360: real time    0.0363
 BZINTS: Fermi energy:  0.648277; 48.000000 electrons
         Band energy:-300.816026;  BLOECHL correction:  0.000000
       DOS:  cpu time    0.0010: real time    0.0010
    CHARGE:  cpu time    0.1290: real time    0.1285
    MIXING:  cpu time    0.0020: real time    0.0021
    --------------------------------------------
      LOOP:  cpu time    1.9617: real time    1.9660

 eigenvalue-minimisations  :  1487
 total energy-change (2. order) : 0.9398642E+01  (-0.4010487E+01)
 number of electron      48.0000126 magnetization 
 augmentation part        3.6522839 magnetization 

 Broyden mixing:
  rms(total) = 0.51568E+00    rms(broyden)= 0.51482E+00
  rms(prec ) = 0.82999E+00
  weight for this iteration     100.00

 eigenvalues of (default mixing * dielectric matrix)
  average eigenvalue GAMMA=   1.0106
  1.0106

 Free energy of the ion-electron system (eV)
  ---------------------------------------------------
  alpha Z        PSCENC =        69.72802778
  Ewald energy   TEWEN  =     -1887.20590689
  -Hartree energ DENC   =     -1044.47039209
  -exchange      EXHF   =         0.00000000
  -V(xc)+E(xc)   XCENC  =       149.21973257
  PAW double counting   =      1891.58225376    -1851.97223074
  entropy T*S    EENTRO =         0.00000000
  eigenvalues    EBANDS =      -300.81602563
  atomic energy  EATOM  =      2902.77641490
  Solvation  Ediel_sol  =         0.00000000
  ---------------------------------------------------
  free energy    TOTEN  =       -71.15812635 eV

  energy without entropy =      -71.15812635  energy(sigma->0) =      -71.15812635


--------------------------------------------------------------------------------------------------------




----------------------------------------- Iteration    1(   7)  ---------------------------------------


    POTLOK:  cpu time    0.0670: real time    0.0671
    SETDIJ:  cpu time    0.0120: real time    0.0125
    EDDIAG:  cpu time    0.3359: real time    0.3357
  RMM-DIIS:  cpu time    1.4788: real time    1.4781
    ORTHCH:  cpu time    0.0370: real time    0.0364
 BZINTS: Fermi energy:  1.019561; 48.000000 electrons
         Band energy:-283.555010;  BLOECHL correction:  0.000000
       DOS:  cpu time    0.0010: real time    0.0010
    CHARGE:  cpu time    0.1280: real time    0.1285
    MIXING:  cpu time    0.0020: real time    0.0022
    --------------------------------------------
      LOOP:  cpu time    2.0627: real time    2.0824

 eigenvalue-minimisations  :  1602
 total energy-change (2. order) : 0.2290311E-01  (-0.1771893E+00)
 number of electron      48.0000123 magnetization 
 augmentation part        3.5356936 magnetization 

 Broyden mixing:
  rms(total) = 0.33889E+00    rms(broyden)= 0.33874E+00
  rms(prec ) = 0.48063E+00
  weight for this iteration     100.00

 eigenvalues of (default mixing * dielectric matrix)
  average eigenvalue GAMMA=   1.7555
  1.1684  2.3425

 Free energy of the ion-electron system (eV)
  ---------------------------------------------------
  alpha Z        PSCENC =        69.72802778
  Ewald energy   TEWEN  =     -1887.20590689
  -Hartree energ DENC   =     -1062.74359861
  -exchange      EXHF   =         0.00000000
  -V(xc)+E(xc)   XCENC  =       150.46216286
  PAW double counting   =      1992.15942723    -1952.75674005
  entropy T*S    EENTRO =         0.00000000
  eigenvalues    EBANDS =      -283.55501046
  atomic energy  EATOM  =      2902.77641490
  Solvation  Ediel_sol  =         0.00000000
  ---------------------------------------------------
  free energy    TOTEN  =       -71.13522324 eV

  energy without entropy =      -71.13522324  energy(sigma->0) =      -71.13522324


--------------------------------------------------------------------------------------------------------




----------------------------------------- Iteration    1(   8)  ---------------------------------------


    POTLOK:  cpu time    0.0670: real time    0.0672
    SETDIJ:  cpu time    0.0120: real time    0.0125
    EDDIAG:  cpu time    0.3359: real time    0.3356
  RMM-DIIS:  cpu time    1.4508: real time    1.4498
    ORTHCH:  cpu time    0.0360: real time    0.0364
 BZINTS: Fermi energy:  0.966175; 48.000000 electrons
         Band energy:-281.013354;  BLOECHL correction:  0.000000
       DOS:  cpu time    0.0010: real time    0.0008
    CHARGE:  cpu time    0.1290: real time    0.1287
    MIXING:  cpu time    0.0020: real time    0.0024
    --------------------------------------------
      LOOP:  cpu time    2.0347: real time    2.0389

 eigenvalue-minimisations  :  1565
 total energy-change (2. order) :-0.1549191E-01  (-0.2660263E-01)
 number of electron      48.0000124 magnetization 
 augmentation part        3.5749759 magnetization 

 Broyden mixing:
  rms(total) = 0.62833E-01    rms(broyden)= 0.62829E-01
  rms(prec ) = 0.11808E+00
  weight for this iteration     100.00

 eigenvalues of (default mixing * dielectric matrix)
  average eigenvalue GAMMA=   1.5748
  2.5569  1.0837  1.0837

 Free energy of the ion-electron system (eV)
  ---------------------------------------------------
  alpha Z        PSCENC =        69.72802778
  Ewald energy   TEWEN  =     -1887.20590689
  -Hartree energ DENC   =     -1065.69040254
  -exchange      EXHF   =         0.00000000
  -V(xc)+E(xc)   XCENC  =       150.74980624
  PAW double counting   =      2069.23069776    -2029.72599860
  entropy T*S    EENTRO =         0.00000000
  eigenvalues    EBANDS =      -281.01335380
  atomic energy  EATOM  =      2902.77641490
  Solvation  Ediel_sol  =         0.00000000
  ---------------------------------------------------
  free energy    TOTEN  =       -71.15071515 eV

  energy without entropy =      -71.15071515  energy(sigma->0) =      -71.15071515


--------------------------------------------------------------------------------------------------------




----------------------------------------- Iteration    1(   9)  ---------------------------------------


    POTLOK:  cpu time    0.0670: real time    0.0671
    SETDIJ:  cpu time    0.0130: real time    0.0125
    EDDIAG:  cpu time    0.3349: real time    0.3353
  RMM-DIIS:  cpu time    1.5108: real time    1.5106
    ORTHCH:  cpu time    0.0360: real time    0.0364
 BZINTS: Fermi energy:  1.106211; 48.000000 electrons
         Band energy:-276.317437;  BLOECHL correction:  0.000000
       DOS:  cpu time    0.0000: real time    0.0010
    CHARGE:  cpu time    0.1290: real time    0.1289
    MIXING:  cpu time    0.0030: real time    0.0024
    --------------------------------------------
      LOOP:  cpu time    2.0957: real time    2.1154

 eigenvalue-minimisations  :  1631
 total energy-change (2. order) : 0.7944596E-02  (-0.5087335E-02)
 number of electron      48.0000123 magnetization 
 augmentation part        3.5519797 magnetization 

 Broyden mixing:
  rms(total) = 0.13550E-01    rms(broyden)= 0.13509E-01
  rms(prec ) = 0.21030E-01
  weight for this iteration     100.00

 eigenvalues of (default mixing * dielectric matrix)
  average eigenvalue GAMMA=   1.8858
  2.9672  2.4893  1.0434  1.0434

 Free energy of the ion-electron system (eV)
  ---------------------------------------------------
  alpha Z        PSCENC =        69.72802778
  Ewald energy   TEWEN  =     -1887.20590689
  -Hartree energ DENC   =     -1070.64580001
  -exchange      EXHF   =         0.00000000
  -V(xc)+E(xc)   XCENC  =       151.09145292
  PAW double counting   =      2082.20762636    -2042.77714912
  entropy T*S    EENTRO =         0.00000000
  eigenvalues    EBANDS =      -276.31743650
  atomic energy  EATOM  =      2902.77641490
  Solvation  Ediel_sol  =         0.00000000
  ---------------------------------------------------
  free energy    TOTEN  =       -71.14277056 eV

  energy without entropy =      -71.14277056  energy(sigma->0) =      -71.14277056


--------------------------------------------------------------------------------------------------------




----------------------------------------- Iteration    1(  10)  ---------------------------------------


    POTLOK:  cpu time    0.0670: real time    0.0671
    SETDIJ:  cpu time    0.0120: real time    0.0124
    EDDIAG:  cpu time    0.3359: real time    0.3354
  RMM-DIIS:  cpu time    1.4828: real time    1.4823
    ORTHCH:  cpu time    0.0360: real time    0.0364
 BZINTS: Fermi energy:  1.129820; 48.000000 electrons
         Band energy:-274.854560;  BLOECHL correction:  0.000000
       DOS:  cpu time    0.0010: real time    0.0010
    CHARGE:  cpu time    0.1290: real time    0.1285
    MIXING:  cpu time    0.0020: real time    0.0025
    --------------------------------------------
      LOOP:  cpu time    2.0667: real time    2.0717

 eigenvalue-minimisations  :  1606
 total energy-change (2. order) :-0.3406071E-02  (-0.2008019E-02)
 number of electron      48.0000123 magnetization 
 augmentation part        3.5380210 magnetization 

 Broyden mixing:
  rms(total) = 0.24735E-01    rms(broyden)= 0.24722E-01
  rms(prec ) = 0.42253E-01
  weight for this iteration     100.00

 eigenvalues of (default mixing * dielectric matrix)
  average eigenvalue GAMMA=   1.6710
  2.7768  2.4743  1.0629  1.0629  0.9781

 Free energy of the ion-electron system (eV)
  ---------------------------------------------------
  alpha Z        PSCENC =        69.72802778
  Ewald energy   TEWEN  =     -1887.20590689
  -Hartree energ DENC   =     -1072.19524538
  -exchange      EXHF   =         0.00000000
  -V(xc)+E(xc)   XCENC  =       151.19285265
  PAW double counting   =      2077.49394675    -2038.08170634
  entropy T*S    EENTRO =         0.00000000
  eigenvalues    EBANDS =      -274.85456010
  atomic energy  EATOM  =      2902.77641490
  Solvation  Ediel_sol  =         0.00000000
  ---------------------------------------------------
  free energy    TOTEN  =       -71.14617663 eV

  energy without entropy =      -71.14617663  energy(sigma->0) =      -71.14617663


--------------------------------------------------------------------------------------------------------




----------------------------------------- Iteration    1(  11)  ---------------------------------------


    POTLOK:  cpu time    0.0670: real time    0.0675
    SETDIJ:  cpu time    0.0130: real time    0.0125
    EDDIAG:  cpu time    0.3359: real time    0.3361
  RMM-DIIS:  cpu time    1.5018: real time    1.5023
    ORTHCH:  cpu time    0.0370: real time    0.0364
 BZINTS: Fermi energy:  1.107872; 48.000000 electrons
         Band energy:-275.911744;  BLOECHL correction:  0.000000
       DOS:  cpu time    0.0010: real time    0.0010
    CHARGE:  cpu time    0.1290: real time    0.1297
    MIXING:  cpu time    0.0030: real time    0.0027
    --------------------------------------------
      LOOP:  cpu time    2.0897: real time    2.1075

 eigenvalue-minimisations  :  1627
 total energy-change (2. order) : 0.1540564E-02  (-0.3166519E-03)
 number of electron      48.0000123 magnetization 
 augmentation part        3.5440028 magnetization 

 Broyden mixing:
  rms(total) = 0.73155E-02    rms(broyden)= 0.73138E-02
  rms(prec ) = 0.12838E-01
  weight for this iteration     100.00

 eigenvalues of (default mixing * dielectric matrix)
  average eigenvalue GAMMA=   1.7039
  2.9523  2.4715  1.4574  0.9459  1.1981  1.1981

 Free energy of the ion-electron system (eV)
  ---------------------------------------------------
  alpha Z        PSCENC =        69.72802778
  Ewald energy   TEWEN  =     -1887.20590689
  -Hartree energ DENC   =     -1071.08167271
  -exchange      EXHF   =         0.00000000
  -V(xc)+E(xc)   XCENC  =       151.11743984
  PAW double counting   =      2075.16952280    -2035.73671827
  entropy T*S    EENTRO =         0.00000000
  eigenvalues    EBANDS =      -275.91174352
  atomic energy  EATOM  =      2902.77641490
  Solvation  Ediel_sol  =         0.00000000
  ---------------------------------------------------
  free energy    TOTEN  =       -71.14463606 eV

  energy without entropy =      -71.14463606  energy(sigma->0) =      -71.14463606


--------------------------------------------------------------------------------------------------------




----------------------------------------- Iteration    1(  12)  ---------------------------------------


    POTLOK:  cpu time    0.0660: real time    0.0673
    SETDIJ:  cpu time    0.0130: real time    0.0125
    EDDIAG:  cpu time    0.3359: real time    0.3357
  RMM-DIIS:  cpu time    1.4778: real time    1.4773
    ORTHCH:  cpu time    0.0360: real time    0.0362
 BZINTS: Fermi energy:  1.100882; 48.000000 electrons
         Band energy:-276.260959;  BLOECHL correction:  0.000000
       DOS:  cpu time    0.0010: real time    0.0010
    CHARGE:  cpu time    0.1290: real time    0.1293
    MIXING:  cpu time    0.0030: real time    0.0028
    --------------------------------------------
      LOOP:  cpu time    2.0637: real time    2.0673

 eigenvalue-minimisations  :  1624
 total energy-change (2. order) : 0.7333969E-04  (-0.1022277E-03)
 number of electron      48.0000123 magnetization 
 augmentation part        3.5475935 magnetization 

 Broyden mixing:
  rms(total) = 0.60263E-03    rms(broyden)= 0.57356E-03
  rms(prec ) = 0.86792E-03
  weight for this iteration     100.00

 eigenvalues of (default mixing * dielectric matrix)
  average eigenvalue GAMMA=   1.6922
  2.8822  2.2760  2.2760  1.0182  1.0644  1.1642  1.1642

 Free energy of the ion-electron system (eV)
  ---------------------------------------------------
  alpha Z        PSCENC =        69.72802778
  Ewald energy   TEWEN  =     -1887.20590689
  -Hartree energ DENC   =     -1070.71226786
  -exchange      EXHF   =         0.00000000
  -V(xc)+E(xc)   XCENC  =       151.09077624
  PAW double counting   =      2074.32980480    -2034.89045279
  entropy T*S    EENTRO =         0.00000000
  eigenvalues    EBANDS =      -276.26095890
  atomic energy  EATOM  =      2902.77641490
  Solvation  Ediel_sol  =         0.00000000
  ---------------------------------------------------
  free energy    TOTEN  =       -71.14456272 eV

  energy without entropy =      -71.14456272  energy(sigma->0) =      -71.14456272


--------------------------------------------------------------------------------------------------------




----------------------------------------- Iteration    1(  13)  ---------------------------------------


    POTLOK:  cpu time    0.0660: real time    0.0673
    SETDIJ:  cpu time    0.0120: real time    0.0125
    EDDIAG:  cpu time    0.3359: real time    0.3354
  RMM-DIIS:  cpu time    1.1768: real time    1.1776
    ORTHCH:  cpu time    0.0370: real time    0.0363
 BZINTS: Fermi energy:  1.100535; 48.000000 electrons
         Band energy:-276.227127;  BLOECHL correction:  0.000000
       DOS:  cpu time    0.0000: real time    0.0009
    --------------------------------------------
      LOOP:  cpu time    1.6298: real time    1.6535

 eigenvalue-minimisations  :  1222
 total energy-change (2. order) :-0.3899376E-05  (-0.3075111E-05)
 number of electron      48.0000123 magnetization 
 augmentation part        3.5475935 magnetization 

 Free energy of the ion-electron system (eV)
  ---------------------------------------------------
  alpha Z        PSCENC =        69.72802778
  Ewald energy   TEWEN  =     -1887.20590689
  -Hartree energ DENC   =     -1070.74746287
  -exchange      EXHF   =         0.00000000
  -V(xc)+E(xc)   XCENC  =       151.09288488
  PAW double counting   =      2074.50889664    -2035.07029415
  entropy T*S    EENTRO =         0.00000000
  eigenvalues    EBANDS =      -276.22712692
  atomic energy  EATOM  =      2902.77641490
  Solvation  Ediel_sol  =         0.00000000
  ---------------------------------------------------
  free energy    TOTEN  =       -71.14456662 eV

  energy without entropy =      -71.14456662  energy(sigma->0) =      -71.14456662


--------------------------------------------------------------------------------------------------------




 average (electrostatic) potential at core
  the test charge radii are     0.9892  0.7215
  (the norm of the test charge is              1.0000)
       1 -86.3875       2 -86.3875       3 -86.3873       4 -72.4544       5 -72.4534
       6 -72.4546       7 -72.4534       8 -72.4544       9 -72.4546
 
 
 
 E-fermi :   1.1005     XC(G=0):  -9.2039     alpha+bet :-10.3421


 k-point     1 :       0.0000    0.0000    0.0000
  band No.  band energies     occupation 
      1     -18.3770      2.00000
      2     -16.8411      2.00000
      3     -16.8407      2.00000
      4     -16.2067      2.00000
      5     -16.1591      2.00000
      6     -16.1586      2.00000
      7      -7.1839      2.00000
      8      -7.1835      2.00000
      9      -4.3430      2.00000
     10      -4.3373      2.00000
     11      -4.1844      2.00000
     12      -4.1843      2.00000
     13      -1.8638      2.00000
     14      -1.8635      2.00000
     15      -1.6258      2.00000
     16      -1.3657      2.00000
     17      -0.4149      2.00000
     18      -0.4137      2.00000
     19      -0.3969      2.00000
     20       0.1081      2.00000
     21       0.1083      2.00000
     22       0.4174      2.00000
     23       0.7582      2.00000
     24       0.7583      2.00000
     25       7.1147      0.00000
     26      10.4021      0.00000
     27      10.4025      0.00000
     28      10.9043      0.00000
     29      10.9047      0.00000

 k-point     2 :       0.2500    0.0000    0.0000
  band No.  band energies     occupation 
      1     -18.2000      2.00000
      2     -17.0506      2.00000
      3     -16.8173      2.00000
      4     -16.2414      2.00000
      5     -16.1922      2.00000
      6     -16.1753      2.00000
      7      -7.2581      2.00000
      8      -6.8050      2.00000
      9      -4.4845      2.00000
     10      -4.3924      2.00000
     11      -4.3018      2.00000
     12      -3.8767      2.00000
     13      -2.0521      2.00000
     14      -1.7399      2.00000
     15      -1.5793      2.00000
     16      -1.1031      2.00000
     17      -0.9482      2.00000
     18      -0.5112      2.00000
     19      -0.4369      2.00000
     20       0.0071      2.00000
     21       0.0819      2.00000
     22       0.2624      2.00000
     23       0.8454      2.00000
     24       0.9300      2.00000
     25       7.9973      0.00000
     26      10.4180      0.00000
     27      10.4861      0.00000
     28      11.0135      0.00000
     29      11.2040      0.00000

 k-point     3 :       0.5000    0.0000    0.0000
  band No.  band energies     occupation 
      1     -17.8890      2.00000
      2     -17.4098      2.00000
      3     -16.7904      2.00000
      4     -16.2570      2.00000
      5     -16.2178      2.00000
      6     -16.1976      2.00000
      7      -7.3277      2.00000
      8      -6.3209      2.00000
      9      -4.8289      2.00000
     10      -4.3687      2.00000
     11      -4.3378      2.00000
     12      -3.5574      2.00000
     13      -2.0006      2.00000
     14      -1.8350      2.00000
     15      -1.6032      2.00000
     16      -1.2216      2.00000
     17      -1.0151      2.00000
     18      -0.6697      2.00000
     19      -0.6032      2.00000
     20      -0.0116      2.00000
     21       0.0532      2.00000
     22       0.2934      2.00000
     23       0.8310      2.00000
     24       1.0540      2.00000
     25       9.3758      0.00000
     26      10.1159      0.00000
     27      10.8452      0.00000
     28      10.8488      0.00000
     29      11.6693      0.00000

 k-point     4 :       0.2500    0.2500    0.0000
  band No.  band energies     occupation 
      1     -17.8979      2.00000
      2     -17.3840      2.00000
      3     -16.8175      2.00000
      4     -16.2530      2.00000
      5     -16.2170      2.00000
      6     -16.1934      2.00000
      7      -7.3582      2.00000
      8      -6.1838      2.00000
      9      -5.1120      2.00000
     10      -4.3241      2.00000
     11      -4.2095      2.00000
     12      -3.5669      2.00000
     13      -1.9747      2.00000
     14      -1.8087      2.00000
     15      -1.6572      2.00000
     16      -1.1214      2.00000
     17      -1.0464      2.00000
     18      -0.7252      2.00000
     19      -0.4244      2.00000
     20      -0.2850      2.00000
     21       0.0173      2.00000
     22       0.4500      2.00000
     23       0.7837      2.00000
     24       1.0685      2.00000
     25       9.2335      0.00000
     26      10.5347      0.00000
     27      10.5601      0.00000
     28      11.2907      0.00000
     29      11.3129      0.00000

 k-point     5 :       0.5000    0.2500    0.0000
  band No.  band energies     occupation 
      1     -17.8977      2.00000
      2     -17.3841      2.00000
      3     -16.8177      2.00000
      4     -16.2530      2.00000
      5     -16.2169      2.00000
      6     -16.1932      2.00000
      7      -7.3581      2.00000
      8      -6.1840      2.00000
      9      -5.1118      2.00000
     10      -4.3240      2.00000
     11      -4.2096      2.00000
     12      -3.5670      2.00000
     13      -1.9747      2.00000
     14      -1.8087      2.00000
     15      -1.6576      2.00000
     16      -1.1211      2.00000
     17      -1.0465      2.00000
     18      -0.7249      2.00000
     19      -0.4247      2.00000
     20      -0.2846      2.00000
     21       0.0172      2.00000
     22       0.4496      2.00000
     23       0.7841      2.00000
     24       1.0685      2.00000
     25       9.2333      0.00000
     26      10.5351      0.00000
     27      10.5605      0.00000
     28      11.2945      0.00000
     29      11.3196      0.00000

 k-point     6 :      -0.2500    0.2500    0.0000
  band No.  band energies     occupation 
      1     -18.1999      2.00000
      2     -17.0505      2.00000
      3     -16.8177      2.00000
      4     -16.2416      2.00000
      5     -16.1920      2.00000
      6     -16.1751      2.00000
      7      -7.2579      2.00000
      8      -6.8053      2.00000
      9      -4.4846      2.00000
     10      -4.3922      2.00000
     11      -4.3017      2.00000
     12      -3.8769      2.00000
     13      -2.0522      2.00000
     14      -1.7397      2.00000
     15      -1.5792      2.00000
     16      -1.1033      2.00000
     17      -0.9489      2.00000
     18      -0.5107      2.00000
     19      -0.4367      2.00000
     20       0.0072      2.00000
     21       0.0819      2.00000
     22       0.2620      2.00000
     23       0.8454      2.00000
     24       0.9302      2.00000
     25       7.9971      0.00000
     26      10.4181      0.00000
     27      10.4861      0.00000
     28      11.0130      0.00000
     29      11.2043      0.00000

 k-point     7 :       0.5000    0.5000    0.0000
  band No.  band energies     occupation 
      1     -17.8887      2.00000
      2     -17.4101      2.00000
      3     -16.7908      2.00000
      4     -16.2571      2.00000
      5     -16.2180      2.00000
      6     -16.1968      2.00000
      7      -7.3276      2.00000
      8      -6.3211      2.00000
      9      -4.8291      2.00000
     10      -4.3682      2.00000
     11      -4.3379      2.00000
     12      -3.5576      2.00000
     13      -2.0005      2.00000
     14      -1.8356      2.00000
     15      -1.6033      2.00000
     16      -1.2215      2.00000
     17      -1.0151      2.00000
     18      -0.6696      2.00000
     19      -0.6030      2.00000
     20      -0.0116      2.00000
     21       0.0533      2.00000
     22       0.2929      2.00000
     23       0.8311      2.00000
     24       1.0544      2.00000
     25       9.3758      0.00000
     26      10.1152      0.00000
     27      10.8452      0.00000
     28      10.8474      0.00000
     29      11.6375      0.00000

 k-point     8 :       0.0000    0.0000    0.2500
  band No.  band energies     occupation 
      1     -18.2555      2.00000
      2     -17.4014      2.00000
      3     -16.3821      2.00000
      4     -16.2034      2.00000
      5     -16.1783      2.00000
      6     -16.1419      2.00000
      7      -7.9835      2.00000
      8      -6.1449      2.00000
      9      -4.5743      2.00000
     10      -4.4674      2.00000
     11      -4.4118      2.00000
     12      -3.8066      2.00000
     13      -1.9313      2.00000
     14      -1.6292      2.00000
     15      -1.5408      2.00000
     16      -1.1757      2.00000
     17      -0.7026      2.00000
     18      -0.5221      2.00000
     19      -0.4381      2.00000
     20      -0.4016      2.00000
     21       0.0225      2.00000
     22       0.5704      2.00000
     23       0.8595      2.00000
     24       0.9978      2.00000
     25       7.7149      0.00000
     26      10.2706      0.00000
     27      10.3623      0.00000
     28      10.3676      0.00000
     29      11.3545      0.00000

 k-point     9 :       0.2500    0.0000    0.2500
  band No.  band energies     occupation 
      1     -18.0950      2.00000
      2     -17.3829      2.00000
      3     -16.5840      2.00000
      4     -16.2328      2.00000
      5     -16.2123      2.00000
      6     -16.1646      2.00000
      7      -7.6475      2.00000
      8      -6.2063      2.00000
      9      -4.8897      2.00000
     10      -4.3684      2.00000
     11      -4.0909      2.00000
     12      -3.9078      2.00000
     13      -2.1110      2.00000
     14      -1.6381      2.00000
     15      -1.5029      2.00000
     16      -1.1928      2.00000
     17      -0.9125      2.00000
     18      -0.5461      2.00000
     19      -0.4282      2.00000
     20      -0.1964      2.00000
     21       0.1736      2.00000
     22       0.3575      2.00000
     23       0.7693      2.00000
     24       0.9837      2.00000
     25       8.4670      0.00000
     26      10.2551      0.00000
     27      10.5452      0.00000
     28      10.7346      0.00000
     29      11.4601      0.00000

 k-point    10 :       0.5000    0.0000    0.2500
  band No.  band energies     occupation 
      1     -17.8555      2.00000
      2     -17.3933      2.00000
      3     -16.8582      2.00000
      4     -16.2623      2.00000
      5     -16.2192      2.00000
      6     -16.1860      2.00000
      7      -7.2580      2.00000
      8      -6.2639      2.00000
      9      -5.1272      2.00000
     10      -4.3541      2.00000
     11      -4.0453      2.00000
     12      -3.7396      2.00000
     13      -2.0738      2.00000
     14      -1.9941      2.00000
     15      -1.4388      2.00000
     16      -1.2421      2.00000
     17      -0.8646      2.00000
     18      -0.6825      2.00000
     19      -0.3680      2.00000
     20      -0.0811      2.00000
     21       0.1283      2.00000
     22       0.3622      2.00000
     23       0.6542      2.00000
     24       0.9680      2.00000
     25       9.6722      0.00000
     26      10.2168      0.00000
     27      10.6902      0.00000
     28      11.1949      0.00000
     29      11.6335      0.00000

 k-point    11 :      -0.2500   -0.0000    0.2500
  band No.  band energies     occupation 
      1     -18.0974      2.00000
      2     -17.3718      2.00000
      3     -16.6098      2.00000
      4     -16.2275      2.00000
      5     -16.1912      2.00000
      6     -16.1734      2.00000
      7      -7.6499      2.00000
      8      -6.2078      2.00000
      9      -4.8912      2.00000
     10      -4.3880      2.00000
     11      -4.1092      2.00000
     12      -3.8436      2.00000
     13      -2.0701      2.00000
     14      -1.5935      2.00000
     15      -1.5610      2.00000
     16      -1.3209      2.00000
     17      -0.9627      2.00000
     18      -0.4267      2.00000
     19      -0.3664      2.00000
     20      -0.2169      2.00000
     21       0.2244      2.00000
     22       0.2804      2.00000
     23       0.6859      2.00000
     24       1.0631      2.00000
     25       8.4344      0.00000
     26      10.3609      0.00000
     27      10.6306      0.00000
     28      10.8212      0.00000
     29      11.4074      0.00000

 k-point    12 :       0.2500    0.2500    0.2500
  band No.  band energies     occupation 
      1     -17.8570      2.00000
      2     -17.3940      2.00000
      3     -16.8512      2.00000
      4     -16.2559      2.00000
      5     -16.2327      2.00000
      6     -16.1846      2.00000
      7      -7.2699      2.00000
      8      -6.1618      2.00000
      9      -5.2929      2.00000
     10      -4.3106      2.00000
     11      -4.0218      2.00000
     12      -3.7542      2.00000
     13      -2.1096      2.00000
     14      -1.8273      2.00000
     15      -1.6045      2.00000
     16      -1.1353      2.00000
     17      -0.8979      2.00000
     18      -0.6868      2.00000
     19      -0.3223      2.00000
     20      -0.1268      2.00000
     21       0.1039      2.00000
     22       0.4062      2.00000
     23       0.6482      2.00000
     24       0.9375      2.00000
     25       9.5140      0.00000
     26      10.4534      0.00000
     27      10.8170      0.00000
     28      11.1913      0.00000
     29      11.3499      0.00000

 k-point    13 :       0.5000    0.2500    0.2500
  band No.  band energies     occupation 
      1     -17.8568      2.00000
      2     -17.3942      2.00000
      3     -16.8514      2.00000
      4     -16.2560      2.00000
      5     -16.2326      2.00000
      6     -16.1844      2.00000
      7      -7.2697      2.00000
      8      -6.1620      2.00000
      9      -5.2928      2.00000
     10      -4.3105      2.00000
     11      -4.0219      2.00000
     12      -3.7542      2.00000
     13      -2.1096      2.00000
     14      -1.8277      2.00000
     15      -1.6042      2.00000
     16      -1.1352      2.00000
     17      -0.8982      2.00000
     18      -0.6868      2.00000
     19      -0.3218      2.00000
     20      -0.1274      2.00000
     21       0.1037      2.00000
     22       0.4060      2.00000
     23       0.6487      2.00000
     24       0.9375      2.00000
     25       9.5137      0.00000
     26      10.4537      0.00000
     27      10.8160      0.00000
     28      11.1925      0.00000
     29      11.3457      0.00000

 k-point    14 :      -0.2500    0.2500    0.2500
  band No.  band energies     occupation 
      1     -18.0949      2.00000
      2     -17.3829      2.00000
      3     -16.5844      2.00000
      4     -16.2328      2.00000
      5     -16.2124      2.00000
      6     -16.1641      2.00000
      7      -7.6474      2.00000
      8      -6.2065      2.00000
      9      -4.8897      2.00000
     10      -4.3680      2.00000
     11      -4.0912      2.00000
     12      -3.9078      2.00000
     13      -2.1111      2.00000
     14      -1.6379      2.00000
     15      -1.5030      2.00000
     16      -1.1928      2.00000
     17      -0.9125      2.00000
     18      -0.5458      2.00000
     19      -0.4283      2.00000
     20      -0.1968      2.00000
     21       0.1736      2.00000
     22       0.3571      2.00000
     23       0.7695      2.00000
     24       0.9839      2.00000
     25       8.4669      0.00000
     26      10.2551      0.00000
     27      10.5447      0.00000
     28      10.7245      0.00000
     29      11.4740      0.00000

 k-point    15 :       0.2500    0.5000    0.2500
  band No.  band energies     occupation 
      1     -17.8568      2.00000
      2     -17.3942      2.00000
      3     -16.8513      2.00000
      4     -16.2558      2.00000
      5     -16.2327      2.00000
      6     -16.1845      2.00000
      7      -7.2697      2.00000
      8      -6.1619      2.00000
      9      -5.2929      2.00000
     10      -4.3105      2.00000
     11      -4.0219      2.00000
     12      -3.7542      2.00000
     13      -2.1096      2.00000
     14      -1.8277      2.00000
     15      -1.6043      2.00000
     16      -1.1350      2.00000
     17      -0.8980      2.00000
     18      -0.6870      2.00000
     19      -0.3219      2.00000
     20      -0.1273      2.00000
     21       0.1040      2.00000
     22       0.4061      2.00000
     23       0.6483      2.00000
     24       0.9375      2.00000
     25       9.5138      0.00000
     26      10.4536      0.00000
     27      10.8164      0.00000
     28      11.1900      0.00000
     29      11.3477      0.00000

 k-point    16 :       0.5000    0.5000    0.2500
  band No.  band energies     occupation 
      1     -17.8552      2.00000
      2     -17.3936      2.00000
      3     -16.8585      2.00000
      4     -16.2624      2.00000
      5     -16.2193      2.00000
      6     -16.1853      2.00000
      7      -7.2578      2.00000
      8      -6.2642      2.00000
      9      -5.1276      2.00000
     10      -4.3536      2.00000
     11      -4.0453      2.00000
     12      -3.7398      2.00000
     13      -2.0739      2.00000
     14      -1.9943      2.00000
     15      -1.4388      2.00000
     16      -1.2419      2.00000
     17      -0.8645      2.00000
     18      -0.6827      2.00000
     19      -0.3681      2.00000
     20      -0.0811      2.00000
     21       0.1282      2.00000
     22       0.3618      2.00000
     23       0.6543      2.00000
     24       0.9684      2.00000
     25       9.6722      0.00000
     26      10.2163      0.00000
     27      10.6900      0.00000
     28      11.1942      0.00000
     29      11.6507      0.00000

 k-point    17 :       0.2500   -0.2500    0.2500
  band No.  band energies     occupation 
      1     -18.0973      2.00000
      2     -17.3719      2.00000
      3     -16.6100      2.00000
      4     -16.2277      2.00000
      5     -16.1909      2.00000
      6     -16.1733      2.00000
      7      -7.6498      2.00000
      8      -6.2078      2.00000
      9      -4.8915      2.00000
     10      -4.3878      2.00000
     11      -4.1091      2.00000
     12      -3.8438      2.00000
     13      -2.0703      2.00000
     14      -1.5936      2.00000
     15      -1.5609      2.00000
     16      -1.3209      2.00000
     17      -0.9627      2.00000
     18      -0.4263      2.00000
     19      -0.3668      2.00000
     20      -0.2168      2.00000
     21       0.2242      2.00000
     22       0.2807      2.00000
     23       0.6857      2.00000
     24       1.0632      2.00000
     25       8.4343      0.00000
     26      10.3611      0.00000
     27      10.6305      0.00000
     28      10.8200      0.00000
     29      11.3818      0.00000

 k-point    18 :       0.0000    0.0000    0.5000
  band No.  band energies     occupation 
      1     -17.9107      2.00000
      2     -17.9102      2.00000
      3     -16.1999      2.00000
      4     -16.1947      2.00000
      5     -16.1942      2.00000
      6     -16.1354      2.00000
      7      -8.2866      2.00000
      8      -5.1851      2.00000
      9      -5.1847      2.00000
     10      -4.5439      2.00000
     11      -4.5433      2.00000
     12      -3.6046      2.00000
     13      -1.6385      2.00000
     14      -1.6383      2.00000
     15      -1.5518      2.00000
     16      -0.9271      2.00000
     17      -0.9268      2.00000
     18      -0.7564      2.00000
     19      -0.7561      2.00000
     20      -0.4695      2.00000
     21      -0.1200      2.00000
     22       0.8863      2.00000
     23       0.8871      2.00000
     24       1.0007      2.00000
     25       9.0758      0.00000
     26       9.0761      0.00000
     27      10.1612      0.00000
     28      10.8473      0.00000
     29      10.8487      0.00000

 k-point    19 :       0.2500    0.0000    0.5000
  band No.  band energies     occupation 
      1     -17.8655      2.00000
      2     -17.7227      2.00000
      3     -16.4828      2.00000
      4     -16.2425      2.00000
      5     -16.1909      2.00000
      6     -16.1635      2.00000
      7      -7.8476      2.00000
      8      -5.6166      2.00000
      9      -5.2792      2.00000
     10      -4.3678      2.00000
     11      -4.2482      2.00000
     12      -3.7180      2.00000
     13      -1.9376      2.00000
     14      -1.9212      2.00000
     15      -1.3884      2.00000
     16      -1.1614      2.00000
     17      -1.0123      2.00000
     18      -0.5086      2.00000
     19      -0.3962      2.00000
     20      -0.2240      2.00000
     21       0.0029      2.00000
     22       0.6465      2.00000
     23       0.6822      2.00000
     24       0.9408      2.00000
     25       9.4750      0.00000
     26       9.6046      0.00000
     27      10.4911      0.00000
     28      10.8442      0.00000
     29      11.1847      0.00000

 k-point    20 :       0.5000    0.0000    0.5000
  band No.  band energies     occupation 
      1     -17.8184      2.00000
      2     -17.3760      2.00000
      3     -16.9258      2.00000
      4     -16.2833      2.00000
      5     -16.2009      2.00000
      6     -16.1827      2.00000
      7      -7.1822      2.00000
      8      -6.2048      2.00000
      9      -5.3277      2.00000
     10      -4.2641      2.00000
     11      -3.9842      2.00000
     12      -3.8711      2.00000
     13      -2.1290      2.00000
     14      -2.1131      2.00000
     15      -1.3528      2.00000
     16      -1.0309      2.00000
     17      -1.0241      2.00000
     18      -0.4795      2.00000
     19      -0.1811      2.00000
     20      -0.0702      2.00000
     21       0.2007      2.00000
     22       0.2647      2.00000
     23       0.4880      2.00000
     24       0.8903      2.00000
     25      10.0750      0.00000
     26      10.5209      0.00000
     27      10.7854      0.00000
     28      10.9332      0.00000
     29      11.3563      0.00000

 k-point    21 :       0.2500    0.2500    0.5000
  band No.  band energies     occupation 
      1     -17.8089      2.00000
      2     -17.4131      2.00000
      3     -16.8819      2.00000
      4     -16.2781      2.00000
      5     -16.2040      2.00000
      6     -16.2029      2.00000
      7      -7.1686      2.00000
      8      -6.1551      2.00000
      9      -5.4367      2.00000
     10      -4.1621      2.00000
     11      -4.0719      2.00000
     12      -3.8697      2.00000
     13      -2.1658      2.00000
     14      -1.9460      2.00000
     15      -1.4899      2.00000
     16      -1.0999      2.00000
     17      -0.8833      2.00000
     18      -0.6431      2.00000
     19      -0.0760      2.00000
     20       0.0378      2.00000
     21       0.1459      2.00000
     22       0.3739      2.00000
     23       0.5398      2.00000
     24       0.6920      2.00000
     25       9.9994      0.00000
     26      10.4483      0.00000
     27      10.7892      0.00000
     28      11.1160      0.00000
     29      11.5801      0.00000

 k-point    22 :       0.5000    0.2500    0.5000
  band No.  band energies     occupation 
      1     -17.8087      2.00000
      2     -17.4132      2.00000
      3     -16.8821      2.00000
      4     -16.2780      2.00000
      5     -16.2039      2.00000
      6     -16.2028      2.00000
      7      -7.1685      2.00000
      8      -6.1553      2.00000
      9      -5.4368      2.00000
     10      -4.1621      2.00000
     11      -4.0718      2.00000
     12      -3.8697      2.00000
     13      -2.1658      2.00000
     14      -1.9464      2.00000
     15      -1.4894      2.00000
     16      -1.0997      2.00000
     17      -0.8836      2.00000
     18      -0.6434      2.00000
     19      -0.0759      2.00000
     20       0.0373      2.00000
     21       0.1463      2.00000
     22       0.3736      2.00000
     23       0.5405      2.00000
     24       0.6918      2.00000
     25       9.9993      0.00000
     26      10.4485      0.00000
     27      10.7889      0.00000
     28      11.1256      0.00000
     29      11.5509      0.00000

 k-point    23 :      -0.2500    0.2500    0.5000
  band No.  band energies     occupation 
      1     -17.8652      2.00000
      2     -17.7230      2.00000
      3     -16.4831      2.00000
      4     -16.2425      2.00000
      5     -16.1909      2.00000
      6     -16.1631      2.00000
      7      -7.8476      2.00000
      8      -5.6165      2.00000
      9      -5.2796      2.00000
     10      -4.3673      2.00000
     11      -4.2485      2.00000
     12      -3.7180      2.00000
     13      -1.9376      2.00000
     14      -1.9214      2.00000
     15      -1.3883      2.00000
     16      -1.1612      2.00000
     17      -1.0122      2.00000
     18      -0.5083      2.00000
     19      -0.3966      2.00000
     20      -0.2244      2.00000
     21       0.0031      2.00000
     22       0.6465      2.00000
     23       0.6818      2.00000
     24       0.9411      2.00000
     25       9.4749      0.00000
     26       9.6046      0.00000
     27      10.4910      0.00000
     28      10.8407      0.00000
     29      11.2096      0.00000

 k-point    24 :       0.5000    0.5000    0.5000
  band No.  band energies     occupation 
      1     -17.8180      2.00000
      2     -17.3764      2.00000
      3     -16.9261      2.00000
      4     -16.2835      2.00000
      5     -16.2010      2.00000
      6     -16.1821      2.00000
      7      -7.1819      2.00000
      8      -6.2050      2.00000
      9      -5.3282      2.00000
     10      -4.2637      2.00000
     11      -3.9844      2.00000
     12      -3.8711      2.00000
     13      -2.1291      2.00000
     14      -2.1133      2.00000
     15      -1.3525      2.00000
     16      -1.0309      2.00000
     17      -1.0238      2.00000
     18      -0.4802      2.00000
     19      -0.1817      2.00000
     20      -0.0703      2.00000
     21       0.2011      2.00000
     22       0.2649      2.00000
     23       0.4875      2.00000
     24       0.8908      2.00000
     25      10.0751      0.00000
     26      10.5206      0.00000
     27      10.7861      0.00000
     28      10.9343      0.00000
     29      11.3599      0.00000


--------------------------------------------------------------------------------------------------------


 soft charge-density along one line, spin component           1
         0         1         2         3         4         5         6         7         8         9
 total charge-density along one line
 
 pseudopotential strength for first ion, spin component:           1
 18.757   0.002   0.000   0.000  -0.000   0.000  -0.000   0.000
  0.002   0.006   0.000  -0.000   0.000  -0.000   0.000  -0.000
  0.000   0.000   4.218   0.001  -0.000  -0.003  -0.000   0.000
  0.000  -0.000   0.001   4.218   0.000  -0.000  -0.003  -0.000
 -0.000   0.000  -0.000   0.000   4.219   0.000  -0.000  -0.003
  0.000  -0.000  -0.003  -0.000   0.000   0.005   0.000  -0.000
 -0.000   0.000  -0.000  -0.003  -0.000   0.000   0.005   0.000
  0.000  -0.000   0.000  -0.000  -0.003  -0.000   0.000   0.005
 total augmentation occupancy for first ion, spin component:           1
  1.166  -1.629  -0.000  -0.000  -0.005   0.000  -0.000   0.025
 -1.629   3.552   0.000  -0.000   0.040  -0.000   0.001  -0.080
 -0.000   0.000   1.030   0.016   0.000  -1.191  -0.026   0.000
 -0.000  -0.000   0.016   1.001   0.000  -0.025  -1.180  -0.001
 -0.005   0.040   0.000   0.000   0.973   0.000  -0.001  -1.179
  0.000  -0.000  -1.191  -0.025   0.000   1.699   0.053  -0.000
 -0.000   0.001  -0.026  -1.180  -0.001   0.053   1.687   0.002
  0.025  -0.080   0.000  -0.001  -1.179  -0.000   0.002   1.694


------------------------ aborting loop because EDIFF is reached ----------------------------------------


    CHARGE:  cpu time    0.1290: real time    0.1301
    FORLOC:  cpu time    0.0090: real time    0.0091
    FORNL :  cpu time    0.6129: real time    0.6129
    STRESS:  cpu time    1.8447: real time    1.8441
    FORCOR:  cpu time    0.0680: real time    0.0681
    FORHAR:  cpu time    0.0170: real time    0.0171
    MIXING:  cpu time    0.0030: real time    0.0029
    OFIELD:  cpu time    0.0000: real time    0.0000

  FORCE on cell =-STRESS in cart. coord.  units (eV):
  Direction    XX          YY          ZZ          XY          YZ          ZX
  --------------------------------------------------------------------------------------
  Alpha Z    69.72803    69.72803    69.72803
  Ewald    -646.24789  -646.25516  -594.70673    -0.00630     0.00069    -0.00119
  Hartree   346.93570   346.94126   376.90268     0.00482     0.00179    -0.00311
  E(xc)    -225.62959  -225.62880  -225.56377     0.00069     0.00005    -0.00008
  Local    -420.28202  -420.29754  -501.08531    -0.01344    -0.00317     0.00549
  n-local   -52.38112   -52.59133   -52.31961     0.03786    -0.06129    -0.01954
  augment    27.10770    27.10697    27.01724    -0.00063    -0.00084     0.00145
  Kinetic   903.19261   903.91570   901.72116    -0.23116     0.04184     0.02485
  Fock        0.00000     0.00000     0.00000     0.00000     0.00000     0.00000
  -------------------------------------------------------------------------------------
  Total       2.69937     2.64319     1.69369    -0.04866    -0.00900     0.01559
  in kB      38.26652    37.47005    24.00992    -0.68977    -0.12758     0.22097
  external pressure =       33.25 kB  Pullay stress =        0.00 kB


 VOLUME and BASIS-vectors are now :
 -----------------------------------------------------------------------------
  energy-cutoff  :      400.00
  volume of cell :      113.02
      direct lattice vectors                 reciprocal lattice vectors
     4.913700000  0.000000000  0.000000000     0.203512628  0.117498070  0.000000000
    -2.456850000  4.255389030  0.000000000     0.000000000  0.234996141  0.000000000
     0.000000000  0.000000000  5.405130000     0.000000000  0.000000000  0.185009426

  length of vectors
     4.913700000  4.913700003  5.405130000     0.234996141  0.234996141  0.185009426


 FORCES acting on ions
    electron-ion (+dipol)            ewald-force                    non-local-force                 convergence-correction
 -----------------------------------------------------------------------------------------------
   -.120E+01 0.415E-02 -.219E-02   0.812E+00 -.379E-02 0.176E-03   0.780E+00 -.189E-02 -.507E-02   0.164E-03 -.465E-05 -.962E-04
   0.602E+00 -.103E+01 0.219E-02   -.410E+00 0.702E+00 -.176E-03   -.391E+00 0.674E+00 0.507E-02   -.863E-04 0.140E-03 0.962E-04
   0.599E+00 0.104E+01 -.126E-05   -.408E+00 -.706E+00 -.197E-06   -.399E+00 -.691E+00 0.000E+00   -.136E-03 -.236E-03 0.221E-11
   0.722E+02 0.724E+01 0.302E+02   -.907E+02 -.616E+01 -.401E+02   0.179E+02 -.790E+00 0.997E+01   0.249E-02 0.554E-03 0.105E-02
   -.424E+02 0.589E+02 0.302E+02   0.507E+02 -.755E+02 -.401E+02   -.828E+01 0.159E+02 0.997E+01   -.175E-02 0.186E-02 0.108E-02
   -.298E+02 -.662E+02 0.302E+02   0.400E+02 0.816E+02 -.401E+02   -.965E+01 -.151E+02 0.997E+01   -.589E-03 -.253E-02 0.116E-02
   0.722E+02 -.724E+01 -.302E+02   -.907E+02 0.616E+01 0.401E+02   0.179E+02 0.792E+00 -.997E+01   0.249E-02 -.589E-03 -.108E-02
   -.298E+02 0.662E+02 -.302E+02   0.400E+02 -.816E+02 0.401E+02   -.966E+01 0.151E+02 -.997E+01   -.762E-03 0.243E-02 -.105E-02
   -.424E+02 -.589E+02 -.302E+02   0.507E+02 0.755E+02 0.401E+02   -.828E+01 -.159E+02 -.997E+01   -.190E-02 -.177E-02 -.116E-02
 -----------------------------------------------------------------------------------------------
   0.158E-02 0.273E-02 -.694E-05   -.711E-14 -.142E-13 0.000E+00   -.561E-02 -.972E-02 0.000E+00   -.874E-04 -.151E-03 -.190E-12
 
 
 POSITION                                       TOTAL-FORCE (eV/Angst)
 -----------------------------------------------------------------------------------
      2.30846      0.00000      3.60344         0.396514     -0.000743     -0.007179
     -1.15423      1.99918      1.80169        -0.198900      0.343019      0.007179
      1.30262      2.25621      0.00000        -0.207083     -0.358678      0.000000
      1.38272      1.13278      4.24627        -0.521182      0.292086      0.067364
      3.24132      0.63107      2.44458         0.013128     -0.599313      0.065248
      2.74651      2.49153      0.64283         0.515453      0.313890      0.067050
     -1.07413      3.12260      2.96055        -0.525585     -0.288288     -0.065248
      0.28966      1.76386      1.15886         0.513545     -0.305314     -0.067364
      0.78447      3.62431      4.76230         0.014110      0.603341     -0.067050
 -----------------------------------------------------------------------------------
    total drift:                               -0.004123     -0.007143     -0.000007


--------------------------------------------------------------------------------------------------------



  FREE ENERGIE OF THE ION-ELECTRON SYSTEM (eV)
  ---------------------------------------------------
  free  energy   TOTEN  =       -71.14456662 eV

  energy  without entropy=      -71.14456662  energy(sigma->0) =      -71.14456662
 


--------------------------------------------------------------------------------------------------------


    POTLOK:  cpu time    0.0790: real time    0.0791


--------------------------------------------------------------------------------------------------------


     LOOP+:  cpu time   30.3984: real time   30.6850
    4ORBIT:  cpu time    0.0000: real time    0.0000
 BZINTS: Fermi energy:  1.100535; 48.000000 electrons
         Band energy:-276.227127;  BLOECHL correction:  0.000000

 total amount of memory used by VASP on root node    67393. kBytes
========================================================================

   base      :      30000. kBytes
   nonlr-proj:        968. kBytes
   fftplans  :       4548. kBytes
   grid      :       8064. kBytes
   one-center:         27. kBytes
   wavefun   :      23786. kBytes
 
  
  
 General timing and accounting informations for this job:
 ========================================================
  
                  Total CPU time used (sec):       31.402
                            User time (sec):       31.296
                          System time (sec):        0.106
                         Elapsed time (sec):       33.634
  
                   Maximum memory used (kb):       69728.
                   Average memory used (kb):           0.
  
                          Minor page faults:        29548
                          Major page faults:           56
                 Voluntary context switches:         1734
