unknown system                          
   1.00000000000000     
     2.573869    0.000000    0.000000
     1.286934    2.229036    0.000000
     0.000000    0.000000   30.304665
   Cu   H 
     4     1
Direct
  0.000000  0.000000  0.395979
  0.333333  0.333333  0.465326
  0.666667  0.666667  0.534674
  0.000000  0.000000  0.604021
  0.666667  0.666667  0.637020
 
   20   20  240
 -.77249E-02 -.72518E-02 -.57674E-02 -.34810E-02 -.94098E-03 0.10862E-02 0.18648E-02 0.10446E-02 -.98969E-03 -.31189E-02
 -.40601E-02 -.31907E-02 -.98972E-03 0.12457E-02 0.22024E-02 0.13269E-02 -.94103E-03 -.36087E-02 -.58274E-02 -.72264E-02
 -.72518E-02 -.62227E-02 -.39399E-02 -.14392E-02 0.35796E-03 0.10206E-02 0.16372E-03 -.22464E-02 -.50568E-02 -.64497E-02
 -.56297E-02 -.33767E-02 -.97407E-03 0.64745E-03 0.86739E-03 -.45620E-03 -.25967E-02 -.45179E-02 -.58954E-02 -.69144E-02
 -.57674E-02 -.39399E-02 -.15866E-02 -.22551E-03 -.29552E-03 -.18270E-02 -.51467E-02 -.96648E-02 -.13170E-01 -.13756E-01
 -.11697E-01 -.84858E-02 -.50897E-02 -.21620E-02 -.69008E-03 -.10737E-02 -.24010E-02 -.36829E-02 -.48903E-02 -.59172E-02
 -.34810E-02 -.14392E-02 -.22551E-03 -.86461E-03 -.32441E-02 -.76949E-02 -.14474E-01 -.21655E-01 -.25858E-01 -.25501E-01
 -.21614E-01 -.15688E-01 -.88543E-02 -.29814E-02 -.88307E-04 -.16213E-03 -.13855E-02 -.26117E-02 -.38278E-02 -.44544E-02
 -.94098E-03 0.35796E-03 -.29552E-03 -.32441E-02 -.86736E-02 -.17441E-01 -.28601E-01 -.37976E-01 -.41394E-01 -.38162E-01
 -.30129E-01 -.19408E-01 -.86757E-02 -.13810E-02 0.91641E-03 0.15847E-03 -.94596E-03 -.17671E-02 -.25243E-02 -.24012E-02
 0.10862E-02 0.10206E-02 -.18270E-02 -.76949E-02 -.17441E-01 -.31267E-01 -.45540E-01 -.54136E-01 -.53684E-01 -.45406E-01
 -.32379E-01 -.17933E-01 -.62038E-02 -.38053E-03 0.39500E-03 -.22394E-03 -.31963E-03 -.53303E-03 -.90799E-03 -.26638E-03
 0.18648E-02 0.16372E-03 -.51467E-02 -.14474E-01 -.28601E-01 -.45540E-01 -.59011E-01 -.63122E-01 -.57220E-01 -.44568E-01
 -.28863E-01 -.14033E-01 -.42258E-02 -.65678E-03 -.26777E-03 0.15637E-03 0.53811E-03 -.34986E-04 -.33331E-03 0.84386E-03
 0.10446E-02 -.22464E-02 -.96648E-02 -.21655E-01 -.37976E-01 -.54136E-01 -.63122E-01 -.61683E-01 -.52042E-01 -.37882E-01
 -.22350E-01 -.94009E-02 -.24118E-02 -.63822E-03 -.49849E-03 -.49075E-03 -.14924E-02 -.27748E-02 -.20383E-02 0.35626E-03
 -.98969E-03 -.50568E-02 -.13170E-01 -.25858E-01 -.41394E-01 -.53684E-01 -.57220E-01 -.52042E-01 -.41395E-01 -.27735E-01
 -.13829E-01 -.41116E-02 -.98442E-03 -.21060E-02 -.41634E-02 -.65819E-02 -.90487E-02 -.90559E-02 -.54248E-02 -.13886E-02
 -.31189E-02 -.64497E-02 -.13756E-01 -.25501E-01 -.38162E-01 -.45406E-01 -.44568E-01 -.37882E-01 -.27735E-01 -.15571E-01
 -.51384E-02 -.11987E-02 -.40567E-02 -.96080E-02 -.14849E-01 -.19078E-01 -.20379E-01 -.16415E-01 -.91099E-02 -.37631E-02
 -.40601E-02 -.56297E-02 -.11697E-01 -.21614E-01 -.30129E-01 -.32379E-01 -.28863E-01 -.22350E-01 -.13829E-01 -.51384E-02
 -.12721E-02 -.54149E-02 -.14587E-01 -.23702E-01 -.30605E-01 -.34105E-01 -.31534E-01 -.22637E-01 -.12395E-01 -.60035E-02
 -.31907E-02 -.33767E-02 -.84858E-02 -.15688E-01 -.19408E-01 -.17933E-01 -.14033E-01 -.94009E-02 -.41116E-02 -.11987E-02
 -.54149E-02 -.16613E-01 -.29473E-01 -.39901E-01 -.46662E-01 -.47475E-01 -.39912E-01 -.26696E-01 -.14510E-01 -.69171E-02
 -.98972E-03 -.97407E-03 -.50897E-02 -.88543E-02 -.86757E-02 -.62038E-02 -.42258E-02 -.24118E-02 -.98442E-03 -.40567E-02
 -.14587E-01 -.29473E-01 -.43476E-01 -.54187E-01 -.59707E-01 -.56335E-01 -.43475E-01 -.27108E-01 -.13987E-01 -.55930E-02
 0.12457E-02 0.64745E-03 -.21620E-02 -.29814E-02 -.13810E-02 -.38053E-03 -.65678E-03 -.63822E-03 -.21060E-02 -.96080E-02
 -.23702E-01 -.39901E-01 -.54187E-01 -.64301E-01 -.66417E-01 -.57198E-01 -.39877E-01 -.22659E-01 -.10418E-01 -.26406E-02
 0.22024E-02 0.86739E-03 -.69008E-03 -.88307E-04 0.91641E-03 0.39500E-03 -.26777E-03 -.49849E-03 -.41634E-02 -.14849E-01
 -.30605E-01 -.46662E-01 -.59707E-01 -.66417E-01 -.62511E-01 -.47946E-01 -.29668E-01 -.15090E-01 -.56992E-02 0.95429E-04
 0.13269E-02 -.45620E-03 -.10737E-02 -.16213E-03 0.15847E-03 -.22394E-03 0.15637E-03 -.49075E-03 -.65819E-02 -.19078E-01
 -.34105E-01 -.47475E-01 -.56335E-01 -.57198E-01 -.47946E-01 -.32344E-01 -.17820E-01 -.81544E-02 -.21450E-02 0.12163E-02
 -.94103E-03 -.25967E-02 -.24010E-02 -.13855E-02 -.94596E-03 -.31963E-03 0.53811E-03 -.14924E-02 -.90487E-02 -.20379E-01
 -.31534E-01 -.39912E-01 -.43475E-01 -.39877E-01 -.29668E-01 -.17820E-01 -.90471E-02 -.37062E-02 -.39627E-03 0.56986E-03
 -.36087E-02 -.45179E-02 -.36829E-02 -.26117E-02 -.17671E-02 -.53303E-03 -.34986E-04 -.27748E-02 -.90559E-02 -.16415E-01
 -.22637E-01 -.26696E-01 -.27108E-01 -.22659E-01 -.15090E-01 -.81544E-02 -.37062E-02 -.11219E-02 -.17273E-03 -.13789E-02
 -.58274E-02 -.58954E-02 -.48903E-02 -.38278E-02 -.25243E-02 -.90799E-03 -.33331E-03 -.20383E-02 -.54248E-02 -.91099E-02
 -.12395E-01 -.14510E-01 -.13987E-01 -.10418E-01 -.56992E-02 -.21450E-02 -.39627E-03 -.17273E-03 -.15298E-02 -.39825E-02
 -.72264E-02 -.69144E-02 -.59172E-02 -.44544E-02 -.24012E-02 -.26638E-03 0.84386E-03 0.35626E-03 -.13886E-02 -.37631E-02
 -.60035E-02 -.69171E-02 -.55930E-02 -.26406E-02 0.95429E-04 0.12163E-02 0.56986E-03 -.13789E-02 -.39825E-02 -.62408E-02
 0.12493E-03 0.32366E-03 -.58247E-05 -.25989E-03 0.11021E-03 0.66707E-03 0.74174E-03 0.41201E-03 0.40293E-04 -.41109E-03
 -.88133E-03 -.79843E-03 0.41201E-04 0.85933E-03 0.90861E-03 0.45644E-03 0.10884E-03 -.11210E-03 -.33817E-03 -.28651E-03
 0.32366E-03 0.18270E-03 0.15630E-03 0.36141E-03 0.58027E-03 0.44707E-03 -.12611E-03 -.82189E-03 -.12115E-02 -.10721E-02
 -.47461E-03 0.25666E-03 0.67991E-03 0.53869E-03 0.12426E-04 -.43633E-03 -.49623E-03 -.22145E-03 0.13210E-03 0.34146E-03
 -.58247E-05 0.15630E-03 0.47047E-03 0.37131E-03 -.10166E-03 -.60328E-03 -.10453E-02 -.13374E-02 -.11392E-02 -.45306E-03
 0.50209E-04 -.13187E-03 -.63217E-03 -.83495E-03 -.68098E-03 -.38309E-03 0.71367E-04 0.59108E-03 0.72801E-03 0.33986E-03
 -.25989E-03 0.36141E-03 0.37131E-03 -.36943E-03 -.88463E-03 -.86102E-03 -.93084E-03 -.12004E-02 -.11409E-02 -.94578E-03
 -.13389E-02 -.19953E-02 -.17892E-02 -.67635E-03 0.23936E-03 0.51287E-03 0.66170E-03 0.74000E-03 0.27976E-03 -.35828E-03
 0.11021E-03 0.58027E-03 -.10166E-03 -.88463E-03 -.72252E-03 -.49846E-03 -.12655E-02 -.22893E-02 -.25721E-02 -.26015E-02
 -.28683E-02 -.24253E-02 -.72443E-03 0.81736E-03 0.88021E-03 0.24821E-03 0.10595E-03 0.64555E-04 -.44373E-03 -.61305E-03
 0.66707E-03 0.44707E-03 -.60328E-03 -.86102E-03 -.49846E-03 -.12928E-02 -.31675E-02 -.41155E-02 -.36161E-02 -.30033E-02
 -.24921E-02 -.10719E-02 0.65545E-03 0.82774E-03 -.36554E-03 -.85886E-03 -.23940E-03 -.72528E-05 -.39021E-03 -.11425E-03
 0.74174E-03 -.12611E-03 -.10453E-02 -.93084E-03 -.12655E-02 -.31675E-02 -.47496E-02 -.41733E-02 -.27157E-02 -.21349E-02
 -.16944E-02 -.47192E-03 0.17563E-03 -.74539E-03 -.14609E-02 -.44946E-03 0.75975E-03 0.47991E-03 -.13767E-03 0.32761E-03
 0.41201E-03 -.82189E-03 -.13374E-02 -.12004E-02 -.22893E-02 -.41155E-02 -.41733E-02 -.25355E-02 -.17796E-02 -.23131E-02
 -.20853E-02 -.90347E-03 -.63762E-03 -.11358E-02 -.36509E-03 0.13271E-02 0.14816E-02 0.11212E-03 -.31576E-03 0.49683E-03
 0.40293E-04 -.12115E-02 -.11392E-02 -.11409E-02 -.25721E-02 -.36161E-02 -.27157E-02 -.17796E-02 -.25737E-02 -.32631E-02
 -.19316E-02 -.19643E-03 0.44452E-04 0.85985E-04 0.12871E-02 0.19138E-02 0.54654E-03 -.73579E-03 -.18560E-04 0.91114E-03
 -.41109E-03 -.10721E-02 -.45306E-03 -.94578E-03 -.26015E-02 -.30033E-02 -.21349E-02 -.23131E-02 -.32631E-02 -.23579E-02
 0.17464E-03 0.13385E-02 0.70370E-03 0.67114E-03 0.14769E-02 0.10158E-02 -.39099E-03 -.20309E-03 0.13038E-02 0.12743E-02
 -.88133E-03 -.47461E-03 0.50209E-04 -.13389E-02 -.28683E-02 -.24921E-02 -.16944E-02 -.20853E-02 -.19316E-02 0.17464E-03
 0.18906E-02 0.11346E-02 -.84790E-04 0.49552E-03 0.13932E-02 0.82685E-03 0.38543E-03 0.15393E-02 0.22298E-02 0.70867E-03
 -.79843E-03 0.25666E-03 -.13187E-03 -.19953E-02 -.24253E-02 -.10719E-02 -.47192E-03 -.90347E-03 -.19643E-03 0.13385E-02
 0.11346E-02 -.42310E-03 -.29985E-03 0.16102E-02 0.24031E-02 0.16308E-02 0.16112E-02 0.23615E-02 0.15634E-02 -.41555E-03
 0.41201E-04 0.67991E-03 -.63217E-03 -.17892E-02 -.72443E-03 0.65545E-03 0.17563E-03 -.63762E-03 0.44452E-04 0.70370E-03
 -.84790E-04 -.29985E-03 0.16754E-02 0.34982E-02 0.28830E-02 0.15701E-02 0.16767E-02 0.17938E-02 0.37515E-03 -.74444E-03
 0.85933E-03 0.53869E-03 -.83495E-03 -.67635E-03 0.81736E-03 0.82774E-03 -.74539E-03 -.11358E-02 0.85985E-04 0.67114E-03
 0.49552E-03 0.16102E-02 0.34982E-02 0.34060E-02 0.15115E-02 0.76205E-03 0.15190E-02 0.13390E-02 0.38417E-04 -.97638E-04
 0.90861E-03 0.12426E-04 -.68098E-03 0.23936E-03 0.88021E-03 -.36554E-03 -.14609E-02 -.36509E-03 0.12871E-02 0.14769E-02
 0.13932E-02 0.24031E-02 0.28830E-02 0.15115E-02 0.34972E-03 0.11928E-02 0.21553E-02 0.12567E-02 0.64718E-04 0.41778E-03
 0.45644E-03 -.43633E-03 -.38309E-03 0.51287E-03 0.24821E-03 -.85886E-03 -.44946E-03 0.13271E-02 0.19138E-02 0.10158E-02
 0.82685E-03 0.16308E-02 0.15701E-02 0.76205E-03 0.11928E-02 0.24794E-02 0.21776E-02 0.38603E-03 -.32121E-03 0.41306E-03
 0.10884E-03 -.49623E-03 0.71367E-04 0.66170E-03 0.10595E-03 -.23940E-03 0.75975E-03 0.14816E-02 0.54654E-03 -.39099E-03
 0.38543E-03 0.16112E-02 0.16767E-02 0.15190E-02 0.21553E-02 0.21776E-02 0.54902E-03 -.86382E-03 -.38842E-03 0.50978E-03
 -.11210E-03 -.22145E-03 0.59108E-03 0.74000E-03 0.64555E-04 -.72528E-05 0.47991E-03 0.11212E-03 -.73579E-03 -.20309E-03
 0.15393E-02 0.23615E-02 0.17938E-02 0.13390E-02 0.12567E-02 0.38603E-03 -.86382E-03 -.76269E-03 0.42734E-03 0.69674E-03
 -.33817E-03 0.13210E-03 0.72801E-03 0.27976E-03 -.44373E-03 -.39021E-03 -.13767E-03 -.31576E-03 -.18560E-04 0.13038E-02
 0.22298E-02 0.15634E-02 0.37515E-03 0.38417E-04 0.64718E-04 -.32121E-03 -.38842E-03 0.42734E-03 0.95390E-03 0.30733E-03
 -.28651E-03 0.34146E-03 0.33986E-03 -.35828E-03 -.61305E-03 -.11425E-03 0.32761E-03 0.49683E-03 0.91114E-03 0.12743E-02
 0.70867E-03 -.41555E-03 -.74444E-03 -.97638E-04 0.41778E-03 0.41306E-03 0.50978E-03 0.69674E-03 0.30733E-03 -.35856E-03
 0.79174E-02 0.78369E-02 0.56879E-02 0.29037E-02 0.11367E-02 0.26756E-03 -.32490E-03 -.14790E-03 0.11394E-02 0.23546E-02
 0.23499E-02 0.16515E-02 0.11398E-02 0.54310E-03 -.33067E-03 -.39447E-03 0.11351E-02 0.33282E-02 0.50839E-02 0.65914E-02
 0.78369E-02 0.64799E-02 0.40937E-02 0.20036E-02 0.73611E-03 -.90518E-06 -.24704E-04 0.12801E-02 0.35534E-02 0.53644E-02
 0.57400E-02 0.48108E-02 0.30123E-02 0.82196E-03 -.71627E-03 -.48331E-03 0.14442E-02 0.39148E-02 0.60513E-02 0.75354E-02
 0.56879E-02 0.40937E-02 0.23117E-02 0.82383E-03 0.21261E-03 0.12004E-02 0.42193E-02 0.87319E-02 0.13061E-01 0.15178E-01
 0.13970E-01 0.99658E-02 0.49891E-02 0.10732E-02 -.54966E-03 0.16347E-03 0.23259E-02 0.47044E-02 0.62778E-02 0.65704E-02
 0.29037E-02 0.20036E-02 0.82383E-03 0.23602E-03 0.21459E-02 0.74688E-02 0.15042E-01 0.22499E-01 0.27299E-01 0.27333E-01
 0.22182E-01 0.14126E-01 0.67705E-02 0.23009E-02 0.67872E-03 0.10429E-02 0.25497E-02 0.40353E-02 0.44210E-02 0.37705E-02
 0.11367E-02 0.73611E-03 0.21261E-03 0.21459E-02 0.88444E-02 0.19274E-01 0.30118E-01 0.38352E-01 0.41540E-01 0.37913E-01
 0.28439E-01 0.17384E-01 0.88427E-02 0.36875E-02 0.96244E-03 0.26943E-03 0.11360E-02 0.19865E-02 0.17769E-02 0.12603E-02
 0.26756E-03 -.90518E-06 0.12004E-02 0.74688E-02 0.19274E-01 0.33029E-01 0.44890E-01 0.52378E-01 0.52925E-01 0.45085E-01
 0.31739E-01 0.18617E-01 0.90124E-02 0.26172E-02 -.10029E-02 -.14757E-02 -.71833E-04 0.68429E-03 0.29098E-03 0.12240E-03
 -.32490E-03 -.24704E-04 0.42193E-02 0.15042E-01 0.30118E-01 0.44890E-01 0.56426E-01 0.62149E-01 0.58706E-01 0.45984E-01
 0.29518E-01 0.15518E-01 0.57447E-02 -.43999E-03 -.25997E-02 -.10663E-02 0.10080E-02 0.10464E-02 0.84976E-04 -.19698E-03
 -.14790E-03 0.12801E-02 0.87319E-02 0.22499E-01 0.38352E-01 0.52378E-01 0.62149E-01 0.63988E-01 0.54959E-01 0.38210E-01
 0.21422E-01 0.93374E-02 0.18170E-02 -.15613E-02 -.43156E-03 0.28552E-02 0.41451E-02 0.26877E-02 0.11171E-02 0.43980E-03
 0.11394E-02 0.35534E-02 0.13061E-01 0.27299E-01 0.41540E-01 0.52925E-01 0.58706E-01 0.54959E-01 0.41540E-01 0.24930E-01
 0.12136E-01 0.46386E-02 0.11402E-02 0.18329E-02 0.60078E-02 0.95314E-02 0.92138E-02 0.67023E-02 0.46566E-02 0.27687E-02
 0.23546E-02 0.53644E-02 0.15178E-01 0.27333E-01 0.37913E-01 0.45085E-01 0.45984E-01 0.38210E-01 0.24930E-01 0.13183E-01
 0.65480E-02 0.39335E-02 0.47916E-02 0.97647E-02 0.16275E-01 0.19402E-01 0.17888E-01 0.14478E-01 0.10533E-01 0.56422E-02
 0.23499E-02 0.57400E-02 0.13970E-01 0.22182E-01 0.28439E-01 0.31739E-01 0.29518E-01 0.21422E-01 0.12136E-01 0.65480E-02
 0.51086E-02 0.68795E-02 0.12895E-01 0.22604E-01 0.30927E-01 0.33160E-01 0.29840E-01 0.23626E-01 0.15333E-01 0.66148E-02
 0.16515E-02 0.48108E-02 0.99658E-02 0.14126E-01 0.17384E-01 0.18617E-01 0.15518E-01 0.93374E-02 0.46386E-02 0.39335E-02
 0.68795E-02 0.14122E-01 0.26464E-01 0.40116E-01 0.48131E-01 0.47400E-01 0.40128E-01 0.29009E-01 0.15990E-01 0.52799E-02
 0.11398E-02 0.30123E-02 0.49891E-02 0.67705E-02 0.88427E-02 0.90124E-02 0.57447E-02 0.18170E-02 0.11402E-02 0.47916E-02
 0.12895E-01 0.26464E-01 0.43626E-01 0.57434E-01 0.61526E-01 0.55725E-01 0.43627E-01 0.28286E-01 0.13216E-01 0.34336E-02
 0.54310E-03 0.82196E-03 0.10732E-02 0.23009E-02 0.36875E-02 0.26172E-02 -.43999E-03 -.15613E-02 0.18329E-02 0.97647E-02
 0.22604E-01 0.40116E-01 0.57434E-01 0.66949E-01 0.65276E-01 0.54973E-01 0.39910E-01 0.23250E-01 0.93116E-02 0.20007E-02
 -.33067E-03 -.71627E-03 -.54966E-03 0.67872E-03 0.96244E-03 -.10029E-02 -.25997E-02 -.43156E-03 0.60078E-02 0.16275E-01
 0.30927E-01 0.48131E-01 0.61526E-01 0.65276E-01 0.59265E-01 0.46995E-01 0.31513E-01 0.16076E-01 0.50991E-02 0.53968E-03
 -.39447E-03 -.48331E-03 0.16347E-03 0.10429E-02 0.26943E-03 -.14757E-02 -.10663E-02 0.28552E-02 0.95314E-02 0.19402E-01
 0.33160E-01 0.47400E-01 0.55725E-01 0.54973E-01 0.46995E-01 0.34701E-01 0.20464E-01 0.80475E-02 0.12145E-02 -.39941E-03
 0.11351E-02 0.14442E-02 0.23259E-02 0.25497E-02 0.11360E-02 -.71833E-04 0.10080E-02 0.41451E-02 0.92138E-02 0.17888E-01
 0.29840E-01 0.40128E-01 0.43627E-01 0.39910E-01 0.31513E-01 0.20464E-01 0.92166E-02 0.16692E-02 -.35316E-03 0.53585E-03
 0.33282E-02 0.39148E-02 0.47044E-02 0.40353E-02 0.19865E-02 0.68429E-03 0.10464E-02 0.26877E-02 0.67023E-02 0.14478E-01
 0.23626E-01 0.29009E-01 0.28286E-01 0.23250E-01 0.16076E-01 0.80475E-02 0.16692E-02 -.35308E-03 0.11895E-02 0.28600E-02
 0.50839E-02 0.60513E-02 0.62778E-02 0.44210E-02 0.17769E-02 0.29098E-03 0.84976E-04 0.11171E-02 0.46566E-02 0.10533E-01
 0.15333E-01 0.15990E-01 0.13216E-01 0.93116E-02 0.50991E-02 0.12145E-02 -.35316E-03 0.11895E-02 0.35765E-02 0.46314E-02
 0.65914E-02 0.75354E-02 0.65704E-02 0.37705E-02 0.12603E-02 0.12240E-03 -.19698E-03 0.43980E-03 0.27687E-02 0.56422E-02
 0.66148E-02 0.52799E-02 0.34336E-02 0.20007E-02 0.53968E-03 -.39941E-03 0.53585E-03 0.28600E-02 0.46314E-02 0.54976E-02
 -.56821E-04 0.79068E-03 0.13099E-03 -.63212E-03 0.50620E-04 0.10929E-02 0.92825E-03 0.22721E-03 0.14206E-03 0.35479E-04
 -.73991E-03 -.98331E-03 0.14124E-03 0.11604E-02 0.74874E-03 -.20452E-04 0.49674E-04 0.69789E-04 -.74422E-03 -.10900E-02
 0.79068E-03 0.49556E-03 -.30734E-03 -.19536E-03 0.70665E-03 0.86089E-03 0.15630E-04 -.47568E-03 -.88281E-04 0.32498E-03
 0.47899E-03 0.95871E-03 0.14860E-02 0.10423E-02 -.13645E-03 -.71550E-03 -.45583E-03 -.28672E-03 -.31094E-03 0.16988E-03
 0.13099E-03 -.30734E-03 -.33528E-03 0.85976E-04 0.28554E-03 -.41340E-04 -.18887E-03 0.51228E-03 0.16388E-02 0.23058E-02
 0.22684E-02 0.17755E-02 0.93736E-03 -.64679E-04 -.65968E-03 -.47987E-03 0.92454E-04 0.47897E-03 0.57676E-03 0.48121E-03
 -.63212E-03 -.19536E-03 0.85976E-04 -.42013E-04 -.77660E-05 0.66528E-03 0.17747E-02 0.28581E-02 0.35334E-02 0.34077E-02
 0.23635E-02 0.10076E-02 0.19798E-03 0.94917E-04 0.23475E-03 0.38186E-03 0.59579E-03 0.63133E-03 0.14791E-03 -.51529E-03
 0.50620E-04 0.70665E-03 0.28554E-03 -.77660E-05 0.11201E-02 0.28396E-02 0.37061E-02 0.38133E-02 0.37890E-02 0.32475E-02
 0.19508E-02 0.98830E-03 0.11200E-02 0.13738E-02 0.80200E-03 0.10374E-03 0.53478E-04 -.90855E-05 -.60641E-03 -.78479E-03
 0.10929E-02 0.86089E-03 -.41340E-04 0.66528E-03 0.28396E-02 0.40070E-02 0.36287E-02 0.35440E-02 0.41382E-02 0.38528E-02
 0.26263E-02 0.20994E-02 0.22363E-02 0.13611E-02 -.33145E-03 -.86811E-03 -.13636E-03 0.92180E-04 -.31201E-03 0.12634E-03
 0.92825E-03 0.15630E-04 -.18887E-03 0.17747E-02 0.37061E-02 0.36287E-02 0.33361E-02 0.46891E-02 0.58625E-02 0.47823E-02
 0.29335E-02 0.22667E-02 0.16415E-02 -.19459E-03 -.14181E-02 -.41570E-03 0.93600E-03 0.63185E-03 -.13124E-04 0.54527E-03
 0.22721E-03 -.47568E-03 0.51228E-03 0.28581E-02 0.38133E-02 0.35440E-02 0.46891E-02 0.67304E-02 0.63714E-02 0.35522E-02
 0.15883E-02 0.12896E-02 0.41488E-03 -.10507E-02 -.68954E-03 0.11372E-02 0.13806E-02 -.16486E-03 -.69666E-03 0.19057E-03
 0.14206E-03 -.88281E-04 0.16388E-02 0.35334E-02 0.37890E-02 0.41382E-02 0.58625E-02 0.63714E-02 0.37916E-02 0.91997E-03
 0.58147E-03 0.10673E-02 0.13906E-03 -.60808E-03 0.51276E-03 0.13295E-02 -.14997E-03 -.16788E-02 -.88353E-03 0.43907E-03
 0.35479E-04 0.32498E-03 0.23058E-02 0.34077E-02 0.32475E-02 0.38528E-02 0.47823E-02 0.35522E-02 0.91997E-03 0.22092E-03
 0.14454E-02 0.14429E-02 -.10043E-03 -.47606E-03 0.40850E-03 -.64422E-04 -.16845E-02 -.15025E-02 0.42978E-03 0.10313E-02
 -.73991E-03 0.47899E-03 0.22684E-02 0.23635E-02 0.19508E-02 0.26263E-02 0.29335E-02 0.15883E-02 0.58147E-03 0.14454E-02
 0.20049E-02 0.40793E-03 -.12502E-02 -.86028E-03 -.11750E-03 -.83837E-03 -.12837E-02 0.14143E-03 0.13100E-02 0.30463E-03
 -.98331E-03 0.95871E-03 0.17755E-02 0.10076E-02 0.98830E-03 0.20994E-02 0.22667E-02 0.12896E-02 0.10673E-02 0.14429E-02
 0.40793E-03 -.15252E-02 -.17413E-02 -.30633E-03 0.19993E-03 -.48955E-03 -.28356E-03 0.68472E-03 0.22355E-03 -.12409E-02
 0.14124E-03 0.14860E-02 0.93736E-03 0.19798E-03 0.11200E-02 0.22363E-02 0.16415E-02 0.41488E-03 0.13906E-03 -.10043E-03
 -.12502E-02 -.17413E-02 -.41403E-03 0.84610E-03 0.30270E-03 -.64181E-03 -.41282E-03 -.19378E-03 -.10680E-02 -.13671E-02
 0.11604E-02 0.10423E-02 -.64679E-04 0.94917E-04 0.13738E-02 0.13611E-02 -.19459E-03 -.10507E-02 -.60808E-03 -.47606E-03
 -.86028E-03 -.30633E-03 0.84610E-03 0.62177E-03 -.82792E-03 -.13372E-02 -.62649E-03 -.41102E-03 -.74760E-03 -.88102E-04
 0.74874E-03 -.13645E-03 -.65968E-03 0.23475E-03 0.80200E-03 -.33145E-03 -.14181E-02 -.68954E-03 0.51276E-03 0.40850E-03
 -.11750E-03 0.19993E-03 0.30270E-03 -.82792E-03 -.16841E-02 -.86065E-03 0.29203E-03 0.23124E-03 -.80368E-04 0.47009E-03
 -.20452E-04 -.71550E-03 -.47987E-03 0.38186E-03 0.10374E-03 -.86811E-03 -.41570E-03 0.11372E-02 0.13295E-02 -.64422E-04
 -.83837E-03 -.48955E-03 -.64181E-03 -.13372E-02 -.86065E-03 0.58838E-03 0.89638E-03 -.11038E-03 -.49420E-03 0.56258E-04
 0.49674E-04 -.45583E-03 0.92454E-04 0.59579E-03 0.53478E-04 -.13636E-03 0.93600E-03 0.13806E-02 -.14997E-03 -.16845E-02
 -.12837E-02 -.28356E-03 -.41282E-03 -.62649E-03 0.29203E-03 0.89638E-03 -.14899E-03 -.12252E-02 -.63741E-03 0.32996E-03
 0.69789E-04 -.28672E-03 0.47897E-03 0.63133E-03 -.90855E-05 0.92180E-04 0.63185E-03 -.16486E-03 -.16788E-02 -.15025E-02
 0.14143E-03 0.68472E-03 -.19378E-03 -.41102E-03 0.23124E-03 -.11038E-03 -.12252E-02 -.92464E-03 0.66622E-03 0.11045E-02
 -.74422E-03 -.31094E-03 0.57676E-03 0.14791E-03 -.60641E-03 -.31201E-03 -.13124E-04 -.69666E-03 -.88353E-03 0.42978E-03
 0.13100E-02 0.22355E-03 -.10680E-02 -.74760E-03 -.80368E-04 -.49420E-03 -.63741E-03 0.66622E-03 0.15926E-02 0.54028E-03
 -.10900E-02 0.16988E-03 0.48121E-03 -.51529E-03 -.78479E-03 0.12634E-03 0.54527E-03 0.19057E-03 0.43907E-03 0.10313E-02
 0.30463E-03 -.12409E-02 -.13671E-02 -.88102E-04 0.47009E-03 0.56258E-04 0.32996E-03 0.11045E-02 0.54028E-03 -.96605E-03
 -.77633E-02 -.60059E-02 -.52259E-02 -.40302E-02 -.95293E-03 0.19585E-02 0.21801E-02 0.54476E-03 -.98407E-03 -.24765E-02
 -.40491E-02 -.38112E-02 -.98514E-03 0.17222E-02 0.18279E-02 0.39347E-03 -.95353E-03 -.30509E-02 -.63731E-02 -.85231E-02
 -.60059E-02 -.52326E-02 -.44540E-02 -.21751E-02 0.79321E-03 0.16330E-02 -.34992E-03 -.30210E-02 -.48759E-02 -.60771E-02
 -.61448E-02 -.40394E-02 -.83001E-03 0.85562E-03 0.35191E-03 -.83183E-03 -.21347E-02 -.42327E-02 -.64180E-02 -.69470E-02
 -.52259E-02 -.44540E-02 -.27036E-02 -.46658E-03 0.24174E-03 -.19558E-02 -.60285E-02 -.99390E-02 -.12631E-01 -.13647E-01
 -.12282E-01 -.86472E-02 -.45459E-02 -.18768E-02 -.88873E-03 -.93807E-03 -.18601E-02 -.34902E-02 -.49240E-02 -.54332E-02
 -.40302E-02 -.21751E-02 -.46658E-03 -.44021E-03 -.29805E-02 -.80472E-02 -.14701E-01 -.21172E-01 -.25329E-01 -.25616E-01
 -.21846E-01 -.15318E-01 -.82821E-02 -.29309E-02 -.33068E-03 -.93195E-04 -.11373E-02 -.26348E-02 -.40613E-02 -.47368E-02
 -.95293E-03 0.79321E-03 0.24174E-03 -.29805E-02 -.86906E-02 -.17388E-01 -.28280E-01 -.37658E-01 -.41404E-01 -.38352E-01
 -.30111E-01 -.19199E-01 -.86882E-02 -.17589E-02 0.52585E-03 0.55008E-04 -.94865E-03 -.20309E-02 -.30637E-02 -.28526E-02
 0.19585E-02 0.16330E-02 -.19558E-02 -.80472E-02 -.17388E-01 -.31035E-01 -.45667E-01 -.54527E-01 -.53886E-01 -.45414E-01
 -.32505E-01 -.18211E-01 -.64496E-02 -.56853E-03 0.25140E-03 -.22058E-03 -.23740E-03 -.62179E-03 -.10348E-02 0.96895E-04
 0.21801E-02 -.34992E-03 -.60285E-02 -.14701E-01 -.28280E-01 -.45667E-01 -.59666E-01 -.63388E-01 -.56895E-01 -.44453E-01
 -.29223E-01 -.14193E-01 -.38964E-02 -.35684E-03 -.23621E-03 0.28296E-03 0.84245E-03 0.15730E-03 -.13281E-03 0.13340E-02
 0.54476E-03 -.30210E-02 -.99390E-02 -.21172E-01 -.37658E-01 -.54527E-01 -.63388E-01 -.61146E-01 -.51456E-01 -.38037E-01
 -.22634E-01 -.89912E-02 -.17785E-02 -.59657E-03 -.75943E-03 -.38148E-03 -.12213E-02 -.28549E-02 -.23124E-02 0.12673E-03
 -.98407E-03 -.48759E-02 -.12631E-01 -.25329E-01 -.41404E-01 -.53886E-01 -.56895E-01 -.51456E-01 -.41400E-01 -.28187E-01
 -.13820E-01 -.36498E-02 -.98894E-03 -.27175E-02 -.45229E-02 -.64124E-02 -.90636E-02 -.95977E-02 -.59638E-02 -.15613E-02
 -.24765E-02 -.60771E-02 -.13647E-01 -.25616E-01 -.38352E-01 -.45414E-01 -.44453E-01 -.38037E-01 -.28187E-01 -.15821E-01
 -.50208E-02 -.12405E-02 -.45563E-02 -.10037E-01 -.14730E-01 -.18812E-01 -.20536E-01 -.16753E-01 -.89934E-02 -.31448E-02
 -.40491E-02 -.61448E-02 -.12282E-01 -.21846E-01 -.30111E-01 -.32505E-01 -.29223E-01 -.22634E-01 -.13820E-01 -.50208E-02
 -.13201E-02 -.55789E-02 -.14581E-01 -.23423E-01 -.30274E-01 -.33964E-01 -.31518E-01 -.22441E-01 -.11898E-01 -.55194E-02
 -.38112E-02 -.40394E-02 -.86472E-02 -.15318E-01 -.19199E-01 -.18211E-01 -.14193E-01 -.89912E-02 -.36498E-02 -.12405E-02
 -.55789E-02 -.16316E-01 -.28970E-01 -.39774E-01 -.46827E-01 -.47475E-01 -.39742E-01 -.26663E-01 -.14686E-01 -.72764E-02
 -.98514E-03 -.83001E-03 -.45459E-02 -.82821E-02 -.86882E-02 -.64496E-02 -.38964E-02 -.17785E-02 -.98894E-03 -.45563E-02
 -.14581E-01 -.28970E-01 -.43488E-01 -.54857E-01 -.60081E-01 -.56127E-01 -.43488E-01 -.27698E-01 -.14539E-01 -.57338E-02
 0.17222E-02 0.85562E-03 -.18768E-02 -.29309E-02 -.17589E-02 -.56853E-03 -.35684E-03 -.59657E-03 -.27175E-02 -.10037E-01
 -.23423E-01 -.39774E-01 -.54857E-01 -.64904E-01 -.66131E-01 -.56765E-01 -.40210E-01 -.23171E-01 -.10128E-01 -.18457E-02
 0.18279E-02 0.35191E-03 -.88873E-03 -.33068E-03 0.52585E-03 0.25140E-03 -.23621E-03 -.75943E-03 -.45229E-02 -.14730E-01
 -.30274E-01 -.46827E-01 -.60081E-01 -.66131E-01 -.61794E-01 -.47811E-01 -.30039E-01 -.14884E-01 -.47999E-02 0.58915E-03
 0.39347E-03 -.83183E-03 -.93807E-03 -.93195E-04 0.55008E-04 -.22058E-03 0.28296E-03 -.38148E-03 -.64124E-02 -.18812E-01
 -.33964E-01 -.47475E-01 -.56127E-01 -.56765E-01 -.47811E-01 -.32648E-01 -.17950E-01 -.78081E-02 -.20046E-02 0.55984E-03
 -.95353E-03 -.21347E-02 -.18601E-02 -.11373E-02 -.94865E-03 -.23740E-03 0.84245E-03 -.12213E-02 -.90636E-02 -.20536E-01
 -.31518E-01 -.39742E-01 -.43488E-01 -.40210E-01 -.30039E-01 -.17950E-01 -.90656E-02 -.39593E-02 -.94342E-03 0.89675E-04
 -.30509E-02 -.42327E-02 -.34902E-02 -.26348E-02 -.20309E-02 -.62179E-03 0.15730E-03 -.28549E-02 -.95977E-02 -.16753E-01
 -.22441E-01 -.26663E-01 -.27698E-01 -.23171E-01 -.14884E-01 -.78081E-02 -.39593E-02 -.15563E-02 0.23394E-04 -.67526E-03
 -.63731E-02 -.64180E-02 -.49240E-02 -.40613E-02 -.30637E-02 -.10348E-02 -.13281E-03 -.23124E-02 -.59638E-02 -.89934E-02
 -.11898E-01 -.14686E-01 -.14539E-01 -.10128E-01 -.47999E-02 -.20046E-02 -.94342E-03 0.23394E-04 -.46462E-03 -.34874E-02
 -.85231E-02 -.69470E-02 -.54332E-02 -.47368E-02 -.28526E-02 0.96895E-04 0.13340E-02 0.12673E-03 -.15613E-02 -.31448E-02
 -.55194E-02 -.72764E-02 -.57338E-02 -.18457E-02 0.58915E-03 0.55984E-03 0.89675E-04 -.67526E-03 -.34874E-02 -.72553E-02
 0.30111E-03 0.17608E-02 0.66968E-03 -.72792E-03 0.15860E-03 0.16026E-02 0.11135E-02 -.73908E-04 -.13808E-04 0.99827E-04
 -.10321E-02 -.15512E-02 -.13808E-04 0.13504E-02 0.59000E-03 -.41464E-03 0.15776E-03 0.52862E-03 -.75084E-03 -.13945E-02
 0.17608E-02 0.13249E-02 -.25970E-03 -.31189E-03 0.10676E-02 0.10984E-02 -.65244E-03 -.17075E-02 -.12552E-02 -.10000E-02
 -.12893E-02 -.62827E-03 0.71439E-03 0.73267E-03 -.46703E-03 -.76027E-03 0.30527E-04 0.16213E-03 -.24168E-03 0.49791E-03
 0.66968E-03 -.25970E-03 -.58075E-03 0.17398E-03 0.44163E-03 -.82264E-03 -.21926E-02 -.20973E-02 -.12737E-02 -.10912E-02
 -.12065E-02 -.77705E-03 -.35245E-03 -.64133E-03 -.87623E-03 -.20488E-03 0.67919E-03 0.88354E-03 0.82899E-03 0.97382E-03
 -.72792E-03 -.31189E-03 0.17398E-03 0.48192E-04 -.76643E-03 -.16239E-02 -.19327E-02 -.18564E-02 -.19796E-02 -.24297E-02
 -.27114E-02 -.23999E-02 -.16260E-02 -.77092E-03 -.11213E-04 0.62490E-03 0.97441E-03 0.80133E-03 0.14558E-03 -.54289E-03
 0.15860E-03 0.10676E-02 0.44163E-03 -.76643E-03 -.12073E-02 -.14062E-02 -.24656E-02 -.39421E-02 -.47270E-02 -.47651E-02
 -.43737E-02 -.31783E-02 -.12035E-02 0.29591E-03 0.49671E-03 0.19646E-03 0.16243E-03 -.13656E-03 -.91776E-03 -.10008E-02
 0.16026E-02 0.10984E-02 -.82264E-03 -.16239E-02 -.14062E-02 -.27295E-02 -.56400E-02 -.72664E-02 -.65787E-02 -.53562E-02
 -.42880E-02 -.23108E-02 -.35201E-06 0.55066E-03 -.47043E-03 -.79491E-03 -.10788E-03 -.56137E-04 -.47563E-03 0.30160E-03
 0.11135E-02 -.65244E-03 -.21926E-02 -.19327E-02 -.24656E-02 -.56400E-02 -.83995E-02 -.76807E-02 -.53842E-02 -.43640E-02
 -.35760E-02 -.14082E-02 0.23877E-03 -.45942E-03 -.13740E-02 -.28446E-03 0.10688E-02 0.66161E-03 0.66413E-04 0.85586E-03
 -.73908E-04 -.17075E-02 -.20973E-02 -.18564E-02 -.39421E-02 -.72664E-02 -.76807E-02 -.52405E-02 -.39540E-02 -.44398E-02
 -.35080E-02 -.97906E-03 -.11551E-03 -.10807E-02 -.63830E-03 0.13484E-02 0.16083E-02 -.11448E-03 -.68147E-03 0.25353E-03
 -.13808E-04 -.12552E-02 -.12737E-02 -.19796E-02 -.47270E-02 -.65787E-02 -.53842E-02 -.39540E-02 -.47244E-02 -.50847E-02
 -.25952E-02 0.43224E-04 -.18175E-04 -.63770E-03 0.66004E-03 0.16706E-02 0.60576E-04 -.16915E-02 -.82562E-03 0.62612E-03
 0.99827E-04 -.10000E-02 -.10912E-02 -.24297E-02 -.47651E-02 -.53562E-02 -.43640E-02 -.44398E-02 -.50847E-02 -.33568E-02
 -.79903E-05 0.11664E-02 -.25428E-04 -.25557E-03 0.80271E-03 0.30111E-03 -.15281E-02 -.13326E-02 0.92458E-03 0.16639E-02
 -.10321E-02 -.12893E-02 -.12065E-02 -.27114E-02 -.43737E-02 -.42880E-02 -.35760E-02 -.35080E-02 -.25952E-02 -.79903E-05
 0.16805E-02 0.65853E-03 -.77663E-03 -.40129E-03 0.15839E-03 -.74931E-03 -.11648E-02 0.56028E-03 0.20319E-02 0.88222E-03
 -.15512E-02 -.62827E-03 -.77705E-03 -.23999E-02 -.31783E-02 -.23108E-02 -.14082E-02 -.97906E-03 0.43224E-04 0.11664E-02
 0.65853E-03 -.90421E-03 -.12170E-02 -.30266E-03 -.18366E-03 -.79204E-03 -.26015E-03 0.97540E-03 0.61053E-03 -.10880E-02
 -.13808E-04 0.71439E-03 -.35245E-03 -.16260E-02 -.12035E-02 -.35201E-06 0.23877E-03 -.11551E-03 -.18175E-04 -.25428E-04
 -.77663E-03 -.12170E-02 -.55984E-03 -.27888E-04 -.58865E-03 -.10800E-02 -.56152E-03 -.21592E-03 -.87569E-03 -.11178E-02
 0.13504E-02 0.73267E-03 -.64133E-03 -.77092E-03 0.29591E-03 0.55066E-03 -.45942E-03 -.10807E-02 -.63770E-03 -.25557E-03
 -.40129E-03 -.30266E-03 -.27888E-04 -.55071E-03 -.15587E-02 -.16636E-02 -.85433E-03 -.34798E-03 -.16896E-03 0.58543E-03
 0.59000E-03 -.46703E-03 -.87623E-03 -.11213E-04 0.49671E-03 -.47043E-03 -.13740E-02 -.63830E-03 0.66004E-03 0.80271E-03
 0.15839E-03 -.18366E-03 -.58865E-03 -.15587E-02 -.20321E-02 -.10941E-02 0.21996E-03 0.67192E-03 0.69801E-03 0.90096E-03
 -.41464E-03 -.76027E-03 -.20488E-03 0.62490E-03 0.19646E-03 -.79491E-03 -.28446E-03 0.13484E-02 0.16706E-02 0.30111E-03
 -.74931E-03 -.79204E-03 -.10800E-02 -.16636E-02 -.10941E-02 0.46021E-03 0.10688E-02 0.31824E-03 -.27023E-03 -.20392E-03
 0.15776E-03 0.30527E-04 0.67919E-03 0.97441E-03 0.16243E-03 -.10788E-03 0.10688E-02 0.16083E-02 0.60576E-04 -.15281E-02
 -.11648E-02 -.26015E-03 -.56152E-03 -.85433E-03 0.21996E-03 0.10688E-02 0.56813E-04 -.12657E-02 -.93185E-03 0.81548E-04
 0.52862E-03 0.16213E-03 0.88354E-03 0.80133E-03 -.13656E-03 -.56137E-04 0.66161E-03 -.11448E-03 -.16915E-02 -.13326E-02
 0.56028E-03 0.97540E-03 -.21592E-03 -.34798E-03 0.67192E-03 0.31824E-03 -.12657E-02 -.12091E-02 0.66456E-03 0.14641E-02
 -.75084E-03 -.24168E-03 0.82899E-03 0.14558E-03 -.91776E-03 -.47563E-03 0.66413E-04 -.68147E-03 -.82562E-03 0.92458E-03
 0.20319E-02 0.61053E-03 -.87569E-03 -.16896E-03 0.69801E-03 -.27023E-03 -.93185E-03 0.66456E-03 0.20847E-02 0.90099E-03
 -.13945E-02 0.49791E-03 0.97382E-03 -.54289E-03 -.10008E-02 0.30160E-03 0.85586E-03 0.25353E-03 0.62612E-03 0.16639E-02
 0.88222E-03 -.10880E-02 -.11178E-02 0.58543E-03 0.90096E-03 -.20392E-03 0.81548E-04 0.14641E-02 0.90099E-03 -.12232E-02
 0.78955E-02 0.90985E-02 0.62363E-02 0.23574E-02 0.11348E-02 0.11566E-02 0.25824E-05 -.64367E-03 0.11509E-02 0.30121E-02
 0.23797E-02 0.10441E-02 0.11518E-02 0.10275E-02 -.69318E-03 -.13140E-02 0.11340E-02 0.38922E-02 0.45421E-02 0.53036E-02
 0.90985E-02 0.74847E-02 0.35868E-02 0.12721E-02 0.11806E-02 0.62545E-03 -.52570E-03 0.51572E-03 0.37467E-02 0.57539E-02
 0.52437E-02 0.41654E-02 0.31699E-02 0.10396E-02 -.12240E-02 -.84929E-03 0.19173E-02 0.42086E-02 0.55348E-02 0.75126E-02