unknown system                          
   1.00000000000000     
     2.573869    0.000000    0.000000
     1.286934    2.229036    0.000000
     0.000000    0.000000   30.304665
   Cu   H 
     4     1
Direct
 -0.000000  0.000000  0.396427
  0.333333  0.333333  0.465162
  0.666667  0.666667  0.533889
  0.000000 -0.000000  0.606712
  0.666667  0.666667  0.634829
 
   20   20  240
 0.48094911587E-01 0.44251603574E-01 0.34750752267E-01 0.23271945680E-01 0.13377967116E-01
 0.69489230937E-02 0.35802194690E-02 0.14559960571E-02 -.76982688266E-03 -.28583275094E-02
 -.37082639595E-02 -.28201228925E-02 -.76953404846E-03 0.15424575306E-02 0.39000862775E-02
 0.72745229521E-02 0.13375273160E-01 0.23085184726E-01 0.34785259699E-01 0.44464661473E-01
 0.44251603574E-01 0.37695675082E-01 0.27772721035E-01 0.17455095715E-01 0.92133031855E-02
 0.40921339192E-02 0.10319969750E-02 -.17404024707E-02 -.44169668480E-02 -.56468602930E-02
 -.47512739809E-02 -.26607557710E-02 -.54273326066E-03 0.14370838453E-02 0.40015953601E-02
 0.84561824739E-02 0.16217097086E-01 0.27143572600E-01 0.38139069502E-01 0.44684687527E-01
 0.34750752268E-01 0.27772721034E-01 0.19097175309E-01 0.10579044991E-01 0.39650104429E-02
 -.52581069091E-03 -.44930006790E-02 -.88391229877E-02 -.12107540567E-01 -.12546361305E-01
 -.10538887098E-01 -.76580757578E-02 -.45241023113E-02 -.84635895768E-03 0.36753850022E-02
 0.97146845352E-02 0.18138759816E-01 0.27967911406E-01 0.35680883348E-01 0.38025803261E-01
 0.23271945680E-01 0.17455095715E-01 0.10579044991E-01 0.38789633310E-02 -.16417045709E-02
 -.69165153729E-02 -.13481717921E-01 -.20321892303E-01 -.24311450675E-01 -.23898976799E-01
 -.20226680852E-01 -.14751438848E-01 -.81182834693E-02 -.12909139800E-02 0.47414914749E-02
 0.10578000773E-01 0.17391303401E-01 0.24117642789E-01 0.27853454717E-01 0.27207437470E-01
 0.13377967116E-01 0.92133031857E-02 0.39650104428E-02 -.16417045710E-02 -.78395075437E-02
 -.16323991524E-01 -.27001759901E-01 -.36055871427E-01 -.39333072299E-01 -.36184654908E-01
 -.28538330914E-01 -.18360435125E-01 -.78400473330E-02 0.30734695860E-03 0.52194232350E-02
 0.89836190022E-02 0.13371609500E-01 0.17106709943E-01 0.18091159915E-01 0.16428130684E-01
 0.69489230941E-02 0.40921339192E-02 -.52581069110E-03 -.69165153732E-02 -.16323991524E-01
 -.29552113037E-01 -.43355125887E-01 -.51698272752E-01 -.51217778432E-01 -.43195288046E-01
 -.30702732701E-01 -.16870385321E-01 -.54279565763E-02 0.94437603408E-03 0.34781902314E-02
 0.56760195408E-02 0.85701654049E-02 0.10259169355E-01 0.98357811307E-02 0.85405397303E-02
 0.35802194689E-02 0.10319969747E-02 -.44930006795E-02 -.13481717922E-01 -.27001759901E-01
 -.43355125887E-01 -.56424285848E-01 -.60380544262E-01 -.54608164397E-01 -.42373134022E-01
 -.27283008444E-01 -.13069824361E-01 -.36050121658E-02 0.17359511531E-03 0.14363080332E-02
 0.31563047952E-02 0.46866753415E-02 0.45431008603E-02 0.37557287900E-02 0.37990489060E-02
 0.14559960567E-02 -.17404024712E-02 -.88391229884E-02 -.20321892303E-01 -.36055871428E-01
 -.51698272752E-01 -.60380544262E-01 -.58937656332E-01 -.49590382277E-01 -.35937098644E-01
 -.20991566828E-01 -.85739222274E-02 -.19427829812E-02 -.28284590828E-03 -.28795372046E-04
 0.20081550853E-03 -.63803315408E-03 -.19235693986E-02 -.13399869778E-02 0.86375431742E-03
 -.76982688301E-03 -.44169668486E-02 -.12107540568E-01 -.24311450676E-01 -.39333072299E-01
 -.51217778432E-01 -.54608164397E-01 -.49590382276E-01 -.39332500899E-01 -.26152309828E-01
 -.12716217387E-01 -.34378886415E-02 -.76435082740E-03 -.23908413019E-02 -.49603895977E-02
 -.77690409914E-02 -.10369093128E-01 -.10206682685E-01 -.61739807352E-02 -.16417950401E-02
 -.28583275098E-02 -.56468602938E-02 -.12546361306E-01 -.23898976800E-01 -.36184654908E-01
 -.43195288045E-01 -.42373134022E-01 -.35937098644E-01 -.26152309828E-01 -.14353920598E-01
 -.43012658846E-02 -.88730893440E-03 -.45522323841E-02 -.11158606184E-01 -.17433696325E-01
 -.22297434826E-01 -.23582323590E-01 -.18973994994E-01 -.10665925216E-01 -.43007416529E-02
 -.37082639598E-02 -.47512739813E-02 -.10538887099E-01 -.20226680852E-01 -.28538330914E-01
 -.30702732700E-01 -.27283008444E-01 -.20991566828E-01 -.12716217386E-01 -.43012658845E-02
 -.92651235654E-03 -.60214630170E-02 -.16670017369E-01 -.27499825436E-01 -.35796338456E-01
 -.39830482542E-01 -.36728635198E-01 -.26461259583E-01 -.14526772027E-01 -.66464323854E-02
 -.28201228930E-02 -.26607557712E-02 -.76580757579E-02 -.14751438848E-01 -.18360435125E-01
 -.16870385321E-01 -.13069824361E-01 -.85739222268E-02 -.34378886413E-02 -.88730893427E-03
 -.60214630171E-02 -.18916933160E-01 -.34070954089E-01 -.46755113043E-01 -.54926258770E-01
 -.55748603581E-01 -.46788301925E-01 -.31316706077E-01 -.16813598289E-01 -.74857559065E-02
 -.76953404872E-03 -.54273326077E-03 -.45241023113E-02 -.81182834692E-02 -.78400473328E-02
 -.54279565760E-02 -.36050121654E-02 -.19427829808E-02 -.76435082725E-03 -.45522323841E-02
 -.16670017369E-01 -.34070954089E-01 -.50994915408E-01 -.64086613358E-01 -.70529578765E-01
 -.66240413944E-01 -.50989994383E-01 -.31677869249E-01 -.16026991838E-01 -.60547051373E-02
 0.15424575300E-02 0.14370838449E-02 -.84635895787E-03 -.12909139801E-02 0.30734695846E-03
 0.94437603403E-03 0.17359511543E-03 -.28284590824E-03 -.23908413021E-02 -.11158606184E-01
 -.27499825437E-01 -.46755113043E-01 -.64086613358E-01 -.76119269151E-01 -.78230608396E-01
 -.67082901184E-01 -.46706497023E-01 -.26434591694E-01 -.11970481467E-01 -.29650450701E-02
 0.39000862769E-02 0.40015953598E-02 0.36753850020E-02 0.47414914749E-02 0.52194232348E-02
 0.34781902314E-02 0.14363080331E-02 -.28795372167E-04 -.49603895980E-02 -.17433696325E-01
 -.35796338457E-01 -.54926258771E-01 -.70529578765E-01 -.78230608396E-01 -.73315859889E-01
 -.56202399130E-01 -.34871949273E-01 -.17699849100E-01 -.65309146006E-02 0.52650199201E-03
 0.72745229518E-02 0.84561824740E-02 0.97146845351E-02 0.10578000773E-01 0.89836190023E-02
 0.56760195405E-02 0.31563047951E-02 0.20081550845E-03 -.77690409917E-02 -.22297434827E-01
 -.39830482542E-01 -.55748603581E-01 -.66240413945E-01 -.67082901184E-01 -.56202399129E-01
 -.38102641906E-01 -.21084989098E-01 -.93444940885E-02 -.14338333265E-02 0.42330295425E-02
 0.13375273160E-01 0.16217097086E-01 0.18138759817E-01 0.17391303401E-01 0.13371609499E-01
 0.85701654047E-02 0.46866753413E-02 -.63803315424E-03 -.10369093129E-01 -.23582323590E-01
 -.36728635198E-01 -.46788301925E-01 -.50989994383E-01 -.46706497023E-01 -.34871949273E-01
 -.21084989098E-01 -.10366082537E-01 -.27757489333E-02 0.37923491492E-02 0.94362402808E-02
 0.23085184726E-01 0.27143572601E-01 0.27967911406E-01 0.24117642788E-01 0.17106709942E-01
 0.10259169355E-01 0.45431008598E-02 -.19235693989E-02 -.10206682686E-01 -.18973994994E-01
 -.26461259583E-01 -.31316706077E-01 -.31677869248E-01 -.26434591694E-01 -.17699849099E-01
 -.93444940881E-02 -.27757489332E-02 0.35346081323E-02 0.10558632009E-01 0.17378492770E-01
 0.34785259700E-01 0.38139069502E-01 0.35680883347E-01 0.27853454716E-01 0.18091159915E-01
 0.98357811302E-02 0.37557287898E-02 -.13399869777E-02 -.61739807351E-02 -.10665925215E-01
 -.14526772027E-01 -.16813598289E-01 -.16026991837E-01 -.11970481466E-01 -.65309145998E-02
 -.14338333260E-02 0.37923491493E-02 0.10558632009E-01 0.18949645967E-01 0.27633255586E-01
 0.44464661473E-01 0.44684687527E-01 0.38025803261E-01 0.27207437470E-01 0.16428130684E-01
 0.85405397298E-02 0.37990489060E-02 0.86375431756E-03 -.16417950399E-02 -.43007416525E-02
 -.66464323850E-02 -.74857559062E-02 -.60547051368E-02 -.29650450694E-02 0.52650199277E-03
 0.42330295428E-02 0.94362402807E-02 0.17378492769E-01 0.27633255586E-01 0.37814310893E-01
 -.21948461214E-01 -.20165461347E-01 -.16043065558E-01 -.10637934667E-01 -.52187976822E-02
 -.11959932278E-02 0.72432736098E-03 0.10397255717E-02 0.67315885869E-03 0.12066870952E-03
 -.31382402924E-03 -.15689201895E-03 0.67424401942E-03 0.13726506907E-02 0.87422002923E-03
 -.13205302729E-02 -.52215929691E-02 -.10548519254E-01 -.16281146149E-01 -.20588651516E-01
 -.20165461347E-01 -.17259497500E-01 -.12222059780E-01 -.67618959371E-02 -.24869753020E-02
 -.17516351980E-03 0.33747032610E-03 -.15157949252E-03 -.66991688065E-03 -.58530450263E-03
 0.87313229397E-04 0.87364368499E-03 0.12753766912E-02 0.92399400306E-03 -.54650374992E-03
 -.34454548369E-02 -.76982519184E-02 -.12648994245E-01 -.17192665999E-01 -.20051422385E-01
 -.16043065558E-01 -.12222059780E-01 -.73467004324E-02 -.34602297768E-02 -.12567846882E-02
 -.36436870312E-03 -.34339092379E-03 -.66502872873E-03 -.56352864130E-03 0.15301744659E-03
 0.72287047842E-03 0.54339318391E-03 -.17925536838E-04 -.58198060000E-03 -.17319226027E-02
 -.42308560072E-02 -.78888858137E-02 -.11847790922E-01 -.15255494973E-01 -.17048924804E-01
 -.10637934667E-01 -.67618959371E-02 -.34602297768E-02 -.17404304594E-02 -.82400858047E-03
 -.18720687983E-03 -.14676407210E-03 -.47540415880E-03 -.41336901254E-03 -.16190915507E-03
 -.55810658476E-03 -.12657390770E-02 -.11579434052E-02 -.52935574848E-03 -.10476719221E-02
 -.33848692276E-02 -.65799342672E-02 -.96617504066E-02 -.12087078504E-01 -.12744479742E-01
 -.52187976821E-02 -.24869753018E-02 -.12567846881E-02 -.82400858057E-03 -.73473866479E-04
 0.33544771408E-03 -.41739208153E-03 -.14180023517E-02 -.16411035061E-02 -.16732476755E-02
 -.20281415828E-02 -.16614403364E-02 -.74673742972E-04 0.96227353150E-03 -.23440913577E-03
 -.28509314570E-02 -.52254334459E-02 -.70624583218E-02 -.82934224961E-02 -.77842894480E-02
 -.11959932276E-02 -.17516351960E-03 -.36436870314E-03 -.18720687995E-03 0.33544771399E-03
 -.39876964702E-03 -.21991673365E-02 -.30509836193E-02 -.25241637689E-02 -.20100376279E-02
 -.16380319160E-02 -.29317910832E-03 0.13268071964E-02 0.10908452476E-02 -.97580611126E-03
 -.26841444511E-02 -.32759359248E-02 -.38387811703E-02 -.42704812579E-02 -.32342725596E-02
 0.72432736098E-03 0.33747032609E-03 -.34339092412E-03 -.14676407244E-03 -.41739208188E-03
 -.21991673369E-02 -.36306923844E-02 -.29707093715E-02 -.15724501128E-02 -.11573338312E-02
 -.86629933491E-03 0.28348526430E-03 0.84649886553E-03 -.31760319705E-03 -.14882567973E-02
 -.10530940476E-02 -.35474208768E-03 -.86932582076E-03 -.13128043344E-02 -.32215974390E-03
 0.10397255714E-02 -.15157949275E-03 -.66502872932E-03 -.47540415913E-03 -.14180023523E-02
 -.30509836197E-02 -.29707093715E-02 -.13295267375E-02 -.70211783193E-03 -.14168488356E-02
 -.13337007959E-02 -.22766270526E-03 -.26111475506E-05 -.56343035087E-03 0.92906997487E-04
 0.16400886689E-02 0.16850454221E-02 0.31218794356E-03 0.37222256708E-05 0.99238927702E-03
 0.67315885846E-03 -.66991688099E-03 -.56352864170E-03 -.41336901312E-03 -.16411035064E-02
 -.25241637693E-02 -.15724501129E-02 -.70211783188E-03 -.16408927970E-02 -.24996445874E-02
 -.13044674200E-02 0.37983021898E-03 0.67756915874E-03 0.85829048237E-03 0.22249056016E-02
 0.29881896998E-02 0.16876734057E-02 0.37659088504E-03 0.96933512735E-03 0.17165104703E-02
 0.12066870919E-03 -.58530450323E-03 0.15301744598E-03 -.16190915548E-03 -.16732476758E-02
 -.20100376281E-02 -.11573338310E-02 -.14168488353E-02 -.24996445872E-02 -.17458089381E-02
 0.69448966457E-03 0.19205075678E-02 0.15463373580E-02 0.19227301664E-02 0.31567018916E-02
 0.29831089540E-02 0.15945877041E-02 0.15053430117E-02 0.25520186440E-02 0.20758146839E-02
 -.31382402950E-03 0.87313228978E-04 0.72287047806E-03 -.55810658488E-03 -.20281415829E-02
 -.16380319157E-02 -.86629933435E-03 -.13337007954E-02 -.13044674199E-02 0.69448966463E-03
 0.24502987107E-02 0.20038129609E-02 0.13802425293E-02 0.27032877225E-02 0.42308679653E-02
 0.39153219499E-02 0.32197281538E-02 0.37204137173E-02 0.36462573670E-02 0.15427328892E-02
 -.15689201949E-03 0.87364368475E-03 0.54339318364E-03 -.12657390771E-02 -.16614403363E-02
 -.29317910783E-03 0.28348526494E-03 -.22766270448E-03 0.37983021931E-03 0.19205075680E-02
 0.20038129608E-02 0.11282040607E-02 0.22554464907E-02 0.51965670849E-02 0.66453850410E-02
 0.58631990137E-02 0.51719538661E-02 0.48913836398E-02 0.31148160479E-02 0.49286655627E-03
 0.67424401909E-03 0.12753766910E-02 -.17925536994E-04 -.11579434051E-02 -.74673742844E-04
 0.13268071968E-02 0.84649886602E-03 -.26111470071E-05 0.67756915900E-03 0.15463373580E-02
 0.13802425290E-02 0.22554464904E-02 0.55644622415E-02 0.85028168597E-02 0.83196908610E-02
 0.65669392888E-02 0.55666992582E-02 0.43736668215E-02 0.18830278401E-02 0.13299934022E-03
 0.13726506900E-02 0.92399400267E-03 -.58198060020E-03 -.52935574860E-03 0.96227353139E-03
 0.10908452477E-02 -.31760319686E-03 -.56343035067E-03 0.85829048229E-03 0.19227301663E-02
 0.27032877221E-02 0.51965670842E-02 0.85028168595E-02 0.93212828646E-02 0.74319001713E-02
 0.57815005902E-02 0.51279775733E-02 0.35678493568E-02 0.12889415371E-02 0.63657155696E-03
 0.87422002865E-03 -.54650375023E-03 -.17319226030E-02 -.10476719222E-02 -.23440913594E-03
 -.97580611127E-03 -.14882567973E-02 0.92906997430E-04 0.22249056014E-02 0.31567018913E-02
 0.42308679647E-02 0.66453850405E-02 0.83196908607E-02 0.74319001713E-02 0.58078706550E-02
 0.54461906462E-02 0.49804970596E-02 0.29121734942E-02 0.96902716494E-03 0.83721434145E-03
 -.13205302730E-02 -.34454548370E-02 -.42308560075E-02 -.33848692277E-02 -.28509314573E-02
 -.26841444513E-02 -.10530940477E-02 0.16400886688E-02 0.29881896995E-02 0.29831089538E-02
 0.39153219495E-02 0.58631990135E-02 0.65669392885E-02 0.57815005902E-02 0.54461906464E-02
 0.55362605278E-02 0.41005809987E-02 0.14577535504E-02 0.11255815778E-04 -.17437617521E-03
 -.52215929693E-02 -.76982519182E-02 -.78888858135E-02 -.65799342674E-02 -.52254334462E-02
 -.32759359250E-02 -.35474208795E-03 0.16850454220E-02 0.16876734053E-02 0.15945877038E-02
 0.32197281536E-02 0.51719538659E-02 0.55666992584E-02 0.51279775735E-02 0.49804970598E-02
 0.41005809987E-02 0.16908633872E-02 -.58443333197E-03 -.14632912040E-02 -.25500743774E-02
 -.10548519254E-01 -.12648994245E-01 -.11847790922E-01 -.96617504067E-02 -.70624583220E-02
 -.38387811708E-02 -.86932582121E-03 0.31218794324E-03 0.37659088462E-03 0.15053430116E-02
 0.37204137173E-02 0.48913836399E-02 0.43736668219E-02 0.35678493575E-02 0.29121734947E-02
 0.14577535507E-02 -.58443333197E-03 -.20333823526E-02 -.34657370149E-02 -.65470290751E-02
 -.16281146149E-01 -.17192665999E-01 -.15255494973E-01 -.12087078504E-01 -.82934224961E-02
 -.42704812582E-02 -.13128043345E-02 0.37222256708E-05 0.96933512741E-03 0.25520186442E-02
 0.36462573673E-02 0.31148160484E-02 0.18830278409E-02 0.12889415379E-02 0.96902716567E-03
 0.11255816247E-04 -.14632912038E-02 -.34657370151E-02 -.70336591518E-02 -.12126962302E-01
 -.20588651516E-01 -.20051422386E-01 -.17048924804E-01 -.12744479742E-01 -.77842894481E-02
 -.32342725598E-02 -.32215974407E-03 0.99238927704E-03 0.17165104704E-02 0.20758146843E-02
 0.15427328896E-02 0.49286655666E-03 0.13299934073E-03 0.63657155770E-03 0.83721434219E-03
 -.17437617487E-03 -.25500743774E-02 -.65470290754E-02 -.12126962302E-01 -.17637667285E-01
 -.46866589428E-01 -.42817817160E-01 -.33889648158E-01 -.22754932011E-01 -.12143199574E-01
 -.46424425048E-02 -.98345809050E-03 0.59655514821E-03 0.19661093747E-02 0.30380611157E-02
 0.30547517351E-02 0.24438165151E-02 0.19663100807E-02 0.11745605605E-02 -.10033541565E-02
 -.52151288884E-02 -.12143591242E-01 -.22387927243E-01 -.34400230209E-01 -.43877645201E-01
 -.42817817161E-01 -.36556921186E-01 -.26508855575E-01 -.15725105386E-01 -.71049927933E-02
 -.20872005518E-02 0.22442162497E-03 0.18930572292E-02 0.38895383174E-02 0.55401239430E-02
 0.59894879468E-02 0.52198443659E-02 0.35491242569E-02 0.99341761952E-03 -.27376866123E-02
 -.82646451129E-02 -.16362290754E-01 -.26737207410E-01 -.36869537143E-01 -.43023971402E-01
 -.33889648159E-01 -.26508855575E-01 -.17148023423E-01 -.88958063309E-02 -.31122250457E-02
 0.91281494916E-03 0.46886606865E-02 0.89491876702E-02 0.12948335545E-01 0.15012612084E-01
 0.13952654060E-01 0.10184462800E-01 0.53700376465E-02 0.79878292500E-03 -.37716243549E-02
 -.95734025503E-02 -.17277840911E-01 -.25960282329E-01 -.33247445717E-01 -.36406633314E-01
 -.22754932011E-01 -.15725105386E-01 -.88958063311E-02 -.35887233552E-02 0.14667671597E-02
 0.77627461393E-02 0.15148961544E-01 0.22156047743E-01 0.26734939440E-01 0.26825935813E-01
 0.21895573067E-01 0.14179037678E-01 0.70212510100E-02 0.17054324118E-02 -.30650350796E-02
 -.87444761436E-02 -.15298390829E-01 -.21648447628E-01 -.26160635798E-01 -.26829755101E-01
 -.12143199574E-01 -.71049927931E-02 -.31122250457E-02 0.14667671597E-02 0.90511563536E-02
 0.19282393526E-01 0.29579346732E-01 0.37419077705E-01 0.40520005460E-01 0.37038598755E-01
 0.27894787924E-01 0.17324345142E-01 0.90487518700E-02 0.30898528539E-02 -.23231140018E-02
 -.76024313917E-02 -.12144684093E-01 -.15736768845E-01 -.17701613481E-01 -.16507629967E-01
 -.46424425045E-02 -.20872005515E-02 0.91281494925E-03 0.77627461393E-02 0.19282393526E-01
 0.32407810556E-01 0.43723296458E-01 0.50954240692E-01 0.51528746764E-01 0.43943936265E-01
 0.31080385586E-01 0.18571768240E-01 0.93030635800E-02 0.23532860857E-02 -.30750871975E-02
 -.63441854137E-02 -.78484710148E-02 -.89899646415E-02 -.94330744844E-02 -.77408117087E-02
 -.98345809042E-03 0.22442162511E-03 0.46886606864E-02 0.15148961544E-01 0.29579346731E-01
 0.43723296458E-01 0.54847673115E-01 0.60445612575E-01 0.57151190980E-01 0.44826227726E-01
 0.28961128758E-01 0.15597433851E-01 0.61833754663E-02 -.22565907267E-03 -.32653503944E-02
 -.30052578109E-02 -.20841621675E-02 -.25409523014E-02 -.30692368176E-02 -.21849163274E-02
 0.59655514807E-03 0.18930572292E-02 0.89491876698E-02 0.22156047743E-01 0.37419077705E-01
 0.50954240691E-01 0.60445612575E-01 0.62287126290E-01 0.53546660250E-01 0.37301414450E-01
 0.21106478022E-01 0.95587531540E-02 0.23950755747E-02 -.87186536018E-03 0.13993402069E-03
 0.31870532789E-02 0.42842632488E-02 0.28245937563E-02 0.14571877863E-02 0.10496107678E-02
 0.19661093745E-02 0.38895383172E-02 0.12948335544E-01 0.26734939439E-01 0.40520005459E-01
 0.51528746763E-01 0.57151190980E-01 0.53546660251E-01 0.40519676053E-01 0.24401611597E-01
 0.12074244997E-01 0.50092465913E-02 0.19668270384E-02 0.31642401546E-02 0.78343742364E-02
 0.11735375738E-01 0.11575510755E-01 0.89483743462E-02 0.65373709100E-02 0.41349121497E-02
 0.30380611154E-02 0.55401239424E-02 0.15012612083E-01 0.26825935812E-01 0.37038598755E-01
 0.43943936265E-01 0.44826227726E-01 0.37301414450E-01 0.24401611598E-01 0.13022782458E-01
 0.67561031025E-02 0.46667900150E-02 0.63395140014E-02 0.12362444936E-01 0.19898323076E-01
 0.23679865924E-01 0.22186364619E-01 0.18134627937E-01 0.13129993944E-01 0.71494882805E-02
 0.30547517348E-02 0.59894879464E-02 0.13952654059E-01 0.21895573066E-01 0.27894787924E-01
 0.31080385586E-01 0.28961128758E-01 0.21106478023E-01 0.12074244997E-01 0.67561031027E-02
 0.58054559946E-02 0.85357365560E-02 0.16031126599E-01 0.27450774336E-01 0.37170761545E-01
 0.39948093984E-01 0.36080754284E-01 0.28446700316E-01 0.18419356194E-01 0.82356891731E-02
 0.24438165145E-02 0.52198443657E-02 0.10184462799E-01 0.14179037678E-01 0.17324345142E-01
 0.18571768241E-01 0.15597433852E-01 0.95587531547E-02 0.50092465917E-02 0.46667900152E-02
 0.85357365560E-02 0.17477532317E-01 0.32111336148E-01 0.48016620411E-01 0.57437923849E-01
 0.56696301407E-01 0.48000768822E-01 0.34627504581E-01 0.19344443897E-01 0.69753620011E-02
 0.19663100803E-02 0.35491242566E-02 0.53700376463E-02 0.70212510100E-02 0.90487518700E-02
 0.93030635803E-02 0.61833754668E-02 0.23950755753E-02 0.19668270388E-02 0.63395140015E-02
 0.16031126598E-01 0.32111336148E-01 0.52190426320E-01 0.68372937496E-01 0.73378100401E-01
 0.66654983689E-01 0.52189550919E-01 0.33954323144E-01 0.16394602208E-01 0.50174996488E-02
 0.11745605599E-02 0.99341761910E-03 0.79878292470E-03 0.17054324116E-02 0.30898528538E-02
 0.23532860856E-02 -.22565907250E-03 -.87186535988E-03 0.31642401546E-02 0.12362444936E-01
 0.27450774335E-01 0.48016620410E-01 0.68372937496E-01 0.79803337398E-01 0.78135910457E-01
 0.65926762996E-01 0.47831892666E-01 0.28117551894E-01 0.11910535883E-01 0.32968398673E-02
 -.10033541571E-02 -.27376866125E-02 -.37716243550E-02 -.30650350798E-02 -.23231140020E-02
 -.30750871976E-02 -.32653503945E-02 0.13993402062E-03 0.78343742362E-02 0.19898323076E-01
 0.37170761545E-01 0.57437923848E-01 0.73378100401E-01 0.78135910457E-01 0.71140587947E-01
 0.56315023119E-01 0.37745461306E-01 0.19676916488E-01 0.68953465123E-02 0.10749669197E-02
 -.52151288888E-02 -.82646451129E-02 -.95734025506E-02 -.87444761438E-02 -.76024313919E-02
 -.63441854140E-02 -.30052578111E-02 0.31870532788E-02 0.11735375738E-01 0.23679865923E-01
 0.39948093984E-01 0.56696301407E-01 0.66654983688E-01 0.65926762996E-01 0.56315023119E-01
 0.41459067415E-01 0.24699227854E-01 0.10249985700E-01 0.15662403815E-02 -.23230059251E-02
 -.12143591242E-01 -.16362290754E-01 -.17277840912E-01 -.15298390829E-01 -.12144684093E-01
 -.78484710150E-02 -.20841621679E-02 0.42842632486E-02 0.11575510754E-01 0.22186364619E-01
 0.36080754283E-01 0.48000768822E-01 0.52189550920E-01 0.47831892666E-01 0.37745461306E-01
 0.24699227854E-01 0.11577292484E-01 0.18821459249E-02 -.34080909813E-02 -.72653101839E-02
 -.22387927243E-01 -.26737207409E-01 -.25960282329E-01 -.21648447628E-01 -.15736768846E-01
 -.89899646418E-02 -.25409523019E-02 0.28245937560E-02 0.89483743458E-02 0.18134627937E-01
 0.28446700316E-01 0.34627504581E-01 0.33954323145E-01 0.28117551894E-01 0.19676916488E-01
 0.10249985700E-01 0.18821459248E-02 -.38647038535E-02 -.85479012927E-02 -.14979312128E-01
 -.34400230209E-01 -.36869537142E-01 -.33247445716E-01 -.26160635798E-01 -.17701613482E-01
 -.94330744846E-02 -.30692368177E-02 0.14571877864E-02 0.65373709101E-02 0.13129993945E-01
 0.18419356194E-01 0.19344443897E-01 0.16394602209E-01 0.11910535884E-01 0.68953465129E-02
 0.15662403819E-02 -.34080909812E-02 -.85479012929E-02 -.16039897553E-01 -.26017092110E-01
 -.43877645201E-01 -.43023971402E-01 -.36406633313E-01 -.26829755101E-01 -.16507629968E-01
 -.77408117089E-02 -.21849163275E-02 0.10496107677E-02 0.41349121496E-02 0.71494882808E-02
 0.82356891735E-02 0.69753620016E-02 0.50174996493E-02 0.32968398681E-02 0.10749669204E-02
 -.23230059249E-02 -.72653101839E-02 -.14979312128E-01 -.26017092109E-01 -.37370603861E-01
 0.21547962858E-01 0.20736053514E-01 0.16009997523E-01 0.10111807190E-01 0.60277854165E-02
 0.37501180696E-02 0.19589967121E-02 0.74915201582E-03 0.55322001984E-03 0.44252071651E-03
 -.25695163058E-03 -.46771209593E-03 0.55206295646E-03 0.15699710048E-02 0.17669427038E-02
 0.27280442849E-02 0.60293463837E-02 0.10756564992E-01 0.15227887487E-01 0.19040730738E-01
 0.20736053514E-01 0.17631118889E-01 0.12324467478E-01 0.75851175474E-02 0.45533515589E-02
 0.23897139526E-02 0.65038042352E-03 -.36463567000E-04 0.33222189714E-03 0.79927110489E-03
 0.10259467926E-02 0.14496659621E-02 0.18472990345E-02 0.15993268203E-02 0.14583232283E-02
 0.31919573439E-02 0.72467063816E-02 0.12293729921E-01 0.16938244027E-01 0.20209556362E-01
 0.16009997522E-01 0.12324467477E-01 0.81520775819E-02 0.47190586359E-02 0.22687541792E-02
 0.70266826664E-03 0.21830917653E-03 0.86424941419E-03 0.19898253063E-02 0.27185871148E-02
 0.27122199266E-02 0.21259944369E-02 0.12549828527E-02 0.69261561011E-03 0.14265150192E-02
 0.41351917527E-02 0.84337666967E-02 0.13045588469E-01 0.16505405337E-01 0.17643432420E-01
 0.10111807190E-01 0.75851175474E-02 0.47190586359E-02 0.21289509068E-02 0.81724097127E-03
 0.10460400048E-02 0.20661422263E-02 0.30921612743E-02 0.37560958634E-02 0.36863151109E-02
 0.26532897477E-02 0.12452972155E-02 0.53549761658E-03 0.10028465016E-02 0.24860076210E-02
 0.49468651792E-02 0.82560959842E-02 0.11348431895E-01 0.12747374179E-01 0.12066584400E-01
 0.60277854166E-02 0.45533515589E-02 0.22687541792E-02 0.81724097123E-03 0.14928354854E-02
 0.31037474577E-02 0.38791213337E-02 0.38855654580E-02 0.38551042005E-02 0.33794998944E-02
 0.21205972534E-02 0.11853685672E-02 0.14912093418E-02 0.22787439572E-02 0.28250953672E-02
 0.39222903890E-02 0.60317735765E-02 0.77479271864E-02 0.78084724310E-02 0.69270131455E-02
 0.37501180700E-02 0.23897139529E-02 0.70266826687E-03 0.10460400049E-02 0.31037474575E-02
 0.41645621696E-02 0.36275219737E-02 0.34405740284E-02 0.40628784052E-02 0.38795989764E-02
 0.27488029603E-02 0.23107388009E-02 0.26123436047E-02 0.21274154652E-02 0.12134079215E-02
 0.18350638781E-02 0.37718355309E-02 0.47406688421E-02 0.42854886269E-02 0.39444366994E-02
 0.19589967122E-02 0.65038042381E-03 0.21830917645E-03 0.20661422262E-02 0.38791213334E-02
 0.36275219733E-02 0.31693522582E-02 0.44662026627E-02 0.57185553569E-02 0.47912534827E-02
 0.30900975779E-02 0.25309062021E-02 0.20162715464E-02 0.40466497447E-03 -.39303667835E-03
 0.11712276128E-02 0.29932856067E-02 0.28425113650E-02 0.19810992763E-02 0.20812412429E-02
 0.74915201569E-03 -.36463566904E-04 0.86424941392E-03 0.30921612740E-02 0.38855654574E-02
 0.34405740280E-02 0.44662026626E-02 0.65087024130E-02 0.62775358799E-02 0.36488736749E-02
 0.18498296343E-02 0.16447030682E-02 0.81811169672E-03 -.58417017345E-03 -.11582474870E-03
 0.18304429227E-02 0.21484883586E-02 0.60223585099E-03 0.74671751662E-05 0.80371805473E-03
 0.55322001968E-03 0.33222189702E-03 0.19898253061E-02 0.37560958629E-02 0.38551042001E-02
 0.40628784048E-02 0.57185553568E-02 0.62775358799E-02 0.38556918695E-02 0.11769369912E-02
 0.98291064210E-03 0.15216983230E-02 0.55014984247E-03 -.32241232455E-03 0.63092388011E-03
 0.13113021783E-02 -.20317927892E-03 -.16512868129E-02 -.70773619700E-03 0.76049524150E-03
 0.44252071619E-03 0.79927110447E-03 0.27185871141E-02 0.36863151106E-02 0.33794998940E-02
 0.38795989761E-02 0.47912534827E-02 0.36488736751E-02 0.11769369914E-02 0.63969212872E-03
 0.19521618097E-02 0.18999745133E-02 0.12819203139E-03 -.62841829830E-03 -.14757970754E-03
 -.86657074451E-03 -.24651682057E-02 -.20242627427E-02 0.27664304733E-03 0.12185734515E-02
 -.25695163093E-03 0.10259467921E-02 0.27122199262E-02 0.26532897473E-02 0.21205972531E-02
 0.27488029605E-02 0.30900975782E-02 0.18498296348E-02 0.98291064231E-03 0.19521618099E-02
 0.24802408925E-02 0.61029445803E-03 -.15915669506E-02 -.18923425140E-02 -.17305032790E-02
 -.26747490658E-02 -.28989405919E-02 -.91813546623E-03 0.91741844562E-03 0.47042392898E-03
 -.46771209653E-03 0.14496659618E-02 0.21259944364E-02 0.12452972152E-02 0.11853685671E-02
 0.23107388012E-02 0.25309062027E-02 0.16447030690E-02 0.15216983234E-02 0.18999745135E-02
 0.61029445796E-03 -.19474640931E-02 -.30939939288E-02 -.26183759234E-02 -.27278847245E-02
 -.34279130586E-02 -.26242035714E-02 -.69849945883E-03 -.20206412952E-03 -.99972349000E-03
 0.55206295598E-03 0.18472990342E-02 0.12549828524E-02 0.53549761639E-03 0.14912093418E-02
 0.26123436049E-02 0.20162715468E-02 0.81811169727E-03 0.55014984275E-03 0.12819203152E-03
 -.15915669508E-02 -.30939939292E-02 -.30085419761E-02 -.27919071426E-02 -.37485864934E-02
 -.42895094238E-02 -.30108266360E-02 -.15260433744E-02 -.13667675898E-02 -.11016032200E-02
 0.15699710041E-02 0.15993268198E-02 0.69261560971E-03 0.10028465013E-02 0.22787439570E-02
 0.21274154652E-02 0.40466497455E-03 -.58417017318E-03 -.32241232455E-03 -.62841829824E-03
 -.18923425142E-02 -.26183759239E-02 -.27919071430E-02 -.38666989228E-02 -.53106992036E-02
 -.49604616791E-02 -.29178586825E-02 -.14221073965E-02 -.89674337814E-03 0.16467590697E-03
 0.17669427032E-02 0.14583232280E-02 0.14265150189E-02 0.24860076208E-02 0.28250953670E-02
 0.12134079214E-02 -.39303667853E-03 -.11582474874E-03 0.63092387986E-03 -.14757970774E-03
 -.17305032795E-02 -.27278847250E-02 -.37485864936E-02 -.53106992040E-02 -.57106812098E-02
 -.37749359161E-02 -.13324529587E-02 -.34573837402E-03 0.10653456936E-04 0.10097937112E-02
 0.27280442846E-02 0.31919573439E-02 0.41351917523E-02 0.49468651791E-02 0.39222903887E-02
 0.18350638779E-02 0.11712276125E-02 0.18304429225E-02 0.13113021780E-02 -.86657074473E-03
 -.26747490661E-02 -.34279130588E-02 -.42895094241E-02 -.49604616793E-02 -.37749359157E-02
 -.12782695011E-02 0.51127042237E-04 -.12852189256E-03 0.22025187675E-03 0.16576482823E-02
 0.60293463837E-02 0.72467063817E-02 0.84337666965E-02 0.82560959841E-02 0.60317735763E-02
 0.37718355305E-02 0.29932856062E-02 0.21484883585E-02 -.20317927934E-03 -.24651682059E-02
 -.28989405920E-02 -.26242035714E-02 -.30108266359E-02 -.29178586824E-02 -.13324529585E-02
 0.51127042166E-04 -.20392028415E-03 -.38440322638E-03 0.14549608533E-02 0.42111937560E-02
 0.10756564992E-01 0.12293729922E-01 0.13045588469E-01 0.11348431895E-01 0.77479271863E-02
 0.47406688419E-02 0.28425113646E-02 0.60223585078E-03 -.16512868132E-02 -.20242627428E-02
 -.91813546618E-03 -.69849945851E-03 -.15260433741E-02 -.14221073960E-02 -.34573837370E-03
 -.12852189235E-03 -.38440322658E-03 0.13595812928E-02 0.52501774315E-02 0.87459058789E-02
 0.15227887487E-01 0.16938244028E-01 0.16505405337E-01 0.12747374179E-01 0.78084724306E-02
 0.42854886268E-02 0.19810992763E-02 0.74671751733E-05 -.70773619696E-03 0.27664304751E-03
 0.91741844593E-03 -.20206412892E-03 -.13667675892E-02 -.89674337741E-03 0.10653457487E-04
 0.22025187707E-03 0.14549608532E-02 0.52501774315E-02 0.98708242524E-02 0.13075378896E-01
 0.19040730738E-01 0.20209556362E-01 0.17643432420E-01 0.12066584400E-01 0.69270131455E-02
 0.39444366992E-02 0.20812412427E-02 0.80371805468E-03 0.76049524145E-03 0.12185734518E-02
 0.47042392934E-03 -.99972348955E-03 -.11016032195E-02 0.16467590762E-03 0.10097937118E-02
 0.16576482826E-02 0.42111937559E-02 0.87459058784E-02 0.13075378896E-01 0.16306724314E-01
 0.48033864614E-01 0.45473347998E-01 0.35265261731E-01 0.22695000675E-01 0.13339386089E-01
 0.77943417785E-02 0.38655696066E-02 0.92151740070E-03 -.80324300277E-03 -.22579719043E-02
 -.37403402966E-02 -.34830975379E-02 -.80450968025E-03 0.19851198137E-02 0.34991171730E-02
 0.63193532219E-02 0.13340142564E-01 0.23616574996E-01 0.34212031421E-01 0.43143093777E-01
 0.45473347998E-01 0.38664084140E-01 0.27240140331E-01 0.16703855786E-01 0.96323552565E-02