    5    5   50    1
  0.3477306E+02  0.2573869E-09  0.2573869E-09  0.3030466E-08  0.5000000E-15
  1.000000000000000E-004
  CAR 
 unknown system                          
     45     14     28
 
  0.0000000E+00  0.0000000E+00  0.0000000E+00  0.1000000E-01
    1      -11.795997   1.000000
    2      -10.688176   1.000000
    3       -8.981880   1.000000
    4       -7.493411   1.000000
    5       -5.866195   1.000000
    6       -5.624215   1.000000
    7       -5.623993   1.000000
    8       -5.561360   1.000000
    9       -5.269900   1.000000
   10       -5.234169   1.000000
   11       -5.233857   1.000000
   12       -5.199535   1.000000
   13       -5.199269   1.000000
   14       -4.950358   1.000000
   15       -4.950063   1.000000
   16       -4.827642   1.000000
   17       -4.776868   1.000000
   18       -4.776785   1.000000
   19       -4.455594   1.000000
   20       -4.455516   1.000000
   21       -4.228527   1.000000
   22       -4.228487   1.000000
   23       -3.950152   1.000000
   24       -3.950084   1.000000
   25       -2.856297   0.999954
   26        1.599189   0.000000
   27        1.912188   0.000000
   28        2.302747   0.000000
 
  0.1000000E+00  0.6938894E-17  0.0000000E+00  0.6000000E-01
    1      -11.501016   1.000000
    2      -10.387457   1.000000
    3       -8.714723   1.000000
    4       -7.273427   1.000000
    5       -5.920573   1.000000
    6       -5.732555   1.000000
    7       -5.652656   1.000000
    8       -5.515151   1.000000
    9       -5.334356   1.000000
   10       -5.303035   1.000000
   11       -5.280171   1.000000
   12       -5.136490   1.000000
   13       -5.121805   1.000000
   14       -5.059570   1.000000
   15       -4.967374   1.000000
   16       -4.873209   1.000000
   17       -4.779223   1.000000
   18       -4.658967   1.000000
   19       -4.472334   1.000000
   20       -4.433498   1.000000
   21       -4.256443   1.000000
   22       -4.225032   1.000000
   23       -3.945506   1.000000
   24       -3.733569   1.000000
   25       -2.174921   0.182373
   26        1.848699   0.000000
   27        2.212992   0.000000
   28        2.605119   0.000000
 
  0.2000000E+00 -0.1387779E-16  0.0000000E+00  0.6000000E-01
    1      -10.666643   1.000000
    2       -9.532691   1.000000
    3       -8.015536   1.000000
    4       -6.758693   1.000000
    5       -6.160268   1.000000
    6       -5.921460   1.000000
    7       -5.738762   1.000000
    8       -5.633493   1.000000
    9       -5.474225   1.000000
   10       -5.241670   1.000000
   11       -5.225103   1.000000
   12       -5.165160   1.000000
   13       -5.051541   1.000000
   14       -4.972997   1.000000
   15       -4.871898   1.000000
   16       -4.825030   1.000000
   17       -4.749648   1.000000
   18       -4.583057   1.000000
   19       -4.522991   1.000000
   20       -4.418016   1.000000
   21       -4.228127   1.000000
   22       -4.051135   1.000000
   23       -3.939677   1.000000
   24       -2.853049   0.999950
   25       -0.846473   0.000000
   26        2.590609   0.000000
   27        3.114974   0.000000
   28        3.510235   0.000000
 
  0.3000000E+00 -0.2775558E-16  0.0000000E+00  0.6000000E-01
    1       -9.511507   1.000000
    2       -8.329793   1.000000
    3       -7.301950   1.000000
    4       -6.524406   1.000000
    5       -6.279868   1.000000
    6       -6.152022   1.000000
    7       -5.844075   1.000000
    8       -5.617383   1.000000
    9       -5.530985   1.000000
   10       -5.257123   1.000000
   11       -5.120460   1.000000
   12       -5.024708   1.000000
   13       -4.918053   1.000000
   14       -4.796865   1.000000
   15       -4.793826   1.000000
   16       -4.597756   1.000000
   17       -4.507623   1.000000
   18       -4.333264   1.000000
   19       -4.293099   1.000000
   20       -4.223626   1.000000
   21       -4.101433   1.000000
   22       -3.925650   1.000000
   23       -3.584855   1.000000
   24       -1.669228   0.000004
   25        0.831214   0.000000
   26        3.778587   0.000000
   27        4.575269   0.000000
   28        4.959983   0.000000
 
  0.4000000E+00 -0.2775558E-16  0.0000000E+00  0.6000000E-01
    1       -8.638901   1.000000
    2       -7.326778   1.000000
    3       -6.970241   1.000000
    4       -6.546577   1.000000
    5       -6.443991   1.000000
    6       -6.279118   1.000000
    7       -5.949832   1.000000
    8       -5.415699   1.000000
    9       -5.290807   1.000000
   10       -5.206503   1.000000
   11       -5.171066   1.000000
   12       -4.948508   1.000000
   13       -4.847961   1.000000
   14       -4.511284   1.000000
   15       -4.391957   1.000000
   16       -4.295946   1.000000
   17       -4.086230   1.000000
   18       -4.073872   1.000000
   19       -4.006861   1.000000
   20       -3.928908   1.000000
   21       -3.783817   1.000000
   22       -3.517232   1.000000
   23       -2.517910   0.935612
   24       -0.277465   0.000000
   25        2.123909   0.000000
   26        2.447226   0.000000
   27        3.309817   0.000000
   28        4.659984   0.000000
 
  0.5000000E+00 -0.2775558E-16  0.0000000E+00  0.3000000E-01
    1       -8.408470   1.000000
    2       -7.042086   1.000000
    3       -6.896168   1.000000
    4       -6.552498   1.000000
    5       -6.510095   1.000000
    6       -6.318236   1.000000
    7       -5.967059   1.000000
    8       -5.373212   1.000000
    9       -5.240090   1.000000
   10       -5.225467   1.000000
   11       -4.969016   1.000000
   12       -4.943665   1.000000
   13       -4.601592   1.000000
   14       -4.440995   1.000000
   15       -4.329565   1.000000
   16       -4.122890   1.000000
   17       -4.010242   1.000000
   18       -3.917033   1.000000
   19       -3.850002   1.000000
   20       -3.693620   1.000000
   21       -3.668280   1.000000
   22       -2.194615   0.221512
   23       -1.335932   0.000000
   24       -0.782308   0.000000
   25        1.043422   0.000000
   26        1.739590   0.000000
   27        2.858522   0.000000
   28        4.087486   0.000000
 
  0.2000000E+00  0.1000000E+00  0.0000000E+00  0.6000000E-01
    1      -10.934385   1.000000
    2       -9.807627   1.000000
    3       -8.225747   1.000000
    4       -6.893099   1.000000
    5       -6.088580   1.000000
    6       -5.814284   1.000000
    7       -5.784133   1.000000
    8       -5.556429   1.000000
    9       -5.440344   1.000000
   10       -5.317566   1.000000
   11       -5.279278   1.000000
   12       -5.119875   1.000000
   13       -5.067243   1.000000
   14       -5.057571   1.000000
   15       -4.919039   1.000000
   16       -4.839745   1.000000
   17       -4.671729   1.000000
   18       -4.593798   1.000000
   19       -4.559820   1.000000
   20       -4.418375   1.000000
   21       -4.314814   1.000000
   22       -4.051431   1.000000
   23       -3.985176   1.000000
   24       -3.105372   1.000000
   25       -1.236624   0.000000
   26        2.345483   0.000000
   27        2.814689   0.000000
   28        3.208943   0.000000
 
  0.3000000E+00  0.1000000E+00  0.0000000E+00  0.1200000E+00
    1       -9.921486   1.000000
    2       -8.757402   1.000000
    3       -7.487194   1.000000
    4       -6.499060   1.000000
    5       -6.172240   1.000000
    6       -6.028855   1.000000
    7       -5.847532   1.000000
    8       -5.740548   1.000000
    9       -5.595740   1.000000
   10       -5.273127   1.000000
   11       -5.236716   1.000000
   12       -5.132270   1.000000
   13       -5.024617   1.000000
   14       -4.937565   1.000000
   15       -4.857700   1.000000
   16       -4.734773   1.000000
   17       -4.585270   1.000000
   18       -4.443607   1.000000
   19       -4.328697   1.000000
   20       -4.259231   1.000000
   21       -4.112114   1.000000
   22       -4.003963   1.000000
   23       -3.698122   1.000000
   24       -2.095820   0.071368
   25        0.219321   0.000000
   26        3.340215   0.000000
   27        4.012719   0.000000
   28        4.408786   0.000000
 
  0.4000000E+00  0.1000000E+00  0.0000000E+00  0.1200000E+00
    1       -8.864510   1.000000
    2       -7.589595   1.000000
    3       -6.979773   1.000000
    4       -6.481720   1.000000
    5       -6.293405   1.000000
    6       -6.164663   1.000000
    7       -5.904654   1.000000
    8       -5.618139   1.000000
    9       -5.528252   1.000000
   10       -5.274668   1.000000
   11       -5.230668   1.000000
   12       -5.064272   1.000000
   13       -4.913344   1.000000
   14       -4.707173   1.000000
   15       -4.629569   1.000000
   16       -4.481958   1.000000
   17       -4.369724   1.000000
   18       -4.234456   1.000000
   19       -4.132763   1.000000
   20       -3.951543   1.000000
   21       -3.908952   1.000000
   22       -3.596024   1.000000
   23       -2.820761   0.999874
   24       -0.684568   0.000000
   25        1.983759   0.000000
   26        3.842781   0.000000
   27        4.440601   0.000000
   28        5.268464   0.000000
 
  0.5000000E+00  0.1000000E+00  0.0000000E+00  0.1200000E+00
    1       -8.371417   1.000000
    2       -6.965782   1.000000
    3       -6.803823   1.000000
    4       -6.464940   1.000000
    5       -6.413470   1.000000
    6       -6.221995   1.000000
    7       -5.968781   1.000000
    8       -5.486373   1.000000
    9       -5.358164   1.000000
   10       -5.212554   1.000000
   11       -5.172164   1.000000
   12       -5.045598   1.000000
   13       -4.802625   1.000000
   14       -4.500233   1.000000
   15       -4.400813   1.000000
   16       -4.230000   1.000000
   17       -4.101305   1.000000
   18       -4.040194   1.000000
   19       -3.985722   1.000000
   20       -3.834659   1.000000
   21       -3.425879   1.000000
   22       -2.313118   0.528239
   23       -1.326165   0.000000
   24        0.115140   0.000000
   25        1.572698   0.000000
   26        2.020194   0.000000
   27        3.124281   0.000000
   28        4.523702   0.000000
 
  0.4000000E+00  0.2000000E+00  0.0000000E+00  0.6000000E-01
    1       -8.956495   1.000000
    2       -7.682990   1.000000
    3       -6.941198   1.000000
    4       -6.433798   1.000000
    5       -6.107314   1.000000
    6       -5.990940   1.000000
    7       -5.924049   1.000000
    8       -5.832823   1.000000
    9       -5.551138   1.000000
   10       -5.413048   1.000000
   11       -5.318276   1.000000
   12       -5.263078   1.000000
   13       -4.961760   1.000000
   14       -4.894479   1.000000
   15       -4.777003   1.000000
   16       -4.585610   1.000000
   17       -4.406868   1.000000
   18       -4.266962   1.000000
   19       -4.171039   1.000000
   20       -3.946763   1.000000
   21       -3.903109   1.000000
   22       -3.544941   1.000000
   23       -2.822195   0.999879
   24       -0.813634   0.000000
   25        1.786824   0.000000
   26        4.594502   0.000000
   27        5.206966   0.000000
   28        5.649565   0.000000
 
  0.5000000E+00  0.2000000E+00  0.0000000E+00  0.1200000E+00
    1       -8.306022   1.000000
    2       -6.802898   1.000000
    3       -6.600076   1.000000
    4       -6.360483   1.000000
    5       -6.190507   1.000000
    6       -6.072895   1.000000
    7       -5.911768   1.000000
    8       -5.741539   1.000000
    9       -5.567905   1.000000
   10       -5.469210   1.000000
   11       -5.350100   1.000000
   12       -5.035590   1.000000
   13       -4.959012   1.000000
   14       -4.804572   1.000000
   15       -4.636294   1.000000
   16       -4.510243   1.000000
   17       -4.349071   1.000000
   18       -4.170731   1.000000
   19       -3.997129   1.000000
   20       -3.854355   1.000000
   21       -3.202760   1.000000
   22       -2.336756   0.594056
   23       -1.204144   0.000000
   24        0.867896   0.000000
   25        2.956715   0.000000
   26        3.176946   0.000000
   27        4.002639   0.000000
   28        5.185615   0.000000
 
 -0.4000000E+00  0.2000000E+00  0.0000000E+00  0.6000000E-01
    1       -8.139960   1.000000
    2       -6.592772   1.000000
    3       -6.528593   1.000000
    4       -6.271057   1.000000
    5       -6.188285   1.000000
    6       -6.086036   1.000000
    7       -5.918824   1.000000
    8       -5.783567   1.000000
    9       -5.544231   1.000000
   10       -5.402873   1.000000
   11       -5.279150   1.000000
   12       -5.082033   1.000000
   13       -4.913483   1.000000
   14       -4.667373   1.000000
   15       -4.537817   1.000000
   16       -4.478148   1.000000
   17       -4.244461   1.000000
   18       -4.080875   1.000000
   19       -4.021152   1.000000
   20       -3.919884   1.000000
   21       -2.382546   0.712865
   22       -0.702059   0.000000
   23       -0.160211   0.000000
   24        0.603883   0.000000
   25        1.930725   0.000000
   26        2.229770   0.000000
   27        3.543138   0.000000
   28        4.669120   0.000000
 
 -0.4000000E+00  0.3000000E+00  0.0000000E+00  0.6000000E-01
    1       -8.038975   1.000000
    2       -6.352921   1.000000
    3       -6.294237   1.000000
    4       -6.215550   1.000000
    5       -6.084145   1.000000
    6       -5.974031   1.000000
    7       -5.927910   1.000000
    8       -5.860161   1.000000
    9       -5.724767   1.000000
   10       -5.558122   1.000000
   11       -5.389317   1.000000
   12       -5.009711   1.000000
   13       -4.958892   1.000000
   14       -4.855003   1.000000
   15       -4.653565   1.000000
   16       -4.494229   1.000000
   17       -4.413713   1.000000
   18       -4.120487   1.000000
   19       -4.033815   1.000000
   20       -3.943876   1.000000
   21       -1.937123   0.004829
   22       -0.367539   0.000000
   23        0.760968   0.000000
   24        2.010557   0.000000
   25        2.412238   0.000000
   26        2.929392   0.000000
   27        3.164110   0.000000
   28        4.015569   0.000000
