       N       E                     dE             d eps       ncg     rms          rms(c)
DAV:   1     0.195615584329E+03    0.19562E+03   -0.13870E+04   808   0.915E+02
DAV:   2    -0.110999389880E+02   -0.20672E+03   -0.20171E+03   820   0.266E+02
DAV:   3    -0.210041659312E+02   -0.99042E+01   -0.97353E+01   864   0.774E+01
DAV:   4    -0.211010655200E+02   -0.96900E-01   -0.96826E-01   864   0.723E+00
DAV:   5    -0.211020122697E+02   -0.94675E-03   -0.94670E-03   900   0.489E-01    0.145E+01
RMM:   6    -0.190278829216E+02    0.20741E+01   -0.42735E+01   790   0.639E+01    0.731E+00
RMM:   7    -0.173315564242E+02    0.16963E+01   -0.69680E+00   786   0.266E+01    0.165E+00
RMM:   8    -0.173242432673E+02    0.73132E-02   -0.11991E-01   792   0.271E+00    0.183E+00
RMM:   9    -0.172282669825E+02    0.95976E-01   -0.61543E-02   788   0.215E+00    0.685E-01
RMM:  10    -0.172185645891E+02    0.97024E-02   -0.18229E-02   792   0.114E+00    0.391E-01
RMM:  11    -0.172146726672E+02    0.38919E-02   -0.68460E-03   791   0.665E-01    0.148E-01
RMM:  12    -0.172136764429E+02    0.99622E-03   -0.17791E-03   791   0.355E-01    0.796E-02
RMM:  13    -0.172134335159E+02    0.24293E-03   -0.40604E-04   787   0.164E-01    0.470E-02
RMM:  14    -0.172133705516E+02    0.62964E-04   -0.27145E-04   778   0.117E-01    0.322E-02
RMM:  15    -0.172135437805E+02   -0.17323E-03   -0.15023E-04   780   0.987E-02    0.169E-02
RMM:  16    -0.172138680822E+02   -0.32430E-03   -0.11533E-04   606   0.364E-02    0.809E-03
RMM:  17    -0.172139454986E+02   -0.77416E-04   -0.16320E-05   486   0.151E-02    0.727E-03
RMM:  18    -0.172140043995E+02   -0.58901E-04   -0.67999E-06   457   0.132E-02    0.584E-03
RMM:  19    -0.172140361738E+02   -0.31774E-04   -0.10230E-06   327   0.585E-03    0.560E-03
RMM:  20    -0.172140627408E+02   -0.26567E-04   -0.11870E-06   307   0.560E-03    0.544E-03
RMM:  21    -0.172140732150E+02   -0.10474E-04   -0.53860E-07   247   0.464E-03    0.544E-03
RMM:  22    -0.172140757970E+02   -0.25820E-05   -0.71455E-08   113   0.356E-03
   1 F= -.17214076E+02 E0= -.17188843E+02  d E =-.172141E+02
       N       E                     dE             d eps       ncg     rms          rms(c)
DAV:   1    -0.172524325000E+02   -0.38359E-01   -0.92882E+00   804   0.191E+01    0.252E-01
RMM:   2    -0.172539521144E+02   -0.15196E-02   -0.32778E-02   795   0.145E+00    0.179E-01
RMM:   3    -0.172516197957E+02    0.23323E-02   -0.14862E-03   787   0.218E-01    0.739E-02
RMM:   4    -0.172535239826E+02   -0.19042E-02   -0.17474E-03   790   0.335E-01    0.704E-02
RMM:   5    -0.172541366001E+02   -0.61262E-03   -0.33328E-04   785   0.162E-01    0.120E-02
RMM:   6    -0.172544976327E+02   -0.36103E-03   -0.21862E-05   491   0.250E-02    0.994E-03
RMM:   7    -0.172545602039E+02   -0.62571E-04   -0.82816E-06   453   0.236E-02    0.584E-03
RMM:   8    -0.172545725538E+02   -0.12350E-04   -0.16507E-06   436   0.924E-03    0.553E-03
RMM:   9    -0.172545765015E+02   -0.39477E-05   -0.54190E-07   372   0.664E-03
   2 F= -.17254577E+02 E0= -.17230210E+02  d E =-.405007E-01
       N       E                     dE             d eps       ncg     rms          rms(c)
DAV:   1    -0.172699136970E+02   -0.15341E-01   -0.11527E+01   784   0.213E+01    0.288E-01
RMM:   2    -0.172714023084E+02   -0.14886E-02   -0.35852E-02   793   0.158E+00    0.719E-02
RMM:   3    -0.172714383276E+02   -0.36019E-04   -0.11984E-03   785   0.237E-01    0.552E-02
RMM:   4    -0.172715087402E+02   -0.70413E-04   -0.19138E-04   764   0.107E-01    0.133E-02
RMM:   5    -0.172715265069E+02   -0.17767E-04   -0.27992E-05   507   0.418E-02    0.104E-02
RMM:   6    -0.172715277419E+02   -0.12350E-05   -0.10250E-05   436   0.325E-02
   3 F= -.17271528E+02 E0= -.17248282E+02  d E =-.169512E-01
