unknown system                          
   1.00000000000000     
     2.573869    0.000000    0.000000
     1.286934    2.229036    0.000000
     0.000000    0.000000   30.304665
   Cu   H 
     4     1
Direct
  0.000000  0.000000  0.395979
  0.333333  0.333333  0.465326
  0.666667  0.666667  0.534674
  0.000000  0.000000  0.604021
  0.538852  0.000000  0.637020
 
   20   20  240
 -.78053E-02 -.74672E-02 -.59654E-02 -.36677E-02 -.11819E-02 0.72136E-03 0.13307E-02 0.35400E-03 -.17872E-02 -.40199E-02
 -.51363E-02 -.44913E-02 -.23984E-02 0.62855E-04 0.16795E-02 0.17270E-02 0.21935E-03 -.22506E-02 -.48619E-02 -.68756E-02
 -.73186E-02 -.64005E-02 -.45090E-02 -.21498E-02 -.81123E-04 0.85016E-03 0.72566E-04 -.22931E-02 -.52869E-02 -.74770E-02
 -.77233E-02 -.58527E-02 -.27680E-02 0.87986E-04 0.15214E-02 0.11136E-02 -.75910E-03 -.32743E-02 -.55754E-02 -.70317E-02
 -.57072E-02 -.44137E-02 -.24998E-02 -.69413E-03 -.53729E-05 -.13383E-02 -.48956E-02 -.97581E-02 -.14078E-01 -.15947E-01
 -.14458E-01 -.10246E-01 -.51140E-02 -.10260E-02 0.84704E-03 0.47800E-03 -.13237E-02 -.35034E-02 -.52213E-02 -.60074E-02
 -.34227E-02 -.20947E-02 -.73188E-03 -.42924E-03 -.24521E-02 -.74904E-02 -.14882E-01 -.22456E-01 -.27360E-01 -.27520E-01
 -.22820E-01 -.15175E-01 -.74462E-02 -.19634E-02 0.40819E-03 0.22757E-03 -.12524E-02 -.28649E-02 -.39067E-02 -.40996E-02
 -.11081E-02 -.18837E-03 -.15866E-03 -.25319E-02 -.85698E-02 -.18199E-01 -.29351E-01 -.38451E-01 -.42044E-01 -.38646E-01
 -.29592E-01 -.18282E-01 -.83603E-02 -.20327E-02 0.50692E-03 0.47302E-03 -.59641E-03 -.16125E-02 -.20838E-02 -.18865E-02
 0.57195E-03 0.61734E-03 -.15113E-02 -.75319E-02 -.18156E-01 -.31957E-01 -.45260E-01 -.53522E-01 -.53583E-01 -.45395E-01
 -.32052E-01 -.18104E-01 -.72901E-02 -.11220E-02 0.10578E-02 0.96013E-03 0.16340E-03 -.43734E-03 -.52780E-03 -.96178E-04
 0.11303E-02 -.29185E-04 -.48195E-02 -.14659E-01 -.29099E-01 -.45104E-01 -.57815E-01 -.62691E-01 -.57862E-01 -.45157E-01
 -.29099E-01 -.14567E-01 -.46346E-02 0.21361E-03 0.13768E-02 0.79532E-03 -.57851E-04 -.44584E-03 -.16638E-03 0.59826E-03
 0.47099E-03 -.18948E-02 -.91434E-02 -.21790E-01 -.37907E-01 -.53196E-01 -.62570E-01 -.62578E-01 -.53210E-01 -.37908E-01
 -.21759E-01 -.90730E-02 -.17894E-02 0.59911E-03 -.15427E-04 -.16071E-02 -.27559E-02 -.27926E-02 -.17047E-02 -.14395E-03
 -.98546E-03 -.41400E-02 -.12827E-01 -.26274E-01 -.41293E-01 -.53183E-01 -.57713E-01 -.53180E-01 -.41286E-01 -.26260E-01
 -.12803E-01 -.41000E-02 -.92484E-03 -.20035E-02 -.50755E-02 -.79359E-02 -.90827E-02 -.79859E-02 -.51537E-02 -.20819E-02
 -.24213E-02 -.56593E-02 -.14275E-01 -.26273E-01 -.37908E-01 -.45069E-01 -.45065E-01 -.37899E-01 -.26263E-01 -.14264E-01
 -.56399E-02 -.23846E-02 -.43151E-02 -.95028E-02 -.15190E-01 -.18810E-01 -.18830E-01 -.15242E-01 -.95667E-02 -.43709E-02
 -.30189E-02 -.56640E-02 -.12825E-01 -.21786E-01 -.29102E-01 -.31910E-01 -.29100E-01 -.21781E-01 -.12815E-01 -.56468E-02
 -.29907E-02 -.58639E-02 -.13240E-01 -.22388E-01 -.29840E-01 -.32710E-01 -.29872E-01 -.22438E-01 -.13291E-01 -.59055E-02
 -.24273E-02 -.41408E-02 -.91246E-02 -.14645E-01 -.18162E-01 -.18166E-01 -.14653E-01 -.91271E-02 -.41327E-02 -.24101E-02
 -.58772E-02 -.14708E-01 -.26895E-01 -.38682E-01 -.45937E-01 -.45951E-01 -.38715E-01 -.26932E-01 -.14740E-01 -.59014E-02
 -.97157E-03 -.18561E-02 -.47551E-02 -.74864E-02 -.85742E-02 -.75053E-02 -.47851E-02 -.18866E-02 -.99470E-03 -.43595E-02
 -.13249E-01 -.26880E-01 -.42057E-01 -.54059E-01 -.58637E-01 -.54076E-01 -.42080E-01 -.26898E-01 -.13252E-01 -.43486E-02
 0.55128E-03 0.96650E-04 -.13609E-02 -.24235E-02 -.24457E-02 -.14245E-02 0.17042E-05 0.44408E-03 -.21042E-02 -.95307E-02
 -.22346E-01 -.38616E-01 -.54026E-01 -.63471E-01 -.63483E-01 -.54055E-01 -.38635E-01 -.22331E-01 -.94716E-02 -.20099E-02
 0.13297E-02 0.87328E-03 0.11316E-03 -.23431E-03 0.20309E-04 0.69788E-03 0.10987E-02 -.21250E-03 -.51570E-02 -.15144E-01
 -.29720E-01 -.45845E-01 -.58640E-01 -.63551E-01 -.58697E-01 -.45908E-01 -.29726E-01 -.15049E-01 -.49675E-02 0.26791E-04
 0.92406E-03 0.21363E-03 -.33584E-03 -.42195E-03 -.36240E-04 0.54311E-03 0.47235E-03 -.17828E-02 -.79283E-02 -.18671E-01
 -.32581E-01 -.45975E-01 -.54292E-01 -.54357E-01 -.46117E-01 -.32679E-01 -.18611E-01 -.76721E-02 -.13816E-02 0.91490E-03
 -.61770E-03 -.15821E-02 -.20338E-02 -.18552E-02 -.11316E-02 -.29246E-03 -.35644E-03 -.28273E-02 -.89633E-02 -.18689E-01
 -.29930E-01 -.39097E-01 -.42717E-01 -.39297E-01 -.30176E-01 -.18770E-01 -.87422E-02 -.23106E-02 0.32526E-03 0.37817E-03
 -.28714E-02 -.38879E-02 -.40836E-02 -.34368E-02 -.21591E-02 -.85826E-03 -.62447E-03 -.27216E-02 -.78384E-02 -.15308E-01
 -.22948E-01 -.27893E-01 -.28058E-01 -.23323E-01 -.15608E-01 -.77915E-02 -.22217E-02 0.22775E-03 0.11507E-03 -.13057E-02
 -.52220E-02 -.60001E-02 -.57091E-02 -.44411E-02 -.25647E-02 -.80329E-03 -.16317E-03 -.15491E-02 -.51628E-02 -.10079E-01
 -.14441E-01 -.16328E-01 -.14829E-01 -.10579E-01 -.53890E-02 -.12371E-02 0.69648E-03 0.37936E-03 -.13799E-02 -.35265E-02
 -.70331E-02 -.73169E-02 -.64042E-02 -.45288E-02 -.21927E-02 -.14893E-03 0.75731E-03 -.47836E-04 -.24440E-02 -.54656E-02
 -.76724E-02 -.79193E-02 -.60350E-02 -.29266E-02 -.40392E-04 0.14269E-02 0.10516E-02 -.79524E-03 -.32936E-02 -.55842E-02
 0.33023E-03 0.38905E-03 0.39012E-03 0.33353E-03 0.23489E-03 0.12844E-03 0.54638E-04 0.36705E-04 0.64292E-04 0.98908E-04
 0.97848E-04 0.39433E-04 -.65860E-04 -.18164E-03 -.26272E-03 -.27449E-03 -.20709E-03 -.78303E-04 0.76569E-04 0.22128E-03
 0.36188E-03 0.41315E-03 0.41675E-03 0.35264E-03 0.21978E-03 0.46309E-04 -.12290E-03 -.25247E-03 -.33380E-03 -.38017E-03
 -.40769E-03 -.42092E-03 -.41274E-03 -.37330E-03 -.29809E-03 -.19125E-03 -.65014E-04 0.64113E-04 0.18204E-03 0.28210E-03
 0.37161E-03 0.42719E-03 0.42106E-03 0.31507E-03 0.10260E-03 -.18295E-03 -.48290E-03 -.73876E-03 -.91081E-03 -.98179E-03
 -.95155E-03 -.83253E-03 -.64863E-03 -.43346E-03 -.22370E-03 -.48859E-04 0.78019E-04 0.16380E-03 0.22988E-03 0.29787E-03
 0.36028E-03 0.40980E-03 0.36053E-03 0.16447E-03 -.17892E-03 -.61857E-03 -.10686E-02 -.14352E-02 -.16425E-02 -.16520E-02
 -.14715E-02 -.11510E-02 -.76653E-03 -.39804E-03 -.10767E-03 0.75619E-04 0.16186E-03 0.19301E-03 0.22148E-03 0.28031E-03
 0.33445E-03 0.34298E-03 0.20427E-03 -.12922E-03 -.64243E-03 -.12541E-02 -.18369E-02 -.22550E-02 -.24065E-02 -.22586E-02
 -.18583E-02 -.13146E-02 -.75835E-03 -.29918E-03 0.33127E-05 0.14830E-03 0.18326E-03 0.17930E-03 0.19811E-03 0.26096E-03
 0.30102E-03 0.22215E-03 -.49140E-04 -.54900E-03 -.12372E-02 -.19921E-02 -.26397E-02 -.30111E-02 -.30058E-02 -.26314E-02
 -.19993E-02 -.12783E-02 -.63161E-03 -.16449E-03 0.95799E-04 0.18950E-03 0.19374E-03 0.18599E-03 0.21245E-03 0.26908E-03
 0.26347E-03 0.60333E-04 -.36404E-03 -.10234E-02 -.18428E-02 -.26581E-02 -.32614E-02 -.34798E-02 -.32498E-02 -.26454E-02
 -.18443E-02 -.10502E-02 -.41680E-03 -.82141E-05 0.19510E-03 0.26160E-03 0.26900E-03 0.27447E-03 0.29773E-03 0.31494E-03
 0.22293E-03 -.11433E-03 -.67434E-03 -.14407E-02 -.23005E-02 -.30589E-02 -.35050E-02 -.35013E-02 -.30494E-02 -.22910E-02
 -.14408E-02 -.69170E-03 -.14796E-03 0.18385E-03 0.35645E-03 0.43385E-03 0.46318E-03 0.46862E-03 0.45188E-03 0.38811E-03
 0.18271E-03 -.26471E-03 -.90281E-03 -.16855E-02 -.24724E-02 -.30643E-02 -.32842E-02 -.30610E-02 -.24668E-02 -.16814E-02
 -.90593E-03 -.27790E-03 0.16312E-03 0.44947E-03 0.63098E-03 0.73688E-03 0.77339E-03 0.74097E-03 0.64192E-03 0.46752E-03
 0.15120E-03 -.35361E-03 -.98701E-03 -.16840E-02 -.23013E-02 -.26672E-02 -.26655E-02 -.22978E-02 -.16820E-02 -.98836E-03
 -.35794E-03 0.14526E-03 0.52620E-03 0.81418E-03 0.10219E-02 0.11362E-02 0.11384E-02 0.10275E-02 0.82108E-03 0.53292E-03
 0.13848E-03 -.35581E-03 -.90246E-03 -.14359E-02 -.18370E-02 -.19866E-02 -.18348E-02 -.14329E-02 -.90053E-03 -.35553E-03
 0.13724E-03 0.56737E-03 0.94271E-03 0.12541E-02 0.14681E-02 0.15462E-02 0.14712E-02 0.12586E-02 0.94674E-03 0.57003E-03
 0.14823E-03 -.27008E-03 -.67316E-03 -.10131E-02 -.12129E-02 -.12119E-02 -.10097E-02 -.66739E-03 -.26406E-03 0.15106E-03
 0.56776E-03 0.98532E-03 0.13792E-02 0.16956E-02 0.18735E-02 0.18745E-02 0.16987E-02 0.13845E-02 0.99071E-03 0.56986E-03
 0.17257E-03 -.12308E-03 -.36314E-03 -.52904E-03 -.58786E-03 -.52319E-03 -.35256E-03 -.11039E-03 0.18355E-03 0.53276E-03
 0.93959E-03 0.13747E-02 0.17718E-02 0.20522E-02 0.21550E-02 0.20573E-02 0.17795E-02 0.13809E-02 0.94065E-03 0.52708E-03
 0.19589E-03 0.41220E-04 -.51713E-04 -.95261E-04 -.88193E-04 -.31803E-04 0.70049E-04 0.22729E-03 0.46796E-03 0.81322E-03
 0.12429E-02 0.16872E-02 0.20529E-02 0.22604E-02 0.22652E-02 0.20640E-02 0.16964E-02 0.12419E-02 0.79842E-03 0.44164E-03
 0.20587E-03 0.18167E-03 0.19561E-03 0.21333E-03 0.22417E-03 0.23566E-03 0.27576E-03 0.39259E-03 0.63253E-03 0.10023E-02
 0.14477E-02 0.18708E-02 0.21723E-02 0.22847E-02 0.21826E-02 0.18832E-02 0.14484E-02 0.97886E-03 0.58153E-03 0.32339E-03
 0.20272E-03 0.27671E-03 0.34691E-03 0.37329E-03 0.35323E-03 0.31832E-03 0.32677E-03 0.44353E-03 0.70562E-03 0.10918E-02
 0.15218E-02 0.18892E-02 0.21021E-02 0.21080E-02 0.19007E-02 0.15221E-02 0.10600E-02 0.62886E-03 0.32742E-03 0.19551E-03
 0.19871E-03 0.32743E-03 0.40698E-03 0.40876E-03 0.35080E-03 0.28819E-03 0.29324E-03 0.42558E-03 0.70036E-03 0.10727E-02
 0.14511E-02 0.17329E-02 0.18391E-02 0.17362E-02 0.14426E-02 0.10275E-02 0.59711E-03 0.26163E-03 0.92201E-04 0.91375E-04
 0.20869E-03 0.34877E-03 0.40653E-03 0.37420E-03 0.28992E-03 0.21984E-03 0.23228E-03 0.37000E-03 0.62850E-03 0.95108E-03
 0.12463E-02 0.14212E-02 0.14151E-02 0.12203E-02 0.88438E-03 0.49706E-03 0.16269E-03 -.35032E-04 -.64545E-04 0.42477E-04
 0.23925E-03 0.35829E-03 0.38524E-03 0.32945E-03 0.23610E-03 0.16705E-03 0.17758E-03 0.29484E-03 0.50340E-03 0.74469E-03
 0.93520E-03 0.99899E-03 0.90033E-03 0.65990E-03 0.34709E-03 0.53400E-04 -.14041E-03 -.19127E-03 -.10644E-03 0.61984E-04
 0.28452E-03 0.36958E-03 0.37548E-03 0.31461E-03 0.22216E-03 0.14616E-03 0.13079E-03 0.19631E-03 0.32523E-03 0.46454E-03
 0.54705E-03 0.52260E-03 0.38308E-03 0.16768E-03 -.53849E-04 -.21051E-03 -.25757E-03 -.19055E-03 -.42043E-04 0.13441E-03
 0.81959E-02 0.78585E-02 0.63581E-02 0.40639E-02 0.15823E-02 -.32111E-03 -.93908E-03 0.22093E-04 0.21471E-02 0.43692E-02
 0.54831E-02 0.48431E-02 0.27615E-02 0.31517E-03 -.12873E-02 -.13267E-02 0.18098E-03 0.26461E-02 0.52530E-02 0.72654E-02
 0.77124E-02 0.67908E-02 0.49007E-02 0.25478E-02 0.48341E-03 -.45259E-03 0.31182E-03 0.26624E-02 0.56446E-02 0.78287E-02
 0.80746E-02 0.62113E-02 0.31416E-02 0.30261E-03 -.11202E-02 -.71182E-03 0.11561E-02 0.36686E-02 0.59711E-02 0.74284E-02
 0.61036E-02 0.48085E-02 0.28940E-02 0.10894E-02 0.40007E-03 0.17276E-02 0.52751E-02 0.10127E-01 0.14440E-01 0.16307E-01
 0.14820E-01 0.10614E-01 0.54923E-02 0.14163E-02 -.44874E-03 -.78487E-04 0.17200E-02 0.38974E-02 0.56161E-02 0.64039E-02
 0.38217E-02 0.24960E-02 0.11289E-02 0.81940E-03 0.28374E-02 0.78729E-02 0.15260E-01 0.22828E-01 0.27726E-01 0.27886E-01
 0.23190E-01 0.15548E-01 0.78231E-02 0.23472E-02 -.14936E-04 0.17270E-03 0.16524E-02 0.32590E-02 0.42968E-02 0.44925E-02
 0.15090E-02 0.59043E-03 0.55302E-03 0.29170E-02 0.89500E-02 0.18577E-01 0.29724E-01 0.38817E-01 0.42406E-01 0.39012E-01
 0.29963E-01 0.18656E-01 0.87364E-02 0.24157E-02 -.11153E-03 -.68465E-04 0.99919E-03 0.20061E-02 0.24722E-02 0.22794E-02
 -.17258E-03 -.22351E-03 0.18961E-02 0.79112E-02 0.18532E-01 0.32325E-01 0.45616E-01 0.53869E-01 0.53934E-01 0.45757E-01
 0.32424E-01 0.18478E-01 0.76674E-02 0.15092E-02 -.65774E-03 -.55513E-03 0.23535E-03 0.82769E-03 0.91771E-03 0.49244E-03
 -.73923E-03 0.40966E-03 0.51924E-02 0.15031E-01 0.29467E-01 0.45459E-01 0.58152E-01 0.63022E-01 0.58206E-01 0.45519E-01
 0.29471E-01 0.14939E-01 0.50089E-02 0.17131E-03 -.98120E-03 -.39965E-03 0.44522E-03 0.82872E-03 0.55426E-03 -.20418E-03
 -.94343E-04 0.22632E-02 0.95081E-02 0.22155E-01 0.38267E-01 0.53540E-01 0.62900E-01 0.62909E-01 0.53558E-01 0.38272E-01
 0.22127E-01 0.94375E-02 0.21534E-02 -.22695E-03 0.39586E-03 0.19872E-02 0.31303E-02 0.31654E-02 0.20824E-02 0.52514E-03
 0.13464E-02 0.45001E-02 0.13189E-01 0.26636E-01 0.41650E-01 0.53530E-01 0.58055E-01 0.53528E-01 0.41644E-01 0.26624E-01
 0.13164E-01 0.44554E-02 0.12795E-02 0.23639E-02 0.54419E-02 0.83038E-02 0.94489E-02 0.83508E-02 0.55185E-02 0.24454E-02
 0.27708E-02 0.60139E-02 0.14638E-01 0.26638E-01 0.38271E-01 0.45428E-01 0.45427E-01 0.38265E-01 0.26628E-01 0.14623E-01
 0.59922E-02 0.27362E-02 0.46712E-02 0.98635E-02 0.15553E-01 0.19173E-01 0.19194E-01 0.15605E-01 0.99252E-02 0.47226E-02
 0.33640E-02 0.60163E-02 0.13188E-01 0.22156E-01 0.29472E-01 0.32281E-01 0.29473E-01 0.22154E-01 0.13178E-01 0.59984E-02
 0.33393E-02 0.62201E-02 0.13605E-01 0.22756E-01 0.30204E-01 0.33072E-01 0.30237E-01 0.22805E-01 0.13652E-01 0.62548E-02
 0.27757E-02 0.44974E-02 0.94920E-02 0.15017E-01 0.18535E-01 0.18540E-01 0.15027E-01 0.94958E-02 0.44902E-02 0.27595E-02
 0.62301E-02 0.15072E-01 0.27265E-01 0.39046E-01 0.46294E-01 0.46308E-01 0.39081E-01 0.27303E-01 0.15103E-01 0.62531E-02
 0.13309E-02 0.22253E-02 0.51298E-02 0.78604E-02 0.89474E-02 0.78806E-02 0.51599E-02 0.22536E-02 0.13514E-02 0.47136E-02
 0.13609E-01 0.27245E-01 0.42416E-01 0.54405E-01 0.58979E-01 0.54428E-01 0.42445E-01 0.27266E-01 0.13613E-01 0.47036E-02
 -.17530E-03 0.28908E-03 0.17450E-02 0.28017E-02 0.28243E-02 0.18083E-02 0.38113E-03 -.71927E-04 0.24657E-02 0.98911E-02
 0.22710E-01 0.38976E-01 0.54369E-01 0.63800E-01 0.63817E-01 0.54405E-01 0.38999E-01 0.22695E-01 0.98299E-02 0.23724E-02
 -.93649E-03 -.47522E-03 0.27830E-03 0.62053E-03 0.37022E-03 -.30093E-03 -.70565E-03 0.59139E-03 0.55236E-02 0.15508E-01
 0.30084E-01 0.46199E-01 0.58980E-01 0.63883E-01 0.59038E-01 0.46264E-01 0.30089E-01 0.15411E-01 0.53315E-02 0.35059E-03
 -.51995E-03 0.18846E-03 0.73063E-03 0.81553E-03 0.43620E-03 -.13940E-03 -.76187E-04 0.21637E-02 0.82973E-02 0.19036E-01
 0.32944E-01 0.46332E-01 0.54643E-01 0.54708E-01 0.46475E-01 0.33043E-01 0.18976E-01 0.80398E-02 0.17598E-02 -.52085E-03
 0.10224E-02 0.19828E-02 0.24295E-02 0.22506E-02 0.15300E-02 0.69098E-03 0.74802E-03 0.32074E-02 0.93334E-02 0.19055E-01
 0.30295E-01 0.39462E-01 0.43083E-01 0.39664E-01 0.30544E-01 0.19139E-01 0.91137E-02 0.26898E-02 0.65793E-04 0.23318E-04
 0.32693E-02 0.42868E-02 0.44802E-02 0.38290E-02 0.25485E-02 0.12475E-02 0.10123E-02 0.31032E-02 0.82105E-02 0.15673E-01
 0.23313E-01 0.28261E-01 0.28426E-01 0.23689E-01 0.15974E-01 0.81640E-02 0.26040E-02 0.16240E-03 0.27877E-03 0.17014E-02
 0.56127E-02 0.63979E-02 0.61063E-02 0.48309E-02 0.29496E-02 0.11907E-02 0.55347E-03 0.19339E-02 0.55348E-02 0.10441E-01
 0.14801E-01 0.16690E-01 0.15190E-01 0.10938E-01 0.57543E-02 0.16174E-02 -.30267E-03 0.16599E-04 0.17692E-02 0.39120E-02
 0.74215E-02 0.77120E-02 0.67999E-02 0.49206E-02 0.25837E-02 0.54324E-03 -.36334E-03 0.43139E-03 0.28111E-02 0.58202E-02
 0.80238E-02 0.82728E-02 0.63916E-02 0.32893E-02 0.41592E-03 -.10353E-02 -.65110E-03 0.11920E-02 0.36807E-02 0.59673E-02
 -.55217E-04 -.89434E-04 -.49584E-04 0.38499E-04 0.14382E-03 0.23904E-03 0.30530E-03 0.33716E-03 0.34530E-03 0.35118E-03
 0.37453E-03 0.42285E-03 0.48974E-03 0.55907E-03 0.60825E-03 0.61084E-03 0.54505E-03 0.40884E-03 0.23019E-03 0.59332E-04
 -.64706E-04 -.88647E-04 -.58525E-04 0.24951E-04 0.15747E-03 0.32717E-03 0.51274E-03 0.68784E-03 0.82877E-03 0.91947E-03
 0.95262E-03 0.92973E-03 0.86129E-03 0.76368E-03 0.65156E-03 0.53104E-03 0.40094E-03 0.26210E-03 0.12538E-03 0.10214E-04
 -.35458E-04 -.69262E-04 -.49322E-04 0.60145E-04 0.28320E-03 0.61182E-03 0.99833E-03 0.13668E-02 0.16367E-02 0.17487E-02
 0.16831E-02 0.14668E-02 0.11640E-02 0.85121E-03 0.58709E-03 0.39423E-03 0.26269E-03 0.16864E-03 0.91914E-04 0.23204E-04
 0.82811E-05 -.30680E-04 0.17161E-04 0.22383E-03 0.62887E-03 0.12028E-02 0.18408E-02 0.23931E-02 0.27172E-02 0.27285E-02
 0.24316E-02 0.19199E-02 0.13399E-02 0.83161E-03 0.47648E-03 0.27938E-03 0.19219E-03 0.15415E-03 0.12037E-03 0.70162E-04
 0.45812E-04 0.38634E-04 0.18568E-03 0.58091E-03 0.12509E-02 0.21114E-02 0.29762E-02 0.36191E-02 0.38586E-02 0.36278E-02
 0.30016E-02 0.21684E-02 0.13548E-02 0.73424E-03 0.36923E-03 0.21684E-03 0.18294E-03 0.18103E-03 0.16053E-03 0.10793E-03
 0.74224E-04 0.15692E-03 0.47963E-03 0.11320E-02 0.20927E-02 0.31964E-02 0.41731E-02 0.47471E-02 0.47468E-02 0.41750E-02
 0.32097E-02 0.21310E-02 0.12052E-02 0.58463E-03 0.27475E-03 0.17873E-03 0.17669E-03 0.18270E-03 0.15845E-03 0.10682E-03
 0.10579E-03 0.33169E-03 0.87361E-03 0.17861E-02 0.29742E-02 0.41875E-02 0.50998E-02 0.54375E-02 0.50952E-02 0.41824E-02
 0.29781E-02 0.18104E-02 0.92294E-03 0.39749E-03 0.17027E-03 0.11333E-03 0.11529E-03 0.11426E-03 0.91564E-04 0.65961E-04
 0.15289E-03 0.54240E-03 0.12860E-02 0.23793E-02 0.36492E-02 0.47863E-02 0.54597E-02 0.54570E-02 0.47792E-02 0.36420E-02
 0.23799E-02 0.13011E-02 0.57126E-03 0.18585E-03 0.34293E-04 -.60493E-05 -.12722E-04 -.16735E-04 -.20057E-04 0.84161E-05
 0.21326E-03 0.73856E-03 0.16024E-02 0.27341E-02 0.39044E-02 0.47938E-02 0.51252E-02 0.47899E-02 0.38990E-02 0.27307E-02
 0.16042E-02 0.74640E-03 0.22504E-03 -.26115E-04 -.12297E-03 -.15557E-03 -.16490E-03 -.16017E-03 -.13198E-03 -.38105E-04
 0.26721E-03 0.85874E-03 0.17219E-02 0.27339E-02 0.36517E-02 0.42007E-02 0.41995E-02 0.36489E-02 0.27313E-02 0.17214E-02
 0.86131E-03 0.27254E-03 -.53709E-04 -.20134E-03 -.25864E-03 -.27879E-03 -.28066E-03 -.26370E-03 -.20822E-03 -.60645E-04
 0.28977E-03 0.86064E-03 0.16036E-02 0.23757E-02 0.29686E-02 0.31928E-02 0.29697E-02 0.23746E-02 0.15992E-02 0.85751E-03
 0.29336E-03 -.55805E-04 -.23257E-03 -.30546E-03 -.32902E-03 -.33338E-03 -.32942E-03 -.30991E-03 -.24216E-03 -.65563E-04
 0.26985E-03 0.74438E-03 0.12869E-02 0.17731E-02 0.20649E-02 0.20672E-02 0.17752E-02 0.12818E-02 0.73377E-03 0.26387E-03
 -.59594E-04 -.23801E-03 -.31270E-03 -.33084E-03 -.32836E-03 -.32677E-03 -.33024E-03 -.31902E-03 -.24863E-03 -.64551E-04
 0.22146E-03 0.55360E-03 0.87328E-03 0.11058E-02 0.11912E-02 0.11041E-02 0.86567E-03 0.53924E-03 0.20665E-03 -.62795E-04
 -.23454E-03 -.31185E-03 -.32374E-03 -.30828E-03 -.29792E-03 -.30732E-03 -.32522E-03 -.31621E-03 -.23611E-03 -.55534E-04
 0.17580E-03 0.35265E-03 0.47946E-03 0.54151E-03 0.53515E-03 0.46117E-03 0.32569E-03 0.14672E-03 -.42576E-04 -.20137E-03
 -.29813E-03 -.32698E-03 -.31137E-03 -.28996E-03 -.29159E-03 -.31538E-03 -.33038E-03 -.29586E-03 -.18881E-03 -.19244E-04
 0.15770E-03 0.19366E-03 0.18790E-03 0.17204E-03 0.16175E-03 0.14516E-03 0.96315E-04 0.14302E-05 -.12372E-03 -.23997E-03
 -.31074E-03 -.32787E-03 -.31592E-03 -.31000E-03 -.32426E-03 -.33772E-03 -.31083E-03 -.21986E-03 -.80234E-04 0.61094E-04
 0.16514E-03 0.94155E-04 0.22172E-04 -.19540E-05 0.24747E-04 0.61440E-04 0.56986E-04 -.11808E-04 -.12511E-03 -.23720E-03
 -.31061E-03 -.33994E-03 -.34692E-03 -.35218E-03 -.34989E-03 -.30987E-03 -.20757E-03 -.55937E-04 0.91619E-04 0.17385E-03
 0.17027E-03 0.38747E-04 -.43502E-04 -.39673E-04 0.27054E-04 0.93652E-04 0.10084E-03 0.29476E-04 -.93306E-04 -.21849E-03
 -.30900E-03 -.35654E-03 -.37070E-03 -.35457E-03 -.29335E-03 -.17025E-03 0.39214E-05 0.17790E-03 0.28224E-03 0.27422E-03
 0.14306E-03 0.45048E-06 -.54222E-04 -.12635E-04 0.80400E-04 0.15654E-03 0.16215E-03 0.84311E-04 -.48102E-04 -.18614E-03
 -.28882E-03 -.33699E-03 -.32621E-03 -.25267E-03 -.11285E-03 0.78944E-04 0.27518E-03 0.40615E-03 0.41807E-03 0.31069E-03
 0.77784E-04 -.36623E-04 -.47595E-04 0.25643E-04 0.12971E-03 0.20469E-03 0.20893E-03 0.13456E-03 0.88720E-05 -.12024E-03
 -.20710E-03 -.22424E-03 -.16324E-03 -.28900E-04 0.15915E-03 0.35808E-03 0.50406E-03 0.53826E-03 0.44379E-03 0.26314E-03
 -.56585E-06 -.70150E-04 -.44011E-04 0.45353E-04 0.14969E-03 0.22423E-03 0.24045E-03 0.19480E-03 0.11114E-03 0.31206E-04
 -.46248E-05 0.26139E-04 0.12370E-03 0.26989E-03 0.43071E-03 0.55785E-03 0.60013E-03 0.52892E-03 0.36157E-03 0.15996E-03
 -.78374E-02 -.74898E-02 -.59717E-02 -.36674E-02 -.11876E-02 0.70924E-03 0.13219E-02 0.35352E-03 -.17848E-02 -.40213E-02
 -.51395E-02 -.44896E-02 -.23925E-02 0.63979E-04 0.16702E-02 0.17140E-02 0.21294E-03 -.22515E-02 -.48702E-02 -.68999E-02
 -.73429E-02 -.64138E-02 -.45135E-02 -.21561E-02 -.93774E-04 0.83798E-03 0.67982E-04 -.22930E-02 -.52902E-02 -.74848E-02
 -.77274E-02 -.58483E-02 -.27623E-02 0.83367E-04 0.15055E-02 0.10974E-02 -.76680E-03 -.32788E-02 -.55886E-02 -.70560E-02
 -.57160E-02 -.44195E-02 -.25086E-02 -.71040E-03 -.24301E-04 -.13505E-02 -.48988E-02 -.97600E-02 -.14086E-01 -.15959E-01
 -.14467E-01 -.10248E-01 -.51167E-02 -.10381E-02 0.82748E-03 0.46073E-03 -.13328E-02 -.35085E-02 -.52292E-02 -.60182E-02
 -.34232E-02 -.21015E-02 -.74818E-03 -.45191E-03 -.24725E-02 -.75022E-02 -.14887E-01 -.22462E-01 -.27370E-01 -.27532E-01
 -.22831E-01 -.15184E-01 -.74591E-02 -.19821E-02 0.38805E-03 0.21259E-03 -.12596E-02 -.28666E-02 -.39061E-02 -.40984E-02
 -.11117E-02 -.19915E-03 -.17658E-03 -.25520E-02 -.85858E-02 -.18209E-01 -.29358E-01 -.38459E-01 -.42052E-01 -.38653E-01
 -.29598E-01 -.18292E-01 -.83770E-02 -.20536E-02 0.48813E-03 0.46122E-03 -.60111E-03 -.16130E-02 -.20828E-02 -.18862E-02
 0.56334E-03 0.60770E-03 -.15220E-02 -.75426E-02 -.18165E-01 -.31963E-01 -.45265E-01 -.53528E-01 -.53589E-01 -.45399E-01
 -.32056E-01 -.18109E-01 -.73013E-02 -.11376E-02 0.10425E-02 0.94925E-03 0.15714E-03 -.44203E-03 -.53365E-03 -.10369E-03
 0.11235E-02 -.33197E-04 -.48219E-02 -.14662E-01 -.29102E-01 -.45108E-01 -.57817E-01 -.62692E-01 -.57866E-01 -.45163E-01
 -.29104E-01 -.14569E-01 -.46358E-02 0.20907E-03 0.13675E-02 0.78367E-03 -.68694E-04 -.45508E-03 -.17514E-03 0.58972E-03
 0.47024E-03 -.18965E-02 -.91454E-02 -.21793E-01 -.37910E-01 -.53198E-01 -.62570E-01 -.62578E-01 -.53214E-01 -.37916E-01
 -.21766E-01 -.90746E-02 -.17843E-02 0.60406E-03 -.17892E-04 -.16176E-02 -.27684E-02 -.28007E-02 -.17072E-02 -.14413E-03
 -.98393E-03 -.41454E-02 -.12836E-01 -.26281E-01 -.41297E-01 -.53186E-01 -.57716E-01 -.53185E-01 -.41293E-01 -.26269E-01
 -.12811E-01 -.41036E-02 -.92174E-03 -.19978E-02 -.50743E-02 -.79421E-02 -.90916E-02 -.79897E-02 -.51499E-02 -.20756E-02
 -.24226E-02 -.56677E-02 -.14288E-01 -.26284E-01 -.37914E-01 -.45073E-01 -.45072E-01 -.37909E-01 -.26273E-01 -.14272E-01
 -.56456E-02 -.23900E-02 -.43195E-02 -.95046E-02 -.15191E-01 -.18811E-01 -.18834E-01 -.15246E-01 -.95674E-02 -.43690E-02
 -.30218E-02 -.56681E-02 -.12834E-01 -.21797E-01 -.29110E-01 -.31915E-01 -.29107E-01 -.21792E-01 -.12826E-01 -.56537E-02
 -.29951E-02 -.58709E-02 -.13251E-01 -.22398E-01 -.29845E-01 -.32711E-01 -.29877E-01 -.22450E-01 -.13304E-01 -.59134E-02
 -.24272E-02 -.41374E-02 -.91272E-02 -.14654E-01 -.18173E-01 -.18173E-01 -.14656E-01 -.91315E-02 -.41396E-02 -.24174E-02
 -.58844E-02 -.14718E-01 -.26908E-01 -.38694E-01 -.45945E-01 -.45956E-01 -.38724E-01 -.26950E-01 -.14759E-01 -.59123E-02
 -.96932E-03 -.18523E-02 -.47576E-02 -.74976E-02 -.85882E-02 -.75138E-02 -.47854E-02 -.18836E-02 -.99509E-03 -.43661E-02
 -.13259E-01 -.26891E-01 -.42067E-01 -.54067E-01 -.58644E-01 -.54084E-01 -.42091E-01 -.26911E-01 -.13264E-01 -.43538E-02
 0.54871E-03 0.91419E-04 -.13702E-02 -.24375E-02 -.24613E-02 -.14355E-02 -.62439E-06 0.44792E-03 -.21015E-02 -.95341E-02
 -.22354E-01 -.38625E-01 -.54032E-01 -.63475E-01 -.63490E-01 -.54062E-01 -.38641E-01 -.22334E-01 -.94722E-02 -.20107E-02
 0.13191E-02 0.85915E-03 0.98441E-04 -.24845E-03 0.69998E-05 0.68652E-03 0.10911E-02 -.21574E-03 -.51576E-02 -.15145E-01
 -.29722E-01 -.45848E-01 -.58645E-01 -.63557E-01 -.58703E-01 -.45913E-01 -.29726E-01 -.15047E-01 -.49667E-02 0.22220E-04
 0.91193E-03 0.20025E-03 -.34863E-03 -.43225E-03 -.44557E-04 0.53385E-03 0.46039E-03 -.17949E-02 -.79358E-02 -.18672E-01
 -.32580E-01 -.45977E-01 -.54300E-01 -.54367E-01 -.46124E-01 -.32682E-01 -.18613E-01 -.76767E-02 -.13894E-02 0.90471E-03
 -.62277E-03 -.15883E-02 -.20411E-02 -.18604E-02 -.11350E-02 -.29934E-03 -.36998E-03 -.28434E-02 -.89742E-02 -.18693E-01
 -.29933E-01 -.39105E-01 -.42729E-01 -.39308E-01 -.30182E-01 -.18776E-01 -.87530E-02 -.23259E-02 0.31169E-03 0.37015E-03
 -.28716E-02 -.38926E-02 -.40890E-02 -.34384E-02 -.21598E-02 -.86495E-03 -.63819E-03 -.27352E-02 -.78460E-02 -.15313E-01
 -.22958E-01 -.27909E-01 -.28072E-01 -.23328E-01 -.15610E-01 -.77997E-02 -.22390E-02 0.21006E-03 0.10649E-03 -.13058E-02
 -.52298E-02 -.60133E-02 -.57170E-02 -.44406E-02 -.25646E-02 -.81206E-03 -.17692E-03 -.15573E-02 -.51632E-02 -.10082E-01
 -.14453E-01 -.16345E-01 -.14839E-01 -.10578E-01 -.53888E-02 -.12469E-02 0.68055E-03 0.36937E-03 -.13799E-02 -.35257E-02
 -.70568E-02 -.73398E-02 -.64134E-02 -.45271E-02 -.21941E-02 -.16003E-03 0.74480E-03 -.51180E-04 -.24399E-02 -.54651E-02
 -.76803E-02 -.79280E-02 -.60362E-02 -.29234E-02 -.42876E-04 0.14162E-02 0.10418E-02 -.79700E-03 -.32936E-02 -.55951E-02
 0.49897E-03 0.52718E-03 0.47973E-03 0.38015E-03 0.26577E-03 0.16957E-03 0.99854E-04 0.39313E-04 -.30735E-04 -.10553E-03
 -.16066E-03 -.18093E-03 -.17927E-03 -.18063E-03 -.18824E-03 -.17232E-03 -.96085E-04 0.48055E-04 0.22795E-03 0.39243E-03
 0.50760E-03 0.51833E-03 0.47427E-03 0.38071E-03 0.24526E-03 0.71047E-04 -.14259E-03 -.38455E-03 -.61481E-03 -.77105E-03
 -.80429E-03 -.71512E-03 -.55398E-03 -.38267E-03 -.23274E-03 -.97527E-04 0.42244E-04 0.19066E-03 0.33168E-03 0.44280E-03
 0.47400E-03 0.48978E-03 0.44986E-03 0.32454E-03 0.84415E-04 -.28501E-03 -.75967E-03 -.12581E-02 -.16522E-02 -.18191E-02
 -.17074E-02 -.13687E-02 -.92740E-03 -.51058E-03 -.19001E-03 0.27739E-04 0.17236E-03 0.27615E-03 0.35847E-03 0.42567E-03
 0.41807E-03 0.44102E-03 0.36898E-03 0.12568E-03 -.34657E-03 -.10435E-02 -.18639E-02 -.26146E-02 -.30738E-02 -.30920E-02
 -.26694E-02 -.19578E-02 -.11819E-02 -.53187E-03 -.96152E-04 0.13836E-03 0.23989E-03 0.28203E-03 0.31610E-03 0.36399E-03
 0.36626E-03 0.36237E-03 0.17916E-03 -.30009E-03 -.11287E-02 -.22308E-02 -.33811E-02 -.42633E-02 -.45980E-02 -.42749E-02
 -.34104E-02 -.22899E-02 -.12292E-02 -.44233E-03 0.13199E-04 0.20395E-03 0.24579E-03 0.24184E-03 0.25535E-03 0.30558E-03
 0.32970E-03 0.23174E-03 -.16119E-03 -.97592E-03 -.22114E-02 -.36739E-02 -.50025E-02 -.57967E-02 -.57941E-02 -.49986E-02
 -.36803E-02 -.22437E-02 -.10446E-02 -.26035E-03 0.12418E-03 0.23975E-03 0.23465E-03 0.21549E-03 0.23408E-03 0.29087E-03
 0.29119E-03 0.28265E-04 -.64188E-03 -.18095E-02 -.33745E-02 -.50128E-02 -.62673E-02 -.67356E-02 -.62599E-02 -.50044E-02
 -.33753E-02 -.18290E-02 -.68272E-03 -.26876E-04 0.23523E-03 0.27696E-03 0.24931E-03 0.23924E-03 0.27259E-03 0.32059E-03
 0.22127E-03 -.23755E-03 -.11715E-02 -.25915E-02 -.42833E-02 -.58284E-02 -.67547E-02 -.67512E-02 -.58208E-02 -.42784E-02
 -.25944E-02 -.11837E-02 -.25726E-03 0.19666E-03 0.32864E-03 0.31489E-03 0.28262E-03 0.29016E-03 0.33461E-03 0.35396E-03
 0.11475E-03 -.50284E-03 -.15938E-02 -.30702E-02 -.46300E-02 -.58340E-02 -.62873E-02 -.58312E-02 -.46252E-02 -.30663E-02
 -.15947E-02 -.51092E-03 0.10179E-03 0.33415E-03 0.34964E-03 0.29718E-03 0.27031E-03 0.30056E-03 0.35780E-03 0.34672E-03
 0.10400E-04 -.67124E-03 -.17561E-02 -.30722E-02 -.42866E-02 -.50211E-02 -.50216E-02 -.42858E-02 -.30675E-02 -.17503E-02
 -.67127E-03 0.22995E-05 0.28626E-03 0.30903E-03 0.22291E-03 0.14671E-03 0.14479E-03 0.22104E-03 0.31344E-03 0.29639E-03
 -.33824E-04 -.66979E-03 -.15941E-02 -.25943E-02 -.33721E-02 -.36651E-02 -.33693E-02 -.25904E-02 -.15913E-02 -.66938E-03
 -.35633E-04 0.24449E-03 0.23649E-03 0.77767E-04 -.87301E-04 -.15483E-03 -.87264E-04 0.78499E-04 0.23841E-03 0.24708E-03
 0.86199E-05 -.50040E-03 -.11708E-02 -.18052E-02 -.21895E-02 -.21857E-02 -.17977E-02 -.11664E-02 -.50112E-03 0.66815E-05
 0.24502E-03 0.20374E-03 -.33754E-04 -.32319E-03 -.51407E-03 -.51208E-03 -.31973E-03 -.32853E-04 0.20210E-03 0.24448E-03
 0.10677E-03 -.23980E-03 -.63925E-03 -.95567E-03 -.10749E-02 -.95157E-03 -.63117E-03 -.22937E-03 0.11604E-03 0.29076E-03
 0.23477E-03 -.36097E-04 -.42054E-03 -.75601E-03 -.88790E-03 -.75248E-03 -.41471E-03 -.30722E-04 0.23622E-03 0.28627E-03
 0.19846E-03 0.13453E-04 -.15772E-03 -.25845E-03 -.25552E-03 -.14612E-03 0.36921E-04 0.22892E-03 0.34611E-03 0.30770E-03
 0.71344E-04 -.32577E-03 -.75258E-03 -.10300E-02 -.10271E-02 -.74406E-03 -.31462E-03 0.76791E-04 0.29838E-03 0.32121E-03
 0.24311E-03 0.19865E-03 0.18257E-03 0.18753E-03 0.20691E-03 0.24384E-03 0.30005E-03 0.35391E-03 0.34777E-03 0.20815E-03
 -.98260E-04 -.50932E-03 -.86959E-03 -.10110E-02 -.86235E-03 -.50015E-03 -.96807E-04 0.19178E-03 0.30940E-03 0.29944E-03
 0.24968E-03 0.31237E-03 0.37354E-03 0.39790E-03 0.38023E-03 0.34599E-03 0.32533E-03 0.31640E-03 0.26856E-03 0.11316E-03
 -.16812E-03 -.49476E-03 -.71683E-03 -.71541E-03 -.49360E-03 -.17600E-03 0.84357E-04 0.20989E-03 0.22884E-03 0.22246E-03
 0.25797E-03 0.38363E-03 0.45756E-03 0.45105E-03 0.38356E-03 0.30505E-03 0.25831E-03 0.24215E-03 0.20580E-03 0.91055E-04
 -.10370E-03 -.29852E-03 -.38280E-03 -.30601E-03 -.12439E-03 0.44491E-04 0.11846E-03 0.10926E-03 0.95210E-04 0.14382E-03
 0.29857E-03 0.43826E-03 0.48418E-03 0.43110E-03 0.32401E-03 0.22843E-03 0.18836E-03 0.19572E-03 0.19813E-03 0.14742E-03
 0.49736E-04 -.34063E-04 -.45145E-04 0.13135E-04 0.75038E-04 0.75949E-04 0.16695E-04 -.34991E-04 -.50513E-05 0.12355E-03
 0.37025E-03 0.48364E-03 0.48706E-03 0.39700E-03 0.27102E-03 0.17740E-03 0.15480E-03 0.18780E-03 0.22344E-03 0.21986E-03
 0.18181E-03 0.14614E-03 0.13322E-03 0.11987E-03 0.66740E-04 -.28887E-04 -.11383E-03 -.11669E-03 -.63346E-05 0.18203E-03
 0.44709E-03 0.51510E-03 0.48328E-03 0.37837E-03 0.25486E-03 0.16989E-03 0.14963E-03 0.17333E-03 0.19509E-03 0.18567E-03
 0.15213E-03 0.11613E-03 0.79757E-04 0.22981E-04 -.62510E-04 -.14435E-03 -.16339E-03 -.80235E-04 0.90875E-04 0.28992E-03
 0.81683E-02 0.78341E-02 0.63434E-02 0.40558E-02 0.15741E-02 -.33071E-03 -.94483E-03 0.23684E-04 0.21524E-02 0.43718E-02
 0.54816E-02 0.48417E-02 0.27626E-02 0.31572E-03 -.12915E-02 -.13348E-02 0.17368E-03 0.26402E-02 0.52424E-02 0.72447E-02
 0.76897E-02 0.67754E-02 0.48913E-02 0.25384E-02 0.47261E-03 -.45987E-03 0.31213E-03 0.26673E-02 0.56477E-02 0.78281E-02
 0.80746E-02 0.62152E-02 0.31461E-02 0.30184E-03 -.11272E-02 -.72023E-03 0.11495E-02 0.36602E-02 0.59548E-02 0.74049E-02