unknown system                          
   1.00000000000000     
     2.573869    0.000000    0.000000
     1.286934    2.229036    0.000000
     0.000000    0.000000   30.304665
   Cu   H 
     4     1
Direct
  0.000000  0.000000  0.395979
  0.333333  0.333333  0.465326
  0.666667  0.666667  0.534674
  0.000000  0.000000  0.604021
  0.538852  0.000000  0.637020
 
   20   20  240
 -.78053065721E-02 -.74671544222E-02 -.59653873054E-02 -.36676539521E-02 -.11818613507E-02
 0.72135730349E-03 0.13307069806E-02 0.35399903281E-03 -.17872150759E-02 -.40198915387E-02
 -.51363287478E-02 -.44912755018E-02 -.23984418196E-02 0.62854708368E-04 0.16794759235E-02
 0.17270101319E-02 0.21934853783E-03 -.22506423314E-02 -.48619431309E-02 -.68755559911E-02
 -.73185842658E-02 -.64004779555E-02 -.45090367370E-02 -.21497706708E-02 -.81122870711E-04
 0.85015751615E-03 0.72566386585E-04 -.22931380850E-02 -.52868754225E-02 -.74770386430E-02
 -.77232666474E-02 -.58526796271E-02 -.27679899348E-02 0.87986199873E-04 0.15214242810E-02
 0.11135930345E-02 -.75910044859E-03 -.32743000604E-02 -.55753602251E-02 -.70316775948E-02
 -.57071830835E-02 -.44136539980E-02 -.24997751530E-02 -.69413170704E-03 -.53728603291E-05
 -.13383318443E-02 -.48956478344E-02 -.97581337666E-02 -.14077858467E-01 -.15946678302E-01
 -.14458390913E-01 -.10246450688E-01 -.51140340149E-02 -.10260275626E-02 0.84704046097E-03
 0.47799523537E-03 -.13236602049E-02 -.35034169227E-02 -.52213351902E-02 -.60073877046E-02
 -.34227241206E-02 -.20947292908E-02 -.73187717285E-03 -.42924457227E-03 -.24520598062E-02
 -.74903886753E-02 -.14882223521E-01 -.22456399247E-01 -.27359688392E-01 -.27519684215E-01
 -.22820487763E-01 -.15175379473E-01 -.74462032337E-02 -.19634353513E-02 0.40819002908E-03
 0.22757098759E-03 -.12524265044E-02 -.28648645242E-02 -.39067036292E-02 -.40996497526E-02
 -.11080881279E-02 -.18836604835E-03 -.15866331961E-03 -.25319414135E-02 -.85698278913E-02
 -.18199047608E-01 -.29351453189E-01 -.38451434106E-01 -.42044020027E-01 -.38645998589E-01
 -.29591636975E-01 -.18281812685E-01 -.83602955750E-02 -.20327233896E-02 0.50692496401E-03
 0.47302180801E-03 -.59640730348E-03 -.16125032900E-02 -.20838104055E-02 -.18864725290E-02
 0.57194870658E-03 0.61733803730E-03 -.15112803293E-02 -.75318872774E-02 -.18156070743E-01
 -.31956917063E-01 -.45260109833E-01 -.53521998734E-01 -.53582860139E-01 -.45394797298E-01
 -.32052291765E-01 -.18103743319E-01 -.72901003834E-02 -.11219619650E-02 0.10578020263E-02
 0.96012550438E-03 0.16340066642E-03 -.43734360452E-03 -.52780199167E-03 -.96178066713E-04
 0.11302804794E-02 -.29184573286E-04 -.48194864018E-02 -.14658870256E-01 -.29098523360E-01
 -.45104309120E-01 -.57814870418E-01 -.62690558492E-01 -.57862480709E-01 -.45157444190E-01
 -.29099202982E-01 -.14567320172E-01 -.46345978529E-02 0.21360990606E-03 0.13767663971E-02
 0.79531553909E-03 -.57851485565E-04 -.44584495092E-03 -.16637952371E-03 0.59826045218E-03
 0.47099101819E-03 -.18947925819E-02 -.91433659735E-02 -.21789982013E-01 -.37907131331E-01
 -.53195548976E-01 -.62569618075E-01 -.62577639828E-01 -.53210296748E-01 -.37907820715E-01
 -.21758572610E-01 -.90730239154E-02 -.17893572621E-02 0.59911208712E-03 -.15426588149E-04
 -.16070547794E-02 -.27558582389E-02 -.27926023762E-02 -.17046693154E-02 -.14395202646E-03
 -.98545814634E-03 -.41399509814E-02 -.12827012823E-01 -.26273598175E-01 -.41292782379E-01
 -.53182735722E-01 -.57712784984E-01 -.53180327923E-01 -.41285899717E-01 -.26259597151E-01
 -.12802655632E-01 -.41000082229E-02 -.92483911043E-03 -.20035450523E-02 -.50755277051E-02
 -.79359007632E-02 -.90827294508E-02 -.79858798975E-02 -.51537276600E-02 -.20818737202E-02
 -.24213232788E-02 -.56592587076E-02 -.14275205799E-01 -.26272728377E-01 -.37908167630E-01
 -.45068629028E-01 -.45064732135E-01 -.37899054562E-01 -.26262778957E-01 -.14264162084E-01
 -.56398731363E-02 -.23845808301E-02 -.43150805190E-02 -.95027785674E-02 -.15190364883E-01
 -.18809633157E-01 -.18829536413E-01 -.15242058412E-01 -.95667108448E-02 -.43708898729E-02
 -.30189373064E-02 -.56639742639E-02 -.12824711205E-01 -.21786279321E-01 -.29101962942E-01
 -.31910137547E-01 -.29100084826E-01 -.21781418793E-01 -.12815026036E-01 -.56467852612E-02
 -.29906905382E-02 -.58638502804E-02 -.13239537150E-01 -.22388076129E-01 -.29840274062E-01
 -.32710000304E-01 -.29871587356E-01 -.22438077590E-01 -.13291290160E-01 -.59055020928E-02
 -.24273000410E-02 -.41408482419E-02 -.91246359549E-02 -.14644738603E-01 -.18162090210E-01
 -.18166429792E-01 -.14652858649E-01 -.91271028736E-02 -.41327410944E-02 -.24100617107E-02
 -.58771593222E-02 -.14708099318E-01 -.26895209081E-01 -.38682285560E-01 -.45937492380E-01
 -.45950594147E-01 -.38714621602E-01 -.26932336723E-01 -.14739815722E-01 -.59014270869E-02
 -.97157250404E-03 -.18561006825E-02 -.47550858454E-02 -.74863571424E-02 -.85741913060E-02
 -.75053061373E-02 -.47850671461E-02 -.18866494893E-02 -.99470316204E-03 -.43595419776E-02
 -.13248537657E-01 -.26880398018E-01 -.42057181102E-01 -.54059407458E-01 -.58636993112E-01
 -.54075907163E-01 -.42080222620E-01 -.26897514439E-01 -.13252186934E-01 -.43485588825E-02
 0.55128220861E-03 0.96650041115E-04 -.13608567274E-02 -.24235252096E-02 -.24457456072E-02
 -.14245448695E-02 0.17041949718E-05 0.44408497806E-03 -.21042257054E-02 -.95306776855E-02
 -.22346069893E-01 -.38616295850E-01 -.54026351648E-01 -.63470579145E-01 -.63483486083E-01
 -.54054704389E-01 -.38635271436E-01 -.22331160530E-01 -.94716036795E-02 -.20098717183E-02
 0.13297330669E-02 0.87328135392E-03 0.11315623408E-03 -.23430917108E-03 0.20308713118E-04
 0.69787948996E-03 0.10987323932E-02 -.21249639169E-03 -.51569623431E-02 -.15143981267E-01
 -.29720453631E-01 -.45844608109E-01 -.58640418980E-01 -.63550941238E-01 -.58696801494E-01
 -.45908268126E-01 -.29725551504E-01 -.15049129386E-01 -.49675245504E-02 0.26790749430E-04
 0.92405640572E-03 0.21363097687E-03 -.33583898468E-03 -.42194647511E-03 -.36240234238E-04
 0.54310972129E-03 0.47235286041E-03 -.17827551873E-02 -.79283493453E-02 -.18671118228E-01
 -.32580976889E-01 -.45974595970E-01 -.54291829802E-01 -.54356814528E-01 -.46117163213E-01
 -.32678858607E-01 -.18610894596E-01 -.76720655150E-02 -.13816313454E-02 0.91489866722E-03
 -.61769647351E-03 -.15820589330E-02 -.20337853614E-02 -.18551881152E-02 -.11315703460E-02
 -.29245757031E-03 -.35644031456E-03 -.28273209294E-02 -.89632618519E-02 -.18689227123E-01
 -.29930397560E-01 -.39096884579E-01 -.42716834892E-01 -.39297210746E-01 -.30176163854E-01
 -.18770297912E-01 -.87421599779E-02 -.23105691702E-02 0.32526354852E-03 0.37816799386E-03
 -.28714451943E-02 -.38878824834E-02 -.40835550623E-02 -.34368272636E-02 -.21591264217E-02
 -.85825629003E-03 -.62446726650E-03 -.27216270115E-02 -.78383596101E-02 -.15307580669E-01
 -.22948055129E-01 -.27893079381E-01 -.28058070014E-01 -.23322698460E-01 -.15607659125E-01
 -.77914548911E-02 -.22216631840E-02 0.22775347881E-03 0.11507215956E-03 -.13056758767E-02
 -.52220149806E-02 -.60000995858E-02 -.57091181286E-02 -.44411483434E-02 -.25646828245E-02
 -.80329071272E-03 -.16316796848E-03 -.15491259704E-02 -.51627722786E-02 -.10079367358E-01
 -.14440818508E-01 -.16328149758E-01 -.14829004502E-01 -.10578596914E-01 -.53890150861E-02
 -.12371162436E-02 0.69647973612E-03 0.37935972202E-03 -.13798751576E-02 -.35264545337E-02
 -.70331450868E-02 -.73168919297E-02 -.64042165693E-02 -.45288271356E-02 -.21927116924E-02
 -.14893201154E-03 0.75730873155E-03 -.47836278185E-04 -.24440242540E-02 -.54655715106E-02
 -.76723599870E-02 -.79192803303E-02 -.60349931202E-02 -.29266085854E-02 -.40391631359E-04
 0.14268626471E-02 0.10516301264E-02 -.79523998977E-03 -.32935845708E-02 -.55841629301E-02
 0.33022643038E-03 0.38905431597E-03 0.39012319621E-03 0.33353480899E-03 0.23489440082E-03
 0.12844053668E-03 0.54638452738E-04 0.36704833491E-04 0.64292294670E-04 0.98908442034E-04
 0.97847837125E-04 0.39433343655E-04 -.65860189302E-04 -.18163981849E-03 -.26271756911E-03
 -.27448847490E-03 -.20709248645E-03 -.78303026044E-04 0.76568533245E-04 0.22127593911E-03
 0.36187640751E-03 0.41315061480E-03 0.41674505815E-03 0.35263597158E-03 0.21977949885E-03
 0.46308673262E-04 -.12290257096E-03 -.25246576516E-03 -.33379763054E-03 -.38016870738E-03
 -.40769002080E-03 -.42091876465E-03 -.41274318449E-03 -.37330186677E-03 -.29809402426E-03
 -.19125303965E-03 -.65013588824E-04 0.64112789119E-04 0.18204306082E-03 0.28210310052E-03
 0.37161496402E-03 0.42719356964E-03 0.42105751857E-03 0.31506630199E-03 0.10260368789E-03
 -.18295240872E-03 -.48289701959E-03 -.73875623708E-03 -.91081323444E-03 -.98178672166E-03
 -.95154888848E-03 -.83252604432E-03 -.64862920626E-03 -.43345622955E-03 -.22370056917E-03
 -.48858931166E-04 0.78018535817E-04 0.16379653800E-03 0.22988370620E-03 0.29786965808E-03
 0.36028230289E-03 0.40980023294E-03 0.36053026483E-03 0.16446825094E-03 -.17892320545E-03
 -.61857455533E-03 -.10686443624E-02 -.14352390072E-02 -.16425162825E-02 -.16520219836E-02
 -.14715336222E-02 -.11509966644E-02 -.76653222604E-03 -.39804482853E-03 -.10767011548E-03
 0.75618774673E-04 0.16185533468E-03 0.19300705804E-03 0.22148375854E-03 0.28031456952E-03
 0.33445129276E-03 0.34297561103E-03 0.20426785218E-03 -.12921796354E-03 -.64243363077E-03
 -.12540844180E-02 -.18369354704E-02 -.22549830373E-02 -.24065145332E-02 -.22585899909E-02
 -.18583355468E-02 -.13146498291E-02 -.75834877651E-03 -.29918458500E-03 0.33126825230E-05
 0.14830463243E-03 0.18326209909E-03 0.17929983449E-03 0.19810693379E-03 0.26096264872E-03
 0.30101515532E-03 0.22215301829E-03 -.49140342270E-04 -.54900095981E-03 -.12372173128E-02
 -.19921271101E-02 -.26397439639E-02 -.30111426768E-02 -.30058386838E-02 -.26314441283E-02
 -.19992771756E-02 -.12783435787E-02 -.63160540795E-03 -.16448564263E-03 0.95799417920E-04
 0.18949696883E-03 0.19373658802E-03 0.18599420167E-03 0.21245240251E-03 0.26908058504E-03
 0.26347122301E-03 0.60333110319E-04 -.36403908817E-03 -.10234241487E-02 -.18428210258E-02
 -.26581133377E-02 -.32614330130E-02 -.34798449893E-02 -.32497541546E-02 -.26453792861E-02
 -.18442555862E-02 -.10501715219E-02 -.41679551089E-03 -.82141401947E-05 0.19509888115E-03
 0.26159766213E-03 0.26899775696E-03 0.27447194205E-03 0.29772709456E-03 0.31494128574E-03
 0.22293308717E-03 -.11432625129E-03 -.67433870310E-03 -.14407389225E-02 -.23005059312E-02
 -.30589247164E-02 -.35050304264E-02 -.35013245020E-02 -.30494430146E-02 -.22910225852E-02
 -.14407634783E-02 -.69169622143E-03 -.14796397825E-03 0.18385335256E-03 0.35645036508E-03
 0.43384741968E-03 0.46317556453E-03 0.46861592787E-03 0.45187796977E-03 0.38810795373E-03
 0.18271404243E-03 -.26470758043E-03 -.90281472175E-03 -.16854777889E-02 -.24723705158E-02
 -.30642918339E-02 -.32841565488E-02 -.30610264953E-02 -.24668496291E-02 -.16814352302E-02
 -.90593128759E-03 -.27790002979E-03 0.16311905206E-03 0.44946502311E-03 0.63098305014E-03
 0.73688474336E-03 0.77338993235E-03 0.74097250381E-03 0.64192238992E-03 0.46752245263E-03
 0.15120472749E-03 -.35361158348E-03 -.98700732084E-03 -.16840168545E-02 -.23012603884E-02
 -.26671515718E-02 -.26654623336E-02 -.22977911811E-02 -.16819879130E-02 -.98836001721E-03
 -.35794287385E-03 0.14526109634E-03 0.52619816783E-03 0.81417642747E-03 0.10218664694E-02
 0.11361596285E-02 0.11383775144E-02 0.10274788533E-02 0.82107816703E-03 0.53291941892E-03
 0.13847596960E-03 -.35580604451E-03 -.90245516970E-03 -.14358630325E-02 -.18370165915E-02
 -.19865769443E-02 -.18347858817E-02 -.14329473993E-02 -.90053238853E-03 -.35552990969E-03
 0.13723803132E-03 0.56736761827E-03 0.94270873321E-03 0.12540945873E-02 0.14680562900E-02
 0.15462050239E-02 0.14711600037E-02 0.12586140374E-02 0.94674245626E-03 0.57003351574E-03
 0.14822865990E-03 -.27008438239E-03 -.67316499392E-03 -.10130643029E-02 -.12129266855E-02
 -.12119225599E-02 -.10096606891E-02 -.66738603373E-03 -.26406047691E-03 0.15106271758E-03
 0.56776295478E-03 0.98532359080E-03 0.13792394125E-02 0.16955893726E-02 0.18735417137E-02
 0.18744526039E-02 0.16987098106E-02 0.13845455723E-02 0.99071173447E-03 0.56986486233E-03
 0.17257473802E-03 -.12307765650E-03 -.36314125832E-03 -.52904432242E-03 -.58786355881E-03
 -.52318958373E-03 -.35256293251E-03 -.11038833543E-03 0.18354680325E-03 0.53275581379E-03
 0.93959153369E-03 0.13746571296E-02 0.17718456486E-02 0.20522233638E-02 0.21550487354E-02
 0.20572803093E-02 0.17794819972E-02 0.13808736903E-02 0.94064954983E-03 0.52708084704E-03
 0.19589294463E-03 0.41220193324E-04 -.51713040271E-04 -.95260887370E-04 -.88192767201E-04
 -.31802857258E-04 0.70048719458E-04 0.22728642579E-03 0.46795961802E-03 0.81321554053E-03
 0.12429322694E-02 0.16872250108E-02 0.20529013294E-02 0.22603644968E-02 0.22652297652E-02
 0.20640298497E-02 0.16963558067E-02 0.12419195577E-02 0.79841921754E-03 0.44163653231E-03
 0.20587110214E-03 0.18166846827E-03 0.19561288798E-03 0.21333251857E-03 0.22416689362E-03
 0.23566090688E-03 0.27576090237E-03 0.39259392494E-03 0.63253246335E-03 0.10023263796E-02
 0.14476774264E-02 0.18707550037E-02 0.21722658533E-02 0.22847084041E-02 0.21826375248E-02
 0.18831504238E-02 0.14483840372E-02 0.97885619030E-03 0.58153160788E-03 0.32338847801E-03
 0.20271543809E-03 0.27670508717E-03 0.34690746631E-03 0.37328620743E-03 0.35323105669E-03
 0.31832163239E-03 0.32677077317E-03 0.44352841940E-03 0.70562356444E-03 0.10917619718E-02
 0.15218012552E-02 0.18891934462E-02 0.21020598092E-02 0.21079605816E-02 0.19007082452E-02
 0.15220832429E-02 0.10599759217E-02 0.62885651653E-03 0.32741805006E-03 0.19551447382E-03
 0.19871203330E-03 0.32743364267E-03 0.40697809334E-03 0.40876328569E-03 0.35080382935E-03
 0.28818902470E-03 0.29323796994E-03 0.42558263578E-03 0.70035933815E-03 0.10726858268E-02
 0.14511404086E-02 0.17328785753E-02 0.18391275188E-02 0.17361728674E-02 0.14425544810E-02
 0.10275125876E-02 0.59710914447E-03 0.26163050232E-03 0.92200911453E-04 0.91374779515E-04
 0.20868930210E-03 0.34876609004E-03 0.40652880705E-03 0.37420074972E-03 0.28992149453E-03
 0.21983659150E-03 0.23228161990E-03 0.37000279848E-03 0.62849888293E-03 0.95108217382E-03
 0.12462907459E-02 0.14211954258E-02 0.14151323487E-02 0.12202834359E-02 0.88437975139E-03
 0.49706039015E-03 0.16269436650E-03 -.35031896545E-04 -.64544529636E-04 0.42477030604E-04
 0.23924527841E-03 0.35828922910E-03 0.38523701323E-03 0.32944638019E-03 0.23609756056E-03
 0.16704550939E-03 0.17757648273E-03 0.29484430137E-03 0.50340158817E-03 0.74469439917E-03
 0.93520196179E-03 0.99899413382E-03 0.90033338405E-03 0.65990422919E-03 0.34708925294E-03
 0.53399618977E-04 -.14040964696E-03 -.19126520235E-03 -.10643654605E-03 0.61983729552E-04
 0.28451904882E-03 0.36958364672E-03 0.37547912746E-03 0.31460678667E-03 0.22215529077E-03
 0.14616392485E-03 0.13078617532E-03 0.19631072490E-03 0.32523048324E-03 0.46454474074E-03
 0.54704583533E-03 0.52259503843E-03 0.38308023626E-03 0.16767837239E-03 -.53848828706E-04
 -.21050824358E-03 -.25756594451E-03 -.19055156957E-03 -.42043194640E-04 0.13441480826E-03
 0.81958673077E-02 0.78584571202E-02 0.63580971764E-02 0.40639261086E-02 0.15823185586E-02
 -.32111404694E-03 -.93908392034E-03 0.22093173598E-04 0.21471429693E-02 0.43691978042E-02
 0.54831001355E-02 0.48431269154E-02 0.27615282271E-02 0.31516913225E-03 -.12873234773E-02
 -.13267455544E-02 0.18098059755E-03 0.26461276507E-02 0.52530477461E-02 0.72654370164E-02
 0.77124230056E-02 0.67907776049E-02 0.49007422156E-02 0.25478318474E-02 0.48340930363E-03
 -.45259464845E-03 0.31182276413E-03 0.26623656282E-02 0.56446203951E-02 0.78286559536E-02
 0.80746101125E-02 0.62113253797E-02 0.31415518739E-02 0.30260637418E-03 -.11201919822E-02
 -.71182312328E-03 0.11560604751E-02 0.36686197694E-02 0.59710819442E-02 0.74283653220E-02
 0.61036486021E-02 0.48085062686E-02 0.28940444639E-02 0.10893865532E-02 0.40007461989E-03
 0.17276020984E-02 0.52751045269E-02 0.10127405688E-01 0.14440242579E-01 0.16306502532E-01
 0.14819808384E-01 0.10614063831E-01 0.54923119500E-02 0.14162933763E-02 -.44873817451E-03
 -.78487085517E-04 0.17200105376E-02 0.38973840143E-02 0.56160690888E-02 0.64039193026E-02
 0.38216782557E-02 0.24959860995E-02 0.11288880349E-02 0.81939725166E-03 0.28374424221E-02
 0.78728789847E-02 0.15260337508E-01 0.22828020839E-01 0.27726288905E-01 0.27885885887E-01
 0.23189796657E-01 0.15548311021E-01 0.78231429395E-02 0.23472129773E-02 -.14935975315E-04
 0.17270287148E-03 0.16523794422E-02 0.32589680166E-02 0.42968457407E-02 0.44924999821E-02
 0.15090345262E-02 0.59042645145E-03 0.55302143865E-03 0.29169939015E-02 0.89499603287E-02
 0.18576561689E-01 0.29723682599E-01 0.38816533630E-01 0.42406181476E-01 0.39011985346E-01
 0.29963468715E-01 0.18656325736E-01 0.87364333328E-02 0.24157427440E-02 -.11153455507E-03
 -.68465179368E-04 0.99919433075E-03 0.20060877638E-02 0.24721657972E-02 0.22794159054E-02
 -.17257799693E-03 -.22351218927E-03 0.18960790041E-02 0.79112369139E-02 0.18532240966E-01
 0.32325431807E-01 0.45616005740E-01 0.53869353949E-01 0.53933620797E-01 0.45757246745E-01
 0.32424002828E-01 0.18478155370E-01 0.76674161913E-02 0.15092003651E-02 -.65774463198E-03
 -.55512703997E-03 0.23535488296E-03 0.82768811109E-03 0.91771189875E-03 0.49243564723E-03
 -.73923138702E-03 0.40965661788E-03 0.51924142557E-02 0.15030843090E-01 0.29467110885E-01
 0.45458931150E-01 0.58151698659E-01 0.63021670160E-01 0.58205780199E-01 0.45519111696E-01
 0.29470552113E-01 0.14939039723E-01 0.50088514924E-02 0.17130614542E-03 -.98119730711E-03
 -.39964829665E-03 0.44521749902E-03 0.82872307884E-03 0.55426096640E-03 -.20417598869E-03
 -.94343202878E-04 0.22631869157E-02 0.95081100493E-02 0.22154978137E-01 0.38266738892E-01
 0.53540189355E-01 0.62900115129E-01 0.62908936844E-01 0.53557720788E-01 0.38271955193E-01
 0.22127293916E-01 0.94374914959E-02 0.21534089326E-02 -.22695251242E-03 0.39585526595E-03
 0.19872268492E-02 0.31302501692E-02 0.31653966283E-02 0.20824012181E-02 0.52514225355E-03
 0.13464461373E-02 0.45001034722E-02 0.13189031347E-01 0.26636024366E-01 0.41649554242E-01
 0.53530053545E-01 0.58055365209E-01 0.53528230476E-01 0.41644423004E-01 0.26623984162E-01
 0.13164035337E-01 0.44554116582E-02 0.12795297875E-02 0.23638745964E-02 0.54418802081E-02
 0.83037825637E-02 0.94488898786E-02 0.83508272738E-02 0.55185309480E-02 0.24453939858E-02
 0.27708002446E-02 0.60139161179E-02 0.14637538759E-01 0.26638014319E-01 0.38270665626E-01
 0.45428446765E-01 0.45426604646E-01 0.38264916502E-01 0.26628130288E-01 0.14623095195E-01
 0.59922275792E-02 0.27361645852E-02 0.46711841155E-02 0.98635189468E-02 0.15552923868E-01
 0.19172795560E-01 0.19193683948E-01 0.15605487198E-01 0.99251693693E-02 0.47225732564E-02
 0.33639865086E-02 0.60162554464E-02 0.13188462651E-01 0.22156225465E-01 0.29472146812E-01
 0.32280747139E-01 0.29473271097E-01 0.22153534463E-01 0.13178064356E-01 0.59984428899E-02
 0.33392658809E-02 0.62201206035E-02 0.13605243000E-01 0.22755633042E-01 0.30203576819E-01
 0.33071578849E-01 0.30236820084E-01 0.22805182243E-01 0.13651684314E-01 0.62548013804E-02
 0.27757016527E-02 0.44973753663E-02 0.94920274949E-02 0.15017318792E-01 0.18535071893E-01
 0.18540119945E-01 0.15026966437E-01 0.94958239139E-02 0.44901905804E-02 0.27595219880E-02
 0.62300788440E-02 0.15071806457E-01 0.27264516085E-01 0.39046435777E-01 0.46293995144E-01
 0.46307992516E-01 0.39080534003E-01 0.27302561137E-01 0.15102946294E-01 0.62530725351E-02
 0.13308992665E-02 0.22252880929E-02 0.51298307252E-02 0.78603697548E-02 0.89473636654E-02
 0.78805532196E-02 0.51599130301E-02 0.22536255860E-02 0.13513563996E-02 0.47135661676E-02
 0.13608975400E-01 0.27245497393E-01 0.42415775572E-01 0.54405479482E-01 0.58978894760E-01
 0.54427653305E-01 0.42445363030E-01 0.27265870971E-01 0.13613144018E-01 0.47036118944E-02
 -.17529790476E-03 0.28907676111E-03 0.17449569488E-02 0.28017465047E-02 0.28243418057E-02
 0.18082918901E-02 0.38112907064E-03 -.71927151147E-04 0.24657023990E-02 0.98911289155E-02
 0.22710283659E-01 0.38975586566E-01 0.54369329008E-01 0.63800103836E-01 0.63816817414E-01
 0.54405295527E-01 0.38999056571E-01 0.22694530476E-01 0.98299447873E-02 0.23724304327E-02
 -.93648781499E-03 -.47521893515E-03 0.27830165136E-03 0.62052777542E-03 0.37021987285E-03
 -.30093353826E-03 -.70565283383E-03 0.59138922993E-03 0.55236108312E-02 0.15507849318E-01
 0.30083801021E-01 0.46198945926E-01 0.58979697095E-01 0.63883280842E-01 0.59037871996E-01
 0.46264364638E-01 0.30088774477E-01 0.15410836775E-01 0.53314926271E-02 0.35058689267E-03
 -.51994982871E-03 0.18846071140E-03 0.73062592864E-03 0.81553131915E-03 0.43619830669E-03
 -.13939951155E-03 -.76187219435E-04 0.21637310062E-02 0.82972822066E-02 0.19035712576E-01
 0.32943567767E-01 0.46331900557E-01 0.54643245560E-01 0.54708323675E-01 0.46475024076E-01
 0.33042546752E-01 0.18976087138E-01 0.80397659306E-02 0.17598328296E-02 -.52084625214E-03
 0.10223885302E-02 0.19827747673E-02 0.24295290985E-02 0.22505538738E-02 0.15299735091E-02
 0.69097630796E-03 0.74801865225E-03 0.32074229527E-02 0.93334436073E-02 0.19054572940E-01
 0.30294916471E-01 0.39461948037E-01 0.43082674436E-01 0.39664066756E-01 0.30543945648E-01
 0.19138959727E-01 0.91137225704E-02 0.26898118820E-02 0.65792784653E-04 0.23318062233E-04
 0.32692884193E-02 0.42867916087E-02 0.44801928578E-02 0.38290384198E-02 0.25485126036E-02
 0.12474549010E-02 0.10123333482E-02 0.31031968911E-02 0.82104735763E-02 0.15673179610E-01
 0.23313371880E-01 0.28261077840E-01 0.28426460167E-01 0.23688903190E-01 0.15974057916E-01
 0.81640439395E-02 0.26039945313E-02 0.16239998719E-03 0.27877329495E-03 0.17013722070E-02
 0.56127198593E-02 0.63978505060E-02 0.61062867640E-02 0.48308851212E-02 0.29496181139E-02
 0.11906838652E-02 0.55347411970E-03 0.19339062776E-02 0.55348494909E-02 0.10441399984E-01
 0.14801068660E-01 0.16690139656E-01 0.15189837819E-01 0.10937819306E-01 0.57543492500E-02
 0.16173767584E-02 -.30267219093E-03 0.16599430666E-04 0.17691742986E-02 0.39120452778E-02
 0.74215488910E-02 0.77120408109E-02 0.67998582780E-02 0.49206425052E-02 0.25837187901E-02
 0.54324194093E-03 -.36333628555E-03 0.43139321567E-03 0.28110649755E-02 0.58202307758E-02
 0.80237588744E-02 0.82728002095E-02 0.63916278388E-02 0.32893127946E-02 0.41592407242E-03
 -.10352841260E-02 -.65110034481E-03 0.11920338281E-02 0.36806552112E-02 0.59673083458E-02
 -.55217247791E-04 -.89434152869E-04 -.49584291332E-04 0.38498521292E-04 0.14381643547E-03
 0.23904076403E-03 0.30530359707E-03 0.33716053068E-03 0.34530122003E-03 0.35117940159E-03
 0.37452894568E-03 0.42285230776E-03 0.48974112088E-03 0.55906618547E-03 0.60824926959E-03
 0.61084452052E-03 0.54504595968E-03 0.40883528953E-03 0.23018996660E-03 0.59331607986E-04
 -.64705508521E-04 -.88647112932E-04 -.58525084057E-04 0.24951339697E-04 0.15747406729E-03
 0.32717456306E-03 0.51273880012E-03 0.68783834896E-03 0.82877013916E-03 0.91947409700E-03
 0.95262026639E-03 0.92973240733E-03 0.86129171451E-03 0.76367795536E-03 0.65155843160E-03
 0.53103921653E-03 0.40094467789E-03 0.26209558717E-03 0.12538267612E-03 0.10213777159E-04
 -.35458056800E-04 -.69261572094E-04 -.49322150034E-04 0.60145034269E-04 0.28320390064E-03
 0.61182277162E-03 0.99833296256E-03 0.13667573472E-02 0.16366899129E-02 0.17486960355E-02
 0.16830804384E-02 0.14667642151E-02 0.11639753697E-02 0.85120703349E-03 0.58709440248E-03
 0.39422917936E-03 0.26268889451E-03 0.16863575286E-03 0.91914367999E-04 0.23204245394E-04
 0.82810953472E-05 -.30679704679E-04 0.17160713782E-04 0.22382874218E-03 0.62887452236E-03
 0.12028043689E-02 0.18407775864E-02 0.23931012971E-02 0.27172228118E-02 0.27285333957E-02
 0.24316358822E-02 0.19199499262E-02 0.13398555240E-02 0.83161281141E-03 0.47648233183E-03
 0.27938121184E-03 0.19218923021E-03 0.15415231269E-03 0.12036666948E-03 0.70162006409E-04
 0.45811553605E-04 0.38634394812E-04 0.18568176347E-03 0.58090897441E-03 0.12509323692E-02
 0.21114182103E-02 0.29761732860E-02 0.36190734517E-02 0.38586294942E-02 0.36278383610E-02
 0.30015502317E-02 0.21684175635E-02 0.13548472814E-02 0.73423935470E-03 0.36923006250E-03
 0.21683792129E-03 0.18294249665E-03 0.18103287448E-03 0.16052785165E-03 0.10792528428E-03
 0.74224228243E-04 0.15691705725E-03 0.47963244579E-03 0.11319535072E-02 0.20927086690E-02
 0.31963719472E-02 0.41730650993E-02 0.47471321233E-02 0.47468034711E-02 0.41749988471E-02
 0.32097180944E-02 0.21309694903E-02 0.12051825501E-02 0.58462745147E-03 0.27474752341E-03
 0.17873441504E-03 0.17669224205E-03 0.18269585780E-03 0.15844799765E-03 0.10682162487E-03
 0.10578976428E-03 0.33169071736E-03 0.87361232602E-03 0.17861273157E-02 0.29742104315E-02
 0.41875419434E-02 0.50998483477E-02 0.54375353071E-02 0.50951601213E-02 0.41823991235E-02
 0.29780922910E-02 0.18104324209E-02 0.92293907518E-03 0.39748954318E-03 0.17026782720E-03
 0.11332837224E-03 0.11528542795E-03 0.11426349300E-03 0.91564028054E-04 0.65961403877E-04
 0.15288529274E-03 0.54239500241E-03 0.12860007529E-02 0.23793327360E-02 0.36492212759E-02
 0.47863314605E-02 0.54597227057E-02 0.54569928614E-02 0.47792003708E-02 0.36419987714E-02
 0.23798820700E-02 0.13011492508E-02 0.57125702425E-03 0.18585178969E-03 0.34292780484E-04
 -.60493162550E-05 -.12722344110E-04 -.16735404408E-04 -.20056690424E-04 0.84160874820E-05
 0.21325816734E-03 0.73856293460E-03 0.16023643762E-02 0.27340888772E-02 0.39044043017E-02
 0.47938037621E-02 0.51251839383E-02 0.47899369825E-02 0.38989504037E-02 0.27306700785E-02
 0.16041523448E-02 0.74639923427E-03 0.22504067588E-03 -.26115215007E-04 -.12297009689E-03
 -.15557073367E-03 -.16490373734E-03 -.16017174869E-03 -.13198075144E-03 -.38104549027E-04
 0.26721065668E-03 0.85873926641E-03 0.17218951896E-02 0.27338843419E-02 0.36516957657E-02
 0.42007263018E-02 0.41995241983E-02 0.36488826559E-02 0.27313334669E-02 0.17214497167E-02
 0.86131082009E-03 0.27254281336E-03 -.53709362646E-04 -.20133865857E-03 -.25863749270E-03
 -.27879027917E-03 -.28065569476E-03 -.26370179472E-03 -.20821788380E-03 -.60644700245E-04
 0.28976744303E-03 0.86064339840E-03 0.16036428305E-02 0.23757053575E-02 0.29685543136E-02
 0.31927674782E-02 0.29697415686E-02 0.23745994996E-02 0.15992255668E-02 0.85751491460E-03
 0.29336183754E-03 -.55805261034E-04 -.23257123958E-03 -.30545697663E-03 -.32902058712E-03
 -.33337575429E-03 -.32941507506E-03 -.30990780613E-03 -.24216464053E-03 -.65562833194E-04
 0.26984545413E-03 0.74438464262E-03 0.12869166143E-02 0.17731039468E-02 0.20648922706E-02
 0.20671716088E-02 0.17752323775E-02 0.12817968204E-02 0.73377422054E-03 0.26386744467E-03
 -.59594180527E-04 -.23801450511E-03 -.31270446884E-03 -.33084302082E-03 -.32836107842E-03
 -.32677077151E-03 -.33024266574E-03 -.31901586489E-03 -.24862892272E-03 -.64550680083E-04
 0.22146285527E-03 0.55359511520E-03 0.87327996158E-03 0.11058414746E-02 0.11912185339E-02
 0.11040658609E-02 0.86566729419E-03 0.53923757288E-03 0.20665335260E-03 -.62794916481E-04
 -.23454206188E-03 -.31185428623E-03 -.32373990586E-03 -.30828196978E-03 -.29792283790E-03
 -.30731592454E-03 -.32521968866E-03 -.31620894325E-03 -.23610720898E-03 -.55533689729E-04
 0.17579893477E-03 0.35264559572E-03 0.47945924005E-03 0.54150988398E-03 0.53514725405E-03
 0.46117018815E-03 0.32569114054E-03 0.14672008123E-03 -.42576439743E-04 -.20137153860E-03
 -.29813243023E-03 -.32697978543E-03 -.31137182710E-03 -.28996178727E-03 -.29158574194E-03
 -.31538419854E-03 -.33037594780E-03 -.29586048499E-03 -.18881023476E-03 -.19244007742E-04
 0.15770130007E-03 0.19365566266E-03 0.18790170850E-03 0.17204345181E-03 0.16174951165E-03
 0.14516126187E-03 0.96315192067E-04 0.14302223477E-05 -.12371886958E-03 -.23996832116E-03
 -.31074212842E-03 -.32787002094E-03 -.31592128069E-03 -.31000411461E-03 -.32425949884E-03
 -.33771644522E-03 -.31082924077E-03 -.21986306868E-03 -.80233852731E-04 0.61094212029E-04
 0.16513880412E-03 0.94155447286E-04 0.22172383325E-04 -.19539799041E-05 0.24747084879E-04
 0.61439517708E-04 0.56985909282E-04 -.11807810978E-04 -.12511135475E-03 -.23719886335E-03
 -.31060619110E-03 -.33994468099E-03 -.34692366980E-03 -.35217648095E-03 -.34988879133E-03
 -.30986554840E-03 -.20756851376E-03 -.55937270609E-04 0.91619040212E-04 0.17385437039E-03
 0.17026946884E-03 0.38746994761E-04 -.43502362956E-04 -.39673363176E-04 0.27054228440E-04
 0.93651711495E-04 0.10084289488E-03 0.29476143666E-04 -.93305715470E-04 -.21848633172E-03
 -.30899670429E-03 -.35653562875E-03 -.37070344267E-03 -.35457285204E-03 -.29334937845E-03
 -.17025230611E-03 0.39214098138E-05 0.17789642597E-03 0.28224149962E-03 0.27422110307E-03
 0.14305648631E-03 0.45048011543E-06 -.54222344090E-04 -.12634588870E-04 0.80400112893E-04
 0.15653730856E-03 0.16215177246E-03 0.84311472278E-04 -.48101882179E-04 -.18614452919E-03
 -.28882399479E-03 -.33698573515E-03 -.32620734528E-03 -.25266945800E-03 -.11284570189E-03
 0.78944323395E-04 0.27518116288E-03 0.40615473276E-03 0.41806880253E-03 0.31069306272E-03
 0.77784346672E-04 -.36622919481E-04 -.47595267233E-04 0.25643324989E-04 0.12970771138E-03
 0.20468685392E-03 0.20893293974E-03 0.13456230466E-03 0.88720239191E-05 -.12023515947E-03
 -.20709968274E-03 -.22424216350E-03 -.16323619522E-03 -.28899982141E-04 0.15915487502E-03
 0.35807812544E-03 0.50405643353E-03 0.53825552743E-03 0.44379145578E-03 0.26314272873E-03
 -.56584940467E-06 -.70150101124E-04 -.44011016485E-04 0.45353038672E-04 0.14969071515E-03
 0.22423335312E-03 0.24045243133E-03 0.19480151356E-03 0.11114270700E-03 0.31205844522E-04
 -.46248248644E-05 0.26139199687E-04 0.12370132012E-03 0.26989040422E-03 0.43071177592E-03
 0.55784790145E-03 0.60013073364E-03 0.52892012499E-03 0.36157126135E-03 0.15995797281E-03
 -.78374164285E-02 -.74898103301E-02 -.59717402745E-02 -.36674266863E-02 -.11876405495E-02
 0.70923503134E-03 0.13218525692E-02 0.35351772611E-03 -.17848192924E-02 -.40213209191E-02
 -.51395242825E-02 -.44896021220E-02 -.23924762208E-02 0.63978894531E-04 0.16702384015E-02
 0.17140281837E-02 0.21293987645E-03 -.22514952909E-02 -.48702390288E-02 -.68999297161E-02
 -.73429122782E-02 -.64138121741E-02 -.45135206912E-02 -.21561319510E-02 -.93773895486E-04