   5   5   1   0
  0.3477306E+02  0.2573869E-09  0.2573869E-09  0.3030467E-08  0.5000000E-15
  1.000000000000000E-004
  CAR 
 unknown system                          
      7.00000000    -17.00000000 2401     -2.38489450      1.00000000
    -17.000  0.0000E+00  0.0000E+00
    -16.990  0.0000E+00  0.0000E+00
    -16.980  0.0000E+00  0.0000E+00
    -16.970  0.0000E+00  0.0000E+00
    -16.960  0.0000E+00  0.0000E+00
    -16.950  0.0000E+00  0.0000E+00
    -16.940  0.0000E+00  0.0000E+00
    -16.930  0.0000E+00  0.0000E+00
    -16.920  0.0000E+00  0.0000E+00
    -16.910  0.0000E+00  0.0000E+00
    -16.900  0.0000E+00  0.0000E+00
    -16.890  0.0000E+00  0.0000E+00
    -16.880  0.0000E+00  0.0000E+00
    -16.870  0.0000E+00  0.0000E+00
    -16.860  0.0000E+00  0.0000E+00
    -16.850  0.0000E+00  0.0000E+00
    -16.840  0.0000E+00  0.0000E+00
    -16.830  0.0000E+00  0.0000E+00
    -16.820  0.0000E+00  0.0000E+00
    -16.810  0.0000E+00  0.0000E+00
    -16.800  0.0000E+00  0.0000E+00
    -16.790  0.0000E+00  0.0000E+00
    -16.780  0.0000E+00  0.0000E+00
    -16.770  0.0000E+00  0.0000E+00
    -16.760  0.0000E+00  0.0000E+00
    -16.750  0.0000E+00  0.0000E+00
    -16.740  0.0000E+00  0.0000E+00
    -16.730  0.0000E+00  0.0000E+00
    -16.720  0.0000E+00  0.0000E+00
    -16.710  0.0000E+00  0.0000E+00
    -16.700  0.0000E+00  0.0000E+00
    -16.690  0.0000E+00  0.0000E+00
    -16.680  0.0000E+00  0.0000E+00
    -16.670  0.0000E+00  0.0000E+00
    -16.660  0.0000E+00  0.0000E+00
    -16.650  0.0000E+00  0.0000E+00
    -16.640  0.0000E+00  0.0000E+00
    -16.630  0.0000E+00  0.0000E+00
    -16.620  0.0000E+00  0.0000E+00
    -16.610  0.0000E+00  0.0000E+00
    -16.600  0.0000E+00  0.0000E+00
    -16.590  0.0000E+00  0.0000E+00
    -16.580  0.0000E+00  0.0000E+00
    -16.570  0.0000E+00  0.0000E+00
    -16.560  0.0000E+00  0.0000E+00
    -16.550  0.0000E+00  0.0000E+00
    -16.540  0.0000E+00  0.0000E+00
    -16.530  0.0000E+00  0.0000E+00
    -16.520  0.0000E+00  0.0000E+00
    -16.510  0.0000E+00  0.0000E+00
    -16.500  0.0000E+00  0.0000E+00
    -16.490  0.0000E+00  0.0000E+00
    -16.480  0.0000E+00  0.0000E+00
    -16.470  0.0000E+00  0.0000E+00
    -16.460  0.0000E+00  0.0000E+00
    -16.450  0.0000E+00  0.0000E+00
    -16.440  0.0000E+00  0.0000E+00
    -16.430  0.0000E+00  0.0000E+00
    -16.420  0.0000E+00  0.0000E+00
    -16.410  0.0000E+00  0.0000E+00
    -16.400  0.0000E+00  0.0000E+00
    -16.390  0.0000E+00  0.0000E+00
    -16.380  0.0000E+00  0.0000E+00
    -16.370  0.0000E+00  0.0000E+00
    -16.360  0.0000E+00  0.0000E+00
    -16.350  0.0000E+00  0.0000E+00
    -16.340  0.0000E+00  0.0000E+00
    -16.330  0.0000E+00  0.0000E+00
    -16.320  0.0000E+00  0.0000E+00
    -16.310  0.0000E+00  0.0000E+00
    -16.300  0.0000E+00  0.0000E+00
    -16.290  0.0000E+00  0.0000E+00
    -16.280  0.0000E+00  0.0000E+00
    -16.270  0.0000E+00  0.0000E+00
    -16.260  0.0000E+00  0.0000E+00
    -16.250  0.0000E+00  0.0000E+00
    -16.240  0.0000E+00  0.0000E+00
    -16.230  0.0000E+00  0.0000E+00
    -16.220  0.0000E+00  0.0000E+00
    -16.210  0.0000E+00  0.0000E+00
    -16.200  0.0000E+00  0.0000E+00
    -16.190  0.0000E+00  0.0000E+00
    -16.180  0.0000E+00  0.0000E+00
    -16.170  0.0000E+00  0.0000E+00
    -16.160  0.0000E+00  0.0000E+00
    -16.150  0.0000E+00  0.0000E+00
    -16.140  0.0000E+00  0.0000E+00
    -16.130  0.0000E+00  0.0000E+00
    -16.120  0.0000E+00  0.0000E+00
    -16.110  0.0000E+00  0.0000E+00
    -16.100  0.0000E+00  0.0000E+00
    -16.090  0.0000E+00  0.0000E+00
    -16.080  0.0000E+00  0.0000E+00
    -16.070  0.0000E+00  0.0000E+00
    -16.060  0.0000E+00  0.0000E+00
    -16.050  0.0000E+00  0.0000E+00
    -16.040  0.0000E+00  0.0000E+00
    -16.030  0.0000E+00  0.0000E+00
    -16.020  0.0000E+00  0.0000E+00
    -16.010  0.0000E+00  0.0000E+00
    -16.000  0.0000E+00  0.0000E+00
    -15.990  0.0000E+00  0.0000E+00
    -15.980  0.0000E+00  0.0000E+00
    -15.970  0.0000E+00  0.0000E+00
    -15.960  0.0000E+00  0.0000E+00
    -15.950  0.0000E+00  0.0000E+00
    -15.940  0.0000E+00  0.0000E+00
    -15.930  0.0000E+00  0.0000E+00
    -15.920  0.0000E+00  0.0000E+00
    -15.910  0.0000E+00  0.0000E+00
    -15.900  0.0000E+00  0.0000E+00
    -15.890  0.0000E+00  0.0000E+00
    -15.880  0.0000E+00  0.0000E+00
    -15.870  0.0000E+00  0.0000E+00
    -15.860  0.0000E+00  0.0000E+00
    -15.850  0.0000E+00  0.0000E+00
    -15.840  0.0000E+00  0.0000E+00
    -15.830  0.0000E+00  0.0000E+00
    -15.820  0.0000E+00  0.0000E+00
    -15.810  0.0000E+00  0.0000E+00
    -15.800  0.0000E+00  0.0000E+00
    -15.790  0.0000E+00  0.0000E+00
    -15.780  0.0000E+00  0.0000E+00
    -15.770  0.0000E+00  0.0000E+00
    -15.760  0.0000E+00  0.0000E+00
    -15.750  0.0000E+00  0.0000E+00
    -15.740  0.0000E+00  0.0000E+00
    -15.730  0.0000E+00  0.0000E+00
    -15.720  0.0000E+00  0.0000E+00
    -15.710  0.0000E+00  0.0000E+00
    -15.700  0.0000E+00  0.0000E+00
    -15.690  0.0000E+00  0.0000E+00
    -15.680  0.0000E+00  0.0000E+00
    -15.670  0.0000E+00  0.0000E+00
    -15.660  0.0000E+00  0.0000E+00
    -15.650  0.0000E+00  0.0000E+00
    -15.640  0.0000E+00  0.0000E+00
    -15.630  0.0000E+00  0.0000E+00
    -15.620  0.0000E+00  0.0000E+00
    -15.610  0.0000E+00  0.0000E+00
    -15.600  0.0000E+00  0.0000E+00
    -15.590  0.0000E+00  0.0000E+00
    -15.580  0.0000E+00  0.0000E+00
    -15.570  0.0000E+00  0.0000E+00
    -15.560  0.0000E+00  0.0000E+00
    -15.550  0.0000E+00  0.0000E+00
    -15.540  0.0000E+00  0.0000E+00
    -15.530  0.0000E+00  0.0000E+00
    -15.520  0.0000E+00  0.0000E+00
    -15.510  0.0000E+00  0.0000E+00
    -15.500  0.0000E+00  0.0000E+00
    -15.490  0.0000E+00  0.0000E+00
    -15.480  0.0000E+00  0.0000E+00
    -15.470  0.0000E+00  0.0000E+00
    -15.460  0.0000E+00  0.0000E+00
    -15.450  0.0000E+00  0.0000E+00
    -15.440  0.0000E+00  0.0000E+00
    -15.430  0.0000E+00  0.0000E+00
    -15.420  0.0000E+00  0.0000E+00
    -15.410  0.0000E+00  0.0000E+00
    -15.400  0.0000E+00  0.0000E+00
    -15.390  0.0000E+00  0.0000E+00
    -15.380  0.0000E+00  0.0000E+00
    -15.370  0.0000E+00  0.0000E+00
    -15.360  0.0000E+00  0.0000E+00
    -15.350  0.0000E+00  0.0000E+00
    -15.340  0.0000E+00  0.0000E+00
    -15.330  0.0000E+00  0.0000E+00
    -15.320  0.0000E+00  0.0000E+00
    -15.310  0.0000E+00  0.0000E+00
    -15.300  0.0000E+00  0.0000E+00
    -15.290  0.0000E+00  0.0000E+00
    -15.280  0.0000E+00  0.0000E+00
    -15.270  0.0000E+00  0.0000E+00
    -15.260  0.0000E+00  0.0000E+00
    -15.250  0.0000E+00  0.0000E+00
    -15.240  0.0000E+00  0.0000E+00
    -15.230  0.0000E+00  0.0000E+00
    -15.220  0.0000E+00  0.0000E+00
    -15.210  0.0000E+00  0.0000E+00
    -15.200  0.0000E+00  0.0000E+00
    -15.190  0.0000E+00  0.0000E+00
    -15.180  0.0000E+00  0.0000E+00
    -15.170  0.0000E+00  0.0000E+00
    -15.160  0.0000E+00  0.0000E+00
    -15.150  0.0000E+00  0.0000E+00
    -15.140  0.0000E+00  0.0000E+00
    -15.130  0.0000E+00  0.0000E+00
    -15.120  0.0000E+00  0.0000E+00
    -15.110  0.0000E+00  0.0000E+00
    -15.100  0.0000E+00  0.0000E+00
    -15.090  0.0000E+00  0.0000E+00
    -15.080  0.0000E+00  0.0000E+00
    -15.070  0.0000E+00  0.0000E+00
    -15.060  0.0000E+00  0.0000E+00
    -15.050  0.0000E+00  0.0000E+00
    -15.040  0.0000E+00  0.0000E+00
    -15.030  0.0000E+00  0.0000E+00
    -15.020  0.0000E+00  0.0000E+00
    -15.010  0.0000E+00  0.0000E+00
    -15.000  0.0000E+00  0.0000E+00
    -14.990  0.0000E+00  0.0000E+00
    -14.980  0.0000E+00  0.0000E+00
    -14.970  0.0000E+00  0.0000E+00
    -14.960  0.0000E+00  0.0000E+00
    -14.950  0.0000E+00  0.0000E+00
    -14.940  0.0000E+00  0.0000E+00
    -14.930  0.0000E+00  0.0000E+00
    -14.920  0.0000E+00  0.0000E+00
    -14.910  0.0000E+00  0.0000E+00
    -14.900  0.0000E+00  0.0000E+00
    -14.890  0.0000E+00  0.0000E+00
    -14.880  0.0000E+00  0.0000E+00
    -14.870  0.0000E+00  0.0000E+00
    -14.860  0.0000E+00  0.0000E+00
    -14.850  0.0000E+00  0.0000E+00
    -14.840  0.0000E+00  0.0000E+00
    -14.830  0.0000E+00  0.0000E+00
    -14.820  0.0000E+00  0.0000E+00
    -14.810  0.0000E+00  0.0000E+00
    -14.800  0.0000E+00  0.0000E+00
    -14.790  0.0000E+00  0.0000E+00
    -14.780  0.0000E+00  0.0000E+00
    -14.770  0.0000E+00  0.0000E+00
    -14.760  0.0000E+00  0.0000E+00
    -14.750  0.0000E+00  0.0000E+00
    -14.740  0.0000E+00  0.0000E+00
    -14.730  0.0000E+00  0.0000E+00
    -14.720  0.0000E+00  0.0000E+00
    -14.710  0.0000E+00  0.0000E+00
    -14.700  0.0000E+00  0.0000E+00
    -14.690  0.0000E+00  0.0000E+00
    -14.680  0.0000E+00  0.0000E+00
    -14.670  0.0000E+00  0.0000E+00
    -14.660  0.0000E+00  0.0000E+00
    -14.650  0.0000E+00  0.0000E+00
    -14.640  0.0000E+00  0.0000E+00
    -14.630  0.0000E+00  0.0000E+00
    -14.620  0.0000E+00  0.0000E+00
    -14.610  0.0000E+00  0.0000E+00
    -14.600  0.0000E+00  0.0000E+00
    -14.590  0.0000E+00  0.0000E+00
    -14.580  0.0000E+00  0.0000E+00
    -14.570  0.0000E+00  0.0000E+00
    -14.560  0.0000E+00  0.0000E+00
    -14.550  0.0000E+00  0.0000E+00
    -14.540  0.0000E+00  0.0000E+00
    -14.530  0.0000E+00  0.0000E+00
    -14.520  0.0000E+00  0.0000E+00
    -14.510  0.0000E+00  0.0000E+00
    -14.500  0.0000E+00  0.0000E+00
    -14.490  0.0000E+00  0.0000E+00
    -14.480  0.0000E+00  0.0000E+00
    -14.470  0.0000E+00  0.0000E+00
    -14.460  0.0000E+00  0.0000E+00
    -14.450  0.0000E+00  0.0000E+00
    -14.440  0.0000E+00  0.0000E+00
    -14.430  0.0000E+00  0.0000E+00
    -14.420  0.0000E+00  0.0000E+00
    -14.410  0.0000E+00  0.0000E+00
    -14.400  0.0000E+00  0.0000E+00
    -14.390  0.0000E+00  0.0000E+00
    -14.380  0.0000E+00  0.0000E+00
    -14.370  0.0000E+00  0.0000E+00
    -14.360  0.0000E+00  0.0000E+00
    -14.350  0.0000E+00  0.0000E+00
    -14.340  0.0000E+00  0.0000E+00
    -14.330  0.0000E+00  0.0000E+00
    -14.320  0.0000E+00  0.0000E+00
    -14.310  0.0000E+00  0.0000E+00
    -14.300  0.0000E+00  0.0000E+00
    -14.290  0.0000E+00  0.0000E+00
    -14.280  0.0000E+00  0.0000E+00
    -14.270  0.0000E+00  0.0000E+00
    -14.260  0.0000E+00  0.0000E+00
    -14.250  0.0000E+00  0.0000E+00
    -14.240  0.0000E+00  0.0000E+00
    -14.230  0.0000E+00  0.0000E+00
    -14.220  0.0000E+00  0.0000E+00
    -14.210  0.0000E+00  0.0000E+00
    -14.200  0.0000E+00  0.0000E+00
    -14.190  0.0000E+00  0.0000E+00
    -14.180  0.0000E+00  0.0000E+00
    -14.170  0.0000E+00  0.0000E+00
    -14.160  0.0000E+00  0.0000E+00
    -14.150  0.0000E+00  0.0000E+00
    -14.140  0.0000E+00  0.0000E+00
    -14.130  0.0000E+00  0.0000E+00
    -14.120  0.0000E+00  0.0000E+00
    -14.110  0.0000E+00  0.0000E+00
    -14.100  0.0000E+00  0.0000E+00
    -14.090  0.0000E+00  0.0000E+00
    -14.080  0.0000E+00  0.0000E+00
    -14.070  0.0000E+00  0.0000E+00
    -14.060  0.0000E+00  0.0000E+00
    -14.050  0.0000E+00  0.0000E+00
    -14.040  0.0000E+00  0.0000E+00
    -14.030  0.0000E+00  0.0000E+00
    -14.020  0.0000E+00  0.0000E+00
    -14.010  0.0000E+00  0.0000E+00
    -14.000  0.0000E+00  0.0000E+00
    -13.990  0.0000E+00  0.0000E+00
    -13.980  0.0000E+00  0.0000E+00
    -13.970  0.0000E+00  0.0000E+00
    -13.960  0.0000E+00  0.0000E+00
    -13.950  0.0000E+00  0.0000E+00
    -13.940  0.0000E+00  0.0000E+00
    -13.930  0.0000E+00  0.0000E+00
    -13.920  0.0000E+00  0.0000E+00
    -13.910  0.0000E+00  0.0000E+00
    -13.900  0.0000E+00  0.0000E+00
    -13.890  0.0000E+00  0.0000E+00
    -13.880  0.0000E+00  0.0000E+00
    -13.870  0.0000E+00  0.0000E+00
    -13.860  0.0000E+00  0.0000E+00
    -13.850  0.0000E+00  0.0000E+00
    -13.840  0.0000E+00  0.0000E+00
    -13.830  0.0000E+00  0.0000E+00
    -13.820  0.0000E+00  0.0000E+00
    -13.810  0.0000E+00  0.0000E+00
    -13.800  0.0000E+00  0.0000E+00
    -13.790  0.0000E+00  0.0000E+00
    -13.780  0.0000E+00  0.0000E+00
    -13.770  0.0000E+00  0.0000E+00
    -13.760  0.0000E+00  0.0000E+00
    -13.750  0.0000E+00  0.0000E+00
    -13.740  0.0000E+00  0.0000E+00
    -13.730  0.0000E+00  0.0000E+00
    -13.720  0.0000E+00  0.0000E+00
    -13.710  0.0000E+00  0.0000E+00
    -13.700  0.0000E+00  0.0000E+00
    -13.690  0.0000E+00  0.0000E+00
    -13.680  0.0000E+00  0.0000E+00
    -13.670  0.0000E+00  0.0000E+00
    -13.660  0.0000E+00  0.0000E+00
    -13.650  0.0000E+00  0.0000E+00
    -13.640  0.0000E+00  0.0000E+00
    -13.630  0.0000E+00  0.0000E+00
    -13.620  0.0000E+00  0.0000E+00
    -13.610  0.0000E+00  0.0000E+00
    -13.600  0.0000E+00  0.0000E+00
    -13.590  0.0000E+00  0.0000E+00
    -13.580  0.0000E+00  0.0000E+00
    -13.570  0.0000E+00  0.0000E+00
    -13.560  0.0000E+00  0.0000E+00
    -13.550  0.0000E+00  0.0000E+00
    -13.540  0.0000E+00  0.0000E+00
    -13.530  0.0000E+00  0.0000E+00
    -13.520  0.0000E+00  0.0000E+00
    -13.510  0.0000E+00  0.0000E+00
    -13.500  0.0000E+00  0.0000E+00
    -13.490  0.0000E+00  0.0000E+00
    -13.480  0.0000E+00  0.0000E+00
    -13.470  0.0000E+00  0.0000E+00
    -13.460  0.0000E+00  0.0000E+00
    -13.450  0.0000E+00  0.0000E+00
    -13.440  0.0000E+00  0.0000E+00
    -13.430  0.0000E+00  0.0000E+00
    -13.420  0.0000E+00  0.0000E+00
    -13.410  0.0000E+00  0.0000E+00
    -13.400  0.0000E+00  0.0000E+00
    -13.390  0.0000E+00  0.0000E+00
    -13.380  0.0000E+00  0.0000E+00
    -13.370  0.0000E+00  0.0000E+00
    -13.360  0.0000E+00  0.0000E+00
    -13.350  0.0000E+00  0.0000E+00
    -13.340  0.0000E+00  0.0000E+00
    -13.330  0.0000E+00  0.0000E+00
    -13.320  0.0000E+00  0.0000E+00
    -13.310  0.0000E+00  0.0000E+00
    -13.300  0.0000E+00  0.0000E+00
    -13.290  0.0000E+00  0.0000E+00
    -13.280  0.0000E+00  0.0000E+00
    -13.270  0.0000E+00  0.0000E+00
    -13.260  0.0000E+00  0.0000E+00
    -13.250  0.0000E+00  0.0000E+00
    -13.240  0.0000E+00  0.0000E+00
    -13.230  0.0000E+00  0.0000E+00
    -13.220  0.0000E+00  0.0000E+00
    -13.210  0.0000E+00  0.0000E+00
    -13.200  0.0000E+00  0.0000E+00
    -13.190  0.0000E+00  0.0000E+00
    -13.180  0.0000E+00  0.0000E+00
    -13.170  0.0000E+00  0.0000E+00
    -13.160  0.0000E+00  0.0000E+00
    -13.150  0.0000E+00  0.0000E+00
    -13.140  0.0000E+00  0.0000E+00
    -13.130  0.0000E+00  0.0000E+00
    -13.120  0.0000E+00  0.0000E+00
    -13.110  0.0000E+00  0.0000E+00
    -13.100  0.0000E+00  0.0000E+00
    -13.090  0.0000E+00  0.0000E+00
    -13.080  0.0000E+00  0.0000E+00
    -13.070  0.0000E+00  0.0000E+00
    -13.060  0.0000E+00  0.0000E+00
    -13.050  0.0000E+00  0.0000E+00
    -13.040  0.0000E+00  0.0000E+00
    -13.030  0.0000E+00  0.0000E+00
    -13.020  0.0000E+00  0.0000E+00
    -13.010  0.0000E+00  0.0000E+00
    -13.000  0.0000E+00  0.0000E+00
    -12.990  0.0000E+00  0.0000E+00
    -12.980  0.0000E+00  0.0000E+00
    -12.970  0.0000E+00  0.0000E+00
    -12.960  0.0000E+00  0.0000E+00
    -12.950  0.0000E+00  0.0000E+00
    -12.940  0.0000E+00  0.0000E+00
    -12.930  0.0000E+00  0.0000E+00
    -12.920  0.0000E+00  0.0000E+00
    -12.910  0.0000E+00  0.0000E+00
    -12.900  0.0000E+00  0.0000E+00
    -12.890  0.0000E+00  0.0000E+00
    -12.880  0.0000E+00  0.0000E+00
    -12.870  0.0000E+00  0.0000E+00
    -12.860  0.0000E+00  0.0000E+00
    -12.850  0.0000E+00  0.0000E+00
    -12.840  0.0000E+00  0.0000E+00
    -12.830  0.0000E+00  0.0000E+00
    -12.820  0.0000E+00  0.0000E+00
    -12.810  0.0000E+00  0.0000E+00
    -12.800  0.0000E+00  0.0000E+00
    -12.790  0.0000E+00  0.0000E+00
    -12.780  0.0000E+00  0.0000E+00
    -12.770  0.0000E+00  0.0000E+00
    -12.760  0.0000E+00  0.0000E+00
    -12.750  0.0000E+00  0.0000E+00
    -12.740  0.0000E+00  0.0000E+00
    -12.730  0.0000E+00  0.0000E+00
    -12.720  0.0000E+00  0.0000E+00
    -12.710  0.0000E+00  0.0000E+00
    -12.700  0.0000E+00  0.0000E+00
    -12.690  0.0000E+00  0.0000E+00
    -12.680  0.0000E+00  0.0000E+00
    -12.670  0.0000E+00  0.0000E+00
    -12.660  0.0000E+00  0.0000E+00
    -12.650  0.0000E+00  0.0000E+00
    -12.640  0.0000E+00  0.0000E+00
    -12.630  0.0000E+00  0.0000E+00
    -12.620  0.0000E+00  0.0000E+00
    -12.610  0.0000E+00  0.0000E+00
    -12.600  0.0000E+00  0.0000E+00
    -12.590  0.0000E+00  0.0000E+00
    -12.580  0.0000E+00  0.0000E+00
    -12.570  0.0000E+00  0.0000E+00
    -12.560  0.0000E+00  0.0000E+00
    -12.550  0.0000E+00  0.0000E+00
    -12.540  0.0000E+00  0.0000E+00
    -12.530  0.0000E+00  0.0000E+00
    -12.520  0.0000E+00  0.0000E+00
    -12.510  0.0000E+00  0.0000E+00
    -12.500  0.0000E+00  0.0000E+00
    -12.490  0.0000E+00  0.0000E+00
    -12.480  0.0000E+00  0.0000E+00
    -12.470  0.0000E+00  0.0000E+00
    -12.460  0.0000E+00  0.0000E+00
    -12.450  0.0000E+00  0.0000E+00
    -12.440  0.0000E+00  0.0000E+00
    -12.430  0.0000E+00  0.0000E+00
    -12.420  0.0000E+00  0.0000E+00
    -12.410  0.0000E+00  0.0000E+00
    -12.400  0.0000E+00  0.0000E+00
    -12.390  0.0000E+00  0.0000E+00
    -12.380  0.0000E+00  0.0000E+00
    -12.370  0.0000E+00  0.0000E+00
    -12.360  0.0000E+00  0.0000E+00
    -12.350  0.0000E+00  0.0000E+00
    -12.340  0.0000E+00  0.0000E+00
    -12.330  0.0000E+00  0.0000E+00
    -12.320  0.0000E+00  0.0000E+00
    -12.310  0.0000E+00  0.0000E+00
    -12.300  0.0000E+00  0.0000E+00
    -12.290  0.0000E+00  0.0000E+00
    -12.280  0.0000E+00  0.0000E+00
    -12.270  0.0000E+00  0.0000E+00
    -12.260  0.0000E+00  0.0000E+00
    -12.250  0.0000E+00  0.0000E+00
    -12.240  0.0000E+00  0.0000E+00
    -12.230  0.0000E+00  0.0000E+00
    -12.220  0.0000E+00  0.0000E+00
    -12.210  0.1110E-15  0.1110E-17
    -12.200  0.1110E-15  0.2220E-17
    -12.190  0.4441E-15  0.6661E-17
    -12.180  0.1332E-14  0.1998E-16
    -12.170  0.4330E-14  0.6328E-16
    -12.160  0.1288E-13  0.1921E-15
    -12.150  0.3797E-13  0.5718E-15
    -12.140  0.1098E-12  0.1670E-14
    -12.130  0.3109E-12  0.4778E-14
    -12.120  0.8628E-12  0.1341E-13
    -12.110  0.2348E-11  0.3689E-13
    -12.100  0.6263E-11  0.9951E-13
    -12.090  0.1637E-10  0.2633E-12
    -12.080  0.4197E-10  0.6829E-12
    -12.070  0.1054E-09  0.1737E-11
    -12.060  0.2596E-09  0.4333E-11
    -12.050  0.6267E-09  0.1060E-10
    -12.040  0.1483E-08  0.2543E-10
    -12.030  0.3439E-08  0.5982E-10
    -12.020  0.7819E-08  0.1380E-09
    -12.010  0.1743E-07  0.3123E-09
    -12.000  0.3807E-07  0.6929E-09
    -11.990  0.8151E-07  0.1508E-08
    -11.980  0.1711E-06  0.3219E-08
    -11.970  0.3520E-06  0.6739E-08
    -11.960  0.7100E-06  0.1384E-07
    -11.950  0.1404E-05  0.2788E-07
    -11.940  0.2720E-05  0.5508E-07
    -11.930  0.5167E-05  0.1067E-06
    -11.920  0.9621E-05  0.2029E-06
    -11.910  0.1756E-04  0.3785E-06
    -11.900  0.3142E-04  0.6927E-06
    -11.890  0.5510E-04  0.1244E-05
    -11.880  0.9471E-04  0.2191E-05
    -11.870  0.1596E-03  0.3787E-05
    -11.860  0.2636E-03  0.6423E-05
    -11.850  0.4268E-03  0.1069E-04
    -11.840  0.6774E-03  0.1747E-04
    -11.830  0.1054E-02  0.2800E-04
    -11.820  0.1607E-02  0.4408E-04
    -11.810  0.2402E-02  0.6810E-04
    -11.800  0.3520E-02  0.1033E-03
    -11.790  0.5056E-02  0.1539E-03
    -11.780  0.7119E-02  0.2251E-03
    -11.770  0.9825E-02  0.3233E-03
    -11.760  0.1329E-01  0.4562E-03
    -11.750  0.1762E-01  0.6325E-03
    -11.740  0.2291E-01  0.8616E-03
    -11.730  0.2919E-01  0.1153E-02
    -11.720  0.3646E-01  0.1518E-02
    -11.710  0.4463E-01  0.1964E-02
    -11.700  0.5356E-01  0.2500E-02
    -11.690  0.6301E-01  0.3130E-02
    -11.680  0.7266E-01  0.3857E-02
    -11.670  0.8212E-01  0.4678E-02
    -11.660  0.9099E-01  0.5588E-02
    -11.650  0.9882E-01  0.6576E-02
    -11.640  0.1052E+00  0.7628E-02
    -11.630  0.1098E+00  0.8726E-02
    -11.620  0.1123E+00  0.9850E-02
    -11.610  0.1127E+00  0.1098E-01
    -11.600  0.1108E+00  0.1208E-01
    -11.590  0.1069E+00  0.1315E-01
    -11.580  0.1012E+00  0.1417E-01
    -11.570  0.9409E-01  0.1511E-01
    -11.560  0.8603E-01  0.1597E-01
    -11.550  0.7759E-01  0.1674E-01
    -11.540  0.6933E-01  0.1744E-01
    -11.530  0.6189E-01  0.1806E-01
    -11.520  0.5587E-01  0.1861E-01
    -11.510  0.5190E-01  0.1913E-01
    -11.500  0.5062E-01  0.1964E-01
    -11.490  0.5267E-01  0.2017E-01
    -11.480  0.5871E-01  0.2075E-01
    -11.470  0.6938E-01  0.2145E-01
    -11.460  0.8530E-01  0.2230E-01
    -11.450  0.1070E+00  0.2337E-01
    -11.440  0.1350E+00  0.2472E-01
    -11.430  0.1693E+00  0.2641E-01
    -11.420  0.2100E+00  0.2851E-01
    -11.410  0.2566E+00  0.3108E-01
    -11.400  0.3081E+00  0.3416E-01
    -11.390  0.3633E+00  0.3779E-01
    -11.380  0.4203E+00  0.4200E-01
    -11.370  0.4769E+00  0.4676E-01
    -11.360  0.5307E+00  0.5207E-01
    -11.350  0.5790E+00  0.5786E-01
    -11.340  0.6194E+00  0.6405E-01
    -11.330  0.6496E+00  0.7055E-01
    -11.320  0.6680E+00  0.7723E-01
    -11.310  0.6735E+00  0.8397E-01
    -11.300  0.6657E+00  0.9062E-01
    -11.290  0.6451E+00  0.9707E-01
    -11.280  0.6129E+00  0.1032E+00
    -11.270  0.5709E+00  0.1089E+00
    -11.260  0.5213E+00  0.1141E+00
    -11.250  0.4667E+00  0.1188E+00
    -11.240  0.4096E+00  0.1229E+00
    -11.230  0.3525E+00  0.1264E+00
    -11.220  0.2974E+00  0.1294E+00
    -11.210  0.2459E+00  0.1318E+00
    -11.200  0.1994E+00  0.1338E+00
    -11.190  0.1585E+00  0.1354E+00
    -11.180  0.1235E+00  0.1367E+00
    -11.170  0.9440E-01  0.1376E+00
    -11.160  0.7071E-01  0.1383E+00
    -11.150  0.5192E-01  0.1388E+00
    -11.140  0.3738E-01  0.1392E+00
    -11.130  0.2638E-01  0.1395E+00
    -11.120  0.1826E-01  0.1397E+00
    -11.110  0.1239E-01  0.1398E+00
    -11.100  0.8237E-02  0.1399E+00
    -11.090  0.5372E-02  0.1399E+00
    -11.080  0.3436E-02  0.1399E+00
    -11.070  0.2159E-02  0.1400E+00
    -11.060  0.1337E-02  0.1400E+00
    -11.050  0.8257E-03  0.1400E+00
    -11.040  0.5252E-03  0.1400E+00
    -11.030  0.3724E-03  0.1400E+00
    -11.020  0.3328E-03  0.1400E+00
    -11.010  0.3967E-03  0.1400E+00
    -11.000  0.5776E-03  0.1400E+00
    -10.990  0.9137E-03  0.1400E+00
    -10.980  0.1472E-02  0.1400E+00
    -10.970  0.2355E-02  0.1401E+00
    -10.960  0.3711E-02  0.1401E+00
    -10.950  0.5741E-02  0.1402E+00
    -10.940  0.8714E-02  0.1402E+00
    -10.930  0.1297E-01  0.1404E+00
    -10.920  0.1894E-01  0.1406E+00
    -10.910  0.2713E-01  0.1408E+00
    -10.900  0.3811E-01  0.1412E+00
    -10.890  0.5252E-01  0.1417E+00
    -10.880  0.7100E-01  0.1424E+00
    -10.870  0.9415E-01  0.1434E+00
    -10.860  0.1225E+00  0.1446E+00
    -10.850  0.1564E+00  0.1462E+00
    -10.840  0.1959E+00  0.1481E+00
    -10.830  0.2408E+00  0.1505E+00
    -10.820  0.2905E+00  0.1534E+00
    -10.810  0.3440E+00  0.1569E+00
    -10.800  0.3999E+00  0.1609E+00
    -10.790  0.4565E+00  0.1655E+00
    -10.780  0.5117E+00  0.1706E+00
    -10.770  0.5634E+00  0.1762E+00
    -10.760  0.6095E+00  0.1823E+00
    -10.750  0.6479E+00  0.1888E+00
    -10.740  0.6771E+00  0.1955E+00
    -10.730  0.6958E+00  0.2025E+00
    -10.720  0.7035E+00  0.2095E+00
    -10.710  0.7001E+00  0.2165E+00
    -10.700  0.6862E+00  0.2234E+00
    -10.690  0.6631E+00  0.2300E+00
    -10.680  0.6322E+00  0.2364E+00
    -10.670  0.5955E+00  0.2423E+00
    -10.660  0.5551E+00  0.2479E+00
    -10.650  0.5132E+00  0.2530E+00
    -10.640  0.4719E+00  0.2577E+00
    -10.630  0.4332E+00  0.2620E+00
    -10.620  0.3988E+00  0.2660E+00
    -10.610  0.3701E+00  0.2697E+00
    -10.600  0.3482E+00  0.2732E+00
    -10.590  0.3340E+00  0.2766E+00
    -10.580  0.3279E+00  0.2798E+00
    -10.570  0.3301E+00  0.2831E+00
    -10.560  0.3405E+00  0.2865E+00
    -10.550  0.3587E+00  0.2901E+00
    -10.540  0.3841E+00  0.2940E+00
    -10.530  0.4160E+00  0.2981E+00
    -10.520  0.4535E+00  0.3027E+00
    -10.510  0.4955E+00  0.3076E+00
    -10.500  0.5409E+00  0.3130E+00
    -10.490  0.5888E+00  0.3189E+00
    -10.480  0.6380E+00  0.3253E+00
    -10.470  0.6874E+00  0.3322E+00
    -10.460  0.7361E+00  0.3395E+00
    -10.450  0.7832E+00  0.3474E+00
    -10.440  0.8276E+00  0.3556E+00
    -10.430  0.8686E+00  0.3643E+00
    -10.420  0.9052E+00  0.3734E+00
    -10.410  0.9363E+00  0.3827E+00
    -10.400  0.9611E+00  0.3924E+00
    -10.390  0.9785E+00  0.4021E+00
    -10.380  0.9876E+00  0.4120E+00
    -10.370  0.9873E+00  0.4219E+00
    -10.360  0.9770E+00  0.4317E+00
    -10.350  0.9562E+00  0.4412E+00
    -10.340  0.9249E+00  0.4505E+00
    -10.330  0.8833E+00  0.4593E+00
    -10.320  0.8323E+00  0.4676E+00
    -10.310  0.7732E+00  0.4754E+00
    -10.300  0.7076E+00  0.4824E+00
    -10.290  0.6376E+00  0.4888E+00
    -10.280  0.5652E+00  0.4945E+00
    -10.270  0.4928E+00  0.4994E+00
    -10.260  0.4223E+00  0.5036E+00
    -10.250  0.3557E+00  0.5072E+00
    -10.240  0.2942E+00  0.5101E+00
    -10.230  0.2389E+00  0.5125E+00
    -10.220  0.1905E+00  0.5144E+00
    -10.210  0.1491E+00  0.5159E+00
    -10.200  0.1145E+00  0.5170E+00
    -10.190  0.8622E-01  0.5179E+00
    -10.180  0.6372E-01  0.5185E+00
    -10.170  0.4619E-01  0.5190E+00
    -10.160  0.3283E-01  0.5193E+00
    -10.150  0.2289E-01  0.5196E+00
    -10.140  0.1565E-01  0.5197E+00
    -10.130  0.1049E-01  0.5198E+00
    -10.120  0.6897E-02  0.5199E+00
    -10.110  0.4448E-02  0.5199E+00
    -10.100  0.2817E-02  0.5200E+00
    -10.090  0.1759E-02  0.5200E+00
    -10.080  0.1095E-02  0.5200E+00
    -10.070  0.7012E-03  0.5200E+00
    -10.060  0.4997E-03  0.5200E+00
    -10.050  0.4479E-03  0.5200E+00
    -10.040  0.5357E-03  0.5200E+00
    -10.030  0.7846E-03  0.5200E+00
    -10.020  0.1251E-02  0.5200E+00
    -10.010  0.2032E-02  0.5200E+00
    -10.000  0.3279E-02  0.5201E+00
     -9.990  0.5211E-02  0.5201E+00
     -9.980  0.8133E-02  0.5202E+00
     -9.970  0.1245E-01  0.5203E+00
     -9.960  0.1871E-01  0.5205E+00
     -9.950  0.2756E-01  0.5208E+00
     -9.940  0.3983E-01  0.5212E+00
     -9.930  0.5645E-01  0.5218E+00
     -9.920  0.7849E-01  0.5225E+00
     -9.910  0.1071E+00  0.5236E+00
     -9.900  0.1433E+00  0.5251E+00
     -9.890  0.1881E+00  0.5269E+00
     -9.880  0.2423E+00  0.5294E+00
     -9.870  0.3063E+00  0.5324E+00
     -9.860  0.3801E+00  0.5362E+00
     -9.850  0.4630E+00  0.5409E+00
     -9.840  0.5537E+00  0.5464E+00
     -9.830  0.6504E+00  0.5529E+00
     -9.820  0.7504E+00  0.5604E+00
     -9.810  0.8510E+00  0.5689E+00
     -9.800  0.9488E+00  0.5784E+00
     -9.790  0.1041E+01  0.5888E+00
     -9.780  0.1124E+01  0.6000E+00
     -9.770  0.1196E+01  0.6120E+00
     -9.760  0.1254E+01  0.6245E+00
     -9.750  0.1299E+01  0.6375E+00
     -9.740  0.1330E+01  0.6508E+00
     -9.730  0.1349E+01  0.6643E+00
     -9.720  0.1355E+01  0.6779E+00
     -9.710  0.1353E+01  0.6914E+00
     -9.700  0.1343E+01  0.7048E+00
     -9.690  0.1329E+01  0.7181E+00
     -9.680  0.1311E+01  0.7312E+00
     -9.670  0.1293E+01  0.7442E+00
     -9.660  0.1274E+01  0.7569E+00
     -9.650  0.1255E+01  0.7695E+00
     -9.640  0.1238E+01  0.7818E+00
     -9.630  0.1221E+01  0.7940E+00
     -9.620  0.1204E+01  0.8061E+00
     -9.610  0.1189E+01  0.8180E+00
     -9.600  0.1173E+01  0.8297E+00
     -9.590  0.1158E+01  0.8413E+00
     -9.580  0.1142E+01  0.8527E+00
     -9.570  0.1126E+01  0.8640E+00
     -9.560  0.1110E+01  0.8751E+00
     -9.550  0.1093E+01  0.8860E+00
     -9.540  0.1074E+01  0.8967E+00
     -9.530  0.1052E+01  0.9073E+00
     -9.520  0.1028E+01  0.9175E+00
     -9.510  0.1001E+01  0.9275E+00
     -9.500  0.9686E+00  0.9372E+00
     -9.490  0.9323E+00  0.9466E+00
     -9.480  0.8917E+00  0.9555E+00
     -9.470  0.8471E+00  0.9639E+00
     -9.460  0.7992E+00  0.9719E+00
     -9.450  0.7487E+00  0.9794E+00
     -9.440  0.6967E+00  0.9864E+00
     -9.430  0.6441E+00  0.9928E+00
     -9.420  0.5918E+00  0.9987E+00
     -9.410  0.5406E+00  0.1004E+01
     -9.400  0.4911E+00  0.1009E+01
     -9.390  0.4435E+00  0.1013E+01
     -9.380  0.3983E+00  0.1017E+01
     -9.370  0.3556E+00  0.1021E+01
     -9.360  0.3155E+00  0.1024E+01
     -9.350  0.2781E+00  0.1027E+01
     -9.340  0.2436E+00  0.1029E+01
     -9.330  0.2124E+00  0.1032E+01
     -9.320  0.1847E+00  0.1033E+01
     -9.310  0.1611E+00  0.1035E+01
     -9.300  0.1420E+00  0.1036E+01
     -9.290  0.1280E+00  0.1038E+01
     -9.280  0.1194E+00  0.1039E+01
     -9.270  0.1168E+00  0.1040E+01
     -9.260  0.1204E+00  0.1041E+01
     -9.250  0.1305E+00  0.1043E+01
     -9.240  0.1469E+00  0.1044E+01
     -9.230  0.1694E+00  0.1046E+01
     -9.220  0.1975E+00  0.1048E+01
     -9.210  0.2304E+00  0.1050E+01
     -9.200  0.2669E+00  0.1053E+01
     -9.190  0.3056E+00  0.1056E+01
     -9.180  0.3449E+00  0.1059E+01
     -9.170  0.3830E+00  0.1063E+01
     -9.160  0.4183E+00  0.1067E+01
     -9.150  0.4489E+00  0.1072E+01
     -9.140  0.4735E+00  0.1076E+01
     -9.130  0.4908E+00  0.1081E+01
     -9.120  0.5002E+00  0.1086E+01
     -9.110  0.5013E+00  0.1091E+01
     -9.100  0.4944E+00  0.1096E+01
     -9.090  0.4801E+00  0.1101E+01
     -9.080  0.4591E+00  0.1106E+01
     -9.070  0.4329E+00  0.1110E+01
     -9.060  0.4025E+00  0.1114E+01
     -9.050  0.3696E+00  0.1118E+01
     -9.040  0.3352E+00  0.1121E+01
     -9.030  0.3008E+00  0.1124E+01
     -9.020  0.2673E+00  0.1127E+01
     -9.010  0.2358E+00  0.1129E+01
     -9.000  0.2071E+00  0.1131E+01
     -8.990  0.1821E+00  0.1133E+01
     -8.980  0.1617E+00  0.1135E+01
     -8.970  0.1468E+00  0.1136E+01
     -8.960  0.1385E+00  0.1137E+01
     -8.950  0.1382E+00  0.1139E+01
     -8.940  0.1475E+00  0.1140E+01
     -8.930  0.1681E+00  0.1142E+01
     -8.920  0.2021E+00  0.1144E+01
     -8.910  0.2517E+00  0.1147E+01
     -8.900  0.3189E+00  0.1150E+01
     -8.890  0.4057E+00  0.1154E+01
     -8.880  0.5135E+00  0.1159E+01
     -8.870  0.6430E+00  0.1165E+01
     -8.860  0.7939E+00  0.1173E+01
     -8.850  0.9645E+00  0.1183E+01
     -8.840  0.1152E+01  0.1194E+01
     -8.830  0.1352E+01  0.1208E+01
     -8.820  0.1558E+01  0.1224E+01
     -8.810  0.1764E+01  0.1241E+01
     -8.800  0.1962E+01  0.1261E+01
     -8.790  0.2143E+01  0.1282E+01
     -8.780  0.2300E+01  0.1305E+01
     -8.770  0.2427E+01  0.1330E+01
     -8.760  0.2518E+01  0.1355E+01
     -8.750  0.2570E+01  0.1380E+01