    5    5    1    1
  0.3477306E+02  0.2573869E-09  0.2573869E-09  0.3030466E-08  0.5000000E-15
  1.000000000000000E-004
  CAR 
 unknown system                          
     45     52     28
 
  0.0000000E+00  0.0000000E+00  0.0000000E+00  0.1000000E-01
    1      -11.618658   1.000000
    2      -10.635653   1.000000
    3       -9.034494   1.000000
    4       -7.586417   1.000000
    5       -6.335701   1.000000
    6       -5.706603   1.000000
    7       -5.554354   1.000000
    8       -5.480973   1.000000
    9       -5.365303   1.000000
   10       -5.350733   1.000000
   11       -5.328909   1.000000
   12       -5.286644   1.000000
   13       -5.285079   1.000000
   14       -5.034454   1.000000
   15       -5.030388   1.000000
   16       -4.933588   1.000000
   17       -4.838818   1.000000
   18       -4.744517   1.000000
   19       -4.541617   1.000000
   20       -4.532467   1.000000
   21       -4.326349   1.000000
   22       -4.309995   1.000000
   23       -4.047747   1.000000
   24       -4.042959   1.000000
   25       -2.965390   1.000000
   26        1.621399   0.000000
   27        1.948677   0.000000
   28        2.375181   0.000000
 
  0.1000000E+00  0.6938894E-17  0.0000000E+00  0.2000000E-01
    1      -11.311208   1.000000
    2      -10.339136   1.000000
    3       -8.775701   1.000000
    4       -7.366456   1.000000
    5       -6.359410   1.000000
    6       -5.742217   1.000000
    7       -5.649299   1.000000
    8       -5.493089   1.000000
    9       -5.435839   1.000000
   10       -5.381135   1.000000
   11       -5.339625   1.000000
   12       -5.251233   1.000000
   13       -5.191256   1.000000
   14       -5.155562   1.000000
   15       -5.054169   1.000000
   16       -4.944705   1.000000
   17       -4.817468   1.000000
   18       -4.740840   1.000000
   19       -4.546589   1.000000
   20       -4.514130   1.000000
   21       -4.341841   1.000000
   22       -4.308799   1.000000
   23       -4.039753   1.000000
   24       -3.799777   1.000000
   25       -2.275428   0.060801
   26        1.864088   0.000000
   27        2.252146   0.000000
   28        2.678287   0.000000
 
  0.2000000E+00 -0.1387779E-16  0.0000000E+00  0.2000000E-01
    1      -10.426827   1.000000
    2       -9.502584   1.000000
    3       -8.111515   1.000000
    4       -6.856201   1.000000
    5       -6.460730   1.000000
    6       -5.982411   1.000000
    7       -5.819808   1.000000
    8       -5.703078   1.000000
    9       -5.530421   1.000000
   10       -5.330388   1.000000
   11       -5.269197   1.000000
   12       -5.239511   1.000000
   13       -5.124359   1.000000
   14       -5.052710   1.000000
   15       -4.927785   1.000000
   16       -4.875690   1.000000
   17       -4.833890   1.000000
   18       -4.660180   1.000000
   19       -4.615379   1.000000
   20       -4.490738   1.000000
   21       -4.311426   1.000000
   22       -4.116615   1.000000
   23       -4.034975   1.000000
   24       -2.908601   1.000000
   25       -0.935756   0.000000
   26        2.585539   0.000000
   27        3.161605   0.000000
   28        3.588554   0.000000
 
  0.3000000E+00 -0.2775558E-16  0.0000000E+00  0.2000000E-01
    1       -9.128420   1.000000
    2       -8.368115   1.000000
    3       -7.479270   1.000000
    4       -6.704885   1.000000
    5       -6.447378   1.000000
    6       -6.247626   1.000000
    7       -5.942072   1.000000
    8       -5.710105   1.000000
    9       -5.587729   1.000000
   10       -5.337823   1.000000
   11       -5.217600   1.000000
   12       -5.107085   1.000000
   13       -4.931865   1.000000
   14       -4.882775   1.000000
   15       -4.808601   1.000000
   16       -4.660260   1.000000
   17       -4.566472   1.000000
   18       -4.423186   1.000000
   19       -4.383630   1.000000
   20       -4.302635   1.000000
   21       -4.186920   1.000000
   22       -4.022293   1.000000
   23       -3.610066   1.000000
   24       -1.717483   0.000000
   25        0.762709   0.000000
   26        3.765546   0.000000
   27        4.637288   0.000000
   28        5.068353   0.000000
 
  0.4000000E+00 -0.2775558E-16  0.0000000E+00  0.2000000E-01
    1       -8.063304   1.000000
    2       -7.477043   1.000000
    3       -7.147945   1.000000
    4       -6.809342   1.000000
    5       -6.559564   1.000000
    6       -6.411658   1.000000
    7       -6.065518   1.000000
    8       -5.535404   1.000000
    9       -5.418389   1.000000
   10       -5.318736   1.000000
   11       -5.261725   1.000000
   12       -4.967421   1.000000
   13       -4.848812   1.000000
   14       -4.534094   1.000000
   15       -4.423078   1.000000
   16       -4.366123   1.000000
   17       -4.161458   1.000000
   18       -4.139811   1.000000
   19       -4.105441   1.000000
   20       -4.023229   1.000000
   21       -3.870500   1.000000
   22       -3.584218   1.000000
   23       -2.534160   0.982611
   24       -0.310245   0.000000
   25        2.186726   0.000000
   26        2.789607   0.000000
   27        3.160675   0.000000
   28        4.390575   0.000000
 
  0.5000000E+00 -0.2775558E-16  0.0000000E+00  0.1000000E-01
    1       -7.857352   1.000000
    2       -7.170463   1.000000
    3       -6.961347   1.000000
    4       -6.871326   1.000000
    5       -6.617737   1.000000
    6       -6.463382   1.000000
    7       -6.092959   1.000000
    8       -5.459675   1.000000
    9       -5.444002   1.000000
   10       -5.283546   1.000000
   11       -5.161519   1.000000
   12       -4.957837   1.000000
   13       -4.628305   1.000000
   14       -4.468069   1.000000
   15       -4.331729   1.000000
   16       -4.231220   1.000000
   17       -4.100649   1.000000
   18       -4.005982   1.000000
   19       -3.950266   1.000000
   20       -3.753838   1.000000
   21       -3.662573   1.000000
   22       -2.247330   0.025860
   23       -1.411646   0.000000
   24       -0.871807   0.000000
   25        1.406664   0.000000
   26        2.069784   0.000000
   27        2.724886   0.000000
   28        3.688814   0.000000
 
  0.0000000E+00  0.1000000E+00  0.0000000E+00  0.2000000E-01
    1      -11.325207   1.000000
    2      -10.340393   1.000000
    3       -8.766064   1.000000
    4       -7.361750   1.000000
    5       -6.284920   1.000000
    6       -5.775584   1.000000
    7       -5.565896   1.000000
    8       -5.454998   1.000000
    9       -5.421292   1.000000
   10       -5.393656   1.000000
   11       -5.323821   1.000000
   12       -5.292204   1.000000
   13       -5.186285   1.000000
   14       -5.156951   1.000000
   15       -5.054697   1.000000
   16       -4.968874   1.000000
   17       -4.890491   1.000000
   18       -4.758580   1.000000
   19       -4.557560   1.000000
   20       -4.502285   1.000000
   21       -4.345222   1.000000
   22       -4.321933   1.000000
   23       -4.043618   1.000000
   24       -3.820750   1.000000
   25       -2.285108   0.079093
   26        1.864893   0.000000
   27        2.251874   0.000000
   28        2.677567   0.000000
 
  0.1000000E+00  0.1000000E+00  0.0000000E+00  0.2000000E-01
    1      -11.311278   1.000000
    2      -10.339004   1.000000
    3       -8.775740   1.000000
    4       -7.366948   1.000000
    5       -6.355711   1.000000
    6       -5.742475   1.000000
    7       -5.658906   1.000000
    8       -5.494029   1.000000
    9       -5.427404   1.000000
   10       -5.391840   1.000000
   11       -5.337138   1.000000
   12       -5.251264   1.000000
   13       -5.190682   1.000000
   14       -5.152978   1.000000
   15       -5.055109   1.000000
   16       -4.945172   1.000000
   17       -4.797990   1.000000
   18       -4.748240   1.000000
   19       -4.548546   1.000000
   20       -4.510457   1.000000
   21       -4.346039   1.000000
   22       -4.310686   1.000000
   23       -4.040435   1.000000
   24       -3.800966   1.000000
   25       -2.276218   0.062157
   26        1.864066   0.000000
   27        2.252075   0.000000
   28        2.677881   0.000000
 
  0.2000000E+00  0.1000000E+00  0.0000000E+00  0.2000000E-01
    1      -10.704451   1.000000
    2       -9.771920   1.000000
    3       -8.322393   1.000000
    4       -6.995024   1.000000
    5       -6.434410   1.000000
    6       -5.876455   1.000000
    7       -5.805255   1.000000
    8       -5.633765   1.000000
    9       -5.527790   1.000000
   10       -5.417386   1.000000
   11       -5.329475   1.000000
   12       -5.213907   1.000000
   13       -5.146785   1.000000
   14       -5.124023   1.000000
   15       -4.983394   1.000000
   16       -4.884196   1.000000
   17       -4.759533   1.000000
   18       -4.651894   1.000000
   19       -4.622318   1.000000
   20       -4.485123   1.000000
   21       -4.393451   1.000000
   22       -4.135823   1.000000
   23       -4.067624   1.000000
   24       -3.142135   1.000000
   25       -1.320974   0.000000
   26        2.346330   0.000000
   27        2.859067   0.000000
   28        3.283838   0.000000
 
  0.3000000E+00  0.1000000E+00  0.0000000E+00  0.2000000E-01
    1       -9.602187   1.000000
    2       -8.773179   1.000000
    3       -7.664231   1.000000
    4       -6.635427   1.000000
    5       -6.369879   1.000000
    6       -6.093967   1.000000
    7       -5.928363   1.000000
    8       -5.804510   1.000000
    9       -5.646773   1.000000
   10       -5.362032   1.000000
   11       -5.321551   1.000000
   12       -5.208880   1.000000
   13       -5.122812   1.000000
   14       -5.008097   1.000000
   15       -4.909139   1.000000
   16       -4.799165   1.000000
   17       -4.649532   1.000000
   18       -4.513224   1.000000
   19       -4.392324   1.000000
   20       -4.350712   1.000000
   21       -4.201271   1.000000
   22       -4.098121   1.000000
   23       -3.725349   1.000000
   24       -2.117653   0.000079
   25        0.154133   0.000000
   26        3.317613   0.000000
   27        4.066833   0.000000
   28        4.508540   0.000000
 
  0.4000000E+00  0.1000000E+00  0.0000000E+00  0.2000000E-01
    1       -8.400676   1.000000
    2       -7.730970   1.000000
    3       -7.179768   1.000000
    4       -6.657169   1.000000
    5       -6.425414   1.000000
    6       -6.249905   1.000000
    7       -5.986096   1.000000
    8       -5.673406   1.000000
    9       -5.601038   1.000000
   10       -5.351514   1.000000
   11       -5.264446   1.000000
   12       -5.131933   1.000000
   13       -4.952528   1.000000
   14       -4.788060   1.000000
   15       -4.733277   1.000000
   16       -4.554072   1.000000
   17       -4.441823   1.000000
   18       -4.320359   1.000000
   19       -4.220641   1.000000
   20       -4.045249   1.000000
   21       -3.993799   1.000000
   22       -3.674314   1.000000
   23       -2.821513   1.000000
   24       -0.700174   0.000000
   25        1.965915   0.000000
   26        3.958594   0.000000
   27        4.409713   0.000000
   28        5.123456   0.000000
 
  0.5000000E+00  0.1000000E+00  0.0000000E+00  0.2000000E-01
    1       -7.883241   1.000000
    2       -7.092998   1.000000
    3       -6.909634   1.000000
    4       -6.724222   1.000000
    5       -6.525939   1.000000
    6       -6.350762   1.000000
    7       -6.063477   1.000000
    8       -5.570130   1.000000
    9       -5.457139   1.000000
   10       -5.348317   1.000000
   11       -5.234282   1.000000
   12       -5.048015   1.000000
   13       -4.819474   1.000000
   14       -4.586989   1.000000
   15       -4.451698   1.000000
   16       -4.302903   1.000000
   17       -4.185155   1.000000
   18       -4.155008   1.000000
   19       -4.078607   1.000000
   20       -3.925706   1.000000
   21       -3.477436   1.000000
   22       -2.375698   0.448260
   23       -1.365696   0.000000
   24        0.063691   0.000000
   25        1.699319   0.000000
   26        2.443816   0.000000
   27        2.935892   0.000000
   28        4.166489   0.000000
 
 -0.4000000E+00  0.1000000E+00  0.0000000E+00  0.2000000E-01
    1       -7.803711   1.000000
    2       -7.091919   1.000000
    3       -6.901658   1.000000
    4       -6.750105   1.000000
    5       -6.525458   1.000000
    6       -6.378464   1.000000
    7       -6.084869   1.000000
    8       -5.630540   1.000000
    9       -5.445095   1.000000
   10       -5.358044   1.000000
   11       -5.275569   1.000000
   12       -5.051827   1.000000
   13       -4.842400   1.000000
   14       -4.555461   1.000000
   15       -4.459754   1.000000
   16       -4.303100   1.000000
   17       -4.190777   1.000000
   18       -4.129445   1.000000
   19       -4.080280   1.000000
   20       -3.920281   1.000000
   21       -3.397339   1.000000
   22       -2.376818   0.454532
   23       -1.391805   0.000000
   24        0.052714   0.000000
   25        1.692032   0.000000
   26        2.411749   0.000000
   27        2.978028   0.000000
   28        4.145483   0.000000
 
 -0.3000000E+00  0.1000000E+00  0.0000000E+00  0.2000000E-01
    1       -8.357835   1.000000
    2       -7.692880   1.000000
    3       -7.155333   1.000000
    4       -6.673137   1.000000
    5       -6.434387   1.000000
    6       -6.286469   1.000000
    7       -6.028921   1.000000
    8       -5.716113   1.000000
    9       -5.617515   1.000000
   10       -5.378431   1.000000
   11       -5.304293   1.000000
   12       -5.142635   1.000000
   13       -4.959878   1.000000
   14       -4.791925   1.000000
   15       -4.660380   1.000000
   16       -4.551160   1.000000
   17       -4.428655   1.000000
   18       -4.272510   1.000000
   19       -4.195241   1.000000
   20       -4.030106   1.000000
   21       -3.965019   1.000000
   22       -3.670802   1.000000
   23       -2.878026   1.000000
   24       -0.796570   0.000000
   25        1.893820   0.000000
   26        4.026506   0.000000
   27        4.458971   0.000000
   28        5.141405   0.000000
 
 -0.2000000E+00  0.1000000E+00  0.0000000E+00  0.2000000E-01
    1       -9.650841   1.000000
    2       -8.748412   1.000000
    3       -7.577065   1.000000
    4       -6.592675   1.000000
    5       -6.369151   1.000000
    6       -6.118163   1.000000
    7       -5.951225   1.000000
    8       -5.811770   1.000000
    9       -5.640323   1.000000
   10       -5.374168   1.000000
   11       -5.326525   1.000000
   12       -5.242192   1.000000
   13       -5.090627   1.000000
   14       -4.959694   1.000000
   15       -4.872040   1.000000
   16       -4.799738   1.000000
   17       -4.622986   1.000000
   18       -4.552337   1.000000
   19       -4.414687   1.000000
   20       -4.347535   1.000000
   21       -4.197997   1.000000
   22       -4.102293   1.000000
   23       -3.778932   1.000000
   24       -2.224949   0.011849
   25        0.100097   0.000000
   26        3.313172   0.000000
   27        4.067032   0.000000
   28        4.520413   0.000000
 
 -0.1000000E+00  0.1000000E+00  0.0000000E+00  0.2000000E-01
    1      -10.743961   1.000000
    2       -9.770739   1.000000
    3       -8.282699   1.000000
    4       -6.973911   1.000000
    5       -6.314239   1.000000
    6       -5.891316   1.000000
    7       -5.775045   1.000000
    8       -5.631488   1.000000
    9       -5.505960   1.000000
   10       -5.389886   1.000000
   11       -5.246101   1.000000
   12       -5.229498   1.000000
   13       -5.178259   1.000000
   14       -5.148796   1.000000
   15       -4.984829   1.000000
   16       -4.913116   1.000000
   17       -4.768376   1.000000
   18       -4.711462   1.000000
   19       -4.652018   1.000000
   20       -4.508408   1.000000
   21       -4.405047   1.000000
   22       -4.142385   1.000000
   23       -4.081326   1.000000
   24       -3.220278   1.000000
   25       -1.350924   0.000000
   26        2.347435   0.000000
   27        2.858636   0.000000
   28        3.282942   0.000000
 
  0.0000000E+00  0.2000000E+00  0.0000000E+00  0.2000000E-01
    1      -10.500936   1.000000
    2       -9.504469   1.000000
    3       -8.056427   1.000000
    4       -6.824504   1.000000
    5       -6.225562   1.000000
    6       -5.938212   1.000000
    7       -5.739142   1.000000
    8       -5.660855   1.000000
    9       -5.539482   1.000000
   10       -5.365303   1.000000
   11       -5.272509   1.000000
   12       -5.252903   1.000000
   13       -5.150423   1.000000
   14       -5.089997   1.000000
   15       -4.954955   1.000000
   16       -4.893277   1.000000
   17       -4.870031   1.000000
   18       -4.676061   1.000000
   19       -4.642537   1.000000
   20       -4.504433   1.000000
   21       -4.324044   1.000000
   22       -4.176880   1.000000
   23       -4.039044   1.000000
   24       -3.037183   1.000000
   25       -0.987938   0.000000
   26        2.582960   0.000000
   27        3.160828   0.000000
   28        3.588396   0.000000
 
  0.1000000E+00  0.2000000E+00  0.0000000E+00  0.2000000E-01
    1      -10.744148   1.000000
    2       -9.770302   1.000000
    3       -8.282843   1.000000
    4       -6.976025   1.000000
    5       -6.307667   1.000000
    6       -5.887020   1.000000
    7       -5.789086   1.000000
    8       -5.618764   1.000000
    9       -5.515878   1.000000
   10       -5.389121   1.000000
   11       -5.276399   1.000000
   12       -5.224893   1.000000
   13       -5.153926   1.000000
   14       -5.144931   1.000000
   15       -4.994026   1.000000
   16       -4.924074   1.000000
   17       -4.760719   1.000000
   18       -4.676251   1.000000
   19       -4.655589   1.000000
   20       -4.528201   1.000000
   21       -4.405736   1.000000
   22       -4.131977   1.000000
   23       -4.084664   1.000000
   24       -3.226868   1.000000
   25       -1.352967   0.000000
   26        2.347506   0.000000
   27        2.858394   0.000000
   28        3.282786   0.000000
 
  0.2000000E+00  0.2000000E+00  0.0000000E+00  0.2000000E-01
    1      -10.427138   1.000000
    2       -9.501899   1.000000
    3       -8.112186   1.000000
    4       -6.861246   1.000000
    5       -6.441841   1.000000
    6       -5.991424   1.000000
    7       -5.827579   1.000000
    8       -5.696598   1.000000
    9       -5.548799   1.000000
   10       -5.330151   1.000000
   11       -5.274236   1.000000
   12       -5.245558   1.000000
   13       -5.097972   1.000000
   14       -5.051651   1.000000
   15       -4.936113   1.000000
   16       -4.870824   1.000000
   17       -4.832455   1.000000
   18       -4.654530   1.000000
   19       -4.612706   1.000000
   20       -4.492333   1.000000
   21       -4.316112   1.000000
   22       -4.112700   1.000000
   23       -4.035347   1.000000
   24       -2.913922   1.000000
   25       -0.938427   0.000000
   26        2.585691   0.000000
   27        3.161209   0.000000
   28        3.587286   0.000000
 
  0.3000000E+00  0.2000000E+00  0.0000000E+00  0.2000000E-01
    1       -9.602512   1.000000
    2       -8.772479   1.000000
    3       -7.665525   1.000000
    4       -6.639578   1.000000
    5       -6.351681   1.000000
    6       -6.098686   1.000000
    7       -5.931401   1.000000
    8       -5.801581   1.000000
    9       -5.659484   1.000000
   10       -5.368676   1.000000
   11       -5.323932   1.000000
   12       -5.218985   1.000000
   13       -5.111305   1.000000
   14       -4.993959   1.000000
   15       -4.907260   1.000000
   16       -4.799831   1.000000
   17       -4.650608   1.000000
   18       -4.511260   1.000000
   19       -4.393754   1.000000
   20       -4.352521   1.000000
   21       -4.201372   1.000000
   22       -4.097441   1.000000
   23       -3.725021   1.000000
   24       -2.119995   0.000090
   25        0.151577   0.000000
   26        3.317657   0.000000
   27        4.066204   0.000000
   28        4.494817   0.000000
 
  0.4000000E+00  0.2000000E+00  0.0000000E+00  0.2000000E-01
    1       -8.549582   1.000000
    2       -7.815316   1.000000
    3       -7.142947   1.000000
    4       -6.519210   1.000000
    5       -6.232586   1.000000
    6       -6.116261   1.000000
    7       -5.968951   1.000000
    8       -5.894608   1.000000
    9       -5.625432   1.000000
   10       -5.468785   1.000000
   11       -5.366854   1.000000
   12       -5.321364   1.000000
   13       -5.048788   1.000000
   14       -4.974569   1.000000
   15       -4.785218   1.000000
   16       -4.731302   1.000000
   17       -4.475300   1.000000
   18       -4.361341   1.000000
   19       -4.269158   1.000000
   20       -4.036236   1.000000
   21       -3.989971   1.000000
   22       -3.620947   1.000000
   23       -2.825862   1.000000
   24       -0.830350   0.000000
   25        1.735012   0.000000
   26        4.547029   0.000000
   27        5.185039   0.000000
   28        5.655066   0.000000
 
  0.5000000E+00  0.2000000E+00  0.0000000E+00  0.2000000E-01
    1       -7.925115   1.000000
    2       -6.935515   1.000000
    3       -6.715843   1.000000
    4       -6.495078   1.000000
    5       -6.326015   1.000000
    6       -6.171081   1.000000
    7       -5.986409   1.000000
    8       -5.807930   1.000000
    9       -5.609317   1.000000
   10       -5.539369   1.000000
   11       -5.376564   1.000000
   12       -5.113378   1.000000
   13       -5.010320   1.000000
   14       -4.866131   1.000000
   15       -4.704683   1.000000
   16       -4.583452   1.000000
   17       -4.437598   1.000000
   18       -4.258130   1.000000
   19       -4.113624   1.000000
   20       -3.943887   1.000000
   21       -3.328891   1.000000
   22       -2.395662   0.560516
   23       -1.217113   0.000000
   24        0.833953   0.000000
   25        2.797480   0.000000
   26        3.536745   0.000000
   27        3.785034   0.000000
   28        4.974544   0.000000
 
 -0.4000000E+00  0.2000000E+00  0.0000000E+00  0.2000000E-01
    1       -7.692667   1.000000
    2       -6.705944   1.000000
    3       -6.626127   1.000000
    4       -6.455147   1.000000
    5       -6.330337   1.000000
    6       -6.191818   1.000000
    7       -6.009364   1.000000
    8       -5.857192   1.000000
    9       -5.614461   1.000000
   10       -5.510409   1.000000
   11       -5.340878   1.000000
   12       -5.153421   1.000000
   13       -4.934627   1.000000
   14       -4.752377   1.000000
   15       -4.616293   1.000000
   16       -4.518924   1.000000
   17       -4.335887   1.000000
   18       -4.175877   1.000000
   19       -4.117495   1.000000
   20       -4.012791   1.000000
   21       -2.511245   0.963020
   22       -0.755946   0.000000
   23       -0.187440   0.000000
   24        0.574069   0.000000
   25        1.810099   0.000000
   26        2.731623   0.000000
   27        3.273372   0.000000
   28        4.301432   0.000000
 
 -0.3000000E+00  0.2000000E+00  0.0000000E+00  0.2000000E-01
    1       -7.791155   1.000000
    2       -6.945716   1.000000
    3       -6.723160   1.000000
    4       -6.502033   1.000000
    5       -6.327462   1.000000
    6       -6.218683   1.000000
    7       -6.008287   1.000000
    8       -5.842385   1.000000
    9       -5.621919   1.000000
   10       -5.574913   1.000000
   11       -5.427146   1.000000
   12       -5.116467   1.000000
   13       -5.014115   1.000000
   14       -4.865352   1.000000
   15       -4.716689   1.000000
   16       -4.590003   1.000000
   17       -4.430953   1.000000
   18       -4.255915   1.000000
   19       -4.082084   1.000000
   20       -3.942377   1.000000
   21       -3.156351   1.000000
   22       -2.409569   0.636435
   23       -1.320700   0.000000
   24        0.674933   0.000000
   25        2.793672   0.000000
   26        3.528706   0.000000
   27        3.761699   0.000000
   28        4.876046   0.000000
 
 -0.2000000E+00  0.2000000E+00  0.0000000E+00  0.2000000E-01
    1       -8.646292   1.000000
    2       -7.723375   1.000000
    3       -7.012638   1.000000
    4       -6.488840   1.000000
    5       -6.224570   1.000000
    6       -6.114274   1.000000
    7       -5.972068   1.000000
    8       -5.894736   1.000000
    9       -5.624108   1.000000
   10       -5.478235   1.000000
   11       -5.450983   1.000000
   12       -5.354139   1.000000
   13       -5.046549   1.000000
   14       -4.974982   1.000000
   15       -4.856919   1.000000
   16       -4.656275   1.000000
   17       -4.481240   1.000000
   18       -4.329948   1.000000
   19       -4.196751   1.000000
   20       -4.036933   1.000000
   21       -3.932927   1.000000
   22       -3.631635   1.000000
   23       -2.950228   1.000000
   24       -1.062845   0.000000
   25        1.554071   0.000000
   26        4.425174   0.000000
   27        5.401169   0.000000
   28        5.613277   0.000000
 
 -0.1000000E+00  0.2000000E+00  0.0000000E+00  0.2000000E-01
    1       -9.740001   1.000000
    2       -8.748436   1.000000
    3       -7.520508   1.000000
    4       -6.510942   1.000000
    5       -6.269908   1.000000
    6       -6.046222   1.000000
    7       -5.868540   1.000000
    8       -5.790254   1.000000
    9       -5.657054   1.000000
   10       -5.356112   1.000000
   11       -5.332136   1.000000
   12       -5.289550   1.000000
   13       -5.147467   1.000000
   14       -4.985500   1.000000
   15       -4.869767   1.000000
   16       -4.811788   1.000000
   17       -4.625784   1.000000
   18       -4.566280   1.000000
   19       -4.450673   1.000000
   20       -4.350427   1.000000
   21       -4.198197   1.000000
   22       -4.102786   1.000000
   23       -3.837221   1.000000
   24       -2.331219   0.223900
   25        0.041812   0.000000
   26        3.295081   0.000000
   27        4.067765   0.000000
   28        4.506310   0.000000
 
  0.0000000E+00  0.3000000E+00  0.0000000E+00  0.2000000E-01
    1       -9.390947   1.000000
    2       -8.337631   1.000000
    3       -7.316398   1.000000
    4       -6.515547   1.000000
    5       -6.369572   1.000000
    6       -6.064227   1.000000
    7       -5.761888   1.000000
    8       -5.668342   1.000000
    9       -5.466276   1.000000
   10       -5.369026   1.000000
   11       -5.317044   1.000000
   12       -5.141527   1.000000
   13       -4.980768   1.000000
   14       -4.892635   1.000000
   15       -4.794721   1.000000
   16       -4.757408   1.000000
   17       -4.570913   1.000000
   18       -4.442004   1.000000
   19       -4.397161   1.000000
   20       -4.309753   1.000000
   21       -4.187484   1.000000
   22       -4.026609   1.000000
   23       -3.796853   1.000000
   24       -2.020230   0.000000
   25        0.556891   0.000000
   26        3.635001   0.000000
   27        4.659721   0.000000
   28        4.883815   0.000000
 
  0.1000000E+00  0.3000000E+00  0.0000000E+00  0.2000000E-01
    1       -9.740209   1.000000
    2       -8.747341   1.000000
    3       -7.520980   1.000000
    4       -6.517712   1.000000
    5       -6.267624   1.000000
    6       -6.039723   1.000000
    7       -5.869753   1.000000
    8       -5.781860   1.000000
    9       -5.658706   1.000000
   10       -5.360964   1.000000
   11       -5.333904   1.000000
   12       -5.297572   1.000000
   13       -5.144571   1.000000
   14       -5.006646   1.000000
   15       -4.847120   1.000000
   16       -4.813138   1.000000
   17       -4.631276   1.000000
   18       -4.568724   1.000000
   19       -4.436162   1.000000
   20       -4.350920   1.000000
   21       -4.199403   1.000000
   22       -4.107374   1.000000
   23       -3.825936   1.000000
   24       -2.339560   0.260722
   25        0.038259   0.000000
   26        3.295302   0.000000
   27        4.067200   0.000000
   28        4.505254   0.000000
 
  0.2000000E+00  0.3000000E+00  0.0000000E+00  0.2000000E-01
    1       -9.651434   1.000000
    2       -8.746321   1.000000
    3       -7.579057   1.000000
    4       -6.608303   1.000000
    5       -6.335798   1.000000
    6       -6.117798   1.000000
    7       -5.961067   1.000000
    8       -5.806235   1.000000
    9       -5.657450   1.000000
   10       -5.386096   1.000000
   11       -5.328739   1.000000
   12       -5.245457   1.000000
   13       -5.079871   1.000000
   14       -4.975324   1.000000
   15       -4.837528   1.000000
   16       -4.802647   1.000000
   17       -4.632359   1.000000
   18       -4.554670   1.000000
   19       -4.404844   1.000000
   20       -4.348485   1.000000
   21       -4.199310   1.000000
   22       -4.105680   1.000000
   23       -3.767972   1.000000
   24       -2.234837   0.016913
   25        0.094090   0.000000
   26        3.313471   0.000000
   27        4.065874   0.000000
   28        4.516501   0.000000
 
  0.3000000E+00  0.3000000E+00  0.0000000E+00  0.2000000E-01
    1       -9.129626   1.000000
    2       -8.364800   1.000000
    3       -7.483440   1.000000
    4       -6.708226   1.000000
    5       -6.428442   1.000000
    6       -6.252106   1.000000
    7       -5.942936   1.000000
    8       -5.713642   1.000000
    9       -5.594503   1.000000
   10       -5.343848   1.000000
   11       -5.226018   1.000000
   12       -5.107187   1.000000
   13       -4.920947   1.000000
   14       -4.882914   1.000000
   15       -4.802790   1.000000
   16       -4.653793   1.000000
   17       -4.570305   1.000000
   18       -4.421660   1.000000
   19       -4.383225   1.000000
   20       -4.305575   1.000000
   21       -4.187740   1.000000
   22       -4.023421   1.000000
   23       -3.604056   1.000000
   24       -1.724685   0.000000
   25        0.752573   0.000000
   26        3.762539   0.000000
   27        4.632618   0.000000
   28        5.042170   0.000000
 
  0.4000000E+00  0.3000000E+00  0.0000000E+00  0.2000000E-01
    1       -8.402037   1.000000
    2       -7.725573   1.000000
    3       -7.185648   1.000000
    4       -6.657635   1.000000