unknown system                          
   1.00000000000000     
     2.573869    0.000000    0.000000
     1.286934    2.229036    0.000000
     0.000000    0.000000   30.304665
   Cu   H 
     4     1
Direct
  0.000000  0.000000  0.395979
  0.333333  0.333333  0.465326
  0.666667  0.666667  0.534674
  0.000000  0.000000  0.604021
  0.538852  0.000000  0.637020
 
   10   10  120
 0.47390E-09 0.96446E-10 0.32679E-12 0.18345E-10 0.51834E-13 0.21648E-11 0.11975E-12 0.20839E-09 0.21825E-12 0.18196E-09
 0.22031E-11 0.60575E-11 0.80914E-13 0.11333E-11 0.97269E-13 0.22810E-12 0.35999E-13 0.19158E-11 0.66454E-12 0.58827E-11
 0.33804E-12 0.33049E-12 0.21511E-12 0.11302E-12 0.10325E-13 0.11816E-12 0.12680E-12 0.33573E-12 0.41269E-13 0.31315E-12
 0.32019E-10 0.21235E-10 0.10553E-12 0.59786E-13 0.19207E-13 0.26028E-12 0.13881E-12 0.30689E-11 0.57446E-12 0.57028E-10
 0.40357E-13 0.34667E-13 0.62450E-14 0.14100E-13 0.23898E-13 0.15710E-13 0.62034E-14 0.51292E-13 0.59314E-13 0.36582E-13
 0.56783E-11 0.13621E-09 0.73691E-13 0.70567E-12 0.53749E-13 0.63501E-09 0.81796E-13 0.52858E-12 0.84904E-13 0.13043E-08
 0.30934E-13 0.31961E-13 0.57301E-13 0.34375E-13 0.52458E-14 0.47365E-13 0.22995E-13 0.10880E-13 0.66752E-14 0.29879E-13
 0.26153E-10 0.10882E-09 0.38182E-12 0.49456E-11 0.81116E-13 0.23218E-12 0.22399E-13 0.50890E-13 0.13094E-12 0.16445E-10
 0.29788E-12 0.22104E-12 0.27218E-13 0.37184E-12 0.10085E-12 0.30795E-13 0.97283E-14 0.11585E-12 0.21798E-12 0.25012E-12
 0.12532E-11 0.51760E-11 0.45378E-12 0.16077E-11 0.26687E-13 0.18932E-11 0.15246E-12 0.69510E-12 0.97131E-13 0.38677E-11
 0.44094E-12 0.32644E-12 0.28652E-12 0.42143E-12 0.90483E-14 0.31886E-12 0.28864E-12 0.24808E-12 0.37623E-13 0.25104E-12
 0.18789E-12 0.35581E-11 0.10898E-12 0.99588E-12 0.40218E-13 0.20513E-12 0.10872E-12 0.20700E-11 0.79113E-12 0.12713E-10
 0.62154E-12 0.45867E-12 0.22109E-12 0.79978E-13 0.46491E-14 0.75356E-13 0.23964E-12 0.39510E-12 0.49408E-13 0.34914E-12
 0.15971E-11 0.54041E-11 0.77993E-13 0.12657E-13 0.52736E-14 0.12351E-12 0.69852E-12 0.32165E-11 0.50492E-12 0.14745E-09
 0.86736E-14 0.17208E-13 0.33307E-14 0.43299E-14 0.86597E-14 0.89512E-14 0.75495E-14 0.27936E-13 0.37664E-13 0.21441E-13
 0.33740E-12 0.11830E-10 0.54068E-13 0.19948E-12 0.22815E-13 0.41372E-09 0.25330E-12 0.41815E-10 0.18831E-12 0.46676E-11
 0.20633E-12 0.97838E-13 0.12915E-12 0.11609E-12 0.65919E-14 0.12405E-12 0.12609E-12 0.51570E-13 0.17736E-13 0.71665E-13
 0.96764E-12 0.47257E-10 0.45680E-12 0.47287E-11 0.38858E-13 0.19663E-11 0.22490E-12 0.10139E-11 0.34248E-12 0.11478E-08
 0.53256E-13 0.25564E-12 0.33751E-13 0.33556E-12 0.64657E-13 0.55358E-13 0.27839E-13 0.27428E-12 0.30291E-12 0.19373E-12
 0.77702E-12 0.11457E-10 0.50600E-12 0.23443E-11 0.17125E-13 0.33258E-10 0.46504E-12 0.18054E-11 0.86937E-13 0.47238E-10
 0.19495E-13 0.20886E-13 0.38372E-13 0.22107E-13 0.18319E-14 0.27783E-13 0.32890E-13 0.17653E-13 0.73136E-14 0.17587E-13
 0.17632E-13 0.17869E-11 0.12319E-12 0.54251E-12 0.15765E-13 0.12773E-12 0.21014E-12 0.19691E-11 0.60934E-12 0.12926E-10
 0.65684E-13 0.58287E-12 0.13081E-12 0.26951E-13 0.21649E-14 0.25369E-13 0.19695E-12 0.37730E-12 0.43465E-13 0.35243E-12
 0.37886E-13 0.17173E-11 0.26382E-13 0.37748E-14 0.16653E-14 0.33640E-13 0.28501E-11 0.32752E-11 0.40236E-12 0.74216E-09
 0.19290E-14 0.81046E-14 0.17347E-14 0.16376E-14 0.34417E-14 0.48989E-14 0.56899E-14 0.12421E-13 0.18596E-13 0.10068E-13
 0.26742E-13 0.10503E-11 0.20511E-13 0.41536E-13 0.99781E-14 0.69102E-10 0.80200E-12 0.10814E-09 0.16027E-12 0.24405E-11
 0.61673E-13 0.22053E-12 0.15260E-12 0.27596E-12 0.54678E-14 0.31332E-12 0.48908E-12 0.15950E-12 0.32710E-13 0.16921E-12
 0.31655E-13 0.25959E-10 0.43811E-12 0.47136E-11 0.15585E-13 0.50901E-11 0.13110E-11 0.47083E-11 0.26233E-12 0.20627E-10
 0.93259E-14 0.20065E-12 0.30323E-13 0.28606E-12 0.27964E-13 0.49794E-13 0.51181E-13 0.21153E-12 0.27570E-12 0.14334E-12
 0.42431E-13 0.10721E-10 0.50658E-12 0.33048E-11 0.80769E-14 0.30447E-09 0.10014E-11 0.37326E-11 0.71443E-13 0.29449E-10
 0.50238E-14 0.56205E-14 0.84516E-14 0.60507E-14 0.74940E-15 0.54401E-14 0.63283E-14 0.52180E-14 0.23592E-14 0.50654E-14
 0.50931E-14 0.12419E-11 0.18792E-12 0.49147E-12 0.97422E-14 0.11241E-12 0.97564E-12 0.21619E-11 0.67336E-12 0.27770E-10
 0.11255E-13 0.98854E-12 0.12784E-12 0.24702E-13 0.14433E-14 0.21788E-13 0.20769E-12 0.46950E-12 0.42077E-13 0.34771E-12
 0.82018E-14 0.10374E-11 0.23745E-13 0.21094E-14 0.94369E-15 0.25313E-13 0.38346E-08 0.33601E-11 0.30435E-12 0.80369E-08
 0.79103E-15 0.55511E-14 0.11935E-14 0.94369E-15 0.19706E-14 0.36915E-14 0.53707E-14 0.83683E-14 0.10630E-13 0.69528E-14
 0.51209E-14 0.46195E-12 0.18333E-13 0.28574E-13 0.64115E-14 0.28091E-10 0.41923E-11 0.29918E-10 0.18192E-12 0.13541E-11
 0.10811E-13 0.12478E-11 0.21516E-12 0.20764E-11 0.53152E-14 0.12002E-11 0.14527E-11 0.16447E-12 0.64782E-13 0.57536E-12
 0.72858E-14 0.16351E-10 0.53309E-12 0.44824E-11 0.10394E-13 0.20343E-10 0.44464E-12 0.49949E-12 0.28172E-12 0.47982E-11
 0.27894E-14 0.21973E-12 0.29837E-13 0.23218E-12 0.16112E-13 0.69000E-13 0.97200E-13 0.23759E-12 0.31131E-12 0.10850E-12
 0.90761E-14 0.22593E-10 0.50675E-12 0.49978E-11 0.64948E-14 0.63474E-11 0.18066E-11 0.65705E-10 0.61437E-13 0.41130E-11
 0.15404E-14 0.16792E-14 0.25396E-14 0.19429E-14 0.22204E-15 0.18596E-14 0.14710E-14 0.18041E-14 0.86042E-15 0.16931E-14
 0.16653E-14 0.83392E-12 0.25810E-12 0.30331E-12 0.51348E-14 0.71193E-13 0.17887E-11 0.21728E-11 0.56599E-12 0.53350E-10
 0.30115E-14 0.16513E-11 0.85043E-13 0.85210E-14 0.55511E-15 0.80214E-14 0.10481E-12 0.48814E-12 0.39274E-13 0.38400E-12
 0.24009E-14 0.54493E-12 0.89373E-14 0.88818E-15 0.41633E-15 0.90206E-14 0.46691E-06 0.34491E-11 0.31712E-12 0.30038E-09
 0.26368E-15 0.32613E-14 0.61062E-15 0.37470E-15 0.87430E-15 0.23453E-14 0.38441E-14 0.43299E-14 0.60923E-14 0.38164E-14
 0.15959E-14 0.18163E-12 0.72997E-14 0.97422E-14 0.35943E-14 0.19105E-10 0.38073E-11 0.21893E-11 0.74094E-13 0.15274E-11
 0.23315E-14 0.50500E-11 0.14415E-12 0.12901E-10 0.38858E-14 0.15027E-11 0.18945E-12 0.28991E-13 0.42966E-13 0.89373E-12
 0.22066E-14 0.11278E-10 0.56707E-12 0.44124E-11 0.50654E-14 0.90494E-12 0.33751E-13 0.35250E-13 0.91704E-13 0.26239E-11
 0.10131E-14 0.18970E-12 0.28658E-13 0.24107E-12 0.78826E-14 0.35055E-13 0.49238E-13 0.79103E-13 0.24239E-12 0.97408E-13
 0.24702E-14 0.37153E-10 0.55839E-12 0.11059E-10 0.32752E-14 0.86831E-11 0.72384E-12 0.35220E-09 0.59841E-13 0.14084E-11
 0.49960E-15 0.68001E-15 0.11657E-14 0.77716E-15 0.11102E-15 0.66613E-15 0.47184E-15 0.80491E-15 0.36082E-15 0.66613E-15
 0.61062E-15 0.62302E-12 0.43640E-12 0.23986E-12 0.28866E-14 0.48545E-13 0.25087E-11 0.22326E-11 0.61150E-12 0.47047E-10
 0.12351E-14 0.41491E-11 0.72026E-13 0.64115E-14 0.47184E-15 0.59674E-14 0.67335E-13 0.61570E-12 0.43160E-13 0.35984E-12
 0.87430E-15 0.37405E-12 0.64393E-14 0.47184E-15 0.30531E-15 0.62450E-14 0.27193E-10 0.33640E-11 0.24494E-12 0.87057E-10
 0.11102E-15 0.20539E-14 0.49960E-15 0.34694E-15 0.59674E-15 0.15821E-14 0.31086E-14 0.28727E-14 0.42327E-14 0.24564E-14
 0.61062E-15 0.10405E-12 0.53291E-14 0.64393E-14 0.22066E-14 0.12567E-10 0.15758E-11 0.41755E-12 0.45505E-13 0.14683E-11
 0.76328E-15 0.19040E-10 0.96811E-13 0.91562E-10 0.31988E-14 0.11353E-11 0.57357E-13 0.86875E-14 0.29809E-13 0.84301E-12
 0.81879E-15 0.81781E-11 0.66680E-12 0.41508E-11 0.31919E-14 0.30398E-12 0.85210E-14 0.95479E-14 0.53374E-13 0.14816E-11
 0.45797E-15 0.21678E-12 0.32238E-13 0.20300E-12 0.53846E-14 0.27950E-13 0.30115E-13 0.48433E-13 0.27600E-12 0.77882E-13
 0.81879E-15 0.35762E-10 0.50965E-12 0.24293E-10 0.22760E-14 0.57938E-11 0.32285E-12 0.97046E-11 0.50376E-13 0.79164E-12
 0.40246E-15 0.38858E-15 0.43021E-15 0.38858E-15 0.27756E-16 0.38858E-15 0.27756E-15 0.49960E-15 0.13878E-15 0.41633E-15
 0.43021E-15 0.44878E-12 0.82212E-12 0.17336E-12 0.19984E-14 0.33029E-13 0.92662E-12 0.22390E-11 0.41245E-12 0.14777E-09
 0.47184E-15 0.21056E-10 0.57399E-13 0.35805E-14 0.27756E-15 0.31641E-14 0.38081E-13 0.70746E-12 0.33723E-13 0.34700E-12
 0.45797E-15 0.24591E-12 0.35527E-14 0.34694E-15 0.11102E-15 0.33584E-14 0.15399E-11 0.34153E-11 0.24820E-12 0.41740E-10
 0.27756E-16 0.14155E-14 0.31919E-15 0.23592E-15 0.31225E-15 0.11380E-14 0.22621E-14 0.20053E-14 0.28727E-14 0.17764E-14
 0.29837E-15 0.57988E-13 0.30601E-14 0.34417E-14 0.14572E-14 0.11374E-10 0.32525E-12 0.76397E-13 0.19276E-13 0.34846E-11
 0.34694E-15 0.40803E-11 0.57114E-13 0.67112E-11 0.24286E-14 0.30900E-12 0.12809E-13 0.26229E-14 0.10256E-13 0.29172E-12
 0.37470E-15 0.61759E-11 0.79414E-12 0.40499E-11 0.20539E-14 0.66669E-13 0.22760E-14 0.28033E-14 0.20650E-13 0.11022E-11
 0.19429E-15 0.16304E-12 0.26257E-13 0.20461E-12 0.31919E-14 0.13795E-13 0.95757E-14 0.18846E-13 0.21799E-12 0.71318E-13
 0.37470E-15 0.10052E-09 0.47358E-12 0.12557E-09 0.16376E-14 0.21121E-09 0.10336E-12 0.42192E-11 0.50154E-13 0.48933E-12
 0.15266E-15 0.22204E-15 0.30531E-15 0.27756E-15 0.55511E-16 0.36082E-15 0.83267E-16 0.27756E-15 0.11102E-15 0.23592E-15
 0.19429E-15 0.34665E-12 0.22046E-11 0.13878E-12 0.11657E-14 0.22232E-13 0.35444E-12 0.21888E-11 0.40423E-12 0.83992E-10
 0.26368E-15 0.28460E-09 0.42549E-13 0.23315E-14 0.24980E-15 0.20262E-14 0.20595E-13 0.88970E-12 0.35444E-13 0.35026E-12
 0.22204E-15 0.18256E-12 0.22760E-14 0.22204E-15 0.16653E-15 0.20539E-14 0.37556E-12 0.32956E-11 0.21742E-12 0.23948E-10
 0.34694E-16 0.97145E-15 0.19776E-15 0.13878E-15 0.23592E-15 0.79103E-15 0.18596E-14 0.13600E-14 0.18874E-14 0.12004E-14
 0.22898E-15 0.37564E-13 0.19013E-14 0.20470E-14 0.93675E-15 0.84294E-11 0.12140E-12 0.30295E-13 0.10672E-13 0.88264E-11
 0.11102E-15 0.88919E-12 0.28678E-13 0.10038E-11 0.19013E-14 0.12237E-12 0.47740E-14 0.11657E-14 0.45797E-14 0.11807E-12
 0.22204E-15 0.47864E-11 0.99854E-12 0.37960E-11 0.13739E-14 0.28838E-13 0.94369E-15 0.12490E-14 0.11491E-13 0.78490E-12
 0.18041E-15 0.16868E-12 0.28463E-13 0.18283E-12 0.20817E-14 0.86875E-14 0.41078E-14 0.10603E-13 0.18288E-12 0.59758E-13
 0.11102E-15 0.71113E-10 0.47418E-12 0.12181E-07 0.11657E-14 0.45236E-10 0.47129E-13 0.20716E-11 0.44686E-13 0.33792E-12
 0.97145E-16 0.16653E-15 0.55511E-16 0.16653E-15 0.27756E-16 0.22204E-15 0.55511E-16 0.19429E-15 0.55511E-16 0.76328E-16
 0.11102E-15 0.27090E-12 0.72675E-11 0.10752E-12 0.77716E-15 0.15973E-13 0.13395E-12 0.21008E-11 0.30753E-12 0.68625E-10
 0.76328E-16 0.12784E-10 0.36075E-13 0.16376E-14 0.20123E-15 0.15266E-14 0.13531E-13 0.94404E-12 0.30156E-13 0.34520E-12
 0.15266E-15 0.13405E-12 0.16931E-14 0.19776E-15 0.83267E-16 0.14710E-14 0.12575E-12 0.32661E-11 0.15590E-12 0.15632E-10
 0.27756E-16 0.69389E-15 0.21164E-15 0.11102E-15 0.19776E-15 0.58981E-15 0.14225E-14 0.86042E-15 0.13600E-14 0.80491E-15
  0.0000     0.24765E-13 0.14710E-14 0.15751E-14 0.69389E-15 0.10278E-10 0.45602E-13 0.14530E-13 0.65087E-14 0.41839E-10
 0.55511E-16 0.23218E-12 0.17999E-13 0.24843E-12 0.15404E-14 0.47573E-13 0.21927E-14 0.66613E-15 0.22482E-14 0.45672E-13
 0.48572E-16 0.38342E-11 0.10806E-11 0.36544E-11 0.86042E-15 0.13906E-13 0.43021E-15 0.55511E-15 0.65781E-14 0.66858E-12
 0.27756E-16 0.14150E-12 0.24397E-13 0.13381E-12 0.14710E-14 0.55372E-14 0.19429E-14 0.60507E-14 0.14291E-12 0.46060E-13
 0.76328E-16 0.52225E-10 0.45790E-12 0.13599E-09 0.76328E-15 0.19867E-11 0.21871E-13 0.15758E-11 0.36027E-13 0.24440E-12
 0.83267E-16 0.76328E-16 0.34694E-16 0.16653E-15 -.55511E-16 0.83267E-16  0.0000     0.13878E-15 -.27756E-16 0.41633E-16
 0.11796E-15 0.21891E-12 0.85020E-10 0.85279E-13 0.68001E-15 0.13614E-13 0.57204E-13 0.20101E-11 0.34373E-12 0.46722E-10
 0.27756E-16 0.25569E-11 0.29594E-13 0.11310E-14 0.13531E-15 0.10825E-14 0.89165E-14 0.12737E-11 0.34549E-13 0.40939E-12
 0.27756E-16 0.10392E-12 0.11935E-14 0.17347E-15 0.20817E-16 0.97838E-15 0.52985E-13 0.31686E-11 0.17578E-12 0.10778E-10
 0.69389E-17 0.53429E-15 0.20990E-15 0.34694E-16 0.12577E-15 0.48572E-15 0.12768E-14 0.78410E-15 0.98532E-15 0.69389E-15
 0.69389E-16 0.19620E-13 0.10061E-14 0.10426E-14 0.55511E-15 0.76472E-11 0.25008E-13 0.76605E-14 0.39135E-14 0.59303E-11
 0.20817E-16 0.84273E-13 0.10700E-13 0.83211E-13 0.12906E-14 0.26014E-13 0.12768E-14 0.30531E-15 0.14017E-14 0.24425E-13
 0.97145E-16 0.31105E-11 0.13872E-11 0.34644E-11 0.70777E-15 0.73830E-14 0.11796E-15 0.40246E-15 0.39621E-14 0.52012E-12
 0.97145E-16 0.17319E-12 0.28533E-13 0.15507E-12 0.97145E-15 0.35527E-14 0.11935E-14 0.36776E-14 0.12632E-12 0.44569E-13
 0.27756E-16 0.43456E-10 0.52933E-12 0.26625E-10 0.65226E-15 0.10114E-11 0.13836E-13 0.98212E-12 0.37192E-13 0.18695E-12
 0.27756E-16 0.20817E-16 0.27756E-16 0.48572E-16 -.83267E-16 0.15266E-15 -.69389E-17 0.11102E-15 0.20817E-16 -.20817E-16
 0.20817E-16 0.17375E-12 0.79443E-11 0.68542E-13 0.34694E-15 0.79312E-14 0.29268E-13 0.18412E-11 0.19539E-12 0.26135E-10
 0.13878E-16 0.15120E-11 0.20255E-13 0.75634E-15 0.69389E-16 0.73552E-15 0.48017E-14 0.13867E-11 0.26500E-13 0.31168E-12
 0.34694E-16 0.80012E-13 0.88471E-15 0.10408E-15 -.24286E-16 0.67654E-15 0.27291E-13 0.31140E-11 0.12274E-12 0.79681E-11
 0.62450E-16 0.27756E-15 0.83267E-16 0.72858E-16 -.69389E-17 0.33307E-15 0.79103E-15 0.47878E-15 0.61062E-15 0.46491E-15
 -.13878E-16 0.12122E-13 0.64879E-15 0.63144E-15 0.34001E-15 0.13054E-10 0.11734E-13 0.39690E-14 0.23592E-14 0.62890E-12
 0.41633E-16 0.36984E-13 0.55789E-14 0.36832E-13 0.85348E-15 0.12074E-13 0.58287E-15 0.29143E-15 0.66613E-15 0.11262E-13
 0.27756E-16 0.25552E-11 0.13998E-11 0.33195E-11 0.49266E-15 0.38997E-14 0.12490E-15 0.13184E-15 0.23315E-14 0.47319E-12
 0.13878E-16 0.10517E-12 0.21823E-13 0.11503E-12 0.66613E-15 0.21788E-14 0.54123E-15 0.21233E-14 0.79735E-13 0.35159E-13
 -.34694E-16 0.24987E-10 0.40123E-12 0.14581E-10 0.49266E-15 0.25513E-12 0.67724E-14 0.89325E-12 0.29837E-13 0.14888E-12
 0.34694E-16 0.69389E-17 0.69389E-16 0.12490E-15 -.12490E-15 0.13878E-16 0.69389E-17 0.11102E-15  0.0000     0.97145E-16
 -.41633E-16 0.14218E-12 0.17241E-11 0.56448E-13 0.33307E-15 0.76258E-14 0.16612E-13 0.16839E-11 0.18989E-12 0.12696E-10
 0.13878E-16 0.78888E-12 0.18922E-13 0.68695E-15 0.55511E-16 0.65226E-15 0.37539E-14 0.18508E-11 0.30066E-13 0.34146E-12
 0.34694E-16 0.65406E-13 0.74246E-15 0.62450E-16 -.69389E-17 0.67307E-15 0.15696E-13 0.29524E-11 0.12824E-12 0.60332E-11
 -.48572E-16 0.34001E-15 0.11102E-15 0.27756E-16 0.90206E-16 0.28449E-15 0.73552E-15 0.49266E-15 0.56899E-15 0.43715E-15
 0.83267E-16 0.10464E-13 0.60368E-15 0.72164E-15 0.36082E-15 0.10748E-10 0.77577E-14 0.33654E-14 0.19568E-14 0.42046E-12
 0.20817E-16 0.20532E-13 0.42813E-14 0.19387E-13 0.83267E-15 0.80769E-14 0.47184E-15 0.22204E-15 0.53429E-15 0.75911E-14
 0.13878E-16 0.21233E-11 0.17380E-11 0.31091E-11 0.38164E-15 0.33723E-14 0.12490E-15 0.16653E-15 0.19845E-14 0.38928E-12
 0.34694E-16 0.11775E-12 0.25577E-13 0.12405E-12 0.55511E-15 0.18943E-14 0.60368E-15 0.18874E-14 0.77473E-13 0.33168E-13
 0.11102E-15 0.13531E-10 0.41549E-12 0.83350E-11 0.43715E-15 0.19016E-12 0.51348E-14 0.66458E-12 0.29039E-13 0.12222E-12
 -.27756E-16 -.13878E-16 -.13878E-16 0.69389E-16 -.90206E-16 0.11796E-15 0.20817E-16 0.76328E-16 -.34694E-16 -.27756E-16
 -.62450E-16 0.11753E-12 0.90307E-12 0.45949E-13 0.19429E-15 0.51764E-14 0.96034E-14 0.15437E-11 0.15415E-12 0.79452E-11
 -.48572E-16 0.54939E-12 0.14579E-13 0.47878E-15 -.13878E-16 0.47878E-15 0.24841E-14 0.21096E-11 0.27367E-13 0.33402E-12
 -.27756E-16 0.51972E-13 0.47878E-15 0.13878E-16 -.20817E-16 0.40246E-15 0.95063E-14 0.28826E-11 0.98629E-13 0.46935E-11
 0.69389E-17 0.18735E-15 0.83267E-16 0.55511E-16 0.34694E-16 0.23592E-15 0.62450E-15 0.34001E-15 0.48572E-15 0.31919E-15
 -.62450E-16 0.75079E-14 0.41633E-15 0.44409E-15 0.15959E-15 0.19445E-10 0.48225E-14 0.18249E-14 0.11866E-14 0.17468E-12
 0.76328E-16 0.11574E-13 0.27547E-14 0.11255E-13 0.60368E-15 0.48503E-14 0.21511E-15 0.16653E-15 0.27062E-15 0.43299E-14
 0.20817E-16 0.17956E-11 0.20735E-11 0.29801E-11 0.23592E-15 0.18180E-14 -.13878E-16 0.97145E-16 0.11935E-14 0.35914E-12
 -.20817E-16 0.10366E-12 0.24356E-13 0.96402E-13 0.49960E-15 0.12698E-14 0.20817E-15 0.11033E-14 0.58439E-13 0.27443E-13
 -.20817E-16 0.86317E-11 0.39221E-12 0.56276E-11 0.27062E-15 0.88450E-13 0.31017E-14 0.60516E-12 0.24696E-13 0.10093E-12
  0.0000     -.69389E-17 0.48572E-16 0.34694E-16 -.11102E-15 0.13878E-16 -.62450E-16 -.13878E-16 0.34694E-16 0.20817E-16
 0.27756E-16 0.96367E-13 0.49881E-12 0.37373E-13 0.16653E-15 0.42674E-14 0.57176E-14 0.13694E-11 0.12350E-12 0.27840E-11
 0.27756E-16 0.36957E-12 0.12650E-13 0.44409E-15 -.90206E-16 0.39552E-15 0.18180E-14 0.26211E-11 0.23113E-13 0.33935E-12
 -.48572E-16 0.42702E-13 0.38858E-15 0.12490E-15 -.62450E-16 0.33307E-15 0.58772E-14 0.26119E-11 0.85328E-13 0.37380E-11
 -.13878E-16 0.18041E-15 0.55511E-16 -.69389E-17 0.27756E-16 0.24286E-15 0.38858E-15 0.29143E-15 0.39552E-15 0.34001E-15
 0.13878E-16 0.59050E-14 0.26368E-15 0.36082E-15 0.17347E-15 0.21857E-10 0.30462E-14 0.13878E-14 0.91593E-15 0.10127E-12
 -.69389E-17 0.67585E-14 0.20400E-14 0.66336E-14 0.43021E-15 0.31503E-14 0.20817E-15 0.15959E-15 0.14572E-15 0.29282E-14
 0.69389E-17 0.15182E-11 0.24380E-11 0.26967E-11 0.16653E-15 0.13600E-14 0.34694E-16 0.10408E-15 0.92981E-15 0.32421E-12
 0.41633E-16 0.92204E-13 0.20872E-13 0.84752E-13 0.29837E-15 0.93675E-15 0.18735E-15 0.86736E-15 0.53742E-13 0.23682E-13
 0.20817E-16 0.30144E-11 0.38659E-12 0.41194E-11 0.26368E-15 0.56531E-13 0.19984E-14 0.56830E-12 0.21837E-13 0.86570E-13
 0.13878E-16 -.27756E-16 -.20817E-16 0.20817E-16 -.76328E-16 0.83267E-16 0.27756E-16 0.12490E-15 0.13878E-16 0.41633E-16
 -.27756E-16 0.81199E-13 0.30663E-12 0.31405E-13 0.83267E-16 0.36846E-14 0.40315E-14 0.12417E-11 0.10457E-12 0.18313E-11
 0.13878E-16 0.26325E-12 0.10207E-13 0.32613E-15 -.55511E-16 0.29143E-15 0.14294E-14 0.41515E-11 0.24813E-13 0.34178E-12
 0.41633E-16 0.34389E-13 0.34001E-15 0.55511E-16 0.27756E-16 0.38858E-15 0.39552E-14 0.25280E-11 0.83107E-13 0.30247E-11
 -.20817E-16 0.24286E-15 0.83267E-16 0.13878E-16 -.27756E-16 0.23592E-15 0.33307E-15 0.20817E-15 0.28449E-15 0.21511E-15
 -.20817E-16 0.53083E-14 0.29143E-15 0.30531E-15 0.14572E-15 0.28653E-10 0.22898E-14 0.10339E-14 0.66613E-15 0.67273E-13
 0.41633E-16 0.44409E-14 0.14710E-14 0.44686E-14 0.34694E-15 0.23453E-14 0.15266E-15 0.17521E-15 0.21511E-15 0.21302E-14
 0.27756E-16 0.13024E-11 0.40415E-11 0.25861E-11 0.18735E-15 0.10270E-14 -.76328E-16 0.13878E-15 0.76328E-15 0.30663E-12
 0.69389E-17 0.85591E-13 0.23426E-13 0.80706E-13 0.23592E-15 0.79797E-15 0.11796E-15 0.70083E-15 0.36346E-13 0.21594E-13
 0.27756E-16 0.20449E-11 0.37361E-12 0.31507E-11 0.25674E-15 0.39878E-13 0.18666E-14 0.52917E-12 0.20775E-13 0.73754E-13
 0.13878E-16  0.0000     0.41633E-16 0.13878E-16 -.13184E-15 0.41633E-16 -.15266E-15 -.13878E-16 -.55511E-16 -.27756E-16
 -.34694E-16 0.66294E-13 0.21149E-12 0.26493E-13 0.76328E-16 0.22066E-14 0.25951E-14 0.10770E-11 0.66031E-13 0.79832E-12
 -.27756E-16 0.19222E-12 0.79797E-14 0.19429E-15 -.55511E-16 0.22898E-15 0.99226E-15 0.69303E-11 0.18430E-13 0.27815E-12
 -.41633E-16 0.29185E-13 0.12490E-15 0.55511E-16 -.34694E-16 0.15266E-15 0.26854E-14 0.22974E-11 0.68945E-13 0.24998E-11
 -.27756E-16 0.11102E-15 0.55511E-16 -.13878E-16 -.27756E-16 0.13878E-15 0.27756E-15 0.19429E-15 0.19429E-15 0.20817E-15
 -.13878E-16 0.31503E-14 0.10408E-15 0.12490E-15 0.41633E-16 0.78825E-10 0.13843E-14 0.62450E-15 0.45623E-15 0.36884E-13
  0.0000     0.30809E-14 0.98532E-15 0.29629E-14 0.29143E-15 0.14259E-14 0.38164E-16 0.74593E-16 0.86736E-17 0.13288E-14
  0.0000     0.11105E-11 0.63569E-11 0.23512E-11 0.16653E-15 0.64358E-15 -.13184E-15 -.86736E-18 0.44929E-15 0.27921E-12
 -.27756E-16 0.60660E-13 0.17458E-13 0.69375E-13 0.17347E-15 0.38164E-15 0.43368E-16 0.40593E-15 0.27912E-13 0.18485E-13
 0.27756E-16 0.90013E-12 0.30207E-12 0.25586E-11 0.17347E-15 0.22586E-13 0.93675E-15 0.49753E-12 0.17868E-13 0.66294E-13
 0.55511E-16 0.97145E-16 0.13878E-16 0.13878E-16 0.27756E-16 0.11102E-15 0.69389E-16 0.83267E-16 -.41633E-16 0.13878E-16
 0.20817E-16 0.56719E-13 0.16796E-12 0.21087E-13 0.15266E-15 0.23384E-14 0.16653E-14 0.95911E-12 0.66676E-13 0.54740E-12
 0.27756E-16 0.15911E-12 0.66266E-14 0.21511E-15 -.55511E-16 0.24980E-15 0.86042E-15 0.83197E-11 0.21025E-13 0.29002E-12
 0.69389E-17 0.22482E-13 0.20817E-15 0.69389E-16 -.69389E-16 0.30531E-15 0.17070E-14 0.21844E-11 0.63838E-13 0.20712E-11
 0.27756E-16 0.16653E-15 0.55511E-16 0.62450E-16  0.0000     0.14572E-15 0.29837E-15 0.16653E-15 0.18041E-15 0.13184E-15
 0.27756E-16 0.33584E-14 0.15959E-15 0.27756E-15 0.12490E-15 0.15972E-09 0.12768E-14 0.65139E-15 0.38858E-15 0.34583E-13
 0.69389E-16 0.20192E-14 0.77716E-15 0.18180E-14 0.27756E-15 0.13878E-14 0.71124E-16 0.19429E-15 0.74593E-16 0.11467E-14
 0.11102E-15 0.96328E-12 0.71767E-11 0.22246E-11 0.16653E-15 0.64011E-15 -.55511E-16 0.19082E-16 0.44409E-15 0.25124E-12
 0.48572E-16 0.66953E-13 0.20636E-13 0.63873E-13 0.23592E-15 0.65226E-15 0.25414E-15 0.54817E-15 0.22132E-13 0.16584E-13
 0.62450E-16 0.63136E-12 0.30242E-12 0.20981E-11 0.20817E-15 0.20449E-13 0.10460E-14 0.43506E-12 0.16702E-13 0.57974E-13
 -.27756E-16 0.48572E-16 0.55511E-16 0.20817E-15 0.55511E-16 0.55511E-16 -.16653E-15 0.27756E-16 -.69389E-17 0.27756E-16
 -.62450E-16 0.47129E-13 0.12355E-12 0.19096E-13 -.10408E-15 0.18596E-14 0.12837E-14 0.83034E-12 0.53769E-13 0.26273E-12
 0.27756E-16 0.12104E-12 0.68001E-14 0.13184E-15 -.55511E-16 0.12490E-15 0.88818E-15 0.17121E-10 0.17014E-13 0.26691E-12
 -.41633E-16 0.20386E-13 0.11102E-15 0.69389E-16 -.97145E-16 0.13878E-15 0.13323E-14 0.20284E-11 0.54672E-13 0.17290E-11
 -.13878E-16 0.41633E-16 -.13878E-16 -.55511E-16  0.0000     0.27756E-16 0.26368E-15 0.15266E-15 0.10408E-15 0.16653E-15
 0.41633E-16 0.24702E-14 0.16653E-15 0.13878E-15 0.83267E-16 0.12045E-08 0.69389E-15 0.39725E-15 0.33307E-15 0.19550E-13
 -.13878E-16 0.16376E-14 0.73552E-15 0.15404E-14 0.22204E-15 0.91593E-15 0.24286E-16 0.13878E-15 -.34694E-16 0.73552E-15
 0.27756E-16 0.83264E-12 0.14460E-10 0.20742E-11 0.12490E-15 0.39205E-15  0.0000     0.17347E-17 0.33307E-15 0.23350E-12
 0.20817E-16 0.56330E-13 0.17042E-13 0.55858E-13 0.17347E-15 0.41633E-15 -.11276E-15 0.37470E-15 0.23617E-13 0.14710E-13
 0.55511E-16 0.29862E-12 0.27510E-12 0.17598E-11 0.20817E-15 0.12167E-13 0.51348E-15 0.41812E-12 0.14849E-13 0.52361E-13
 0.69389E-16 0.55511E-16  0.0000     0.11102E-15 0.13878E-16 0.13878E-15 0.83267E-16 0.12490E-15 0.69389E-16 0.27756E-16
 -.55511E-16 0.40162E-13 0.99795E-13 0.15987E-13 0.90206E-16 0.14988E-14 0.11241E-14 0.73125E-12 0.44686E-13 0.17325E-12
 -.27756E-16 0.99670E-13 0.47740E-14 0.22204E-15 0.55511E-16 0.23592E-15 0.55511E-15 0.46806E-10 0.19679E-13 0.25509E-12
 -.13878E-16 0.17208E-13 0.12490E-15 0.55511E-16 0.69389E-16 0.18041E-15 0.10408E-14 0.19288E-11 0.51917E-13 0.14571E-11
 0.13878E-16 0.17347E-15 0.55511E-16 0.41633E-16 -.41633E-16 0.69389E-16 0.15266E-15 0.12490E-15 0.15266E-15 0.11102E-15
 -.27756E-16 0.21094E-14 0.12490E-15 0.13878E-15 0.13878E-16 0.15913E-09 0.63838E-15 0.36776E-15 0.30531E-15 0.17437E-13
  0.0000     0.12143E-14 0.49960E-15 0.11380E-14 0.13878E-15 0.72164E-15  0.0000     0.11102E-15 0.12490E-15 0.72164E-15
  0.0000     0.72642E-12 0.33166E-10 0.19630E-11 0.15266E-15 0.47878E-15 -.55511E-16 0.86736E-16 0.30531E-15 0.22161E-12
  0.0000     0.49835E-13 0.19817E-13 0.54526E-13 0.20817E-15 0.45797E-15 -.34694E-16 0.44409E-15 0.17056E-13 0.13572E-13
 -.55511E-16 0.19795E-12 0.26164E-12 0.15014E-11 0.27756E-15 0.11068E-13 0.44409E-15 0.42035E-12 0.13350E-13 0.46609E-13
 -.27756E-16 0.13878E-16 -.13878E-16 0.69389E-16 -.97145E-16  0.0000     -.55511E-16  0.0000     -.11102E-15 0.13878E-16
 -.13878E-16 0.33196E-13 0.79492E-13 0.13795E-13 0.27756E-16 0.10825E-14 0.55511E-15 0.62841E-12 0.33973E-13 0.12114E-12
  0.0000     0.80380E-13 0.45797E-14 0.19429E-15 -.83267E-16 0.11102E-15 0.48572E-15 0.30506E-09 0.14350E-13 0.20786E-12
 -.41633E-16 0.14905E-13 0.18041E-15 -.55511E-16 -.41633E-16 0.97145E-16 0.73552E-15 0.17442E-11 0.42258E-13 0.12390E-11
 0.27756E-16 0.13184E-15 0.27756E-16 -.83267E-16 0.41633E-16  0.0000     0.55511E-16 0.11102E-15 0.12490E-15 0.19429E-15
 0.27756E-16 0.17486E-14 0.55511E-16 0.97145E-16 0.69389E-16 0.50006E-10 0.47184E-15 0.19429E-15 0.20817E-15 0.11165E-13
  0.0000     0.92981E-15 0.40246E-15 0.94369E-15 0.12490E-15 0.52736E-15 0.41633E-16 0.83267E-16 0.41633E-16 0.47184E-15
  0.0000     0.62887E-12 0.15793E-09 0.17930E-11 0.12490E-15 0.29143E-15 -.12490E-15 0.13878E-16 0.20817E-15 0.20217E-12
 -.83267E-16 0.39718E-13 0.14988E-13 0.43632E-13 -.13878E-16 0.16653E-15 -.12490E-15 0.11102E-15 0.14225E-13 0.11477E-13
 -.55511E-16 0.13618E-12 0.21214E-12 0.12964E-11 0.11102E-15 0.73413E-14 0.13878E-15 0.40419E-12 0.11741E-13 0.43909E-13
 0.41633E-16 0.13878E-16 -.41633E-16 -.13878E-16 -.27756E-16 0.55511E-16 -.11102E-15 0.83267E-16 -.41633E-16 0.13878E-16
 -.13878E-16 0.28227E-13 0.65586E-13 0.12379E-13 -.13878E-16 0.10270E-14 0.65226E-15 0.55138E-12 0.28283E-13 0.76258E-13
 0.27756E-16 0.66405E-13 0.37748E-14 0.22204E-15 0.27756E-16 0.13878E-16 0.36082E-15 0.21059E-09 0.16973E-13 0.18460E-12
 -.41633E-16 0.13628E-13 0.23592E-15 -.27756E-16 0.27756E-16 0.83267E-16 0.74940E-15 0.16684E-11 0.39899E-13 0.10504E-11
 0.83267E-16 0.83267E-16 0.55511E-16 0.27756E-16 0.41633E-16 0.27756E-16 0.11102E-15 0.12490E-15 0.69389E-16 0.11102E-15
 -.13878E-16 0.15266E-14 0.55511E-16 0.15266E-15 0.55511E-16 0.13237E-10 0.37470E-15 0.23592E-15 0.19429E-15 0.10589E-13
 -.27756E-16 0.90206E-15 0.36082E-15 0.74940E-15 0.69389E-16 0.48572E-15 -.69389E-16 0.12490E-15 0.13878E-16 0.36082E-15
 -.13878E-16 0.55060E-12 0.68019E-09 0.17026E-11 0.83267E-16 0.22204E-15 -.83267E-16 0.41633E-16 0.18041E-15 0.19466E-12
  0.0000     0.34278E-13 0.17611E-13 0.43507E-13 0.69389E-16 0.24980E-15 -.27756E-16 0.27756E-15 0.12823E-13 0.10686E-13
 0.69389E-16 0.85029E-13 0.18954E-12 0.11218E-11 0.16653E-15 0.70083E-14 0.36082E-15 0.40271E-12 0.10908E-13 0.40121E-13
  0.0000     0.97145E-16 0.27756E-16 0.41633E-16 0.27756E-16 0.83267E-16 0.97145E-16 0.97145E-16 -.41633E-16 0.27756E-16
 0.13878E-16 0.23620E-13 0.55123E-13 0.10436E-13 0.69389E-16 0.97145E-15 0.48572E-15 0.47035E-12 0.24716E-13 0.50987E-13
 -.41633E-16 0.55955E-13 0.36360E-14 0.20817E-15  0.0000     0.19429E-15 0.34694E-15 0.55045E-10 0.14058E-13 0.16198E-12
 -.13878E-16 0.11338E-13 0.12490E-15 0.13878E-16 0.83267E-16 0.83267E-16 0.49960E-15 0.14925E-11 0.32516E-13 0.90056E-12
 0.27756E-16 0.69389E-16 0.97145E-16 0.27756E-16 0.55511E-16  0.0000     0.55511E-16 0.15266E-15 0.55511E-16 0.13878E-15
  0.0000     0.12768E-14 0.27756E-16 0.11102E-15 -.41633E-16 0.15373E-10 0.27756E-15 0.23592E-15 0.13878E-15 0.82157E-14
 0.69389E-16 0.61062E-15 0.27756E-15 0.56899E-15 0.97145E-16 0.31919E-15 0.55511E-16  0.0000     0.41633E-16 0.33307E-15
 -.13878E-16 0.47677E-12 0.88013E-10 0.15397E-11 0.12490E-15 0.23592E-15 -.69389E-16 0.12490E-15 0.18041E-15 0.16867E-12
 -.27756E-16 0.31433E-13 0.15016E-13 0.35430E-13 0.69389E-16 0.22204E-15 -.41633E-16 0.16653E-15 0.11061E-13 0.91316E-14
 -.13878E-16 0.57010E-13 0.16767E-12 0.98255E-12 0.55511E-16 0.53846E-14 0.19429E-15 0.35336E-12 0.94785E-14 0.37470E-13
 0.69389E-17 0.34694E-17 0.69389E-17 -.27756E-16 -.41633E-16 0.69389E-16 0.13878E-16 0.11102E-15 -.20817E-16 0.34694E-17
 -.41633E-16 0.19797E-13 0.46740E-13 0.95757E-14 0.55511E-16 0.77716E-15 0.45797E-15 0.41035E-12 0.19186E-13 0.29476E-13
 -.48572E-16 0.47212E-13 0.33445E-14 0.83267E-16 -.83267E-16 0.24980E-15 0.30531E-15 0.19279E-10 0.11456E-13 0.13184E-12
 0.13878E-16 0.10353E-13 0.97145E-16 0.27756E-16 0.27756E-16 0.41633E-16 0.44409E-15 0.13869E-11 0.26854E-13 0.76800E-12
 -.27756E-16 0.55511E-16 0.69389E-16  0.0000      0.0000     0.27756E-16 0.69389E-16 0.13878E-15 0.11102E-15 0.97145E-16
 -.83267E-16 0.12212E-14 0.27756E-16 0.11102E-15 -.27756E-16 0.46821E-11 0.22204E-15 0.20817E-15 0.16653E-15 0.73830E-14
 0.27756E-16 0.51348E-15 0.24980E-15 0.54123E-15 0.83267E-16 0.33307E-15 -.55511E-16 0.97145E-16 -.13878E-16 0.30531E-15
 0.41633E-16 0.41687E-12 0.26371E-10 0.14293E-11 0.41633E-16 0.22204E-15 -.16653E-15 0.55511E-16 0.24980E-15 0.16587E-12
 -.13878E-16 0.25036E-13 0.12254E-13 0.30115E-13 0.69389E-16 0.13878E-15 -.11102E-15 0.15266E-15 0.10172E-13 0.79520E-14
 -.17347E-16 0.32363E-13 0.13739E-12 0.85754E-12 0.97145E-16 0.50099E-14 0.27756E-15 0.36184E-12 0.82573E-14 0.35638E-13
 -.43368E-16 -.31225E-16 0.31225E-16  0.0000     -.41633E-16 0.69389E-16 0.41633E-16 0.69389E-16 -.10408E-16 -.10408E-16
 -.93675E-16 0.16789E-13 0.39913E-13 0.89512E-14 0.55511E-16 0.92981E-15 0.41633E-15 0.35369E-12 0.18204E-13 0.17980E-13
 -.20817E-16 0.40037E-13 0.31919E-14 0.13878E-15 0.55511E-16 0.11102E-15 0.33307E-15 0.87396E-11 0.14315E-13 0.11572E-12
 -.69389E-16 0.96451E-14 0.69389E-16 -.41633E-16 0.27756E-16 0.69389E-16 0.43021E-15 0.13233E-11 0.30018E-13 0.65878E-12
 -.55511E-16  0.0000     0.13878E-16 -.55511E-16 0.27756E-16 0.55511E-16 0.18041E-15 0.13878E-15 0.97145E-16 0.13878E-15
 -.41633E-16 0.12074E-14 0.41633E-16 0.27756E-16  0.0000     0.30346E-10 0.29143E-15 0.20817E-15 0.83267E-16 0.72997E-14
 -.27756E-16 0.48572E-15 0.24980E-15 0.52736E-15 0.83267E-16 0.34694E-15 -.27756E-16 0.83267E-16  0.0000     0.27756E-15
 -.69389E-16 0.36272E-12 0.99906E-11 0.13645E-11 0.69389E-16 0.18041E-15  0.0000      0.0000     0.11102E-15 0.12988E-12
 -.34694E-16 0.23717E-13 0.15460E-13 0.33959E-13 0.27756E-16 0.20817E-15 -.13878E-16 0.83267E-16 0.97283E-14 0.78687E-14
  0.0000     0.19807E-13 0.12293E-12 0.74414E-12 0.12490E-15 0.48433E-14 0.12490E-15 0.25346E-12 0.81740E-14 0.32710E-13
 0.14203E-16 -.13010E-16 -.25641E-16 0.14637E-16 0.38164E-16 0.60715E-16 0.61583E-16 0.40549E-16 -.19461E-16 -.27444E-18
 -.15409E-16 0.14036E-13 0.34429E-13 0.84913E-14 0.93675E-16 0.93675E-15 0.42024E-15 0.30858E-12 0.14077E-13 0.12472E-13
 -.22226E-16 0.34253E-13 0.31433E-14 0.15786E-15 0.58330E-16 0.17174E-15 0.26129E-15 0.52247E-11 0.12414E-13 0.87619E-13
 -.35128E-16 0.92116E-14 0.11102E-15 -.10408E-16 0.31659E-16 0.15005E-15 0.51955E-15 0.12346E-11 0.27113E-13 0.56278E-12