 vasp.5.4.4.18Apr17-6-g9f103f2a35 (build Jun 30 2017 11:15:00) complex          
  
 executed on    STALLO_VASP_5.4.4 date 2019.10.11  11:14:50
 running on    4 total cores
 distrk:  each k-point on    4 cores,    1 groups
 distr:  one band on NCORES_PER_BAND=   2 cores,    2 groups


--------------------------------------------------------------------------------------------------------


 INCAR:
 POTCAR:   PAW_PBE Cu 05Jan2001                   
 POTCAR:   PAW_PBE H 15Jun2001                    
 POTCAR:   PAW_PBE Cu 05Jan2001                   
   VRHFIN =Cu: d10 p1                                                           
   LEXCH  = PE                                                                  
   EATOM  =  1390.9800 eV,  102.2341 Ry                                         
                                                                                
   TITEL  = PAW_PBE Cu 05Jan2001                                                
   LULTRA =        F    use ultrasoft PP ?                                      
   IUNSCR =        1    unscreen: 0-lin 1-nonlin 2-no                           
   RPACOR =    2.000    partial core radius                                     
   POMASS =   63.546; ZVAL   =   11.000    mass and valenz                      
   RCORE  =    2.300    outmost cutoff radius                                   
   RWIGS  =    2.480; RWIGS  =    1.312    wigner-seitz radius (au A)           
   ENMAX  =  273.214; ENMIN  =  204.910 eV                                      
   RCLOC  =    1.712    cutoff for local pot                                    
   LCOR   =        T    correct aug charges                                     
   LPAW   =        T    paw PP                                                  
   EAUG   =  516.456                                                            
   DEXC   =    -.008                                                            
   RMAX   =    2.789    core radius for proj-oper                               
   RAUG   =    1.300    factor for augmentation sphere                          
   RDEP   =    2.302    radius for radial grids                                 
   QCUT   =   -4.481; QGAM   =    8.962    optimization parameters              
                                                                                
   Description                                                                  
     l     E      TYP  RCUT    TYP  RCUT                                        
     2   .000     23  2.300                                                     
     2   .000     23  2.300                                                     
     0   .000     23  2.300                                                     
     0   .000     23  2.300                                                     
     1  -.200     23  2.300                                                     
     1   .000     23  2.300                                                     
     3   .000      7   .000                                                     
  local pseudopotential read in
  partial core-charges read in
  atomic valenz-charges read in
  non local Contribution for L=           2  read in
    real space projection operators read in
  non local Contribution for L=           2  read in
    real space projection operators read in
  non local Contribution for L=           0  read in
    real space projection operators read in
  non local Contribution for L=           0  read in
    real space projection operators read in
  non local Contribution for L=           1  read in
    real space projection operators read in
  non local Contribution for L=           1  read in
    real space projection operators read in
    PAW grid and wavefunctions read in
 
   number of l-projection  operators is LMAX  =           6
   number of lm-projection operators is LMMAX =          18
 
 POTCAR:   PAW_PBE H 15Jun2001                    
   VRHFIN =H: ultrasoft test                                                    
   LEXCH  = PE                                                                  
   EATOM  =    12.4884 eV,     .9179 Ry                                         
                                                                                
   TITEL  = PAW_PBE H 15Jun2001                                                 
   LULTRA =        F    use ultrasoft PP ?                                      
   IUNSCR =        0    unscreen: 0-lin 1-nonlin 2-no                           
   RPACOR =     .000    partial core radius                                     
   POMASS =    1.000; ZVAL   =    1.000    mass and valenz                      
   RCORE  =    1.100    outmost cutoff radius                                   
   RWIGS  =     .700; RWIGS  =     .370    wigner-seitz radius (au A)           
   ENMAX  =  250.000; ENMIN  =  200.000 eV                                      
   RCLOC  =     .701    cutoff for local pot                                    
   LCOR   =        T    correct aug charges                                     
   LPAW   =        T    paw PP                                                  
   EAUG   =  400.000                                                            
   RMAX   =    2.174    core radius for proj-oper                               
   RAUG   =    1.200    factor for augmentation sphere                          
   RDEP   =    1.112    radius for radial grids                                 
   QCUT   =   -5.749; QGAM   =   11.498    optimization parameters              
                                                                                
   Description                                                                  
     l     E      TYP  RCUT    TYP  RCUT                                        
     0   .000     23  1.100                                                     
     0   .500     23  1.100                                                     
     1  -.300     23  1.100                                                     
  local pseudopotential read in
  atomic valenz-charges read in
  non local Contribution for L=           0  read in
    real space projection operators read in
  non local Contribution for L=           0  read in
    real space projection operators read in
  non local Contribution for L=           1  read in
    real space projection operators read in
    PAW grid and wavefunctions read in
 
   number of l-projection  operators is LMAX  =           3
   number of lm-projection operators is LMMAX =           5
 

 ----------------------------------------------------------------------------- 
|                                                                             |
|  ADVICE TO THIS USER RUNNING 'VASP/VAMP'   (HEAR YOUR MASTER'S VOICE ...):  |
|                                                                             |
|      You have a (more or less) 'small supercell' and for smaller cells      |
|      it is recommended  to use the reciprocal-space projection scheme!      |
|      The real space optimization is not  efficient for small cells and it   |
|      is also less accurate ...                                              |
|      Therefore set LREAL=.FALSE. in the  INCAR file                         |
|                                                                             |
 ----------------------------------------------------------------------------- 

 Optimization of the real space projectors (new method)

 maximal supplied QI-value         = 16.25
 optimisation between [QCUT,QGAM] = [  7.96, 16.09] = [ 17.76, 72.49] Ry 
 Optimized for a Real-space Cutoff    1.70 Angstroem

   l    n(q)    QCUT    max X(q) W(low)/X(q) W(high)/X(q)  e(spline) 
   2      7     7.963     4.977    0.65E-04    0.90E-04    0.59E-07
   2      7     7.963    13.467    0.48E-03    0.73E-03    0.12E-06
   0      8     7.963    13.303    0.22E-04    0.12E-04    0.51E-08
   0      8     7.963    44.613    0.10E-03    0.16E-03    0.47E-07
   1      8     7.963     5.276    0.66E-04    0.10E-04    0.22E-07
   1      8     7.963     7.322    0.38E-03    0.18E-03    0.17E-06
 Optimization of the real space projectors (new method)

 maximal supplied QI-value         = 34.20
 optimisation between [QCUT,QGAM] = [  7.87, 16.08] = [ 17.33, 72.37] Ry 
 Optimized for a Real-space Cutoff    1.85 Angstroem

   l    n(q)    QCUT    max X(q) W(low)/X(q) W(high)/X(q)  e(spline) 
   0      9     7.867     4.436    0.44E-04    0.71E-04    0.23E-06
   0      9     7.867    15.341    0.29E-03    0.73E-03    0.99E-06
   1      8     7.867     4.196    0.27E-03    0.13E-02    0.91E-06
 PAW_PBE Cu 05Jan2001                   :
 energy of atom  1       EATOM=-1390.9800
 kinetic energy error for atom=    0.0930 (will be added to EATOM!!)
 PAW_PBE H 15Jun2001                    :
 energy of atom  2       EATOM=  -12.4884
 kinetic energy error for atom=    0.0868 (will be added to EATOM!!)
 
 
 POSCAR: Cu  H                                   
  positions in cartesian coordinates
  velocities in cartesian coordinates
 exchange correlation table for  LEXCH =        8
   RHO(1)=    0.500       N(1)  =     2000
   RHO(2)=  100.500       N(2)  =     4000
 


--------------------------------------------------------------------------------------------------------


 ion  position               nearest neighbor table
   1  0.000  0.000  0.396-   2 2.57   2 2.57   2 2.57
   2  0.333  0.333  0.465-   3 2.57   1 2.57   3 2.57   1 2.57   3 2.57   1 2.57
   3  0.667  0.667  0.535-   4 2.57   2 2.57   2 2.57   4 2.57   2 2.57   4 2.57
   4  0.000  0.000  0.604-   5 1.55   5 1.71   3 2.57   3 2.57   3 2.57
   5  0.539  0.000  0.637-   4 1.55   4 1.71
 
  LATTYP: Found a hexagonal cell.
 ALAT       =     2.5738686835
 C/A-ratio  =    11.7739747694
  
  Lattice vectors:
  
 A1 = (   1.2869343418,  -2.2290356659,   0.0000000000)
 A2 = (  -2.5738686835,   0.0000000000,   0.0000000000)
 A3 = (   0.0000000000,   0.0000000000, -30.3046649396)


Analysis of symmetry for initial positions (statically):
=====================================================================
 Subroutine PRICEL returns:
 Original cell was already a primitive cell.
 

 Routine SETGRP: Setting up the symmetry group for a 
 hexagonal supercell.


 Subroutine GETGRP returns: Found  1 space group operations
 (whereof  1 operations were pure point group operations)
 out of a pool of 24 trial point group operations.


The static configuration has the point symmetry C_1 .


Analysis of symmetry for dynamics (positions and initial velocities):
=====================================================================
 Subroutine PRICEL returns:
 Original cell was already a primitive cell.
 

 Routine SETGRP: Setting up the symmetry group for a 
 hexagonal supercell.


 Subroutine GETGRP returns: Found  1 space group operations
 (whereof  1 operations were pure point group operations)
 out of a pool of 24 trial point group operations.


The dynamic configuration has the point symmetry C_1 .


 Subroutine INISYM returns: Found  1 space group operations
 (whereof  1 operations are pure point group operations),
 and found     1 'primitive' translations

 
 
 KPOINTS: k-density: 4.0                          

Automatic generation of k-mesh.
Space group operators:
 irot       det(A)        alpha          n_x          n_y          n_z        tau_x        tau_y        tau_z
    1     1.000000     0.000001     1.000000     0.000000     0.000000     0.000000     0.000000     0.000000
 
 Subroutine IBZKPT returns following result:
 ===========================================
 
 Found     52 irreducible k-points:
 
 Following reciprocal coordinates:
            Coordinates               Weight
  0.000000  0.000000  0.000000      1.000000
  0.100000  0.000000  0.000000      2.000000
  0.200000 -0.000000  0.000000      2.000000
  0.300000 -0.000000  0.000000      2.000000
  0.400000 -0.000000  0.000000      2.000000
  0.500000 -0.000000  0.000000      1.000000
  0.000000  0.100000  0.000000      2.000000
  0.100000  0.100000  0.000000      2.000000
  0.200000  0.100000  0.000000      2.000000
  0.300000  0.100000  0.000000      2.000000
  0.400000  0.100000  0.000000      2.000000
  0.500000  0.100000  0.000000      2.000000
 -0.400000  0.100000  0.000000      2.000000
 -0.300000  0.100000  0.000000      2.000000
 -0.200000  0.100000  0.000000      2.000000
 -0.100000  0.100000  0.000000      2.000000
  0.000000  0.200000  0.000000      2.000000
  0.100000  0.200000  0.000000      2.000000
  0.200000  0.200000  0.000000      2.000000
  0.300000  0.200000  0.000000      2.000000
  0.400000  0.200000  0.000000      2.000000
  0.500000  0.200000  0.000000      2.000000
 -0.400000  0.200000  0.000000      2.000000
 -0.300000  0.200000  0.000000      2.000000
 -0.200000  0.200000  0.000000      2.000000
 -0.100000  0.200000  0.000000      2.000000
  0.000000  0.300000  0.000000      2.000000
  0.100000  0.300000  0.000000      2.000000
  0.200000  0.300000  0.000000      2.000000
  0.300000  0.300000  0.000000      2.000000
  0.400000  0.300000  0.000000      2.000000
  0.500000  0.300000  0.000000      2.000000
 -0.400000  0.300000  0.000000      2.000000
 -0.300000  0.300000  0.000000      2.000000
 -0.200000  0.300000  0.000000      2.000000
 -0.100000  0.300000  0.000000      2.000000
  0.000000  0.400000  0.000000      2.000000
  0.100000  0.400000  0.000000      2.000000
  0.200000  0.400000  0.000000      2.000000
  0.300000  0.400000  0.000000      2.000000
  0.400000  0.400000  0.000000      2.000000
  0.500000  0.400000  0.000000      2.000000
 -0.400000  0.400000  0.000000      2.000000
 -0.300000  0.400000  0.000000      2.000000
 -0.200000  0.400000  0.000000      2.000000
 -0.100000  0.400000  0.000000      2.000000
  0.000000  0.500000  0.000000      1.000000
  0.100000  0.500000  0.000000      2.000000
  0.200000  0.500000  0.000000      2.000000
  0.300000  0.500000  0.000000      2.000000
  0.400000  0.500000  0.000000      2.000000
  0.500000  0.500000  0.000000      1.000000
 
 Following cartesian coordinates:
            Coordinates               Weight
  0.000000  0.000000  0.000000      1.000000
  0.038852 -0.022431  0.000000      2.000000
  0.077704 -0.044862  0.000000      2.000000
  0.116556 -0.067294  0.000000      2.000000
  0.155408 -0.089725  0.000000      2.000000
  0.194260 -0.112156  0.000000      1.000000
  0.000000  0.044862  0.000000      2.000000
  0.038852  0.022431  0.000000      2.000000
  0.077704 -0.000000  0.000000      2.000000
  0.116556 -0.022431  0.000000      2.000000
  0.155408 -0.044862  0.000000      2.000000
  0.194260 -0.067294  0.000000      2.000000
 -0.155408  0.134587  0.000000      2.000000
 -0.116556  0.112156  0.000000      2.000000
 -0.077704  0.089725  0.000000      2.000000
 -0.038852  0.067294  0.000000      2.000000
  0.000000  0.089725  0.000000      2.000000
  0.038852  0.067294  0.000000      2.000000
  0.077704  0.044862  0.000000      2.000000
  0.116556  0.022431  0.000000      2.000000
  0.155408  0.000000  0.000000      2.000000
  0.194260 -0.022431  0.000000      2.000000
 -0.155408  0.179450  0.000000      2.000000
 -0.116556  0.157019  0.000000      2.000000
 -0.077704  0.134587  0.000000      2.000000
 -0.038852  0.112156  0.000000      2.000000
  0.000000  0.134587  0.000000      2.000000
  0.038852  0.112156  0.000000      2.000000
  0.077704  0.089725  0.000000      2.000000
  0.116556  0.067294  0.000000      2.000000
  0.155408  0.044862  0.000000      2.000000
  0.194260  0.022431  0.000000      2.000000
 -0.155408  0.224312  0.000000      2.000000
 -0.116556  0.201881  0.000000      2.000000
 -0.077704  0.179450  0.000000      2.000000
 -0.038852  0.157019  0.000000      2.000000
  0.000000  0.179450  0.000000      2.000000
  0.038852  0.157019  0.000000      2.000000
  0.077704  0.134587  0.000000      2.000000
  0.116556  0.112156  0.000000      2.000000
  0.155408  0.089725  0.000000      2.000000
  0.194260  0.067294  0.000000      2.000000
 -0.155408  0.269175  0.000000      2.000000
 -0.116556  0.246743  0.000000      2.000000
 -0.077704  0.224312  0.000000      2.000000
 -0.038852  0.201881  0.000000      2.000000
  0.000000  0.224312  0.000000      1.000000
  0.038852  0.201881  0.000000      2.000000
  0.077704  0.179450  0.000000      2.000000
  0.116556  0.157019  0.000000      2.000000
  0.155408  0.134587  0.000000      2.000000
  0.194260  0.112156  0.000000      1.000000
 


--------------------------------------------------------------------------------------------------------




 Dimension of arrays:
   k-points           NKPTS =     52   k-points in BZ     NKDIM =     52   number of bands    NBANDS=     28
   number of dos      NEDOS =   2401   number of ions     NIONS =      5
   non local maximal  LDIM  =      6   non local SUM 2l+1 LMDIM =     18
   total plane-waves  NPLWV =  12000
   max r-space proj   IRMAX =   1888   max aug-charges    IRDMAX=   2622
   dimension x,y,z NGX =    10 NGY =   10 NGZ =  120
   dimension x,y,z NGXF=    20 NGYF=   20 NGZF=  240
   support grid    NGXF=    20 NGYF=   20 NGZF=  240
   ions per type =               4   1
   NGX,Y,Z   is equivalent  to a cutoff of   6.46,  6.46,  6.58 a.u.
   NGXF,Y,Z  is equivalent  to a cutoff of  12.92, 12.92, 13.17 a.u.

 SYSTEM =  unknown system                          
 POSCAR =  Cu  H                                   

 Startparameter for this run:
   NWRITE =      2    write-flag & timer
   PREC   = normal    normal or accurate (medium, high low for compatibility)
   ISTART =      0    job   : 0-new  1-cont  2-samecut
   ICHARG =      2    charge: 1-file 2-atom 10-const
   ISPIN  =      1    spin polarized calculation?
   LNONCOLLINEAR =      F non collinear calculations
   LSORBIT =      F    spin-orbit coupling
   INIWAV =      1    electr: 0-lowe 1-rand  2-diag
   LASPH  =      F    aspherical Exc in radial PAW
   METAGGA=      F    non-selfconsistent MetaGGA calc.

 Electronic Relaxation 1
   ENCUT  =  250.0 eV  18.37 Ry    4.29 a.u.   3.32  3.32 39.07*2*pi/ulx,y,z
   ENINI  =  250.0     initial cutoff
   ENAUG  =  516.5 eV  augmentation charge cutoff
   NELM   =     60;   NELMIN=  4; NELMDL= -5     # of ELM steps 
   EDIFF  = 0.1E-05   stopping-criterion for ELM
   LREAL  =      T    real-space projection
   NLSPLINE    = F    spline interpolate recip. space projectors
   LCOMPAT=      F    compatible to vasp.4.4
   GGA_COMPAT  = T    GGA compatible to vasp.4.4-vasp.4.6
   LMAXPAW     = -100 max onsite density
   LMAXMIX     =    2 max onsite mixed and CHGCAR
   VOSKOWN=      0    Vosko Wilk Nusair interpolation
   ROPT   =   -0.00050  -0.00050
 Ionic relaxation
   EDIFFG = 0.1E-04   stopping-criterion for IOM
   NSW    =      0    number of steps for IOM
   NBLOCK =      1;   KBLOCK =      1    inner block; outer block 
   IBRION =     -1    ionic relax: 0-MD 1-quasi-New 2-CG
   NFREE  =      0    steps in history (QN), initial steepest desc. (CG)
   ISIF   =      2    stress and relaxation
   IWAVPR =     10    prediction:  0-non 1-charg 2-wave 3-comb
   ISYM   =      2    0-nonsym 1-usesym 2-fastsym
   LCORR  =      T    Harris-Foulkes like correction to forces

   POTIM  = 0.5000    time-step for ionic-motion
   TEIN   =    0.0    initial temperature
   TEBEG  =    0.0;   TEEND  =   0.0 temperature during run
   SMASS  =  -3.00    Nose mass-parameter (am)
   estimated Nose-frequenzy (Omega)   =  0.10E-29 period in steps =****** mass=  -0.151E-27a.u.
   SCALEE = 1.0000    scale energy and forces
   NPACO  =    256;   APACO  = 16.0  distance and # of slots for P.C.
   PSTRESS=    0.0 pullay stress

  Mass of Ions in am
   POMASS =  63.55  1.00
  Ionic Valenz
   ZVAL   =  11.00  1.00
  Atomic Wigner-Seitz radii
   RWIGS  =  -1.00 -1.00
  virtual crystal weights 
   VCA    =   1.00  1.00
   NELECT =      45.0000    total number of electrons
   NUPDOWN=      -1.0000    fix difference up-down

 DOS related values:
   EMIN   = -17.00;   EMAX   =  7.00  energy-range for DOS
   EFERMI =   0.00
   ISMEAR =     0;   SIGMA  =   0.10  broadening in eV -4-tet -1-fermi 0-gaus

 Electronic relaxation 2 (details)
   IALGO  =     68    algorithm
   LDIAG  =      T    sub-space diagonalisation (order eigenvalues)
   LSUBROT=      F    optimize rotation matrix (better conditioning)
   TURBO    =      0    0=normal 1=particle mesh
   IRESTART =      0    0=no restart 2=restart with 2 vectors
   NREBOOT  =      0    no. of reboots
   NMIN     =      0    reboot dimension
   EREF     =   0.00    reference energy to select bands
   IMIX   =      4    mixing-type and parameters
     AMIX     =   0.40;   BMIX     =  1.00
     AMIX_MAG =   1.60;   BMIX_MAG =  1.00
     AMIN     =   0.10
     WC   =   100.;   INIMIX=   1;  MIXPRE=   1;  MAXMIX= -45

 Intra band minimization:
   WEIMIN = 0.0000     energy-eigenvalue tresh-hold
   EBREAK =  0.89E-08  absolut break condition
   DEPER  =   0.30     relativ break condition  

   TIME   =   0.40     timestep for ELM

  volume/ion in A,a.u.               =      34.77       234.66
  Fermi-wavevector in a.u.,A,eV,Ry     =   1.043297  1.971546 14.809520  1.088469
  Thomas-Fermi vector in A             =   2.178000
 
 Write flags
   LWAVE        =      F    write WAVECAR
   LDOWNSAMPLE  =      F    k-point downsampling of WAVECAR
   LCHARG       =      T    write CHGCAR
   LVTOT        =      F    write LOCPOT, total local potential
   LVHAR        =      F    write LOCPOT, Hartree potential only
   LELF         =      T    write electronic localiz. function (ELF)
   LORBIT       =     11    0 simple, 1 ext, 2 COOP (PROOUT), +10 PAW based schemes


 Dipole corrections
   LMONO  =      F    monopole corrections only (constant potential shift)
   LDIPOL =      F    correct potential (dipole corrections)
   IDIPOL =      0    1-x, 2-y, 3-z, 4-all directions 
   EPSILON=  1.0000000 bulk dielectric constant

 Exchange correlation treatment:
   GGA     =    --    GGA type
   LEXCH   =     8    internal setting for exchange type
   VOSKOWN=      0    Vosko Wilk Nusair interpolation
   LHFCALC =     F    Hartree Fock is set to
   LHFONE  =     F    Hartree Fock one center treatment
   AEXX    =    0.0000 exact exchange contribution

 Linear response parameters
   LEPSILON=     F    determine dielectric tensor
   LRPA    =     F    only Hartree local field effects (RPA)
   LNABLA  =     F    use nabla operator in PAW spheres
   LVEL    =     F    velocity operator in full k-point grid
   LINTERFAST=   F  fast interpolation
   KINTER  =     0    interpolate to denser k-point grid
   CSHIFT  =0.1000    complex shift for real part using Kramers Kronig
   OMEGAMAX=  -1.0    maximum frequency
   DEG_THRESHOLD= 0.2000000E-02 threshold for treating states as degnerate
   RTIME   =   -0.100 relaxation time in fs
  (WPLASMAI=    0.000 imaginary part of plasma frequency in eV, 0.658/RTIME)
   DFIELD  = 0.0000000 0.0000000 0.0000000 field for delta impulse in time
 
 Orbital magnetization related:
   ORBITALMAG=     F  switch on orbital magnetization
   LCHIMAG   =     F  perturbation theory with respect to B field
   DQ        =  0.001000  dq finite difference perturbation B field
   LLRAUG    =     F  two centre corrections for induced B field



--------------------------------------------------------------------------------------------------------


 Static calculation
 charge density and potential will be updated during run
 non-spin polarized calculation
 RMM-DIIS sequential band-by-band and
  variant of blocked Davidson during initial phase
 perform sub-space diagonalisation
    before iterative eigenvector-optimisation
 modified Broyden-mixing scheme, WC =      100.0
 initial mixing is a Kerker type mixing with AMIX =  0.4000 and BMIX =      1.0000
 Hartree-type preconditioning will be used
 using additional bands            5
 real space projection scheme for non local part
 use partial core corrections
 calculate Harris-corrections to forces 
   (improved forces if not selfconsistent)
 use gradient corrections 
 use of overlap-Matrix (Vanderbilt PP)
 Gauss-broadening in eV      SIGMA  =   0.10


--------------------------------------------------------------------------------------------------------


  energy-cutoff  :      250.00
  volume of cell :      173.87
      direct lattice vectors                 reciprocal lattice vectors
     2.573868684  0.000000000  0.000000000     0.388520209 -0.224312248  0.000000000
     1.286934342  2.229035666  0.000000000     0.000000000  0.448624495  0.000000000
     0.000000000  0.000000000 30.304664940     0.000000000  0.000000000  0.032998220

  length of vectors
     2.573868684  2.573868684 30.304664940     0.448624495  0.448624495  0.032998220


 
 k-points in units of 2pi/SCALE and weight: k-density: 4.0                          
   0.00000000  0.00000000  0.00000000       0.010
   0.03885202 -0.02243122  0.00000000       0.020
   0.07770404 -0.04486245  0.00000000       0.020
   0.11655606 -0.06729367  0.00000000       0.020
   0.15540808 -0.08972490  0.00000000       0.020
   0.19426010 -0.11215612  0.00000000       0.010
   0.00000000  0.04486245  0.00000000       0.020
   0.03885202  0.02243122  0.00000000       0.020
   0.07770404 -0.00000000  0.00000000       0.020
   0.11655606 -0.02243122  0.00000000       0.020
   0.15540808 -0.04486245  0.00000000       0.020
   0.19426010 -0.06729367  0.00000000       0.020
  -0.15540808  0.13458735  0.00000000       0.020
  -0.11655606  0.11215612  0.00000000       0.020
  -0.07770404  0.08972490  0.00000000       0.020
  -0.03885202  0.06729367  0.00000000       0.020
   0.00000000  0.08972490  0.00000000       0.020
   0.03885202  0.06729367  0.00000000       0.020
   0.07770404  0.04486245  0.00000000       0.020
   0.11655606  0.02243122  0.00000000       0.020
   0.15540808  0.00000000  0.00000000       0.020
   0.19426010 -0.02243122  0.00000000       0.020
  -0.15540808  0.17944980  0.00000000       0.020
  -0.11655606  0.15701857  0.00000000       0.020
  -0.07770404  0.13458735  0.00000000       0.020
  -0.03885202  0.11215612  0.00000000       0.020
   0.00000000  0.13458735  0.00000000       0.020
   0.03885202  0.11215612  0.00000000       0.020
   0.07770404  0.08972490  0.00000000       0.020
   0.11655606  0.06729367  0.00000000       0.020
   0.15540808  0.04486245  0.00000000       0.020
   0.19426010  0.02243122  0.00000000       0.020
  -0.15540808  0.22431225  0.00000000       0.020
  -0.11655606  0.20188102  0.00000000       0.020
  -0.07770404  0.17944980  0.00000000       0.020
  -0.03885202  0.15701857  0.00000000       0.020
   0.00000000  0.17944980  0.00000000       0.020
   0.03885202  0.15701857  0.00000000       0.020
   0.07770404  0.13458735  0.00000000       0.020
   0.11655606  0.11215612  0.00000000       0.020
   0.15540808  0.08972490  0.00000000       0.020
   0.19426010  0.06729367  0.00000000       0.020
  -0.15540808  0.26917470  0.00000000       0.020
  -0.11655606  0.24674347  0.00000000       0.020
  -0.07770404  0.22431225  0.00000000       0.020
  -0.03885202  0.20188102  0.00000000       0.020
   0.00000000  0.22431225  0.00000000       0.010
   0.03885202  0.20188102  0.00000000       0.020
   0.07770404  0.17944980  0.00000000       0.020
   0.11655606  0.15701857  0.00000000       0.020
   0.15540808  0.13458735  0.00000000       0.020
   0.19426010  0.11215612  0.00000000       0.010
 
 k-points in reciprocal lattice and weights: k-density: 4.0                          
   0.00000000  0.00000000  0.00000000       0.010
   0.10000000  0.00000000  0.00000000       0.020
   0.20000000 -0.00000000  0.00000000       0.020
   0.30000000 -0.00000000  0.00000000       0.020
   0.40000000 -0.00000000  0.00000000       0.020
   0.50000000 -0.00000000  0.00000000       0.010
   0.00000000  0.10000000  0.00000000       0.020
   0.10000000  0.10000000  0.00000000       0.020
   0.20000000  0.10000000  0.00000000       0.020
   0.30000000  0.10000000  0.00000000       0.020
   0.40000000  0.10000000  0.00000000       0.020
   0.50000000  0.10000000  0.00000000       0.020
  -0.40000000  0.10000000  0.00000000       0.020
  -0.30000000  0.10000000  0.00000000       0.020
  -0.20000000  0.10000000  0.00000000       0.020
  -0.10000000  0.10000000  0.00000000       0.020
   0.00000000  0.20000000  0.00000000       0.020
   0.10000000  0.20000000  0.00000000       0.020
   0.20000000  0.20000000  0.00000000       0.020
   0.30000000  0.20000000  0.00000000       0.020
   0.40000000  0.20000000  0.00000000       0.020
   0.50000000  0.20000000  0.00000000       0.020
  -0.40000000  0.20000000  0.00000000       0.020
  -0.30000000  0.20000000  0.00000000       0.020
  -0.20000000  0.20000000  0.00000000       0.020
  -0.10000000  0.20000000  0.00000000       0.020
   0.00000000  0.30000000  0.00000000       0.020
   0.10000000  0.30000000  0.00000000       0.020
   0.20000000  0.30000000  0.00000000       0.020
   0.30000000  0.30000000  0.00000000       0.020
   0.40000000  0.30000000  0.00000000       0.020
   0.50000000  0.30000000  0.00000000       0.020
  -0.40000000  0.30000000  0.00000000       0.020
  -0.30000000  0.30000000  0.00000000       0.020
  -0.20000000  0.30000000  0.00000000       0.020
  -0.10000000  0.30000000  0.00000000       0.020
   0.00000000  0.40000000  0.00000000       0.020
   0.10000000  0.40000000  0.00000000       0.020
   0.20000000  0.40000000  0.00000000       0.020
   0.30000000  0.40000000  0.00000000       0.020
   0.40000000  0.40000000  0.00000000       0.020
   0.50000000  0.40000000  0.00000000       0.020
  -0.40000000  0.40000000  0.00000000       0.020
  -0.30000000  0.40000000  0.00000000       0.020
  -0.20000000  0.40000000  0.00000000       0.020
  -0.10000000  0.40000000  0.00000000       0.020
   0.00000000  0.50000000  0.00000000       0.010
   0.10000000  0.50000000  0.00000000       0.020
   0.20000000  0.50000000  0.00000000       0.020
   0.30000000  0.50000000  0.00000000       0.020
   0.40000000  0.50000000  0.00000000       0.020
   0.50000000  0.50000000  0.00000000       0.010
 
 position of ions in fractional coordinates (direct lattice) 
   0.00000000  0.00000000  0.39597864
   0.33333333  0.33333333  0.46532621
   0.66666666  0.66666667  0.53467379
   0.00000000  0.00000000  0.60402136
   0.53885202  0.00000000  0.63701958
 
 position of ions in cartesian coordinates  (Angst):
   0.00000000  0.00000000 12.00000000
   1.28693434  0.74301189 14.10155498
   2.57386868  1.48602378 16.20310996
   0.00000000  0.00000000 18.30466494
   1.38693434  0.00000000 19.30466494
 


--------------------------------------------------------------------------------------------------------


 k-point  1 :   0.0000 0.0000 0.0000  plane waves:    1609
 k-point  2 :   0.1000 0.0000 0.0000  plane waves:    1589
 k-point  3 :   0.2000-0.0000 0.0000  plane waves:    1586
 k-point  4 :   0.3000-0.0000 0.0000  plane waves:    1542
 k-point  5 :   0.4000-0.0000 0.0000  plane waves:    1568
 k-point  6 :   0.5000-0.0000 0.0000  plane waves:    1570
 k-point  7 :   0.0000 0.1000 0.0000  plane waves:    1589
 k-point  8 :   0.1000 0.1000 0.0000  plane waves:    1589
 k-point  9 :   0.2000 0.1000 0.0000  plane waves:    1579
 k-point 10 :   0.3000 0.1000 0.0000  plane waves:    1569
 k-point 11 :   0.4000 0.1000 0.0000  plane waves:    1552
 k-point 12 :   0.5000 0.1000 0.0000  plane waves:    1549
 k-point 13 :  -0.4000 0.1000 0.0000  plane waves:    1549
 k-point 14 :  -0.3000 0.1000 0.0000  plane waves:    1552
 k-point 15 :  -0.2000 0.1000 0.0000  plane waves:    1569
 k-point 16 :  -0.1000 0.1000 0.0000  plane waves:    1579
 k-point 17 :   0.0000 0.2000 0.0000  plane waves:    1586
 k-point 18 :   0.1000 0.2000 0.0000  plane waves:    1579
 k-point 19 :   0.2000 0.2000 0.0000  plane waves:    1586
 k-point 20 :   0.3000 0.2000 0.0000  plane waves:    1569
 k-point 21 :   0.4000 0.2000 0.0000  plane waves:    1545
 k-point 22 :   0.5000 0.2000 0.0000  plane waves:    1549
 k-point 23 :  -0.4000 0.2000 0.0000  plane waves:    1546
 k-point 24 :  -0.3000 0.2000 0.0000  plane waves:    1549
 k-point 25 :  -0.2000 0.2000 0.0000  plane waves:    1545
 k-point 26 :  -0.1000 0.2000 0.0000  plane waves:    1569
 k-point 27 :   0.0000 0.3000 0.0000  plane waves:    1542
 k-point 28 :   0.1000 0.3000 0.0000  plane waves:    1569
 k-point 29 :   0.2000 0.3000 0.0000  plane waves:    1569
 k-point 30 :   0.3000 0.3000 0.0000  plane waves:    1542
 k-point 31 :   0.4000 0.3000 0.0000  plane waves:    1552
 k-point 32 :   0.5000 0.3000 0.0000  plane waves:    1549
 k-point 33 :  -0.4000 0.3000 0.0000  plane waves:    1547
 k-point 34 :  -0.3000 0.3000 0.0000  plane waves:    1547
 k-point 35 :  -0.2000 0.3000 0.0000  plane waves:    1549
 k-point 36 :  -0.1000 0.3000 0.0000  plane waves:    1552
 k-point 37 :   0.0000 0.4000 0.0000  plane waves:    1568
 k-point 38 :   0.1000 0.4000 0.0000  plane waves:    1552
 k-point 39 :   0.2000 0.4000 0.0000  plane waves:    1545
 k-point 40 :   0.3000 0.4000 0.0000  plane waves:    1552
 k-point 41 :   0.4000 0.4000 0.0000  plane waves:    1568
 k-point 42 :   0.5000 0.4000 0.0000  plane waves:    1549
 k-point 43 :  -0.4000 0.4000 0.0000  plane waves:    1546
 k-point 44 :  -0.3000 0.4000 0.0000  plane waves:    1547
 k-point 45 :  -0.2000 0.4000 0.0000  plane waves:    1546
 k-point 46 :  -0.1000 0.4000 0.0000  plane waves:    1549
 k-point 47 :   0.0000 0.5000 0.0000  plane waves:    1570
 k-point 48 :   0.1000 0.5000 0.0000  plane waves:    1549
 k-point 49 :   0.2000 0.5000 0.0000  plane waves:    1549
 k-point 50 :   0.3000 0.5000 0.0000  plane waves:    1549
 k-point 51 :   0.4000 0.5000 0.0000  plane waves:    1549
 k-point 52 :   0.5000 0.5000 0.0000  plane waves:    1570

 maximum and minimum number of plane-waves per node :       808      766

 maximum number of plane-waves:      1609
 maximum index in each direction: 
   IXMAX=    3   IYMAX=    3   IZMAX=   39
   IXMIN=   -3   IYMIN=   -3   IZMIN=  -39


 real space projection operators:
  total allocation   :        839.91 KBytes
  max/ min on nodes  :        423.16        416.74


 parallel 3D FFT for wavefunctions:
    minimum data exchange during FFTs selected (reduces bandwidth)
 parallel 3D FFT for charge:
    minimum data exchange during FFTs selected (reduces bandwidth)


 total amount of memory used by VASP MPI-rank0    43139. kBytes
=======================================================================

   base      :      30000. kBytes
   nonlr-proj:        676. kBytes
   fftplans  :        995. kBytes
   grid      :       1592. kBytes
   one-center:         46. kBytes
   wavefun   :       9830. kBytes
 
     INWAV:  cpu time    0.0010: real time    0.0002
 Broyden mixing: mesh for mixing (old mesh)
   NGX =  7   NGY =  7   NGZ = 79
  (NGX  = 20   NGY  = 20   NGZ  =240)
  gives a total of   3871 points

 initial charge density was supplied:
 charge density of overlapping atoms calculated
 number of electron      45.0000000 magnetization 
 keeping initial charge density in first step


--------------------------------------------------------------------------------------------------------


 Maximum index for non-local projection operator          897
 Maximum index for augmentation-charges          593 (set IRDMAX)


--------------------------------------------------------------------------------------------------------


 First call to EWALD:  gamma=   0.318
 Maximum number of real-space cells 6x 6x 1
 Maximum number of reciprocal cells 2x 2x13

    FEWALD:  cpu time    0.0020: real time    0.0015


--------------------------------------- Iteration      1(   1)  ---------------------------------------


    POTLOK:  cpu time    0.0140: real time    0.0690
    SETDIJ:  cpu time    0.0040: real time    0.0039
     EDDAV:  cpu time    0.9559: real time    0.9606
       DOS:  cpu time    0.0080: real time    0.0082
    --------------------------------------------
      LOOP:  cpu time    0.9819: real time    1.0417

 eigenvalue-minimisations  :  3020
 total energy-change (2. order) : 0.1974420E+03  (-0.1388503E+04)
 number of electron      45.0000000 magnetization 
 augmentation part       45.0000000 magnetization 

 Free energy of the ion-electron system (eV)
  ---------------------------------------------------
  alpha Z        PSCENC =       120.87645803
  Ewald energy   TEWEN  =     38007.72388820
  -Hartree energ DENC   =    -43128.21384639
  -exchange      EXHF   =         0.00000000
  -V(xc)+E(xc)   XCENC  =       177.43878873
  PAW double counting   =      4328.99049516    -4905.09836044
  entropy T*S    EENTRO =        -0.01327237
  eigenvalues    EBANDS =        19.78818900
  atomic energy  EATOM  =      5575.94961827
  Solvation  Ediel_sol  =         0.00000000
  ---------------------------------------------------
  free energy    TOTEN  =       197.44195819 eV

  energy without entropy =      197.45523057  energy(sigma->0) =      197.44859438


--------------------------------------------------------------------------------------------------------




--------------------------------------- Iteration      1(   2)  ---------------------------------------


     EDDAV:  cpu time    0.9629: real time    0.9663
       DOS:  cpu time    0.0090: real time    0.0089
    --------------------------------------------
      LOOP:  cpu time    0.9719: real time    0.9752

 eigenvalue-minimisations  :  3068
 total energy-change (2. order) :-0.2079994E+03  (-0.2018885E+03)
 number of electron      45.0000000 magnetization 
 augmentation part       45.0000000 magnetization 

 Free energy of the ion-electron system (eV)
  ---------------------------------------------------
  alpha Z        PSCENC =       120.87645803
  Ewald energy   TEWEN  =     38007.72388820
  -Hartree energ DENC   =    -43128.21384639
  -exchange      EXHF   =         0.00000000
  -V(xc)+E(xc)   XCENC  =       177.43878873
  PAW double counting   =      4328.99049516    -4905.09836044
  entropy T*S    EENTRO =        -0.01414310
  eigenvalues    EBANDS =      -188.21030110
  atomic energy  EATOM  =      5575.94961827
  Solvation  Ediel_sol  =         0.00000000
  ---------------------------------------------------
  free energy    TOTEN  =       -10.55740264 eV

  energy without entropy =      -10.54325954  energy(sigma->0) =      -10.55033109


--------------------------------------------------------------------------------------------------------




--------------------------------------- Iteration      1(   3)  ---------------------------------------


     EDDAV:  cpu time    1.0138: real time    1.0140
       DOS:  cpu time    0.0080: real time    0.0091
    --------------------------------------------
      LOOP:  cpu time    1.0218: real time    1.0231

 eigenvalue-minimisations  :  3220
 total energy-change (2. order) :-0.1032609E+02  (-0.1018414E+02)
 number of electron      45.0000000 magnetization 
 augmentation part       45.0000000 magnetization 

 Free energy of the ion-electron system (eV)
  ---------------------------------------------------
  alpha Z        PSCENC =       120.87645803
  Ewald energy   TEWEN  =     38007.72388820
  -Hartree energ DENC   =    -43128.21384639
  -exchange      EXHF   =         0.00000000
  -V(xc)+E(xc)   XCENC  =       177.43878873
  PAW double counting   =      4328.99049516    -4905.09836044
  entropy T*S    EENTRO =        -0.01075502
  eigenvalues    EBANDS =      -198.53977515
  atomic energy  EATOM  =      5575.94961827
  Solvation  Ediel_sol  =         0.00000000
  ---------------------------------------------------
  free energy    TOTEN  =       -20.88348861 eV

  energy without entropy =      -20.87273359  energy(sigma->0) =      -20.87811110


--------------------------------------------------------------------------------------------------------




--------------------------------------- Iteration      1(   4)  ---------------------------------------


     EDDAV:  cpu time    1.0158: real time    1.0165
       DOS:  cpu time    0.0090: real time    0.0090
    --------------------------------------------
      LOOP:  cpu time    1.0248: real time    1.0255

 eigenvalue-minimisations  :  3172
 total energy-change (2. order) :-0.1122830E+00  (-0.1119185E+00)
 number of electron      45.0000000 magnetization 
 augmentation part       45.0000000 magnetization 

 Free energy of the ion-electron system (eV)
  ---------------------------------------------------
  alpha Z        PSCENC =       120.87645803
  Ewald energy   TEWEN  =     38007.72388820
  -Hartree energ DENC   =    -43128.21384639
  -exchange      EXHF   =         0.00000000
  -V(xc)+E(xc)   XCENC  =       177.43878873
  PAW double counting   =      4328.99049516    -4905.09836044
  entropy T*S    EENTRO =        -0.01016336
  eigenvalues    EBANDS =      -198.65264977
  atomic energy  EATOM  =      5575.94961827
  Solvation  Ediel_sol  =         0.00000000
  ---------------------------------------------------
  free energy    TOTEN  =       -20.99577157 eV

  energy without entropy =      -20.98560821  energy(sigma->0) =      -20.99068989


--------------------------------------------------------------------------------------------------------




--------------------------------------- Iteration      1(   5)  ---------------------------------------


     EDDAV:  cpu time    1.0428: real time    1.0444
       DOS:  cpu time    0.0090: real time    0.0089
    CHARGE:  cpu time    0.0530: real time    0.0526
    MIXING:  cpu time    0.0000: real time    0.0007
    --------------------------------------------
      LOOP:  cpu time    1.1048: real time    1.1067

 eigenvalue-minimisations  :  3288
 total energy-change (2. order) :-0.1181526E-02  (-0.1181499E-02)
 number of electron      45.0000029 magnetization 
 augmentation part       26.6632946 magnetization 

 Broyden mixing:
  rms(total) = 0.14808E+01    rms(broyden)= 0.14805E+01
  rms(prec ) = 0.15334E+01
  weight for this iteration     100.00

 Free energy of the ion-electron system (eV)
  ---------------------------------------------------
  alpha Z        PSCENC =       120.87645803
  Ewald energy   TEWEN  =     38007.72388820
  -Hartree energ DENC   =    -43128.21384639
  -exchange      EXHF   =         0.00000000
  -V(xc)+E(xc)   XCENC  =       177.43878873
  PAW double counting   =      4328.99049516    -4905.09836044
  entropy T*S    EENTRO =        -0.01016330
  eigenvalues    EBANDS =      -198.65383136
  atomic energy  EATOM  =      5575.94961827
  Solvation  Ediel_sol  =         0.00000000
  ---------------------------------------------------
  free energy    TOTEN  =       -20.99695310 eV

  energy without entropy =      -20.98678980  energy(sigma->0) =      -20.99187145


--------------------------------------------------------------------------------------------------------




--------------------------------------- Iteration      1(   6)  ---------------------------------------


    POTLOK:  cpu time    0.0110: real time    0.0133
    SETDIJ:  cpu time    0.0040: real time    0.0031
    EDDIAG:  cpu time    0.1920: real time    0.1924
  RMM-DIIS:  cpu time    0.5939: real time    0.5941
    ORTHCH:  cpu time    0.0230: real time    0.0235
       DOS:  cpu time    0.0100: real time    0.0092
    CHARGE:  cpu time    0.0510: real time    0.0521
    MIXING:  cpu time    0.0010: real time    0.0007
    --------------------------------------------
      LOOP:  cpu time    0.8859: real time    0.8882

 eigenvalue-minimisations  :  3194
 total energy-change (2. order) : 0.2078403E+01  (-0.4424762E+01)
 number of electron      45.0000033 magnetization 
 augmentation part       30.0293571 magnetization 

 Broyden mixing:
  rms(total) = 0.74560E+00    rms(broyden)= 0.74533E+00
  rms(prec ) = 0.77665E+00
  weight for this iteration     100.00

 eigenvalues of (default mixing * dielectric matrix)
  average eigenvalue GAMMA=   0.6686
  0.6686

 Free energy of the ion-electron system (eV)
  ---------------------------------------------------
  alpha Z        PSCENC =       120.87645803
  Ewald energy   TEWEN  =     38007.72388820
  -Hartree energ DENC   =    -43006.21699382
  -exchange      EXHF   =         0.00000000
  -V(xc)+E(xc)   XCENC  =       172.25908585
  PAW double counting   =      4214.69742068    -4755.33675222
  entropy T*S    EENTRO =        -0.00729243
  eigenvalues    EBANDS =      -348.86398291
  atomic energy  EATOM  =      5575.94961827
  Solvation  Ediel_sol  =         0.00000000
  ---------------------------------------------------
  free energy    TOTEN  =       -18.91855035 eV

  energy without entropy =      -18.91125792  energy(sigma->0) =      -18.91490414


--------------------------------------------------------------------------------------------------------




--------------------------------------- Iteration      1(   7)  ---------------------------------------


    POTLOK:  cpu time    0.0110: real time    0.0109
    SETDIJ:  cpu time    0.0030: real time    0.0030
    EDDIAG:  cpu time    0.1920: real time    0.1920
  RMM-DIIS:  cpu time    0.5529: real time    0.5529
    ORTHCH:  cpu time    0.0230: real time    0.0234
       DOS:  cpu time    0.0100: real time    0.0090
    CHARGE:  cpu time    0.0510: real time    0.0519
    MIXING:  cpu time    0.0010: real time    0.0005
    --------------------------------------------
      LOOP:  cpu time    0.8439: real time    0.8437

 eigenvalue-minimisations  :  2999
 total energy-change (2. order) : 0.1831951E+01  (-0.7369369E+00)
 number of electron      45.0000032 magnetization 
 augmentation part       28.7320136 magnetization 

 Broyden mixing:
  rms(total) = 0.15681E+00    rms(broyden)= 0.15669E+00
  rms(prec ) = 0.18695E+00
  weight for this iteration     100.00

 eigenvalues of (default mixing * dielectric matrix)
  average eigenvalue GAMMA=   0.7176
  0.8657  0.5695

 Free energy of the ion-electron system (eV)
  ---------------------------------------------------
  alpha Z        PSCENC =       120.87645803
  Ewald energy   TEWEN  =     38007.72388820
  -Hartree energ DENC   =    -43059.57023226
  -exchange      EXHF   =         0.00000000
  -V(xc)+E(xc)   XCENC  =       173.94202507
  PAW double counting   =      4316.35850662    -4882.00012951
  entropy T*S    EENTRO =        -0.01642023
  eigenvalues    EBANDS =      -270.35031366
  atomic energy  EATOM  =      5575.94961827
  Solvation  Ediel_sol  =         0.00000000
  ---------------------------------------------------
  free energy    TOTEN  =       -17.08659947 eV

  energy without entropy =      -17.07017924  energy(sigma->0) =      -17.07838936


--------------------------------------------------------------------------------------------------------




--------------------------------------- Iteration      1(   8)  ---------------------------------------


    POTLOK:  cpu time    0.0110: real time    0.0129
    SETDIJ:  cpu time    0.0030: real time    0.0031
    EDDIAG:  cpu time    0.1920: real time    0.1919
  RMM-DIIS:  cpu time    0.6019: real time    0.6022
    ORTHCH:  cpu time    0.0230: real time    0.0234
       DOS:  cpu time    0.0090: real time    0.0090
    CHARGE:  cpu time    0.0520: real time    0.0521
    MIXING:  cpu time    0.0010: real time    0.0005
    --------------------------------------------
      LOOP:  cpu time    0.8929: real time    0.8950

 eigenvalue-minimisations  :  3250
 total energy-change (2. order) :-0.2908276E-01  (-0.1383493E-01)
 number of electron      45.0000031 magnetization 
 augmentation part       28.6920505 magnetization 

 Broyden mixing:
  rms(total) = 0.19811E+00    rms(broyden)= 0.19792E+00
  rms(prec ) = 0.26500E+00
  weight for this iteration     100.00

 eigenvalues of (default mixing * dielectric matrix)
  average eigenvalue GAMMA=   0.9195
  1.9062  0.6225  0.2297

 Free energy of the ion-electron system (eV)
  ---------------------------------------------------
  alpha Z        PSCENC =       120.87645803
  Ewald energy   TEWEN  =     38007.72388820
  -Hartree energ DENC   =    -43059.59518218
  -exchange      EXHF   =         0.00000000
  -V(xc)+E(xc)   XCENC  =       173.84258010
  PAW double counting   =      4337.04520260    -4905.81912504
  entropy T*S    EENTRO =        -0.01069570
  eigenvalues    EBANDS =      -267.12842653
  atomic energy  EATOM  =      5575.94961827
  Solvation  Ediel_sol  =         0.00000000
  ---------------------------------------------------
  free energy    TOTEN  =       -17.11568224 eV

  energy without entropy =      -17.10498654  energy(sigma->0) =      -17.11033439


--------------------------------------------------------------------------------------------------------




--------------------------------------- Iteration      1(   9)  ---------------------------------------


    POTLOK:  cpu time    0.0110: real time    0.0111
    SETDIJ:  cpu time    0.0030: real time    0.0030
    EDDIAG:  cpu time    0.1920: real time    0.1940
  RMM-DIIS:  cpu time    0.6019: real time    0.6021
    ORTHCH:  cpu time    0.0240: real time    0.0243
       DOS:  cpu time    0.0100: real time    0.0089
    CHARGE:  cpu time    0.0510: real time    0.0521
    MIXING:  cpu time    0.0010: real time    0.0005
    --------------------------------------------
      LOOP:  cpu time    0.8939: real time    0.8960

 eigenvalue-minimisations  :  3212
 total energy-change (2. order) : 0.1079632E+00  (-0.6040078E-02)
 number of electron      45.0000031 magnetization 
 augmentation part       28.7040036 magnetization 

 Broyden mixing:
  rms(total) = 0.81795E-01    rms(broyden)= 0.81644E-01
  rms(prec ) = 0.92041E-01
  weight for this iteration     100.00

 eigenvalues of (default mixing * dielectric matrix)
  average eigenvalue GAMMA=   0.7633
  1.9018  0.6077  0.3556  0.1879

 Free energy of the ion-electron system (eV)
  ---------------------------------------------------
  alpha Z        PSCENC =       120.87645803
  Ewald energy   TEWEN  =     38007.72388820
  -Hartree energ DENC   =    -43062.20243521
  -exchange      EXHF   =         0.00000000
  -V(xc)+E(xc)   XCENC  =       173.59983657
  PAW double counting   =      4376.41590950    -4950.76593482
  entropy T*S    EENTRO =        -0.01563126
  eigenvalues    EBANDS =      -258.58942837
  atomic energy  EATOM  =      5575.94961827
  Solvation  Ediel_sol  =         0.00000000
  ---------------------------------------------------
  free energy    TOTEN  =       -17.00771908 eV

  energy without entropy =      -16.99208783  energy(sigma->0) =      -16.99990346


--------------------------------------------------------------------------------------------------------




--------------------------------------- Iteration      1(  10)  ---------------------------------------


    POTLOK:  cpu time    0.0110: real time    0.0119
    SETDIJ:  cpu time    0.0030: real time    0.0031
    EDDIAG:  cpu time    0.1920: real time    0.1920
  RMM-DIIS:  cpu time    0.5959: real time    0.5955
    ORTHCH:  cpu time    0.0220: real time    0.0234
       DOS:  cpu time    0.0090: real time    0.0090
    CHARGE:  cpu time    0.0530: real time    0.0522
    MIXING:  cpu time    0.0010: real time    0.0006
    --------------------------------------------
      LOOP:  cpu time    0.8869: real time    0.8877

 eigenvalue-minimisations  :  3193
 total energy-change (2. order) : 0.1143467E-01  (-0.1811170E-02)
 number of electron      45.0000031 magnetization 
 augmentation part       28.7288696 magnetization 

 Broyden mixing:
  rms(total) = 0.44995E-01    rms(broyden)= 0.44987E-01
  rms(prec ) = 0.48188E-01
  weight for this iteration     100.00

 eigenvalues of (default mixing * dielectric matrix)
  average eigenvalue GAMMA=   0.9096
  2.2365  1.0923  0.6496  0.2040  0.3656

 Free energy of the ion-electron system (eV)
  ---------------------------------------------------
  alpha Z        PSCENC =       120.87645803
  Ewald energy   TEWEN  =     38007.72388820
  -Hartree energ DENC   =    -43063.06887543
  -exchange      EXHF   =         0.00000000
  -V(xc)+E(xc)   XCENC  =       173.52410576
  PAW double counting   =      4381.76946993    -4956.56409891
  entropy T*S    EENTRO =        -0.01690834
  eigenvalues    EBANDS =      -257.18994193
  atomic energy  EATOM  =      5575.94961827
  Solvation  Ediel_sol  =         0.00000000
  ---------------------------------------------------
  free energy    TOTEN  =       -16.99628441 eV

  energy without entropy =      -16.97937607  energy(sigma->0) =      -16.98783024


--------------------------------------------------------------------------------------------------------




--------------------------------------- Iteration      1(  11)  ---------------------------------------


    POTLOK:  cpu time    0.0100: real time    0.0110
    SETDIJ:  cpu time    0.0040: real time    0.0031
    EDDIAG:  cpu time    0.1920: real time    0.1924
  RMM-DIIS:  cpu time    0.5909: real time    0.5912
    ORTHCH:  cpu time    0.0230: real time    0.0235
       DOS:  cpu time    0.0090: real time    0.0090
    CHARGE:  cpu time    0.0530: real time    0.0521
    MIXING:  cpu time    0.0010: real time    0.0006
    --------------------------------------------
      LOOP:  cpu time    0.8829: real time    0.8829

 eigenvalue-minimisations  :  3148
 total energy-change (2. order) : 0.5629128E-02  (-0.1036725E-02)
 number of electron      45.0000031 magnetization 
 augmentation part       28.7765521 magnetization 

 Broyden mixing:
  rms(total) = 0.12618E-01    rms(broyden)= 0.12597E-01
  rms(prec ) = 0.16407E-01
  weight for this iteration     100.00

 eigenvalues of (default mixing * dielectric matrix)
  average eigenvalue GAMMA=   0.9499
  2.2626  1.2858  0.9269  0.6524  0.2055  0.3662

 Free energy of the ion-electron system (eV)
  ---------------------------------------------------
  alpha Z        PSCENC =       120.87645803
  Ewald energy   TEWEN  =     38007.72388820
  -Hartree energ DENC   =    -43063.26288817
  -exchange      EXHF   =         0.00000000
  -V(xc)+E(xc)   XCENC  =       173.38905738
  PAW double counting   =      4392.44088019    -4968.09983507
  entropy T*S    EENTRO =        -0.01663698
  eigenvalues    EBANDS =      -255.99119714
  atomic energy  EATOM  =      5575.94961827
  Solvation  Ediel_sol  =         0.00000000
  ---------------------------------------------------
  free energy    TOTEN  =       -16.99065529 eV

  energy without entropy =      -16.97401830  energy(sigma->0) =      -16.98233679


--------------------------------------------------------------------------------------------------------




--------------------------------------- Iteration      1(  12)  ---------------------------------------


    POTLOK:  cpu time    0.0100: real time    0.0125
    SETDIJ:  cpu time    0.0030: real time    0.0030
    EDDIAG:  cpu time    0.1960: real time    0.1960
  RMM-DIIS:  cpu time    0.6139: real time    0.6134
    ORTHCH:  cpu time    0.0240: real time    0.0241
       DOS:  cpu time    0.0090: real time    0.0092
    CHARGE:  cpu time    0.0540: real time    0.0537
    MIXING:  cpu time    0.0010: real time    0.0006
    --------------------------------------------
      LOOP:  cpu time    0.9109: real time    0.9126

 eigenvalue-minimisations  :  3188
 total energy-change (2. order) : 0.8743428E-03  (-0.1244276E-03)
 number of electron      45.0000031 magnetization 
 augmentation part       28.7689744 magnetization 

 Broyden mixing:
  rms(total) = 0.91921E-02    rms(broyden)= 0.91893E-02
  rms(prec ) = 0.11247E-01
  weight for this iteration     100.00

 eigenvalues of (default mixing * dielectric matrix)
  average eigenvalue GAMMA=   0.9753
  2.2739  1.9161  1.0116  0.6488  0.2053  0.3502  0.4215

 Free energy of the ion-electron system (eV)
  ---------------------------------------------------
  alpha Z        PSCENC =       120.87645803
  Ewald energy   TEWEN  =     38007.72388820
  -Hartree energ DENC   =    -43065.91254099
  -exchange      EXHF   =         0.00000000
  -V(xc)+E(xc)   XCENC  =       173.38937601
  PAW double counting   =      4395.70887045    -4971.67753564
  entropy T*S    EENTRO =        -0.01676347
  eigenvalues    EBANDS =      -253.03115181
  atomic energy  EATOM  =      5575.94961827
  Solvation  Ediel_sol  =         0.00000000
  ---------------------------------------------------
  free energy    TOTEN  =       -16.98978094 eV

  energy without entropy =      -16.97301747  energy(sigma->0) =      -16.98139921


--------------------------------------------------------------------------------------------------------




--------------------------------------- Iteration      1(  13)  ---------------------------------------


    POTLOK:  cpu time    0.0100: real time    0.0113
    SETDIJ:  cpu time    0.0040: real time    0.0032
    EDDIAG:  cpu time    0.1970: real time    0.1979
  RMM-DIIS:  cpu time    0.6159: real time    0.6147
    ORTHCH:  cpu time    0.0230: real time    0.0242
       DOS:  cpu time    0.0090: real time    0.0093
    CHARGE:  cpu time    0.0540: real time    0.0536
    MIXING:  cpu time    0.0010: real time    0.0007
    --------------------------------------------
      LOOP:  cpu time    0.9139: real time    0.9148

 eigenvalue-minimisations  :  3141
 total energy-change (2. order) : 0.5235452E-03  (-0.5785816E-04)
 number of electron      45.0000031 magnetization 
 augmentation part       28.7697063 magnetization 

 Broyden mixing:
  rms(total) = 0.44273E-02    rms(broyden)= 0.44250E-02
  rms(prec ) = 0.56803E-02
  weight for this iteration     100.00

 eigenvalues of (default mixing * dielectric matrix)
  average eigenvalue GAMMA=   1.0126
  2.3261  2.3261  1.0320  0.8017  0.6614  0.2053  0.3528  0.3955

 Free energy of the ion-electron system (eV)
  ---------------------------------------------------
  alpha Z        PSCENC =       120.87645803
  Ewald energy   TEWEN  =     38007.72388820
  -Hartree energ DENC   =    -43067.79075116
  -exchange      EXHF   =         0.00000000
  -V(xc)+E(xc)   XCENC  =       173.38589880
  PAW double counting   =      4397.35601891    -4973.40513295
  entropy T*S    EENTRO =        -0.01682377
  eigenvalues    EBANDS =      -251.06843173
  atomic energy  EATOM  =      5575.94961827
  Solvation  Ediel_sol  =         0.00000000
  ---------------------------------------------------
  free energy    TOTEN  =       -16.98925740 eV

  energy without entropy =      -16.97243363  energy(sigma->0) =      -16.98084551


--------------------------------------------------------------------------------------------------------




--------------------------------------- Iteration      1(  14)  ---------------------------------------


    POTLOK:  cpu time    0.0110: real time    0.0128
    SETDIJ:  cpu time    0.0040: real time    0.0031
    EDDIAG:  cpu time    0.1970: real time    0.1978
  RMM-DIIS:  cpu time    0.5989: real time    0.5988
    ORTHCH:  cpu time    0.0240: real time    0.0241
       DOS:  cpu time    0.0090: real time    0.0092
    CHARGE:  cpu time    0.0540: real time    0.0537
    MIXING:  cpu time    0.0010: real time    0.0013
    --------------------------------------------
      LOOP:  cpu time    0.8989: real time    0.9009

 eigenvalue-minimisations  :  3095
 total energy-change (2. order) : 0.8100237E-04  (-0.2292962E-04)
 number of electron      45.0000031 magnetization 
 augmentation part       28.7749763 magnetization 

 Broyden mixing:
  rms(total) = 0.26136E-02    rms(broyden)= 0.26129E-02
  rms(prec ) = 0.40143E-02
  weight for this iteration     100.00

 eigenvalues of (default mixing * dielectric matrix)
  average eigenvalue GAMMA=   1.1329
  2.4678  2.4678  1.7323  0.9566  0.9566  0.6546  0.2053  0.3565  0.3988

 Free energy of the ion-electron system (eV)
  ---------------------------------------------------
  alpha Z        PSCENC =       120.87645803
  Ewald energy   TEWEN  =     38007.72388820
  -Hartree energ DENC   =    -43069.41903939
  -exchange      EXHF   =         0.00000000
  -V(xc)+E(xc)   XCENC  =       173.38366149
  PAW double counting   =      4397.27820799    -4973.21708529
  entropy T*S    EENTRO =        -0.01675065
  eigenvalues    EBANDS =      -249.54813506
  atomic energy  EATOM  =      5575.94961827
  Solvation  Ediel_sol  =         0.00000000
  ---------------------------------------------------
  free energy    TOTEN  =       -16.98917640 eV

  energy without entropy =      -16.97242575  energy(sigma->0) =      -16.98080107


--------------------------------------------------------------------------------------------------------




--------------------------------------- Iteration      1(  15)  ---------------------------------------


    POTLOK:  cpu time    0.0110: real time    0.0112
    SETDIJ:  cpu time    0.0030: real time    0.0031
    EDDIAG:  cpu time    0.1970: real time    0.1976
  RMM-DIIS:  cpu time    0.5749: real time    0.5743
    ORTHCH:  cpu time    0.0240: real time    0.0239
       DOS:  cpu time    0.0080: real time    0.0089
    CHARGE:  cpu time    0.0540: real time    0.0533
    MIXING:  cpu time    0.0010: real time    0.0007
    --------------------------------------------
      LOOP:  cpu time    0.8729: real time    0.8731

 eigenvalue-minimisations  :  2999
 total energy-change (2. order) :-0.1136194E-03  (-0.1135725E-04)
 number of electron      45.0000031 magnetization 
 augmentation part       28.7721356 magnetization 

 Broyden mixing:
  rms(total) = 0.14407E-02    rms(broyden)= 0.14399E-02
  rms(prec ) = 0.21451E-02
  weight for this iteration     100.00

 eigenvalues of (default mixing * dielectric matrix)
  average eigenvalue GAMMA=   1.1753
  2.8443  2.8443  1.7524  1.0319  1.0319  0.2053  0.6410  0.6410  0.3580  0.4032

 Free energy of the ion-electron system (eV)
  ---------------------------------------------------
  alpha Z        PSCENC =       120.87645803
  Ewald energy   TEWEN  =     38007.72388820
  -Hartree energ DENC   =    -43071.57537168
  -exchange      EXHF   =         0.00000000
  -V(xc)+E(xc)   XCENC  =       173.39187204
  PAW double counting   =      4397.29013010    -4973.23240118
  entropy T*S    EENTRO =        -0.01696174
  eigenvalues    EBANDS =      -247.39652205
  atomic energy  EATOM  =      5575.94961827
  Solvation  Ediel_sol  =         0.00000000
  ---------------------------------------------------
  free energy    TOTEN  =       -16.98929002 eV

  energy without entropy =      -16.97232827  energy(sigma->0) =      -16.98080914


--------------------------------------------------------------------------------------------------------




--------------------------------------- Iteration      1(  16)  ---------------------------------------


    POTLOK:  cpu time    0.0110: real time    0.0120
    SETDIJ:  cpu time    0.0030: real time    0.0031
    EDDIAG:  cpu time    0.1970: real time    0.1974
  RMM-DIIS:  cpu time    0.5709: real time    0.5702
    ORTHCH:  cpu time    0.0230: real time    0.0241
       DOS:  cpu time    0.0100: real time    0.0092
    CHARGE:  cpu time    0.0530: real time    0.0535
    MIXING:  cpu time    0.0010: real time    0.0008
    --------------------------------------------
      LOOP:  cpu time    0.8689: real time    0.8704

 eigenvalue-minimisations  :  2971
 total energy-change (2. order) :-0.2055760E-03  (-0.4700160E-05)
 number of electron      45.0000031 magnetization 
 augmentation part       28.7725569 magnetization 

 Broyden mixing:
  rms(total) = 0.90866E-03    rms(broyden)= 0.90851E-03
  rms(prec ) = 0.13785E-02
  weight for this iteration     100.00

 eigenvalues of (default mixing * dielectric matrix)
  average eigenvalue GAMMA=   1.3662
  4.4431  2.7498  2.2696  1.3198  1.0699  0.8456  0.6564  0.7089  0.2053  0.3577
  0.4019

 Free energy of the ion-electron system (eV)
  ---------------------------------------------------
  alpha Z        PSCENC =       120.87645803
  Ewald energy   TEWEN  =     38007.72388820
  -Hartree energ DENC   =    -43072.87385318
  -exchange      EXHF   =         0.00000000
  -V(xc)+E(xc)   XCENC  =       173.39490313
  PAW double counting   =      4396.83460112    -4972.73982077
  entropy T*S    EENTRO =        -0.01696827
  eigenvalues    EBANDS =      -246.13832212
  atomic energy  EATOM  =      5575.94961827
  Solvation  Ediel_sol  =         0.00000000
  ---------------------------------------------------
  free energy    TOTEN  =       -16.98949559 eV

  energy without entropy =      -16.97252732  energy(sigma->0) =      -16.98101146


--------------------------------------------------------------------------------------------------------




--------------------------------------- Iteration      1(  17)  ---------------------------------------


    POTLOK:  cpu time    0.0120: real time    0.0112
    SETDIJ:  cpu time    0.0030: real time    0.0031
    EDDIAG:  cpu time    0.1970: real time    0.1976
  RMM-DIIS:  cpu time    0.5619: real time    0.5616
    ORTHCH:  cpu time    0.0240: real time    0.0242
       DOS:  cpu time    0.0090: real time    0.0093
    CHARGE:  cpu time    0.0540: real time    0.0535
    MIXING:  cpu time    0.0010: real time    0.0008
    --------------------------------------------
      LOOP:  cpu time    0.8619: real time    0.8614

 eigenvalue-minimisations  :  2933
 total energy-change (2. order) :-0.2327620E-03  (-0.4912551E-05)
 number of electron      45.0000031 magnetization 
 augmentation part       28.7720837 magnetization 

 Broyden mixing:
  rms(total) = 0.58784E-03    rms(broyden)= 0.58763E-03
  rms(prec ) = 0.81357E-03
  weight for this iteration     100.00

 eigenvalues of (default mixing * dielectric matrix)
  average eigenvalue GAMMA=   1.4728
  4.8716  3.1353  2.2751  1.9111  1.3058  0.9346  0.9346  0.2053  0.6606  0.6800
  0.3577  0.4017

 Free energy of the ion-electron system (eV)
  ---------------------------------------------------
  alpha Z        PSCENC =       120.87645803
  Ewald energy   TEWEN  =     38007.72388820
  -Hartree energ DENC   =    -43074.09549825
  -exchange      EXHF   =         0.00000000
  -V(xc)+E(xc)   XCENC  =       173.39700764
  PAW double counting   =      4396.52081913    -4972.43615856
  entropy T*S    EENTRO =        -0.01700039
  eigenvalues    EBANDS =      -244.90886244
  atomic energy  EATOM  =      5575.94961827
  Solvation  Ediel_sol  =         0.00000000
  ---------------------------------------------------
  free energy    TOTEN  =       -16.98972835 eV

  energy without entropy =      -16.97272797  energy(sigma->0) =      -16.98122816


--------------------------------------------------------------------------------------------------------




--------------------------------------- Iteration      1(  18)  ---------------------------------------


    POTLOK:  cpu time    0.0110: real time    0.0124
    SETDIJ:  cpu time    0.0030: real time    0.0032
    EDDIAG:  cpu time    0.1980: real time    0.1979
  RMM-DIIS:  cpu time    0.4689: real time    0.4685
    ORTHCH:  cpu time    0.0230: real time    0.0238
       DOS:  cpu time    0.0090: real time    0.0092
    CHARGE:  cpu time    0.0540: real time    0.0534
    MIXING:  cpu time    0.0010: real time    0.0009
    --------------------------------------------
      LOOP:  cpu time    0.7679: real time    0.7691

 eigenvalue-minimisations  :  2445
 total energy-change (2. order) :-0.1149148E-03  (-0.1341738E-05)
 number of electron      45.0000031 magnetization 
 augmentation part       28.7722879 magnetization 

 Broyden mixing:
  rms(total) = 0.29719E-03    rms(broyden)= 0.29703E-03
  rms(prec ) = 0.43391E-03
  weight for this iteration     100.00

 eigenvalues of (default mixing * dielectric matrix)
  average eigenvalue GAMMA=   1.6097
  5.9502  3.6104  2.3620  2.2503  1.2926  1.2926  0.9649  0.8927  0.2053  0.6590
  0.6867  0.3576  0.4017

 Free energy of the ion-electron system (eV)
  ---------------------------------------------------
  alpha Z        PSCENC =       120.87645803
  Ewald energy   TEWEN  =     38007.72388820
  -Hartree energ DENC   =    -43074.66699003
  -exchange      EXHF   =         0.00000000
  -V(xc)+E(xc)   XCENC  =       173.39652410
  PAW double counting   =      4396.52859132    -4972.44987784
  entropy T*S    EENTRO =        -0.01700290
  eigenvalues    EBANDS =      -244.33105243
  atomic energy  EATOM  =      5575.94961827
  Solvation  Ediel_sol  =         0.00000000
  ---------------------------------------------------
  free energy    TOTEN  =       -16.98984327 eV

  energy without entropy =      -16.97284037  energy(sigma->0) =      -16.98134182


--------------------------------------------------------------------------------------------------------




--------------------------------------- Iteration      1(  19)  ---------------------------------------


    POTLOK:  cpu time    0.0110: real time    0.0112
    SETDIJ:  cpu time    0.0030: real time    0.0031
    EDDIAG:  cpu time    0.1970: real time    0.1974
  RMM-DIIS:  cpu time    0.4039: real time    0.4033
    ORTHCH:  cpu time    0.0230: real time    0.0236
       DOS:  cpu time    0.0090: real time    0.0090
    CHARGE:  cpu time    0.0520: real time    0.0519
    MIXING:  cpu time    0.0020: real time    0.0009
    --------------------------------------------
      LOOP:  cpu time    0.7009: real time    0.7004

 eigenvalue-minimisations  :  1996
 total energy-change (2. order) :-0.5543458E-04  (-0.3299595E-06)
 number of electron      45.0000031 magnetization 
 augmentation part       28.7725352 magnetization 

 Broyden mixing:
  rms(total) = 0.18506E-03    rms(broyden)= 0.18500E-03
  rms(prec ) = 0.24999E-03
  weight for this iteration     100.00

 eigenvalues of (default mixing * dielectric matrix)
  average eigenvalue GAMMA=   1.7207
  6.3577  4.3285  2.5067  2.5067  1.8590  1.1694  1.1694  0.2053  0.9844  0.8974
  0.6590  0.6873  0.3576  0.4017

 Free energy of the ion-electron system (eV)
  ---------------------------------------------------
  alpha Z        PSCENC =       120.87645803
  Ewald energy   TEWEN  =     38007.72388820
  -Hartree energ DENC   =    -43074.94240478
  -exchange      EXHF   =         0.00000000
  -V(xc)+E(xc)   XCENC  =       173.39595556
  PAW double counting   =      4396.57523701    -4972.49530494
  entropy T*S    EENTRO =        -0.01699897
  eigenvalues    EBANDS =      -244.05634709
  atomic energy  EATOM  =      5575.94961827
  Solvation  Ediel_sol  =         0.00000000
  ---------------------------------------------------
  free energy    TOTEN  =       -16.98989870 eV

  energy without entropy =      -16.97289974  energy(sigma->0) =      -16.98139922


--------------------------------------------------------------------------------------------------------




--------------------------------------- Iteration      1(  20)  ---------------------------------------


    POTLOK:  cpu time    0.0100: real time    0.0119
    SETDIJ:  cpu time    0.0030: real time    0.0030
    EDDIAG:  cpu time    0.1920: real time    0.1915
  RMM-DIIS:  cpu time    0.3819: real time    0.3817
    ORTHCH:  cpu time    0.0220: real time    0.0235
       DOS:  cpu time    0.0090: real time    0.0090
    CHARGE:  cpu time    0.0530: real time    0.0522
    MIXING:  cpu time    0.0010: real time    0.0010
    --------------------------------------------
      LOOP:  cpu time    0.6719: real time    0.6738

 eigenvalue-minimisations  :  1869
 total energy-change (2. order) :-0.3091715E-04  (-0.1441925E-06)
 number of electron      45.0000031 magnetization 
 augmentation part       28.7723136 magnetization 

 Broyden mixing:
  rms(total) = 0.85141E-04    rms(broyden)= 0.85047E-04
  rms(prec ) = 0.13092E-03
  weight for this iteration     100.00

 eigenvalues of (default mixing * dielectric matrix)
  average eigenvalue GAMMA=   1.8182
  6.9725  4.9315  2.6853  2.6853  2.1276  1.3297  1.3297  0.2053  1.0079  1.0079
  0.8840  0.6588  0.6882  0.3576  0.4017

 Free energy of the ion-electron system (eV)
  ---------------------------------------------------
  alpha Z        PSCENC =       120.87645803
  Ewald energy   TEWEN  =     38007.72388820
  -Hartree energ DENC   =    -43075.08299286
  -exchange      EXHF   =         0.00000000
  -V(xc)+E(xc)   XCENC  =       173.39625819
  PAW double counting   =      4396.62223511    -4972.54361751
  entropy T*S    EENTRO =        -0.01700978
  eigenvalues    EBANDS =      -243.91476727
  atomic energy  EATOM  =      5575.94961827
  Solvation  Ediel_sol  =         0.00000000
  ---------------------------------------------------
  free energy    TOTEN  =       -16.98992962 eV

  energy without entropy =      -16.97291984  energy(sigma->0) =      -16.98142473


--------------------------------------------------------------------------------------------------------




--------------------------------------- Iteration      1(  21)  ---------------------------------------


    POTLOK:  cpu time    0.0110: real time    0.0109
    SETDIJ:  cpu time    0.0030: real time    0.0031
    EDDIAG:  cpu time    0.1910: real time    0.1917
  RMM-DIIS:  cpu time    0.3849: real time    0.3845
    ORTHCH:  cpu time    0.0240: real time    0.0240
       DOS:  cpu time    0.0090: real time    0.0092
    CHARGE:  cpu time    0.0530: real time    0.0533
    MIXING:  cpu time    0.0010: real time    0.0010
    --------------------------------------------
      LOOP:  cpu time    0.6769: real time    0.6775

 eigenvalue-minimisations  :  1822
 total energy-change (2. order) :-0.1246848E-04  (-0.5308831E-07)
 number of electron      45.0000031 magnetization 
 augmentation part       28.7724209 magnetization 

 Broyden mixing:
  rms(total) = 0.54342E-04    rms(broyden)= 0.54261E-04
  rms(prec ) = 0.86518E-04
  weight for this iteration     100.00

 eigenvalues of (default mixing * dielectric matrix)
  average eigenvalue GAMMA=   1.9378
  7.8601  5.4971  3.3114  2.4524  2.4524  1.9080  0.2053  0.3576  0.4017  1.1914
  1.0640  1.0640  0.9996  0.8928  0.6588  0.6881

 Free energy of the ion-electron system (eV)
  ---------------------------------------------------
  alpha Z        PSCENC =       120.87645803
  Ewald energy   TEWEN  =     38007.72388820
  -Hartree energ DENC   =    -43075.14403342
  -exchange      EXHF   =         0.00000000
  -V(xc)+E(xc)   XCENC  =       173.39630591
  PAW double counting   =      4396.59238520    -4972.51028383
  entropy T*S    EENTRO =        -0.01700577
  eigenvalues    EBANDS =      -243.85727468
  atomic energy  EATOM  =      5575.94961827
  Solvation  Ediel_sol  =         0.00000000
  ---------------------------------------------------
  free energy    TOTEN  =       -16.98994209 eV

  energy without entropy =      -16.97293632  energy(sigma->0) =      -16.98143921


--------------------------------------------------------------------------------------------------------




--------------------------------------- Iteration      1(  22)  ---------------------------------------


    POTLOK:  cpu time    0.0120: real time    0.0126
    SETDIJ:  cpu time    0.0030: real time    0.0031
    EDDIAG:  cpu time    0.1980: real time    0.1984
  RMM-DIIS:  cpu time    0.3939: real time    0.3936
    ORTHCH:  cpu time    0.0240: real time    0.0242
       DOS:  cpu time    0.0090: real time    0.0092
    CHARGE:  cpu time    0.0540: real time    0.0538
    MIXING:  cpu time    0.0010: real time    0.0011
    --------------------------------------------
      LOOP:  cpu time    0.6949: real time    0.6960

 eigenvalue-minimisations  :  1788
 total energy-change (2. order) :-0.4794172E-05  (-0.1955719E-07)
 number of electron      45.0000031 magnetization 
 augmentation part       28.7723366 magnetization 

 Broyden mixing:
  rms(total) = 0.41119E-04    rms(broyden)= 0.41094E-04
  rms(prec ) = 0.45075E-04
  weight for this iteration     100.00

 eigenvalues of (default mixing * dielectric matrix)
  average eigenvalue GAMMA=   2.0367
  8.4156  5.8201  3.4541  3.0346  2.3736  2.3736  1.6948  0.2053  0.3576  0.4017
  1.2261  1.0433  0.9932  0.9932  0.8897  0.6588  0.6883

 Free energy of the ion-electron system (eV)
  ---------------------------------------------------
  alpha Z        PSCENC =       120.87645803
  Ewald energy   TEWEN  =     38007.72388820
  -Hartree energ DENC   =    -43075.17027038
  -exchange      EXHF   =         0.00000000
  -V(xc)+E(xc)   XCENC  =       173.39632640
  PAW double counting   =      4396.59959973    -4972.51992998
  entropy T*S    EENTRO =        -0.01700871
  eigenvalues    EBANDS =      -243.82862844
  atomic energy  EATOM  =      5575.94961827
  Solvation  Ediel_sol  =         0.00000000
  ---------------------------------------------------
  free energy    TOTEN  =       -16.98994688 eV

  energy without entropy =      -16.97293817  energy(sigma->0) =      -16.98144253


--------------------------------------------------------------------------------------------------------




--------------------------------------- Iteration      1(  23)  ---------------------------------------


    POTLOK:  cpu time    0.0110: real time    0.0112
    SETDIJ:  cpu time    0.0040: real time    0.0032
    EDDIAG:  cpu time    0.1970: real time    0.1975
  RMM-DIIS:  cpu time    0.3759: real time    0.3762
    ORTHCH:  cpu time    0.0240: real time    0.0242
       DOS:  cpu time    0.0100: real time    0.0093
    CHARGE:  cpu time    0.0530: real time    0.0536
    MIXING:  cpu time    0.0010: real time    0.0011
    --------------------------------------------
      LOOP:  cpu time    0.6759: real time    0.6763

 eigenvalue-minimisations  :  1624
 total energy-change (2. order) :-0.1384530E-05  (-0.7892068E-08)
 number of electron      45.0000031 magnetization 
 augmentation part       28.7724297 magnetization 

 Broyden mixing:
  rms(total) = 0.48040E-04    rms(broyden)= 0.48025E-04
  rms(prec ) = 0.53624E-04
  weight for this iteration     100.00

 eigenvalues of (default mixing * dielectric matrix)
  average eigenvalue GAMMA=   2.0462
  8.7300  6.0584  4.0361  2.9516  2.3947  2.3947  1.8705  0.2053  0.3576  0.4017
  1.1572  1.1572  0.6588  0.6884  0.9987  0.9808  0.9227  0.8674

 Free energy of the ion-electron system (eV)
  ---------------------------------------------------
  alpha Z        PSCENC =       120.87645803
  Ewald energy   TEWEN  =     38007.72388820
  -Hartree energ DENC   =    -43075.17448744
  -exchange      EXHF   =         0.00000000
  -V(xc)+E(xc)   XCENC  =       173.39620328
  PAW double counting   =      4396.59038444    -4972.50920897
  entropy T*S    EENTRO =        -0.01700773
  eigenvalues    EBANDS =      -243.82579635
  atomic energy  EATOM  =      5575.94961827
  Solvation  Ediel_sol  =         0.00000000
  ---------------------------------------------------
  free energy    TOTEN  =       -16.98994827 eV

  energy without entropy =      -16.97294054  energy(sigma->0) =      -16.98144441


--------------------------------------------------------------------------------------------------------




--------------------------------------- Iteration      1(  24)  ---------------------------------------


    POTLOK:  cpu time    0.0120: real time    0.0124
    SETDIJ:  cpu time    0.0030: real time    0.0031
    EDDIAG:  cpu time    0.1950: real time    0.1948
  RMM-DIIS:  cpu time    0.3100: real time    0.3099
    ORTHCH:  cpu time    0.0230: real time    0.0237
       DOS:  cpu time    0.0100: real time    0.0092
    --------------------------------------------
      LOOP:  cpu time    0.5529: real time    0.5532

 eigenvalue-minimisations  :   719
 total energy-change (2. order) :-0.1733424E-06  (-0.8505230E-09)
 number of electron      45.0000031 magnetization 
 augmentation part       28.7724297 magnetization 

 Free energy of the ion-electron system (eV)
  ---------------------------------------------------
  alpha Z        PSCENC =       120.87645803
[...]
      3      -6.4300      2.00000
      4      -6.2897      2.00000
      5      -6.2195      2.00000
      6      -6.1031      2.00000
      7      -6.0099      2.00000
      8      -5.9301      2.00000
      9      -5.7087      2.00000
     10      -5.6353      2.00000
     11      -5.4829      2.00000
     12      -5.0970      2.00000
     13      -5.0453      2.00000
     14      -4.8831      2.00000
     15      -4.7092      2.00000
     16      -4.5787      2.00000
     17      -4.5035      2.00000
     18      -4.2063      2.00000
     19      -4.1286      2.00000
     20      -4.0394      2.00000
     21      -1.9712      0.00000
     22      -0.4424      0.00000
     23       0.6099      0.00000
     24       1.7533      0.00000
     25       2.3149      0.00000
     26       2.4585      0.00000
     27       3.2131      0.00000
     28       3.8178      0.00000

 k-point    45 :      -0.2000    0.4000    0.0000
  band No.  band energies     occupation 
      1      -7.8810      2.00000
      2      -6.6961      2.00000
      3      -6.6062      2.00000
      4      -6.3652      2.00000
      5      -6.2854      2.00000
      6      -6.0549      2.00000
      7      -6.0054      2.00000
      8      -5.9040      2.00000
      9      -5.5214      2.00000
     10      -5.4872      2.00000
     11      -5.2906      2.00000
     12      -5.1496      2.00000
     13      -4.9987      2.00000
     14      -4.7547      2.00000
     15      -4.6511      2.00000
     16      -4.5321      2.00000
     17      -4.3399      2.00000
     18      -4.1642      2.00000
     19      -4.1157      2.00000
     20      -4.0139      2.00000
     21      -1.9324      0.00000
     22      -0.8376      0.00000
     23      -0.4715      0.00000
     24       0.1005      0.00000
     25       0.7583      0.00000
     26       2.4096      0.00000
     27       3.7528      0.00000
     28       5.0273      0.00000

 k-point    46 :      -0.1000    0.4000    0.0000
  band No.  band energies     occupation 
      1      -8.2747      2.00000
      2      -7.0365      2.00000
      3      -6.8907      2.00000
      4      -6.5442      2.00000
      5      -6.4597      2.00000
      6      -6.1860      2.00000
      7      -5.8429      2.00000
      8      -5.6641      2.00000
      9      -5.4370      2.00000
     10      -5.3135      2.00000
     11      -5.2285      2.00000
     12      -4.9603      2.00000
     13      -4.7907      2.00000
     14      -4.6430      2.00000
     15      -4.4609      2.00000
     16      -4.3182      2.00000
     17      -4.1891      2.00000
     18      -4.1314      2.00000
     19      -4.0685      2.00000
     20      -3.9228      2.00000
     21      -2.8987      2.00000
     22      -2.4448      1.60317
     23      -1.6894      0.00000
     24      -0.5375      0.00000
     25       0.2847      0.00000
     26       2.1745      0.00000
     27       3.3549      0.00000
     28       4.9042      0.00000

 k-point    47 :       0.0000    0.5000    0.0000
  band No.  band energies     occupation 
      1      -8.3745      2.00000
      2      -7.1141      2.00000
      3      -6.9881      2.00000
      4      -6.6332      2.00000
      5      -6.5501      2.00000
      6      -6.2653      2.00000
      7      -5.8044      2.00000
      8      -5.4786      2.00000
      9      -5.4640      2.00000
     10      -5.3207      2.00000
     11      -5.0519      2.00000
     12      -4.9681      2.00000
     13      -4.5327      2.00000
     14      -4.4795      2.00000
     15      -4.3104      2.00000
     16      -4.1610      2.00000
     17      -4.1057      2.00000
     18      -4.0054      2.00000
     19      -3.9510      2.00000
     20      -3.7538      2.00000
     21      -2.7376      2.00000
     22      -2.3772      0.91333
     23      -1.7616      0.00000
     24      -1.2312      0.00000
     25      -0.8462      0.00000
     26       1.8736      0.00000
     27       3.0342      0.00000
     28       4.5073      0.00000

 k-point    48 :       0.1000    0.5000    0.0000
  band No.  band energies     occupation 
      1      -8.2741      2.00000
      2      -7.0368      2.00000
      3      -6.8903      2.00000
      4      -6.5442      2.00000
      5      -6.4602      2.00000
      6      -6.1888      2.00000
      7      -5.8335      2.00000
      8      -5.6765      2.00000
      9      -5.4290      2.00000
     10      -5.3034      2.00000
     11      -5.2497      2.00000
     12      -4.9395      2.00000
     13      -4.7885      2.00000
     14      -4.6672      2.00000
     15      -4.4533      2.00000
     16      -4.3163      2.00000
     17      -4.1920      2.00000
     18      -4.1271      2.00000
     19      -4.0694      2.00000
     20      -3.9250      2.00000
     21      -2.9060      2.00000
     22      -2.4292      1.46911
     23      -1.6840      0.00000
     24      -0.5499      0.00000
     25       0.2782      0.00000
     26       2.1775      0.00000
     27       3.3578      0.00000
     28       4.9088      0.00000

 k-point    49 :       0.2000    0.5000    0.0000
  band No.  band energies     occupation 
      1      -8.0188      2.00000
      2      -6.8865      2.00000
      3      -6.6894      2.00000
      4      -6.4272      2.00000
      5      -6.3052      2.00000
      6      -6.0717      2.00000
      7      -5.9529      2.00000
      8      -5.7921      2.00000
      9      -5.6157      2.00000
     10      -5.5700      2.00000
     11      -5.4179      2.00000
     12      -5.1288      2.00000
     13      -5.0408      2.00000
     14      -4.8984      2.00000
     15      -4.6983      2.00000
     16      -4.6140      2.00000
     17      -4.4352      2.00000
     18      -4.2604      2.00000
     19      -4.0780      2.00000
     20      -3.9454      2.00000
     21      -3.0443      2.00000
     22      -2.4219      1.39947
     23      -1.4235      0.00000
     24       0.3456      0.00000
     25       2.1087      0.00000
     26       3.2650      0.00000
     27       4.3011      0.00000
     28       5.5938      0.00000

 k-point    50 :       0.3000    0.5000    0.0000
  band No.  band energies     occupation 
      1      -7.7884      2.00000
      2      -6.9409      2.00000
      3      -6.7318      2.00000
      4      -6.5038      2.00000
      5      -6.3245      2.00000
      6      -6.2168      2.00000
      7      -6.0041      2.00000
      8      -5.8435      2.00000
      9      -5.6210      2.00000
     10      -5.5712      2.00000
     11      -5.4517      2.00000
     12      -5.1195      2.00000
     13      -5.0113      2.00000
     14      -4.8649      2.00000
     15      -4.7026      2.00000
     16      -4.5855      2.00000
     17      -4.4318      2.00000
     18      -4.2526      2.00000
     19      -4.0862      2.00000
     20      -3.9452      2.00000
     21      -3.1553      2.00000
     22      -2.4041      1.21356
     23      -1.3112      0.00000
     24       0.6553      0.00000
     25       2.5854      0.00000
     26       3.5650      0.00000
     27       4.0735      0.00000
     28       4.8065      0.00000

 k-point    51 :       0.4000    0.5000    0.0000
  band No.  band energies     occupation 
      1      -7.8045      2.00000
      2      -7.0741      2.00000
      3      -6.9099      2.00000
      4      -6.7470      2.00000
      5      -6.5320      2.00000
      6      -6.3787      2.00000
      7      -6.1009      2.00000
      8      -5.6256      2.00000
      9      -5.4392      2.00000
     10      -5.3785      2.00000
     11      -5.2747      2.00000
     12      -5.0265      2.00000
     13      -4.8503      2.00000
     14      -4.5613      2.00000
     15      -4.4429      2.00000
     16      -4.2972      2.00000
     17      -4.1977      2.00000
     18      -4.1324      2.00000
     19      -4.0832      2.00000
     20      -3.9224      2.00000
     21      -3.3916      2.00000
     22      -2.3756      0.89584
     23      -1.3806      0.00000
     24       0.0660      0.00000
     25       1.3936      0.00000
     26       2.5193      0.00000
     27       3.2885      0.00000
     28       4.1176      0.00000

 k-point    52 :       0.5000    0.5000    0.0000
  band No.  band energies     occupation 
      1      -7.8595      2.00000
      2      -7.1562      2.00000
      3      -6.9616      2.00000
      4      -6.8664      2.00000
      5      -6.6227      2.00000
      6      -6.4653      2.00000
      7      -6.1201      2.00000
      8      -5.4621      2.00000
      9      -5.4244      2.00000
     10      -5.2674      2.00000
     11      -5.2014      2.00000
     12      -4.9541      2.00000
     13      -4.5864      2.00000
     14      -4.4650      2.00000
     15      -4.3369      2.00000
     16      -4.2504      2.00000
     17      -4.1013      2.00000
     18      -4.0070      2.00000
     19      -3.9517      2.00000
     20      -3.7546      2.00000
     21      -3.6472      2.00000
     22      -2.2490      0.05470
     23      -1.4032      0.00000
     24      -0.8688      0.00000
     25       1.1011      0.00000
     26       2.1907      0.00000
     27       3.1118      0.00000
     28       3.5840      0.00000


--------------------------------------------------------------------------------------------------------


 soft charge-density along one line, spin component           1
         0         1         2         3         4         5         6         7         8         9
 total charge-density along one line
 
 pseudopotential strength for first ion, spin component:           1
-10.854  -0.000   0.000  -0.005   0.000   1.746   0.000  -0.000
 -0.000 -10.827  -0.000  -0.000  -0.004   0.000   1.733   0.000
  0.000  -0.000 -10.829  -0.000   0.003  -0.000   0.000   1.734
 -0.005  -0.000  -0.000 -10.831  -0.000   0.002   0.000   0.000
  0.000  -0.004   0.003  -0.000 -10.854  -0.000   0.002  -0.001
  1.746   0.000  -0.000   0.002  -0.000   0.773  -0.000   0.000
  0.000   1.733   0.000   0.000   0.002  -0.000   0.779  -0.000
 -0.000   0.000   1.734   0.000  -0.001   0.000  -0.000   0.779
  0.002   0.000   0.000   1.735   0.000  -0.001  -0.000  -0.000
 -0.000   0.002  -0.001   0.000   1.746   0.000  -0.001   0.001
  0.000   0.000  -0.005   0.000   0.000  -0.000  -0.000   0.002
 -0.000  -0.000   0.000  -0.000  -0.000   0.000   0.000  -0.000
  0.000  -0.010   0.000   0.000   0.000  -0.000   0.006  -0.000
  0.000  -0.000  -0.011   0.000   0.000  -0.000   0.000   0.006
  0.000   0.000  -0.000  -0.010   0.000   0.000  -0.000   0.000
 -0.000   0.005  -0.000   0.000  -0.000   0.000  -0.003   0.000
  0.000  -0.000   0.006  -0.000  -0.000  -0.000   0.000  -0.003
 -0.000   0.000   0.000   0.005  -0.000   0.000  -0.000  -0.000
 total augmentation occupancy for first ion, spin component:           1
  1.927  -0.000   0.000  -0.002   0.000  -0.003   0.000   0.000   0.009   0.000  -0.000   0.000   0.000  -0.000   0.005   0.000
 -0.000   1.932  -0.000   0.000  -0.002   0.000  -0.036   0.000  -0.000   0.010   0.001   0.000  -0.004   0.000   0.000  -0.005
  0.000  -0.000   1.934  -0.000   0.001   0.000   0.000  -0.026   0.000  -0.000   0.015   0.040   0.001   0.035   0.000  -0.000
 -0.002   0.000  -0.000   1.932  -0.000   0.010  -0.000   0.000  -0.036   0.000   0.000   0.000   0.000   0.000  -0.002   0.000
  0.000  -0.002   0.001  -0.000   1.927   0.000   0.010  -0.000   0.000  -0.003   0.000   0.000   0.006  -0.001  -0.000  -0.001
 -0.003   0.000   0.000   0.010   0.000   0.059  -0.000   0.000   0.001   0.000   0.000   0.000  -0.000   0.000   0.005   0.000
  0.000  -0.036   0.000  -0.000   0.010  -0.000   0.038  -0.000   0.000   0.001  -0.001  -0.000   0.030  -0.000  -0.000  -0.002
  0.000   0.000  -0.026   0.000  -0.000   0.000  -0.000   0.055  -0.000   0.000  -0.077   0.014  -0.001   0.041  -0.000   0.000
  0.009  -0.000   0.000  -0.036   0.000   0.001   0.000  -0.000   0.038  -0.000  -0.000  -0.000  -0.000  -0.000   0.029   0.000
  0.000   0.010  -0.000   0.000  -0.003   0.000   0.001   0.000  -0.000   0.059  -0.001  -0.000   0.005   0.000   0.000  -0.000
 -0.000   0.001   0.015   0.000   0.000   0.000  -0.001  -0.077  -0.000  -0.001   1.239  -0.278  -0.001   0.068  -0.000   0.000
  0.000   0.000   0.040   0.000   0.000   0.000  -0.000   0.014  -0.000  -0.000  -0.278   0.108  -0.000  -0.044  -0.000  -0.000
  0.000  -0.004   0.001   0.000   0.006  -0.000   0.030  -0.001  -0.000   0.005  -0.001  -0.000   0.168  -0.001  -0.000  -0.010
 -0.000   0.000   0.035   0.000  -0.001   0.000  -0.000   0.041  -0.000   0.000   0.068  -0.044  -0.001   0.090   0.000   0.000
  0.005   0.000   0.000  -0.002  -0.000   0.005  -0.000  -0.000   0.029   0.000  -0.000  -0.000  -0.000   0.000   0.169   0.000
  0.000  -0.005  -0.000   0.000  -0.001   0.000  -0.002   0.000   0.000  -0.000   0.000  -0.000  -0.010   0.000   0.000   0.001
  0.000   0.000  -0.008   0.000  -0.000  -0.000  -0.000  -0.002  -0.000  -0.000  -0.013   0.006   0.000  -0.006   0.000  -0.000
 -0.001   0.000  -0.000  -0.005   0.000  -0.000   0.000   0.000  -0.002   0.000   0.000  -0.000   0.000   0.000  -0.010  -0.000


------------------------ aborting loop because EDIFF is reached ----------------------------------------


 


 total charge     
 
# of ion       s       p       d       tot
------------------------------------------
    1        0.454   0.283   9.218   9.956
    2        0.441   0.363   9.219  10.024
    3        0.453   0.371   9.209  10.033
    4        0.451   0.458   9.203  10.112
    5        0.517   0.017   0.000   0.534
--------------------------------------------------
tot          2.317   1.492  36.850  40.659
 
    CHARGE:  cpu time    0.0520: real time    0.0522
    FORLOC:  cpu time    0.0010: real time    0.0013
    FORNL :  cpu time    0.2850: real time    0.2839
    STRESS:  cpu time    0.8559: real time    0.8562
    FORCOR:  cpu time    0.0110: real time    0.0111
    FORHAR:  cpu time    0.0030: real time    0.0029
    MIXING:  cpu time    0.0010: real time    0.0011
    OFIELD:  cpu time    0.0000: real time    0.0000

  FORCE on cell =-STRESS in cart. coord.  units (eV):
  Direction    XX          YY          ZZ          XY          YZ          ZX
  --------------------------------------------------------------------------------------
  Alpha Z   120.87646   120.87646   120.87646
  Ewald   40959.01132 40909.49464-43860.78574     0.03456     0.29180    -7.25185
  Hartree 42255.53445 42236.82341-41417.17345     0.02391     0.10949    -1.98532
  E(xc)    -253.00176  -253.17952  -253.58377    -0.00464     0.00001    -0.01736
  Local  -83479.57326-83416.51034 85009.03587    -0.03313    -0.32778     7.95087
  n-local  -155.59236  -155.76090  -156.25406    -0.00057    -0.03436    -0.17846
  augment   224.92586   226.66869   226.34537    -0.03068    -0.03081     0.46770
  Kinetic   323.11578   326.74158   326.72748    -0.00410    -0.14754     0.37091
  Fock        0.00000     0.00000     0.00000     0.00000     0.00000     0.00000
  -------------------------------------------------------------------------------------
  Total      -4.70350    -4.84599    -4.81184    -0.01464    -0.13919    -0.64351
  in kB     -43.34297   -44.65606   -44.34133    -0.13494    -1.28269    -5.92998
  external pressure =      -44.11 kB  Pullay stress =        0.00 kB


 VOLUME and BASIS-vectors are now :
 -----------------------------------------------------------------------------
  energy-cutoff  :      250.00
  volume of cell :      173.87
      direct lattice vectors                 reciprocal lattice vectors
     2.573868684  0.000000000  0.000000000     0.388520209 -0.224312248  0.000000000
     1.286934342  2.229035666  0.000000000     0.000000000  0.448624495  0.000000000
     0.000000000  0.000000000 30.304664940     0.000000000  0.000000000  0.032998220

  length of vectors
     2.573868684  2.573868684 30.304664940     0.448624495  0.448624495  0.032998220


 FORCES acting on ions
    electron-ion (+dipol)            ewald-force                    non-local-force                 convergence-correction
 -----------------------------------------------------------------------------------------------
   -.592E-03 -.784E-01 0.421E+04   0.498E-06 0.283E-07 -.421E+04   0.525E-03 0.899E-01 -.147E+01   0.211E-07 -.548E-06 0.215E-03
   -.104E-02 -.535E-01 0.149E+04   -.310E-04 0.252E-03 -.149E+04   0.125E-02 0.561E-01 -.788E+00   0.165E-06 0.833E-05 0.824E-03
   0.653E-02 0.247E+00 -.124E+04   -.116E-01 -.945E-01 0.124E+04   0.110E-01 -.135E+00 0.890E-01   -.432E-05 -.672E-05 0.804E-03
   -.719E+01 0.668E-01 -.398E+04   0.729E+01 0.563E-07 0.398E+04   0.530E+00 -.832E-01 -.513E+00   0.961E-05 -.221E-04 -.398E-03
   0.633E+01 -.108E+00 -.483E+03   -.728E+01 0.943E-01 0.485E+03   0.313E+00 -.827E-03 -.161E+01   -.673E-06 -.346E-06 -.529E-04
 -----------------------------------------------------------------------------------------------
   -.856E+00 0.733E-01 0.429E+01   -.150E-12 0.336E-13 -.568E-12   0.856E+00 -.733E-01 -.430E+01   0.480E-05 -.214E-04 0.139E-02
 
 
 POSITION                                       TOTAL-FORCE (eV/Angst)
 -----------------------------------------------------------------------------------
      0.00000      0.00000     12.00000         0.000037      0.011448      0.142954
      1.28693      0.74301     14.10155         0.000274      0.002807     -0.019089
      2.57387      1.48602     16.20311         0.006003      0.016762     -0.278903
      0.00000      0.00000     18.30466         0.628593     -0.016323     -0.060764
      1.38693      0.00000     19.30466        -0.634906     -0.014695      0.215801
 -----------------------------------------------------------------------------------
    total drift:                               -0.000516     -0.000068      0.000401


--------------------------------------------------------------------------------------------------------



  FREE ENERGIE OF THE ION-ELECTRON SYSTEM (eV)
  ---------------------------------------------------
  free  energy   TOTEN  =       -16.98994844 eV

  energy  without entropy=      -16.97294022  energy(sigma->0) =      -16.98144433
 


--------------------------------------------------------------------------------------------------------


    POTLOK:  cpu time    0.0140: real time    0.0137


--------------------------------------------------------------------------------------------------------


     LOOP+:  cpu time   21.7847: real time   21.8963
    4ORBIT:  cpu time    0.0000: real time    0.0000
 


 total charge     
 
# of ion       s       p       d       tot
------------------------------------------
    1        0.454   0.283   9.218   9.956
    2        0.441   0.363   9.219  10.024
    3        0.453   0.371   9.209  10.033
    4        0.451   0.458   9.203  10.112
    5        0.517   0.017   0.000   0.534
--------------------------------------------------
tot          2.317   1.492  36.850  40.659
 

 total amount of memory used by VASP MPI-rank0    43139. kBytes
=======================================================================

   base      :      30000. kBytes
   nonlr-proj:        676. kBytes
   fftplans  :        995. kBytes
   grid      :       1592. kBytes
   one-center:         46. kBytes
   wavefun   :       9830. kBytes
 
  
  
 General timing and accounting informations for this job:
 ========================================================
  
                  Total CPU time used (sec):       23.280
                            User time (sec):       22.869
                          System time (sec):        0.412
                         Elapsed time (sec):       23.707
  
                   Maximum memory used (kb):       43836.
                   Average memory used (kb):           0.
  
                          Minor page faults:        22606
                          Major page faults:          161
                 Voluntary context switches:         3562
