PROCAR lm decomposed
# of k-points:   52         # of bands:   28         # of ions:    5

 k-point     1 :    0.00000000 0.00000000 0.00000000     weight = 0.01000000

band     1 # energy  -11.61865783 # occ.  2.00000000
 
ion      s     py     pz     px    dxy    dyz    dz2    dxz  x2-y2    tot
    1  0.008  0.000  0.001  0.000  0.000  0.000  0.000  0.000  0.000  0.009
    2  0.049  0.000  0.002  0.000  0.000  0.000  0.000  0.000  0.000  0.050
    3  0.141  0.000  0.002  0.000  0.000  0.000  0.000  0.000  0.000  0.144
    4  0.299  0.000  0.000  0.000  0.000  0.000  0.006  0.001  0.006  0.312
    5  0.087  0.000  0.001  0.000  0.000  0.000  0.000  0.000  0.000  0.088
tot    0.584  0.000  0.007  0.000  0.000  0.000  0.006  0.001  0.006  0.604
 
band     2 # energy  -10.63565285 # occ.  2.00000000
 
ion      s     py     pz     px    dxy    dyz    dz2    dxz  x2-y2    tot
    1  0.118  0.000  0.010  0.000  0.000  0.000  0.000  0.000  0.000  0.129
    2  0.258  0.000  0.000  0.000  0.000  0.000  0.003  0.000  0.000  0.261
    3  0.043  0.000  0.018  0.000  0.000  0.000  0.001  0.000  0.000  0.062
    4  0.076  0.000  0.009  0.000  0.000  0.000  0.010  0.000  0.004  0.099
    5  0.044  0.000  0.000  0.000  0.000  0.000  0.000  0.000  0.000  0.044
tot    0.539  0.000  0.038  0.000  0.000  0.000  0.013  0.000  0.004  0.595
 
band     3 # energy   -9.03449389 # occ.  2.00000000
 
ion      s     py     pz     px    dxy    dyz    dz2    dxz  x2-y2    tot
    1  0.188  0.000  0.002  0.000  0.000  0.000  0.020  0.000  0.000  0.211
    2  0.003  0.000  0.045  0.000  0.000  0.000  0.001  0.000  0.000  0.049
    3  0.202  0.000  0.000  0.000  0.000  0.000  0.039  0.000  0.000  0.241
    4  0.010  0.000  0.033  0.000  0.000  0.000  0.022  0.001  0.007  0.072
    5  0.035  0.000  0.000  0.000  0.000  0.000  0.000  0.000  0.000  0.036
tot    0.438  0.000  0.081  0.000  0.000  0.000  0.082  0.001  0.007  0.609
 
band     4 # energy   -7.58641691 # occ.  2.00000000
 
ion      s     py     pz     px    dxy    dyz    dz2    dxz  x2-y2    tot
    1  0.108  0.000  0.005  0.000  0.000  0.000  0.131  0.000  0.000  0.244
    2  0.100  0.000  0.003  0.000  0.000  0.000  0.226  0.000  0.000  0.329
    3  0.032  0.000  0.014  0.000  0.000  0.000  0.089  0.000  0.000  0.136
    4  0.000  0.000  0.012  0.000  0.000  0.000  0.012  0.000  0.004  0.028
    5  0.007  0.000  0.000  0.000  0.000  0.000  0.000  0.000  0.000  0.007
tot    0.247  0.000  0.034  0.000  0.000  0.000  0.458  0.000  0.004  0.744
 
band     5 # energy   -6.33570062 # occ.  2.00000000
 
ion      s     py     pz     px    dxy    dyz    dz2    dxz  x2-y2    tot
    1  0.000  0.000  0.000  0.000  0.000  0.000  0.002  0.000  0.000  0.002
    2  0.001  0.000  0.000  0.000  0.000  0.000  0.000  0.000  0.000  0.001
    3  0.000  0.000  0.004  0.000  0.000  0.001  0.083  0.000  0.000  0.090
    4  0.011  0.000  0.038  0.000  0.000  0.000  0.493  0.012  0.133  0.688
    5  0.054  0.000  0.000  0.000  0.000  0.000  0.000  0.000  0.000  0.054
tot    0.066  0.000  0.043  0.000  0.000  0.001  0.579  0.012  0.133  0.835
 
band     6 # energy   -5.70660276 # occ.  2.00000000
 
ion      s     py     pz     px    dxy    dyz    dz2    dxz  x2-y2    tot
    1  0.000  0.000  0.001  0.000  0.000  0.000  0.016  0.000  0.000  0.017
    2  0.001  0.000  0.000  0.000  0.000  0.000  0.023  0.000  0.001  0.026
    3  0.000  0.000  0.012  0.000  0.000  0.009  0.195  0.000  0.003  0.220
    4  0.008  0.000  0.004  0.000  0.000  0.000  0.305  0.001  0.356  0.673
    5  0.001  0.000  0.001  0.000  0.000  0.000  0.000  0.000  0.000  0.002
tot    0.010  0.000  0.018  0.000  0.000  0.009  0.539  0.001  0.360  0.938
 
band     7 # energy   -5.55435388 # occ.  2.00000000
 
ion      s     py     pz     px    dxy    dyz    dz2    dxz  x2-y2    tot
    1  0.000  0.000  0.000  0.000  0.000  0.000  0.000  0.000  0.000  0.000
    2  0.000  0.000  0.000  0.000  0.012  0.000  0.000  0.000  0.000  0.013
    3  0.000  0.000  0.000  0.000  0.012  0.000  0.000  0.035  0.001  0.048
    4  0.000  0.000  0.000  0.000  0.903  0.002  0.000  0.002  0.000  0.907
    5  0.000  0.000  0.000  0.000  0.000  0.000  0.000  0.000  0.000  0.000
tot    0.000  0.000  0.000  0.000  0.927  0.002  0.000  0.037  0.001  0.968
 
band     8 # energy   -5.48097334 # occ.  2.00000000
 
ion      s     py     pz     px    dxy    dyz    dz2    dxz  x2-y2    tot
    1  0.002  0.000  0.000  0.000  0.000  0.000  0.014  0.000  0.000  0.015
    2  0.000  0.000  0.009  0.000  0.000  0.000  0.138  0.000  0.007  0.155
    3  0.003  0.000  0.001  0.000  0.000  0.012  0.463  0.000  0.006  0.486
    4  0.001  0.000  0.008  0.000  0.000  0.000  0.015  0.000  0.252  0.276
    5  0.001  0.000  0.000  0.000  0.000  0.000  0.000  0.000  0.000  0.002
tot    0.007  0.000  0.019  0.000  0.000  0.013  0.630  0.000  0.265  0.934
 
band     9 # energy   -5.36530283 # occ.  2.00000000
 
ion      s     py     pz     px    dxy    dyz    dz2    dxz  x2-y2    tot
    1  0.000  0.000  0.002  0.000  0.006  0.000  0.114  0.000  0.000  0.123
    2  0.001  0.000  0.000  0.000  0.002  0.000  0.163  0.028  0.020  0.215
    3  0.001  0.000  0.003  0.000  0.392  0.003  0.002  0.015  0.025  0.442
    4  0.000  0.000  0.003  0.000  0.001  0.001  0.001  0.129  0.040  0.174
    5  0.001  0.000  0.000  0.000  0.000  0.000  0.000  0.000  0.000  0.001
tot    0.003  0.000  0.009  0.001  0.401  0.005  0.279  0.172  0.085  0.955
 
band    10 # energy   -5.35073257 # occ.  2.00000000
 
ion      s     py     pz     px    dxy    dyz    dz2    dxz  x2-y2    tot
    1  0.000  0.000  0.003  0.000  0.005  0.000  0.209  0.000  0.001  0.219
    2  0.002  0.000  0.002  0.000  0.003  0.001  0.235  0.021  0.026  0.289
    3  0.001  0.000  0.004  0.000  0.283  0.002  0.001  0.009  0.034  0.334
    4  0.000  0.000  0.006  0.000  0.002  0.001  0.001  0.066  0.024  0.099
    5  0.002  0.000  0.000  0.000  0.000  0.000  0.000  0.000  0.000  0.002
tot    0.005  0.000  0.014  0.000  0.293  0.005  0.446  0.096  0.084  0.943
 
band    11 # energy   -5.32890871 # occ.  2.00000000
 
ion      s     py     pz     px    dxy    dyz    dz2    dxz  x2-y2    tot
    1  0.000  0.000  0.000  0.000  0.000  0.000  0.032  0.000  0.017  0.049
    2  0.000  0.000  0.001  0.000  0.001  0.051  0.022  0.000  0.021  0.097
    3  0.000  0.000  0.000  0.000  0.000  0.018  0.000  0.000  0.690  0.709
    4  0.000  0.000  0.001  0.000  0.001  0.087  0.000  0.000  0.019  0.108
    5  0.000  0.000  0.000  0.000  0.000  0.000  0.000  0.000  0.000  0.000
tot    0.001  0.000  0.002  0.000  0.002  0.157  0.055  0.000  0.746  0.963
 
band    12 # energy   -5.28664397 # occ.  2.00000000
 
ion      s     py     pz     px    dxy    dyz    dz2    dxz  x2-y2    tot
    1  0.000  0.000  0.000  0.000  0.009  0.001  0.003  0.026  0.000  0.040
    2  0.000  0.000  0.000  0.000  0.805  0.000  0.001  0.006  0.034  0.846
    3  0.000  0.000  0.000  0.000  0.000  0.002  0.000  0.043  0.000  0.045
    4  0.000  0.000  0.000  0.000  0.024  0.000  0.000  0.009  0.001  0.035
    5  0.000  0.000  0.000  0.000  0.000  0.000  0.000  0.000  0.000  0.000
tot    0.000  0.000  0.000  0.000  0.838  0.004  0.005  0.084  0.035  0.966
 
band    13 # energy   -5.28507894 # occ.  2.00000000
 
ion      s     py     pz     px    dxy    dyz    dz2    dxz  x2-y2    tot
    1  0.000  0.000  0.000  0.000  0.000  0.027  0.018  0.001  0.005  0.051
    2  0.000  0.000  0.001  0.000  0.036  0.014  0.005  0.000  0.752  0.808
    3  0.000  0.000  0.000  0.000  0.000  0.050  0.001  0.002  0.017  0.070
    4  0.000  0.000  0.000  0.000  0.002  0.012  0.000  0.000  0.020  0.035
    5  0.000  0.000  0.000  0.000  0.000  0.000  0.000  0.000  0.000  0.000
tot    0.000  0.000  0.001  0.000  0.038  0.103  0.024  0.004  0.794  0.965
 
band    14 # energy   -5.03445386 # occ.  2.00000000
 
ion      s     py     pz     px    dxy    dyz    dz2    dxz  x2-y2    tot
    1  0.000  0.000  0.000  0.000  0.782  0.000  0.002  0.008  0.028  0.821
    2  0.000  0.000  0.000  0.000  0.003  0.003  0.000  0.090  0.000  0.097
    3  0.000  0.000  0.000  0.000  0.008  0.000  0.000  0.002  0.001  0.012
    4  0.000  0.000  0.000  0.000  0.000  0.000  0.000  0.037  0.000  0.038
    5  0.000  0.000  0.000  0.000  0.000  0.000  0.000  0.000  0.000  0.000
tot    0.000  0.000  0.001  0.000  0.794  0.003  0.003  0.137  0.030  0.968
 
band    15 # energy   -5.03038799 # occ.  2.00000000
 
ion      s     py     pz     px    dxy    dyz    dz2    dxz  x2-y2    tot
    1  0.000  0.000  0.000  0.000  0.028  0.006  0.001  0.000  0.806  0.842
    2  0.000  0.000  0.000  0.000  0.000  0.077  0.000  0.003  0.001  0.081
    3  0.000  0.000  0.000  0.000  0.001  0.003  0.000  0.000  0.033  0.037
    4  0.000  0.000  0.000  0.000  0.000  0.006  0.000  0.001  0.001  0.008
    5  0.000  0.000  0.000  0.000  0.000  0.000  0.000  0.000  0.000  0.000
tot    0.000  0.000  0.000  0.000  0.029  0.093  0.001  0.004  0.841  0.968
 
band    16 # energy   -4.93358812 # occ.  2.00000000
 
ion      s     py     pz     px    dxy    dyz    dz2    dxz  x2-y2    tot
    1  0.006  0.000  0.000  0.000  0.025  0.000  0.092  0.002  0.001  0.127
    2  0.003  0.000  0.010  0.000  0.012  0.000  0.011  0.005  0.002  0.043
    3  0.000  0.000  0.018  0.000  0.181  0.005  0.000  0.021  0.001  0.226
    4  0.003  0.000  0.009  0.000  0.009  0.005  0.013  0.465  0.024  0.528
    5  0.004  0.000  0.000  0.002  0.000  0.000  0.000  0.000  0.000  0.005
tot    0.016  0.000  0.038  0.002  0.226  0.010  0.117  0.492  0.028  0.929
 
band    17 # energy   -4.83881827 # occ.  2.00000000
 
ion      s     py     pz     px    dxy    dyz    dz2    dxz  x2-y2    tot
    1  0.019  0.000  0.001  0.000  0.001  0.000  0.215  0.001  0.001  0.237
    2  0.011  0.000  0.025  0.000  0.004  0.000  0.047  0.002  0.005  0.094
    3  0.000  0.000  0.057  0.000  0.044  0.018  0.001  0.016  0.004  0.139
    4  0.006  0.000  0.044  0.000  0.004  0.019  0.010  0.187  0.030  0.299
    5  0.013  0.000  0.000  0.001  0.000  0.000  0.000  0.000  0.000  0.014
tot    0.049  0.000  0.127  0.001  0.053  0.036  0.272  0.206  0.039  0.783
 
band    18 # energy   -4.74451745 # occ.  2.00000000
 
ion      s     py     pz     px    dxy    dyz    dz2    dxz  x2-y2    tot
    1  0.001  0.000  0.000  0.000  0.000  0.004  0.010  0.000  0.000  0.015
    2  0.001  0.000  0.001  0.000  0.000  0.002  0.003  0.000  0.019  0.026
    3  0.000  0.000  0.003  0.000  0.000  0.114  0.000  0.001  0.113  0.232
    4  0.000  0.000  0.003  0.000  0.001  0.670  0.000  0.000  0.023  0.698
    5  0.001  0.000  0.000  0.000  0.000  0.000  0.000  0.000  0.000  0.001
tot    0.003  0.000  0.008  0.000  0.001  0.791  0.013  0.001  0.155  0.972
 
band    19 # energy   -4.54161703 # occ.  2.00000000
 
ion      s     py     pz     px    dxy    dyz    dz2    dxz  x2-y2    tot
    1  0.000  0.000  0.000  0.000  0.090  0.001  0.000  0.040  0.001  0.132
    2  0.000  0.000  0.000  0.000  0.066  0.006  0.000  0.416  0.001  0.488
    3  0.000  0.000  0.000  0.000  0.032  0.004  0.000  0.292  0.000  0.329
    4  0.000  0.000  0.000  0.000  0.011  0.000  0.000  0.022  0.000  0.034
    5  0.000  0.000  0.000  0.000  0.000  0.000  0.000  0.000  0.000  0.000
tot    0.000  0.000  0.000  0.000  0.199  0.011  0.000  0.770  0.003  0.984
 
band    20 # energy   -4.53246717 # occ.  2.00000000
 
ion      s     py     pz     px    dxy    dyz    dz2    dxz  x2-y2    tot
    1  0.000  0.000  0.000  0.000  0.001  0.053  0.001  0.001  0.092  0.148
    2  0.000  0.000  0.000  0.000  0.001  0.453  0.000  0.006  0.056  0.517
    3  0.000  0.000  0.000  0.000  0.001  0.212  0.000  0.004  0.022  0.238
    4  0.000  0.000  0.000  0.000  0.000  0.069  0.000  0.000  0.009  0.079
    5  0.000  0.000  0.000  0.000  0.000  0.000  0.000  0.000  0.000  0.000
tot    0.000  0.000  0.001  0.000  0.003  0.788  0.001  0.011  0.179  0.983
 
band    21 # energy   -4.32634897 # occ.  2.00000000
 
ion      s     py     pz     px    dxy    dyz    dz2    dxz  x2-y2    tot
    1  0.000  0.000  0.000  0.000  0.013  0.004  0.000  0.320  0.000  0.337
    2  0.000  0.000  0.000  0.000  0.000  0.002  0.000  0.135  0.000  0.138
    3  0.000  0.000  0.000  0.000  0.008  0.005  0.000  0.443  0.000  0.457
    4  0.000  0.000  0.000  0.000  0.009  0.001  0.000  0.043  0.000  0.054
    5  0.000  0.000  0.000  0.000  0.000  0.000  0.000  0.000  0.000  0.000
tot    0.000  0.000  0.000  0.001  0.030  0.012  0.000  0.941  0.000  0.986
 
band    22 # energy   -4.30999499 # occ.  2.00000000
 
ion      s     py     pz     px    dxy    dyz    dz2    dxz  x2-y2    tot
    1  0.000  0.000  0.000  0.000  0.000  0.314  0.000  0.004  0.010  0.328
    2  0.000  0.000  0.000  0.000  0.000  0.105  0.000  0.001  0.000  0.107
    3  0.000  0.000  0.000  0.000  0.000  0.425  0.000  0.006  0.011  0.442
    4  0.000  0.000  0.000  0.000  0.000  0.099  0.000  0.001  0.008  0.109
    5  0.000  0.000  0.000  0.000  0.000  0.000  0.000  0.000  0.000  0.000
tot    0.000  0.000  0.000  0.000  0.001  0.943  0.000  0.012  0.029  0.986
 
band    23 # energy   -4.04774737 # occ.  2.00000000
 
ion      s     py     pz     px    dxy    dyz    dz2    dxz  x2-y2    tot
    1  0.000  0.000  0.000  0.000  0.007  0.002  0.000  0.579  0.000  0.588
    2  0.000  0.000  0.000  0.000  0.023  0.001  0.000  0.269  0.000  0.293
    3  0.000  0.000  0.000  0.000  0.006  0.000  0.000  0.095  0.000  0.102
    4  0.000  0.000  0.000  0.000  0.001  0.000  0.000  0.006  0.000  0.007
    5  0.000  0.000  0.000  0.000  0.000  0.000  0.000  0.000  0.000  0.000
tot    0.000  0.000  0.000  0.000  0.038  0.003  0.000  0.949  0.000  0.990
 
band    24 # energy   -4.04295896 # occ.  2.00000000
 
ion      s     py     pz     px    dxy    dyz    dz2    dxz  x2-y2    tot
    1  0.000  0.000  0.000  0.000  0.000  0.571  0.000  0.002  0.007  0.580
    2  0.000  0.000  0.000  0.000  0.000  0.268  0.000  0.001  0.023  0.292
    3  0.000  0.000  0.000  0.000  0.000  0.098  0.000  0.000  0.007  0.106
    4  0.000  0.000  0.000  0.000  0.000  0.011  0.000  0.000  0.001  0.012
    5  0.000  0.000  0.000  0.000  0.000  0.000  0.000  0.000  0.000  0.000
tot    0.000  0.000  0.000  0.000  0.000  0.948  0.000  0.003  0.038  0.990
 
band    25 # energy   -2.96538963 # occ.  2.00000000
 
ion      s     py     pz     px    dxy    dyz    dz2    dxz  x2-y2    tot
    1  0.020  0.000  0.151  0.000  0.000  0.000  0.030  0.000  0.000  0.201
    2  0.014  0.000  0.080  0.000  0.000  0.000  0.022  0.000  0.000  0.117
    3  0.011  0.000  0.037  0.000  0.000  0.000  0.017  0.000  0.000  0.065
    4  0.008  0.000  0.014  0.000  0.000  0.000  0.009  0.000  0.001  0.032
    5  0.004  0.000  0.000  0.000  0.000  0.000  0.000  0.000  0.000  0.005
tot    0.058  0.000  0.283  0.000  0.000  0.000  0.078  0.000  0.001  0.420
 
band    26 # energy    1.62139876 # occ.  0.00000000
 
ion      s     py     pz     px    dxy    dyz    dz2    dxz  x2-y2    tot
    1  0.021  0.000  0.001  0.000  0.000  0.000  0.022  0.000  0.000  0.044
    2  0.028  0.000  0.001  0.000  0.000  0.000  0.025  0.000  0.000  0.053
    3  0.033  0.000  0.000  0.000  0.000  0.000  0.029  0.000  0.000  0.062
    4  0.032  0.000  0.000  0.000  0.000  0.000  0.032  0.000  0.000  0.064
    5  0.000  0.000  0.002  0.000  0.000  0.000  0.000  0.000  0.000  0.002
tot    0.114  0.000  0.004  0.000  0.000  0.000  0.108  0.000  0.000  0.226
 
band    27 # energy    1.94867655 # occ.  0.00000000
 
ion      s     py     pz     px    dxy    dyz    dz2    dxz  x2-y2    tot
    1  0.003  0.000  0.005  0.000  0.000  0.000  0.003  0.000  0.000  0.010
    2  0.000  0.000  0.005  0.000  0.000  0.000  0.000  0.000  0.000  0.005
    3  0.002  0.000  0.005  0.000  0.000  0.000  0.002  0.000  0.000  0.008
    4  0.007  0.000  0.003  0.000  0.000  0.000  0.009  0.000  0.000  0.019
    5  0.001  0.000  0.001  0.000  0.000  0.000  0.000  0.000  0.000  0.002
tot    0.013  0.000  0.018  0.000  0.000  0.000  0.013  0.000  0.000  0.045
 
band    28 # energy    2.37518118 # occ.  0.00000000
 
ion      s     py     pz     px    dxy    dyz    dz2    dxz  x2-y2    tot
    1  0.005  0.000  0.002  0.000  0.000  0.000  0.005  0.000  0.000  0.012
    2  0.001  0.000  0.003  0.000  0.000  0.000  0.001  0.000  0.000  0.005
    3  0.000  0.000  0.003  0.000  0.000  0.000  0.000  0.000  0.000  0.003
    4  0.002  0.000  0.002  0.000  0.000  0.000  0.003  0.000  0.000  0.007
    5  0.001  0.000  0.000  0.000  0.000  0.000  0.000  0.000  0.000  0.001
tot    0.009  0.000  0.011  0.000  0.000  0.000  0.009  0.000  0.000  0.029
 

 k-point     2 :    0.10000000 0.00000000 0.00000000     weight = 0.02000000

band     1 # energy  -11.31120775 # occ.  2.00000000
 
ion      s     py     pz     px    dxy    dyz    dz2    dxz  x2-y2    tot
    1  0.007  0.000  0.001  0.000  0.000  0.000  0.000  0.000  0.000  0.009
    2  0.045  0.000  0.002  0.001  0.000  0.000  0.000  0.000  0.000  0.048
    3  0.134  0.001  0.003  0.003  0.000  0.000  0.000  0.000  0.000  0.141
    4  0.291  0.002  0.000  0.009  0.000  0.000  0.005  0.001  0.005  0.314
    5  0.091  0.000  0.001  0.000  0.000  0.000  0.000  0.000  0.000  0.092
tot    0.569  0.003  0.007  0.013  0.000  0.000  0.005  0.002  0.005  0.604
 
band     2 # energy  -10.33913587 # occ.  2.00000000
 
ion      s     py     pz     px    dxy    dyz    dz2    dxz  x2-y2    tot
    1  0.112  0.001  0.010  0.002  0.000  0.000  0.000  0.001  0.000  0.127
    2  0.251  0.002  0.000  0.006  0.000  0.000  0.002  0.000  0.000  0.261
    3  0.046  0.000  0.017  0.001  0.000  0.000  0.000  0.001  0.000  0.067
    4  0.069  0.000  0.009  0.003  0.000  0.000  0.009  0.003  0.004  0.096
    5  0.044  0.000  0.000  0.000  0.000  0.000  0.000  0.000  0.000  0.045
tot    0.522  0.003  0.037  0.012  0.000  0.001  0.011  0.005  0.004  0.596
 
band     3 # energy   -8.77570135 # occ.  2.00000000
 
ion      s     py     pz     px    dxy    dyz    dz2    dxz  x2-y2    tot
    1  0.178  0.001  0.002  0.004  0.000  0.000  0.017  0.000  0.000  0.204
    2  0.004  0.000  0.044  0.000  0.000  0.002  0.001  0.005  0.000  0.056
    3  0.193  0.002  0.000  0.005  0.000  0.000  0.036  0.000  0.000  0.236
    4  0.007  0.000  0.033  0.001  0.000  0.001  0.022  0.009  0.007  0.080
    5  0.036  0.000  0.000  0.000  0.000  0.000  0.000  0.000  0.000  0.036
tot    0.418  0.003  0.080  0.010  0.001  0.003  0.076  0.014  0.007  0.613
 
band     4 # energy   -7.36645557 # occ.  2.00000000
 
ion      s     py     pz     px    dxy    dyz    dz2    dxz  x2-y2    tot
    1  0.105  0.001  0.004  0.004  0.001  0.000  0.134  0.000  0.000  0.249
    2  0.091  0.001  0.004  0.004  0.001  0.000  0.228  0.001  0.000  0.329
    3  0.026  0.000  0.015  0.001  0.000  0.001  0.084  0.003  0.000  0.131
    4  0.000  0.000  0.012  0.000  0.000  0.001  0.011  0.006  0.004  0.034
    5  0.007  0.000  0.000  0.000  0.000  0.000  0.000  0.000  0.000  0.007
tot    0.228  0.003  0.035  0.009  0.002  0.002  0.458  0.010  0.004  0.750
 
band     5 # energy   -6.35940961 # occ.  2.00000000
 
ion      s     py     pz     px    dxy    dyz    dz2    dxz  x2-y2    tot
    1  0.000  0.000  0.000  0.000  0.000  0.000  0.002  0.000  0.000  0.002
    2  0.001  0.000  0.000  0.000  0.001  0.000  0.000  0.000  0.000  0.002
    3  0.000  0.000  0.007  0.000  0.006  0.000  0.122  0.000  0.001  0.137
    4  0.014  0.001  0.034  0.000  0.008  0.009  0.387  0.097  0.109  0.659
    5  0.047  0.000  0.000  0.000  0.000  0.000  0.000  0.000  0.000  0.047
tot    0.062  0.001  0.041  0.001  0.015  0.010  0.510  0.097  0.111  0.848
 
band     6 # energy   -5.74221681 # occ.  2.00000000
 
ion      s     py     pz     px    dxy    dyz    dz2    dxz  x2-y2    tot
    1  0.001  0.000  0.001  0.000  0.001  0.000  0.019  0.000  0.000  0.022
    2  0.002  0.000  0.001  0.000  0.018  0.001  0.072  0.001  0.006  0.100
    3  0.000  0.000  0.017  0.000  0.015  0.019  0.150  0.045  0.007  0.254
    4  0.006  0.000  0.005  0.000  0.037  0.001  0.353  0.009  0.140  0.552
    5  0.001  0.000  0.001  0.000  0.000  0.000  0.000  0.000  0.000  0.001
tot    0.010  0.000  0.025  0.001  0.070  0.021  0.594  0.056  0.153  0.929
 
band     7 # energy   -5.64929885 # occ.  2.00000000
 
ion      s     py     pz     px    dxy    dyz    dz2    dxz  x2-y2    tot
    1  0.000  0.000  0.000  0.000  0.002  0.000  0.020  0.000  0.001  0.024
    2  0.000  0.000  0.003  0.000  0.019  0.004  0.030  0.010  0.007  0.073
    3  0.001  0.000  0.002  0.000  0.009  0.012  0.132  0.038  0.001  0.197
    4  0.000  0.000  0.005  0.000  0.482  0.008  0.020  0.035  0.101  0.651
    5  0.001  0.000  0.000  0.000  0.000  0.000  0.000  0.000  0.000  0.001
tot    0.003  0.000  0.010  0.001  0.513  0.024  0.202  0.084  0.111  0.946
 
band     8 # energy   -5.49308901 # occ.  2.00000000
 
ion      s     py     pz     px    dxy    dyz    dz2    dxz  x2-y2    tot
    1  0.002  0.000  0.000  0.000  0.004  0.002  0.007  0.005  0.001  0.021
    2  0.000  0.000  0.004  0.000  0.057  0.005  0.068  0.011  0.023  0.168
    3  0.000  0.000  0.004  0.000  0.091  0.008  0.101  0.010  0.014  0.229
    4  0.002  0.000  0.000  0.000  0.226  0.002  0.006  0.038  0.259  0.533
    5  0.000  0.000  0.000  0.000  0.000  0.000  0.000  0.000  0.000  0.000
tot    0.005  0.001  0.008  0.000  0.379  0.017  0.183  0.064  0.296  0.953
 
band     9 # energy   -5.43583901 # occ.  2.00000000
 
ion      s     py     pz     px    dxy    dyz    dz2    dxz  x2-y2    tot
    1  0.001  0.000  0.001  0.000  0.023  0.001  0.075  0.006  0.007  0.115
    2  0.001  0.000  0.007  0.000  0.017  0.024  0.053  0.099  0.000  0.200
    3  0.001  0.000  0.009  0.000  0.206  0.009  0.020  0.006  0.081  0.332
    4  0.001  0.000  0.001  0.000  0.102  0.009  0.022  0.086  0.072  0.293
    5  0.000  0.000  0.000  0.000  0.000  0.000  0.000  0.000  0.000  0.001
tot    0.004  0.000  0.018  0.001  0.347  0.043  0.170  0.197  0.161  0.941
 
band    10 # energy   -5.38113501 # occ.  2.00000000
 
ion      s     py     pz     px    dxy    dyz    dz2    dxz  x2-y2    tot
    1  0.002  0.000  0.002  0.000  0.013  0.003  0.090  0.008  0.004  0.123
    2  0.002  0.000  0.002  0.000  0.046  0.009  0.253  0.023  0.041  0.377
    3  0.001  0.000  0.009  0.000  0.075  0.022  0.074  0.009  0.023  0.212
    4  0.001  0.000  0.005  0.000  0.031  0.004  0.042  0.050  0.088  0.221
    5  0.002  0.000  0.000  0.000  0.000  0.000  0.000  0.000  0.000  0.002
tot    0.007  0.000  0.018  0.001  0.166  0.038  0.459  0.090  0.156  0.935
 
band    11 # energy   -5.33962463 # occ.  2.00000000
 
ion      s     py     pz     px    dxy    dyz    dz2    dxz  x2-y2    tot
    1  0.001  0.000  0.001  0.000  0.023  0.004  0.020  0.015  0.010  0.074
    2  0.001  0.000  0.000  0.000  0.442  0.004  0.038  0.003  0.127  0.617
    3  0.000  0.000  0.002  0.000  0.035  0.001  0.062  0.010  0.040  0.149
    4  0.000  0.000  0.002  0.000  0.029  0.000  0.006  0.035  0.043  0.115
    5  0.000  0.000  0.000  0.000  0.000  0.000  0.000  0.000  0.000  0.001
tot    0.002  0.000  0.005  0.001  0.530  0.009  0.126  0.064  0.219  0.956
 
band    12 # energy   -5.25123260 # occ.  2.00000000
 
ion      s     py     pz     px    dxy    dyz    dz2    dxz  x2-y2    tot
    1  0.000  0.000  0.000  0.000  0.003  0.007  0.011  0.001  0.010  0.032
    2  0.000  0.000  0.000  0.000  0.006  0.057  0.008  0.019  0.017  0.108
    3  0.000  0.000  0.000  0.000  0.104  0.038  0.001  0.011  0.512  0.666
    4  0.000  0.000  0.000  0.000  0.003  0.132  0.000  0.021  0.004  0.161
    5  0.000  0.000  0.000  0.000  0.000  0.000  0.000  0.000  0.000  0.000
tot    0.000  0.001  0.001  0.000  0.115  0.234  0.020  0.052  0.543  0.967
 
band    13 # energy   -5.19125616 # occ.  2.00000000
 
ion      s     py     pz     px    dxy    dyz    dz2    dxz  x2-y2    tot
    1  0.000  0.000  0.000  0.000  0.007  0.020  0.037  0.007  0.005  0.076
    2  0.000  0.001  0.002  0.000  0.195  0.006  0.010  0.002  0.540  0.754
    3  0.000  0.000  0.001  0.000  0.040  0.035  0.000  0.016  0.026  0.117
    4  0.000  0.000  0.000  0.000  0.009  0.001  0.000  0.001  0.006  0.017
    5  0.000  0.000  0.000  0.000  0.000  0.000  0.000  0.000  0.000  0.000
tot    0.001  0.001  0.003  0.000  0.250  0.062  0.047  0.025  0.576  0.964
 
band    14 # energy   -5.15556215 # occ.  2.00000000
 
ion      s     py     pz     px    dxy    dyz    dz2    dxz  x2-y2    tot
    1  0.003  0.000  0.002  0.000  0.028  0.003  0.274  0.009  0.018  0.337
    2  0.001  0.000  0.015  0.000  0.031  0.018  0.046  0.016  0.076  0.203
    3  0.000  0.000  0.009  0.000  0.233  0.006  0.001  0.036  0.026  0.311
    4  0.001  0.000  0.007  0.000  0.001  0.003  0.000  0.015  0.046  0.073
    5  0.002  0.000  0.000  0.000  0.000  0.000  0.000  0.000  0.000  0.002
tot    0.007  0.000  0.034  0.000  0.292  0.031  0.320  0.076  0.165  0.926
 
band    15 # energy   -5.05416907 # occ.  2.00000000
 
ion      s     py     pz     px    dxy    dyz    dz2    dxz  x2-y2    tot
    1  0.001  0.000  0.000  0.001  0.557  0.001  0.042  0.005  0.171  0.778
    2  0.000  0.000  0.007  0.000  0.008  0.002  0.016  0.013  0.003  0.049
    3  0.001  0.000  0.004  0.000  0.007  0.012  0.033  0.039  0.005  0.100
    4  0.000  0.000  0.001  0.000  0.008  0.001  0.001  0.010  0.006  0.026
    5  0.000  0.000  0.000  0.000  0.000  0.000  0.000  0.000  0.000  0.000
tot    0.003  0.000  0.012  0.001  0.581  0.017  0.091  0.066  0.184  0.954
 
band    16 # energy   -4.94470501 # occ.  2.00000000
 
ion      s     py     pz     px    dxy    dyz    dz2    dxz  x2-y2    tot
    1  0.000  0.001  0.000  0.000  0.174  0.010  0.001  0.004  0.544  0.734
    2  0.000  0.000  0.000  0.000  0.001  0.095  0.000  0.035  0.001  0.132
    3  0.000  0.000  0.000  0.000  0.011  0.010  0.000  0.004  0.024  0.049
    4  0.000  0.000  0.000  0.000  0.001  0.040  0.000  0.008  0.004  0.054
    5  0.000  0.000  0.000  0.000  0.000  0.000  0.000  0.000  0.000  0.000
tot    0.000  0.001  0.001  0.000  0.187  0.156  0.001  0.051  0.573  0.969
 
band    17 # energy   -4.81746822 # occ.  2.00000000
 
ion      s     py     pz     px    dxy    dyz    dz2    dxz  x2-y2    tot
    1  0.000  0.000  0.000  0.000  0.005  0.001  0.005  0.010  0.053  0.075
    2  0.000  0.000  0.000  0.000  0.029  0.009  0.000  0.001  0.008  0.048
    3  0.001  0.000  0.001  0.000  0.076  0.010  0.010  0.138  0.088  0.324
    4  0.000  0.000  0.005  0.000  0.009  0.276  0.001  0.220  0.007  0.518
    5  0.001  0.000  0.000  0.001  0.000  0.000  0.000  0.000  0.000  0.002
tot    0.003  0.000  0.006  0.001  0.120  0.295  0.017  0.369  0.157  0.968
 
band    18 # energy   -4.74083950 # occ.  2.00000000
 
ion      s     py     pz     px    dxy    dyz    dz2    dxz  x2-y2    tot
    1  0.000  0.000  0.000  0.000  0.037  0.012  0.005  0.016  0.006  0.076
    2  0.000  0.000  0.000  0.000  0.016  0.002  0.003  0.045  0.027  0.092
    3  0.002  0.000  0.001  0.000  0.019  0.173  0.018  0.126  0.062  0.400
    4  0.000  0.000  0.007  0.000  0.008  0.238  0.004  0.103  0.030  0.390
    5  0.003  0.000  0.000  0.000  0.000  0.000  0.000  0.000  0.000  0.004
tot    0.006  0.000  0.008  0.001  0.081  0.424  0.030  0.288  0.125  0.962
 
band    19 # energy   -4.54658934 # occ.  2.00000000
 
ion      s     py     pz     px    dxy    dyz    dz2    dxz  x2-y2    tot
    1  0.000  0.000  0.000  0.000  0.028  0.092  0.000  0.001  0.104  0.226
    2  0.000  0.000  0.000  0.000  0.006  0.292  0.000  0.072  0.056  0.427
    3  0.000  0.000  0.000  0.000  0.005  0.138  0.002  0.039  0.043  0.229
    4  0.000  0.000  0.000  0.000  0.002  0.055  0.000  0.037  0.004  0.099
    5  0.000  0.000  0.000  0.000  0.000  0.000  0.000  0.000  0.000  0.000
tot    0.001  0.000  0.001  0.000  0.042  0.577  0.003  0.150  0.208  0.981
 
band    20 # energy   -4.51412958 # occ.  2.00000000
 
ion      s     py     pz     px    dxy    dyz    dz2    dxz  x2-y2    tot
    1  0.000  0.000  0.004  0.000  0.038  0.049  0.002  0.326  0.012  0.431
    2  0.000  0.000  0.004  0.000  0.051  0.051  0.000  0.185  0.003  0.294
    3  0.003  0.000  0.001  0.000  0.017  0.004  0.023  0.063  0.001  0.113
    4  0.000  0.000  0.003  0.000  0.003  0.069  0.000  0.042  0.003  0.120
    5  0.002  0.000  0.000  0.000  0.000  0.000  0.000  0.000  0.000  0.002
tot    0.005  0.000  0.012  0.000  0.109  0.174  0.025  0.616  0.018  0.959
 
band    21 # energy   -4.34184094 # occ.  2.00000000
 
ion      s     py     pz     px    dxy    dyz    dz2    dxz  x2-y2    tot
    1  0.011  0.000  0.014  0.000  0.015  0.125  0.082  0.199  0.003  0.449
    2  0.001  0.000  0.001  0.000  0.009  0.067  0.002  0.271  0.005  0.356
    3  0.001  0.000  0.003  0.000  0.006  0.004  0.010  0.008  0.001  0.034
    4  0.000  0.000  0.006  0.000  0.000  0.009  0.000  0.043  0.002  0.061
    5  0.002  0.000  0.000  0.000  0.000  0.000  0.000  0.000  0.000  0.002
tot    0.016  0.000  0.024  0.001  0.030  0.206  0.094  0.521  0.011  0.902
 
band    22 # energy   -4.30879878 # occ.  2.00000000
 
ion      s     py     pz     px    dxy    dyz    dz2    dxz  x2-y2    tot
    1  0.000  0.000  0.000  0.000  0.002  0.203  0.002  0.111  0.010  0.328
    2  0.000  0.000  0.000  0.000  0.005  0.084  0.000  0.012  0.011  0.112
    3  0.000  0.000  0.000  0.000  0.001  0.322  0.001  0.114  0.006  0.443
    4  0.000  0.000  0.000  0.000  0.003  0.081  0.000  0.008  0.009  0.102
    5  0.000  0.000  0.000  0.000  0.000  0.000  0.000  0.000  0.000  0.000
tot    0.000  0.000  0.000  0.000  0.011  0.689  0.003  0.245  0.036  0.985
 
band    23 # energy   -4.03975326 # occ.  2.00000000
 
ion      s     py     pz     px    dxy    dyz    dz2    dxz  x2-y2    tot
    1  0.000  0.000  0.000  0.000  0.002  0.406  0.000  0.134  0.007  0.550
    2  0.000  0.000  0.000  0.000  0.005  0.223  0.000  0.071  0.016  0.316
    3  0.000  0.000  0.000  0.000  0.002  0.078  0.000  0.027  0.006  0.113