Starting job 28337921 ("jobname") on c15-30 at Fri Oct 11 11:14:49 CEST 2019
 running on    4 total cores
 distrk:  each k-point on    4 cores,    1 groups
 distr:  one band on    2 cores,    2 groups
 using from now: INCAR     
 vasp.5.4.4.18Apr17-6-g9f103f2a35 (build Jun 30 2017 11:15:00) complex          
  
 POSCAR found type information on POSCAR  Cu H 
 POSCAR found :  2 types and       5 ions
 scaLAPACK will be used

 ----------------------------------------------------------------------------- 
|                                                                             |
|  ADVICE TO THIS USER RUNNING 'VASP/VAMP'   (HEAR YOUR MASTER'S VOICE ...):  |
|                                                                             |
|      You have a (more or less) 'small supercell' and for smaller cells      |
|      it is recommended  to use the reciprocal-space projection scheme!      |
|      The real space optimization is not  efficient for small cells and it   |
|      is also less accurate ...                                              |
|      Therefore set LREAL=.FALSE. in the  INCAR file                         |
|                                                                             |
 ----------------------------------------------------------------------------- 

 LDA part: xc-table for Pade appr. of Perdew
 POSCAR, INCAR and KPOINTS ok, starting setup
 FFT: planning ...
 WAVECAR not read
 entering main loop
       N       E                     dE             d eps       ncg     rms          rms(c)
DAV:   1     0.197441958194E+03    0.19744E+03   -0.13885E+04  3020   0.920E+02
DAV:   2    -0.105574026371E+02   -0.20800E+03   -0.20189E+03  3068   0.266E+02
DAV:   3    -0.208834886076E+02   -0.10326E+02   -0.10184E+02  3220   0.789E+01
DAV:   4    -0.209957715725E+02   -0.11228E+00   -0.11192E+00  3172   0.758E+00
DAV:   5    -0.209969530987E+02   -0.11815E-02   -0.11815E-02  3288   0.528E-01    0.148E+01
RMM:   6    -0.189185503545E+02    0.20784E+01   -0.44248E+01  3194   0.649E+01    0.746E+00
RMM:   7    -0.170865994745E+02    0.18320E+01   -0.73694E+00  2999   0.275E+01    0.157E+00
RMM:   8    -0.171156822372E+02   -0.29083E-01   -0.13835E-01  3250   0.307E+00    0.198E+00
RMM:   9    -0.170077190841E+02    0.10796E+00   -0.60401E-02  3212   0.187E+00    0.818E-01
RMM:  10    -0.169962844148E+02    0.11435E-01   -0.18112E-02  3193   0.115E+00    0.450E-01
RMM:  11    -0.169906552868E+02    0.56291E-02   -0.10367E-02  3148   0.836E-01    0.126E-01
RMM:  12    -0.169897809441E+02    0.87434E-03   -0.12443E-03  3188   0.299E-01    0.919E-02
RMM:  13    -0.169892573989E+02    0.52355E-03   -0.57858E-04  3141   0.189E-01    0.443E-02
RMM:  14    -0.169891763966E+02    0.81002E-04   -0.22930E-04  3095   0.124E-01    0.261E-02
RMM:  15    -0.169892900159E+02   -0.11362E-03   -0.11357E-04  2999   0.541E-02    0.144E-02
RMM:  16    -0.169894955920E+02   -0.20558E-03   -0.47002E-05  2971   0.358E-02    0.909E-03
RMM:  17    -0.169897283540E+02   -0.23276E-03   -0.49126E-05  2933   0.278E-02    0.588E-03
RMM:  18    -0.169898432688E+02   -0.11491E-03   -0.13417E-05  2445   0.175E-02    0.297E-03
RMM:  19    -0.169898987033E+02   -0.55435E-04   -0.32996E-06  1996   0.880E-03    0.185E-03
RMM:  20    -0.169899296205E+02   -0.30917E-04   -0.14419E-06  1869   0.712E-03    0.851E-04
RMM:  21    -0.169899420890E+02   -0.12468E-04   -0.53088E-07  1822   0.368E-03    0.543E-04
RMM:  22    -0.169899468831E+02   -0.47942E-05   -0.19557E-07  1788   0.269E-03    0.411E-04
RMM:  23    -0.169899482677E+02   -0.13845E-05   -0.78921E-08  1624   0.252E-03    0.480E-04
RMM:  24    -0.169899484410E+02   -0.17334E-06   -0.85052E-09   719   0.136E-03
   1 F= -.16989948E+02 E0= -.16981444E+02  d E =-.170082E-01

Currently Loaded Modulefiles:
  1) intel/2017.4         2) perf-reports/7.0.6

Job script resource usage:
       JobID  MaxVMSize     MaxRSS 
------------ ---------- ---------- 
28337921.ba+    216884K      2491K 

Job step resource usage:
       JobID    JobName  AllocCPUS  MaxVMSize     MaxRSS    Elapsed ExitCode 
------------ ---------- ---------- ---------- ---------- ---------- -------- 
28337921        jobname          4                         00:00:26      0:0 
28337921.0    pmi_proxy          1    279832K       525K   00:00:24      0:0 

Job 28337921 ("jobname") completed on c15-30 at Fri Oct 11 11:15:14 CEST 2019
