<?xml version="1.0" encoding="ISO-8859-1"?>
<modeling>
 <generator>
  <i name="program" type="string">vasp </i>
  <i name="version" type="string">5.4.4.18Apr17-6-g9f103f2a35  </i>
  <i name="subversion" type="string">(build Jun 30 2017 11:15:00) complex            parallel </i>
  <i name="platform" type="string">STALLO_VASP_5.4.4 </i>
  <i name="date" type="string">2019 10 11 </i>
  <i name="time" type="string">11:14:50 </i>
 </generator>
 <incar>
  <i type="string" name="PREC">normal    ! low/normal/accurate</i>
  <i type="string" name="ALGO"> Fast      ! Algorithm for electronic re</i>
  <i type="int" name="ISPIN">     1</i>
  <i type="int" name="NELMIN">     4</i>
  <i name="EDIFF">      0.00000100</i>
  <i type="int" name="NSW">     0</i>
  <i name="ENCUT">    250.00000000</i>
  <i type="int" name="NEDOS">  2401</i>
  <i type="string" name="LREAL"> Auto      ! Projection in reciprocal sp</i>
  <i name="EMIN">    -17.00000000</i>
  <i name="EMAX">      7.00000000</i>
  <i type="int" name="ISMEAR">     0</i>
  <i name="SIGMA">      0.10000000</i>
  <i type="logical" name="LWAVE"> F  </i>
  <i type="int" name="LORBIT">    11</i>
  <i type="logical" name="LELF"> T  </i>
  <v type="int" name="KPOINT_BSE">    -1     0     0     0</v>
 </incar>
 <structure name="primitive_cell" >
  <crystal>
   <varray name="basis" >
    <v>       2.57386868       0.00000000       0.00000000 </v>
    <v>       1.28693434       2.22903567       0.00000000 </v>
    <v>       0.00000000       0.00000000      30.30466494 </v>
   </varray>
   <i name="volume">    173.86529028 </i>
   <varray name="rec_basis" >
    <v>       0.38852021      -0.22431225       0.00000000 </v>
    <v>       0.00000000       0.44862450       0.00000000 </v>
    <v>       0.00000000       0.00000000       0.03299822 </v>
   </varray>
  </crystal>
  <varray name="positions" >
   <v>       0.00000000       0.00000000       0.39597864 </v>
   <v>       0.33333333       0.33333333       0.46532621 </v>
   <v>      -0.33333334      -0.33333333      -0.46532621 </v>
   <v>       0.00000000       0.00000000      -0.39597864 </v>
   <v>      -0.46114798       0.00000000      -0.36298042 </v>
  </varray>
 </structure>
 <varray name="primitive_index" >
  <v type="int" >        1 </v>
  <v type="int" >        2 </v>
  <v type="int" >        3 </v>
  <v type="int" >        4 </v>
  <v type="int" >        5 </v>
 </varray>
 <kpoints>
  <generation param="Gamma">
   <v type="int" name="divisions">      10       10        1 </v>
   <v name="usershift">      0.00000000       0.00000000       0.00000000 </v>
   <v name="genvec1">      0.10000000       0.00000000       0.00000000 </v>
   <v name="genvec2">      0.00000000       0.10000000       0.00000000 </v>
   <v name="genvec3">      0.00000000       0.00000000       1.00000000 </v>
   <v name="shift">      0.00000000       0.00000000       0.00000000 </v>
  </generation>
  <varray name="kpointlist" >
   <v>       0.00000000       0.00000000       0.00000000 </v>
   <v>       0.10000000       0.00000000       0.00000000 </v>
   <v>       0.20000000      -0.00000000       0.00000000 </v>
   <v>       0.30000000      -0.00000000       0.00000000 </v>
   <v>       0.40000000      -0.00000000       0.00000000 </v>
   <v>       0.50000000      -0.00000000       0.00000000 </v>
   <v>       0.00000000       0.10000000       0.00000000 </v>
   <v>       0.10000000       0.10000000       0.00000000 </v>
   <v>       0.20000000       0.10000000       0.00000000 </v>
   <v>       0.30000000       0.10000000       0.00000000 </v>
   <v>       0.40000000       0.10000000       0.00000000 </v>
   <v>       0.50000000       0.10000000       0.00000000 </v>
   <v>      -0.40000000       0.10000000       0.00000000 </v>
   <v>      -0.30000000       0.10000000       0.00000000 </v>
   <v>      -0.20000000       0.10000000       0.00000000 </v>
   <v>      -0.10000000       0.10000000       0.00000000 </v>
   <v>       0.00000000       0.20000000       0.00000000 </v>
   <v>       0.10000000       0.20000000       0.00000000 </v>
   <v>       0.20000000       0.20000000       0.00000000 </v>
   <v>       0.30000000       0.20000000       0.00000000 </v>
   <v>       0.40000000       0.20000000       0.00000000 </v>
   <v>       0.50000000       0.20000000       0.00000000 </v>
   <v>      -0.40000000       0.20000000       0.00000000 </v>
   <v>      -0.30000000       0.20000000       0.00000000 </v>
   <v>      -0.20000000       0.20000000       0.00000000 </v>
   <v>      -0.10000000       0.20000000       0.00000000 </v>
   <v>       0.00000000       0.30000000       0.00000000 </v>
   <v>       0.10000000       0.30000000       0.00000000 </v>
   <v>       0.20000000       0.30000000       0.00000000 </v>
   <v>       0.30000000       0.30000000       0.00000000 </v>
   <v>       0.40000000       0.30000000       0.00000000 </v>
   <v>       0.50000000       0.30000000       0.00000000 </v>
   <v>      -0.40000000       0.30000000       0.00000000 </v>
   <v>      -0.30000000       0.30000000       0.00000000 </v>
   <v>      -0.20000000       0.30000000       0.00000000 </v>
   <v>      -0.10000000       0.30000000       0.00000000 </v>
   <v>       0.00000000       0.40000000       0.00000000 </v>
   <v>       0.10000000       0.40000000       0.00000000 </v>
   <v>       0.20000000       0.40000000       0.00000000 </v>
   <v>       0.30000000       0.40000000       0.00000000 </v>
   <v>       0.40000000       0.40000000       0.00000000 </v>
   <v>       0.50000000       0.40000000       0.00000000 </v>
   <v>      -0.40000000       0.40000000       0.00000000 </v>
   <v>      -0.30000000       0.40000000       0.00000000 </v>
   <v>      -0.20000000       0.40000000       0.00000000 </v>
   <v>      -0.10000000       0.40000000       0.00000000 </v>
   <v>       0.00000000       0.50000000       0.00000000 </v>
   <v>       0.10000000       0.50000000       0.00000000 </v>
   <v>       0.20000000       0.50000000       0.00000000 </v>
   <v>       0.30000000       0.50000000       0.00000000 </v>
   <v>       0.40000000       0.50000000       0.00000000 </v>
   <v>       0.50000000       0.50000000       0.00000000 </v>
  </varray>
  <varray name="weights" >
   <v>       0.01000000 </v>
   <v>       0.02000000 </v>
   <v>       0.02000000 </v>
   <v>       0.02000000 </v>
   <v>       0.02000000 </v>
   <v>       0.01000000 </v>
   <v>       0.02000000 </v>
   <v>       0.02000000 </v>
   <v>       0.02000000 </v>
   <v>       0.02000000 </v>
   <v>       0.02000000 </v>
   <v>       0.02000000 </v>
   <v>       0.02000000 </v>
   <v>       0.02000000 </v>
   <v>       0.02000000 </v>
   <v>       0.02000000 </v>
   <v>       0.02000000 </v>
   <v>       0.02000000 </v>
   <v>       0.02000000 </v>
   <v>       0.02000000 </v>
   <v>       0.02000000 </v>
   <v>       0.02000000 </v>
   <v>       0.02000000 </v>
   <v>       0.02000000 </v>
   <v>       0.02000000 </v>
   <v>       0.02000000 </v>
   <v>       0.02000000 </v>
   <v>       0.02000000 </v>
   <v>       0.02000000 </v>
   <v>       0.02000000 </v>
   <v>       0.02000000 </v>
   <v>       0.02000000 </v>
   <v>       0.02000000 </v>
   <v>       0.02000000 </v>
   <v>       0.02000000 </v>
   <v>       0.02000000 </v>
   <v>       0.02000000 </v>
   <v>       0.02000000 </v>
   <v>       0.02000000 </v>
   <v>       0.02000000 </v>
   <v>       0.02000000 </v>
   <v>       0.02000000 </v>
   <v>       0.02000000 </v>
   <v>       0.02000000 </v>
   <v>       0.02000000 </v>
   <v>       0.02000000 </v>
   <v>       0.01000000 </v>
   <v>       0.02000000 </v>
   <v>       0.02000000 </v>
   <v>       0.02000000 </v>
   <v>       0.02000000 </v>
   <v>       0.01000000 </v>
  </varray>
 </kpoints>
 <parameters>
  <separator name="general" >
   <i type="string" name="SYSTEM">unknown system</i>
   <i type="logical" name="LCOMPAT"> F  </i>
  </separator>
  <separator name="electronic" >
   <i type="string" name="PREC">normal</i>
   <i name="ENMAX">    250.00000000</i>
   <i name="ENAUG">    516.45600000</i>
   <i name="EDIFF">      0.00000100</i>
   <i type="int" name="IALGO">    68</i>
   <i type="int" name="IWAVPR">    10</i>
   <i type="int" name="NBANDS">    28</i>
   <i name="NELECT">     45.00000000</i>
   <i type="int" name="TURBO">     0</i>
   <i type="int" name="IRESTART">     0</i>
   <i type="int" name="NREBOOT">     0</i>
   <i type="int" name="NMIN">     0</i>
   <i name="EREF">      0.00000000</i>
   <separator name="electronic smearing" >
    <i type="int" name="ISMEAR">     0</i>
    <i name="SIGMA">      0.10000000</i>
    <i name="KSPACING">      0.50000000</i>
    <i type="logical" name="KGAMMA"> T  </i>
   </separator>
   <separator name="electronic projectors" >
    <i type="logical" name="LREAL"> T  </i>
    <v name="ROPT">     -0.00050000     -0.00050000</v>
    <i type="int" name="LMAXPAW">  -100</i>
    <i type="int" name="LMAXMIX">     2</i>
    <i type="logical" name="NLSPLINE"> F  </i>
   </separator>
   <separator name="electronic startup" >
    <i type="int" name="ISTART">     0</i>
    <i type="int" name="ICHARG">     2</i>
    <i type="int" name="INIWAV">     1</i>
   </separator>
   <separator name="electronic spin" >
    <i type="int" name="ISPIN">     1</i>
    <i type="logical" name="LNONCOLLINEAR"> F  </i>
    <v name="MAGMOM">      1.00000000      1.00000000      1.00000000      1.00000000      1.00000000</v>
    <i name="NUPDOWN">     -1.00000000</i>
    <i type="logical" name="LSORBIT"> F  </i>
    <v name="SAXIS">      0.00000000      0.00000000      1.00000000</v>
    <i type="logical" name="LSPIRAL"> F  </i>
    <v name="QSPIRAL">      0.00000000      0.00000000      0.00000000</v>
    <i type="logical" name="LZEROZ"> F  </i>
   </separator>
   <separator name="electronic exchange-correlation" >
    <i type="logical" name="LASPH"> F  </i>
    <i type="logical" name="LMETAGGA"> F  </i>
   </separator>
   <separator name="electronic convergence" >
    <i type="int" name="NELM">    60</i>
    <i type="int" name="NELMDL">    -5</i>
    <i type="int" name="NELMIN">     4</i>
    <i name="ENINI">    250.00000000</i>
    <separator name="electronic convergence detail" >
     <i type="logical" name="LDIAG"> T  </i>
     <i type="logical" name="LSUBROT"> F  </i>
     <i name="WEIMIN">      0.00000000</i>
     <i name="EBREAK">      0.00000001</i>
     <i name="DEPER">      0.30000000</i>
     <i type="int" name="NRMM">     4</i>
     <i name="TIME">      0.40000000</i>
    </separator>
   </separator>
   <separator name="electronic mixer" >
    <i name="AMIX">      0.40000000</i>
    <i name="BMIX">      1.00000000</i>
    <i name="AMIN">      0.10000000</i>
    <i name="AMIX_MAG">      1.60000000</i>
    <i name="BMIX_MAG">      1.00000000</i>
    <separator name="electronic mixer details" >
     <i type="int" name="IMIX">     4</i>
     <i type="logical" name="MIXFIRST"> F  </i>
     <i type="int" name="MAXMIX">   -45</i>
     <i name="WC">    100.00000000</i>
     <i type="int" name="INIMIX">     1</i>
     <i type="int" name="MIXPRE">     1</i>
     <i type="int" name="MREMOVE">     5</i>
    </separator>
   </separator>
   <separator name="electronic dipolcorrection" >
    <i type="logical" name="LDIPOL"> F  </i>
    <i type="logical" name="LMONO"> F  </i>
    <i type="int" name="IDIPOL">     0</i>
    <i name="EPSILON">      1.00000000</i>
    <v name="DIPOL">   -100.00000000   -100.00000000   -100.00000000</v>
    <i name="EFIELD">      0.00000000</i>
   </separator>
  </separator>
  <separator name="grids" >
   <i type="int" name="NGX">    10</i>
   <i type="int" name="NGY">    10</i>
   <i type="int" name="NGZ">   120</i>
   <i type="int" name="NGXF">    20</i>
   <i type="int" name="NGYF">    20</i>
   <i type="int" name="NGZF">   240</i>
   <i type="logical" name="ADDGRID"> F  </i>
  </separator>
  <separator name="ionic" >
   <i type="int" name="NSW">     0</i>
   <i type="int" name="IBRION">    -1</i>
   <i type="int" name="MDALGO">     0</i>
   <i type="int" name="ISIF">     2</i>
   <i name="PSTRESS">      0.00000000</i>
   <i name="EDIFFG">      0.00001000</i>
   <i type="int" name="NFREE">     0</i>
   <i name="POTIM">      0.50000000</i>
   <i name="SMASS">     -3.00000000</i>
   <i name="SCALEE">      1.00000000</i>
  </separator>
  <separator name="ionic md" >
   <i name="TEBEG">      0.00010000</i>
   <i name="TEEND">      0.00010000</i>
   <i type="int" name="NBLOCK">     1</i>
   <i type="int" name="KBLOCK">     1</i>
   <i type="int" name="NPACO">   256</i>
   <i name="APACO">     16.00000000</i>
  </separator>
  <separator name="symmetry" >
   <i type="int" name="ISYM">     2</i>
   <i name="SYMPREC">      0.00001000</i>
  </separator>
  <separator name="dos" >
   <i type="int" name="LORBIT">    11</i>
   <v name="RWIGS">     -1.00000000     -1.00000000</v>
   <i type="int" name="NEDOS">  2401</i>
   <i name="EMIN">    -17.00000000</i>
   <i name="EMAX">      7.00000000</i>
   <i name="EFERMI">      0.00000000</i>
  </separator>
  <separator name="writing" >
   <i type="int" name="NWRITE">     2</i>
   <i type="logical" name="LWAVE"> F  </i>
   <i type="logical" name="LDOWNSAMPLE"> F  </i>
   <i type="logical" name="LCHARG"> T  </i>
   <i type="logical" name="LPARD"> F  </i>
   <i type="logical" name="LVTOT"> F  </i>
   <i type="logical" name="LVHAR"> F  </i>
   <i type="logical" name="LELF"> T  </i>
   <i type="logical" name="LOPTICS"> F  </i>
   <v name="STM">      0.00000000      0.00000000      0.00000000      0.00000000      0.00000000      0.00000000      0.00000000</v>
  </separator>
  <separator name="performance" >
   <i type="int" name="NPAR">     2</i>
   <i type="int" name="NSIM">     4</i>
   <i type="int" name="NBLK">    -1</i>
   <i type="logical" name="LPLANE"> T  </i>
   <i type="logical" name="LSCALAPACK"> T  </i>
   <i type="logical" name="LSCAAWARE"> F  </i>
   <i type="logical" name="LSCALU"> F  </i>
   <i type="logical" name="LASYNC"> F  </i>
   <i type="logical" name="LORBITALREAL"> F  </i>
  </separator>
  <separator name="miscellaneous" >
   <i type="int" name="IDIOT">     3</i>
   <i type="int" name="ISPECIAL">     0</i>
   <i type="logical" name="LMUSIC"> F  </i>
   <v name="POMASS">     63.54600000      1.00000000</v>
   <v name="DARWINR">      0.00000000      0.00000000</v>
   <v name="DARWINV">      1.00000000      1.00000000</v>
   <i type="logical" name="LCORR"> T  </i>
  </separator>
  <i type="logical" name="GGA_COMPAT"> T  </i>
  <i type="logical" name="LBERRY"> F  </i>
  <i type="int" name="ICORELEVEL">     0</i>
  <i type="logical" name="LDAU"> F  </i>
  <i type="int" name="I_CONSTRAINED_M">     0</i>
  <separator name="electronic exchange-correlation" >
   <i type="string" name="GGA">--</i>
   <i type="int" name="VOSKOWN">     0</i>
   <i type="logical" name="LHFCALC"> F  </i>
   <i type="string" name="PRECFOCK"></i>
   <i type="logical" name="LSYMGRAD"> F  </i>
   <i type="logical" name="LHFONE"> F  </i>
   <i type="logical" name="LRHFCALC"> F  </i>
   <i type="logical" name="LTHOMAS"> F  </i>
   <i type="logical" name="LMODELHF"> F  </i>
   <i name="ENCUT4O">     -1.00000000</i>
   <i type="int" name="EXXOEP">     0</i>
   <i type="int" name="FOURORBIT">     0</i>
   <i name="AEXX">      0.00000000</i>
   <i name="HFALPHA">      0.00000000</i>
   <i name="MCALPHA">      0.00000000</i>
   <i name="ALDAX">      1.00000000</i>
   <i name="AGGAX">      1.00000000</i>
   <i name="ALDAC">      1.00000000</i>
   <i name="AGGAC">      1.00000000</i>
   <i type="int" name="NKREDX">     1</i>
   <i type="int" name="NKREDY">     1</i>
   <i type="int" name="NKREDZ">     1</i>
   <i type="logical" name="SHIFTRED"> F  </i>
   <i type="logical" name="ODDONLY"> F  </i>
   <i type="logical" name="EVENONLY"> F  </i>
   <i type="int" name="LMAXFOCK">     0</i>
   <i type="int" name="NMAXFOCKAE">     0</i>
   <i type="logical" name="LFOCKAEDFT"> F  </i>
   <i name="HFSCREEN">      0.00000000</i>
   <i name="HFSCREENC">      0.00000000</i>
   <i type="int" name="NBANDSGWLOW">     0</i>
  </separator>
  <separator name="vdW DFT" >
   <i type="logical" name="LUSE_VDW"> F  </i>
   <i name="Zab_VDW">     -0.84910000</i>
   <i name="PARAM1">      0.12340000</i>
   <i name="PARAM2">      1.00000000</i>
   <i name="PARAM3">      0.00000000</i>
  </separator>
  <separator name="model GW" >
   <i type="int" name="MODEL_GW">     0</i>
   <i name="MODEL_EPS0">     20.86383483</i>
   <i name="MODEL_ALPHA">      1.00000000</i>
  </separator>
  <separator name="linear response parameters" >
   <i type="logical" name="LEPSILON"> F  </i>
   <i type="logical" name="LRPA"> F  </i>
   <i type="logical" name="LNABLA"> F  </i>
   <i type="logical" name="LVEL"> F  </i>
   <i type="int" name="KINTER">     0</i>
   <i name="CSHIFT">      0.10000000</i>
   <i name="OMEGAMAX">     -1.00000000</i>
   <i name="DEG_THRESHOLD">      0.00200000</i>
   <i name="RTIME">     -0.10000000</i>
   <i name="WPLASMAI">      0.00000000</i>
   <v name="DFIELD">      0.00000000      0.00000000      0.00000000</v>
   <v name="WPLASMA">      0.00000000      0.00000000      0.00000000      0.00000000      0.00000000      0.00000000      0.00000000      0.00000000      0.00000000</v>
  </separator>
  <separator name="orbital magnetization" >
   <i type="logical" name="NUCIND"> F  </i>
   <v name="MAGPOS">      0.00000000      0.00000000      0.00000000</v>
   <i type="logical" name="LNICSALL"> T  </i>
   <i type="logical" name="ORBITALMAG"> F  </i>
   <i type="logical" name="LMAGBLOCH"> F  </i>
   <i type="logical" name="LCHIMAG"> F  </i>
   <i type="logical" name="LGAUGE"> T  </i>
   <i type="int" name="MAGATOM">     0</i>
   <v name="MAGDIPOL">      0.00000000      0.00000000      0.00000000</v>
   <v name="AVECCONST">      0.00000000      0.00000000      0.00000000</v>
  </separator>
  <separator name="response functions" >
   <i type="logical" name="LADDER"> F  </i>
   <i type="logical" name="LRPAFORCE"> F  </i>
   <i type="logical" name="LFXC"> F  </i>
   <i type="logical" name="LHARTREE"> T  </i>
   <i type="int" name="IBSE">     0</i>
   <v type="int" name="KPOINT">    -1     0     0     0</v>
   <i type="logical" name="LTCTE"> F  </i>
   <i type="logical" name="LTETE"> F  </i>
   <i type="logical" name="LTRIPLET"> F  </i>
   <i type="logical" name="LFXCEPS"> F  </i>
   <i type="logical" name="LFXHEG"> F  </i>
   <i type="int" name="NATURALO">     2</i>
   <i type="logical" name="L2ORDER"> F  </i>
   <i type="logical" name="LMP2LT"> F  </i>
   <i type="logical" name="LUSEW"> F  </i>
   <i name="ENCUTGW">     -2.00000000</i>
   <i name="ENCUTGWSOFT">     -2.00000000</i>
   <i name="ENCUTLF">     -1.00000000</i>
   <i type="int" name="LMAXMP2">    -1</i>
   <i name="SCISSOR">      0.00000000</i>
   <i type="int" name="NOMEGA">     0</i>
   <i type="int" name="NOMEGAR">     0</i>
   <i type="int" name="NBANDSGW">    -1</i>
   <i type="int" name="NBANDSO">    -1</i>
   <i type="int" name="NBANDSV">    -1</i>
   <i type="int" name="NELM">     1</i>
   <i type="int" name="NELMHF">     1</i>
   <i type="int" name="DIM">     3</i>
   <i type="int" name="ANTIRES">     0</i>
   <i name="OMEGAMAX">    -30.00000000</i>
   <i name="OMEGAMIN">    -30.00000000</i>
   <i name="OMEGATL">   -200.00000000</i>
   <i type="int" name="OMEGAGRID">   140</i>
   <i name="CSHIFT">     -0.10000000</i>
   <i type="logical" name="SELFENERGY"> F  </i>
   <i type="logical" name="LSPECTRAL"> F  </i>
   <i type="logical" name="LSPECTRALGW"> F  </i>
   <i type="logical" name="LSINGLES"> F  </i>
   <i type="logical" name="LFERMIGW"> F  </i>
   <i type="logical" name="ODDONLYGW"> F  </i>
   <i type="logical" name="EVENONLYGW"> F  </i>
   <i type="int" name="NKREDLFX">     1</i>
   <i type="int" name="NKREDLFY">     1</i>
   <i type="int" name="NKREDLFZ">     1</i>
   <i type="int" name="MAXMEM">  2800</i>
   <i type="int" name="TELESCOPE">     0</i>
   <i type="int" name="TAUPAR">     1</i>
   <i type="int" name="OMEGAPAR">    -1</i>
   <i name="LAMBDA">      1.00000000</i>
  </separator>
  <separator name="External order field" >
   <i name="OFIELD_KAPPA">      0.00000000</i>
   <v name="OFIELD_K">      0.00000000      0.00000000      0.00000000</v>
   <i name="OFIELD_Q6_NEAR">      0.00000000</i>
   <i name="OFIELD_Q6_FAR">      0.00000000</i>
   <i name="OFIELD_A">      0.00000000</i>
  </separator>
 </parameters>
 <atominfo>
  <atoms>       5 </atoms>
  <types>       2 </types>
  <array name="atoms" >
   <dimension dim="1">ion</dimension>
   <field type="string">element</field>
   <field type="int">atomtype</field>
   <set>
    <rc><c>Cu</c><c>   1</c></rc>
    <rc><c>Cu</c><c>   1</c></rc>
    <rc><c>Cu</c><c>   1</c></rc>
    <rc><c>Cu</c><c>   1</c></rc>
    <rc><c>H </c><c>   2</c></rc>
   </set>
  </array>
  <array name="atomtypes" >
   <dimension dim="1">type</dimension>
   <field type="int">atomspertype</field>
   <field type="string">element</field>
   <field>mass</field>
   <field>valence</field>
   <field type="string">pseudopotential</field>
   <set>
    <rc><c>   4</c><c>Cu</c><c>     63.54600000</c><c>     11.00000000</c><c> PAW_PBE Cu 05Jan2001                   </c></rc>
    <rc><c>   1</c><c>H </c><c>      1.00000000</c><c>      1.00000000</c><c> PAW_PBE H 15Jun2001                    </c></rc>
   </set>
  </array>
 </atominfo>
 <structure name="initialpos" >
  <crystal>
   <varray name="basis" >
    <v>       2.57386868       0.00000000       0.00000000 </v>
    <v>       1.28693434       2.22903567       0.00000000 </v>
    <v>       0.00000000       0.00000000      30.30466494 </v>
   </varray>
   <i name="volume">    173.86529028 </i>
   <varray name="rec_basis" >
    <v>       0.38852021      -0.22431225       0.00000000 </v>
    <v>       0.00000000       0.44862450       0.00000000 </v>
    <v>       0.00000000       0.00000000       0.03299822 </v>
   </varray>
  </crystal>
  <varray name="positions" >
   <v>       0.00000000       0.00000000       0.39597864 </v>
   <v>       0.33333333       0.33333333       0.46532621 </v>
   <v>       0.66666666       0.66666667       0.53467379 </v>
   <v>       0.00000000       0.00000000       0.60402136 </v>
   <v>       0.53885202       0.00000000       0.63701958 </v>
  </varray>
 </structure>
 <calculation>
  <scstep>
   <time name="dav">    0.96    0.96</time>
   <time name="total">    0.98    1.04</time>
   <energy>
    <i name="alphaZ">    120.87645803 </i>
    <i name="ewald">  38007.72388820 </i>
    <i name="hartreedc"> -43128.21384639 </i>
    <i name="XCdc">    177.43878873 </i>
    <i name="pawpsdc">   4328.99049516 </i>
    <i name="pawaedc">  -4905.09836044 </i>
    <i name="eentropy">     -0.01327237 </i>
    <i name="bandstr">     19.78818900 </i>
    <i name="atom">   5575.94961827 </i>
    <i name="e_fr_energy">    197.44195819 </i>
    <i name="e_wo_entrp">    197.45523057 </i>
    <i name="e_0_energy">    197.44859438 </i>
   </energy>
  </scstep>
  <scstep>
   <time name="dav">    0.96    0.97</time>
   <time name="total">    0.97    0.98</time>
   <energy>
    <i name="e_fr_energy">    -10.55740264 </i>
    <i name="e_wo_entrp">    -10.54325954 </i>
    <i name="e_0_energy">    -10.55033109 </i>
   </energy>
  </scstep>
  <scstep>
   <time name="dav">    1.01    1.01</time>
   <time name="total">    1.02    1.02</time>
   <energy>
    <i name="e_fr_energy">    -20.88348861 </i>
    <i name="e_wo_entrp">    -20.87273359 </i>
    <i name="e_0_energy">    -20.87811110 </i>
   </energy>
  </scstep>
  <scstep>
   <time name="dav">    1.02    1.02</time>
   <time name="total">    1.02    1.03</time>
   <energy>
    <i name="e_fr_energy">    -20.99577157 </i>
    <i name="e_wo_entrp">    -20.98560821 </i>
    <i name="e_0_energy">    -20.99068989 </i>
   </energy>
  </scstep>
  <scstep>
   <time name="dav">    1.04    1.04</time>
   <time name="total">    1.10    1.11</time>
   <energy>
    <i name="e_fr_energy">    -20.99695310 </i>
    <i name="e_wo_entrp">    -20.98678980 </i>
    <i name="e_0_energy">    -20.99187145 </i>
   </energy>
  </scstep>
  <scstep>
   <time name="diag">    0.19    0.19</time>
   <time name="diis">    0.59    0.59</time>
   <time name="orth">    0.02    0.02</time>
   <time name="total">    0.89    0.89</time>
   <energy>
    <i name="e_fr_energy">    -18.91855035 </i>
    <i name="e_wo_entrp">    -18.91125792 </i>
    <i name="e_0_energy">    -18.91490414 </i>
   </energy>
  </scstep>
  <scstep>
   <time name="diag">    0.19    0.19</time>
   <time name="diis">    0.55    0.55</time>
   <time name="orth">    0.02    0.02</time>
   <time name="total">    0.84    0.84</time>
   <energy>
    <i name="e_fr_energy">    -17.08659947 </i>
    <i name="e_wo_entrp">    -17.07017924 </i>
    <i name="e_0_energy">    -17.07838936 </i>
   </energy>
  </scstep>
  <scstep>
   <time name="diag">    0.19    0.19</time>
   <time name="diis">    0.60    0.60</time>
   <time name="orth">    0.02    0.02</time>
   <time name="total">    0.89    0.90</time>
   <energy>
    <i name="e_fr_energy">    -17.11568224 </i>
    <i name="e_wo_entrp">    -17.10498654 </i>
    <i name="e_0_energy">    -17.11033439 </i>
   </energy>
  </scstep>
  <scstep>
   <time name="diag">    0.19    0.19</time>
   <time name="diis">    0.60    0.60</time>
   <time name="orth">    0.02    0.02</time>
   <time name="total">    0.89    0.90</time>
   <energy>
    <i name="e_fr_energy">    -17.00771908 </i>
    <i name="e_wo_entrp">    -16.99208783 </i>
    <i name="e_0_energy">    -16.99990346 </i>
   </energy>
  </scstep>
  <scstep>
   <time name="diag">    0.19    0.19</time>
   <time name="diis">    0.60    0.60</time>
   <time name="orth">    0.02    0.02</time>
   <time name="total">    0.89    0.89</time>
   <energy>
    <i name="e_fr_energy">    -16.99628441 </i>
    <i name="e_wo_entrp">    -16.97937607 </i>
    <i name="e_0_energy">    -16.98783024 </i>
   </energy>
  </scstep>
  <scstep>
   <time name="diag">    0.19    0.19</time>
   <time name="diis">    0.59    0.59</time>
   <time name="orth">    0.02    0.02</time>
   <time name="total">    0.88    0.88</time>
   <energy>
    <i name="e_fr_energy">    -16.99065529 </i>
    <i name="e_wo_entrp">    -16.97401830 </i>
    <i name="e_0_energy">    -16.98233679 </i>
   </energy>
  </scstep>
  <scstep>
   <time name="diag">    0.20    0.20</time>
   <time name="diis">    0.61    0.61</time>
   <time name="orth">    0.02    0.02</time>
   <time name="total">    0.91    0.91</time>
   <energy>
    <i name="e_fr_energy">    -16.98978094 </i>
    <i name="e_wo_entrp">    -16.97301747 </i>
    <i name="e_0_energy">    -16.98139921 </i>
   </energy>
  </scstep>
  <scstep>
   <time name="diag">    0.20    0.20</time>
   <time name="diis">    0.62    0.61</time>
   <time name="orth">    0.02    0.02</time>
   <time name="total">    0.91    0.91</time>
   <energy>
    <i name="e_fr_energy">    -16.98925740 </i>
    <i name="e_wo_entrp">    -16.97243363 </i>
    <i name="e_0_energy">    -16.98084551 </i>
   </energy>
  </scstep>
  <scstep>
   <time name="diag">    0.20    0.20</time>
   <time name="diis">    0.60    0.60</time>
   <time name="orth">    0.02    0.02</time>
   <time name="total">    0.90    0.90</time>
   <energy>
    <i name="e_fr_energy">    -16.98917640 </i>
    <i name="e_wo_entrp">    -16.97242575 </i>
    <i name="e_0_energy">    -16.98080107 </i>
   </energy>
  </scstep>
  <scstep>
   <time name="diag">    0.20    0.20</time>
   <time name="diis">    0.57    0.57</time>
   <time name="orth">    0.02    0.02</time>
   <time name="total">    0.87    0.87</time>
   <energy>
    <i name="e_fr_energy">    -16.98929002 </i>
    <i name="e_wo_entrp">    -16.97232827 </i>
    <i name="e_0_energy">    -16.98080914 </i>
   </energy>
  </scstep>
  <scstep>
   <time name="diag">    0.20    0.20</time>
   <time name="diis">    0.57    0.57</time>
   <time name="orth">    0.02    0.02</time>
   <time name="total">    0.87    0.87</time>
   <energy>
    <i name="e_fr_energy">    -16.98949559 </i>
    <i name="e_wo_entrp">    -16.97252732 </i>
    <i name="e_0_energy">    -16.98101146 </i>
   </energy>
  </scstep>
  <scstep>
   <time name="diag">    0.20    0.20</time>
   <time name="diis">    0.56    0.56</time>
   <time name="orth">    0.02    0.02</time>
   <time name="total">    0.86    0.86</time>
   <energy>
    <i name="e_fr_energy">    -16.98972835 </i>
    <i name="e_wo_entrp">    -16.97272797 </i>
    <i name="e_0_energy">    -16.98122816 </i>
   </energy>
  </scstep>
  <scstep>
   <time name="diag">    0.20    0.20</time>
   <time name="diis">    0.47    0.47</time>
   <time name="orth">    0.02    0.02</time>
   <time name="total">    0.77    0.77</time>
   <energy>
    <i name="e_fr_energy">    -16.98984327 </i>
    <i name="e_wo_entrp">    -16.97284037 </i>
    <i name="e_0_energy">    -16.98134182 </i>
   </energy>
  </scstep>
  <scstep>
   <time name="diag">    0.20    0.20</time>
   <time name="diis">    0.40    0.40</time>
   <time name="orth">    0.02    0.02</time>
   <time name="total">    0.70    0.70</time>
   <energy>
    <i name="e_fr_energy">    -16.98989870 </i>
    <i name="e_wo_entrp">    -16.97289974 </i>
    <i name="e_0_energy">    -16.98139922 </i>
   </energy>
  </scstep>
  <scstep>
   <time name="diag">    0.19    0.19</time>
   <time name="diis">    0.38    0.38</time>
   <time name="orth">    0.02    0.02</time>
   <time name="total">    0.67    0.67</time>
   <energy>
    <i name="e_fr_energy">    -16.98992962 </i>
    <i name="e_wo_entrp">    -16.97291984 </i>
    <i name="e_0_energy">    -16.98142473 </i>
   </energy>
  </scstep>
  <scstep>
   <time name="diag">    0.19    0.19</time>
   <time name="diis">    0.38    0.38</time>
   <time name="orth">    0.02    0.02</time>
   <time name="total">    0.68    0.68</time>
   <energy>
    <i name="e_fr_energy">    -16.98994209 </i>
    <i name="e_wo_entrp">    -16.97293632 </i>
    <i name="e_0_energy">    -16.98143921 </i>
   </energy>
  </scstep>
  <scstep>
   <time name="diag">    0.20    0.20</time>
   <time name="diis">    0.39    0.39</time>
   <time name="orth">    0.02    0.02</time>
   <time name="total">    0.69    0.70</time>
   <energy>
    <i name="e_fr_energy">    -16.98994688 </i>
    <i name="e_wo_entrp">    -16.97293817 </i>
    <i name="e_0_energy">    -16.98144253 </i>
   </energy>
  </scstep>
  <scstep>
   <time name="diag">    0.20    0.20</time>
   <time name="diis">    0.38    0.38</time>
   <time name="orth">    0.02    0.02</time>
   <time name="total">    0.68    0.68</time>
   <energy>
    <i name="e_fr_energy">    -16.98994827 </i>
    <i name="e_wo_entrp">    -16.97294054 </i>
    <i name="e_0_energy">    -16.98144441 </i>
   </energy>
  </scstep>
  <scstep>
   <time name="diag">    0.19    0.19</time>
   <time name="diis">    0.31    0.31</time>
   <time name="orth">    0.02    0.02</time>
   <time name="total">    0.55    0.55</time>
   <energy>
    <i name="alphaZ">    120.87645803 </i>
    <i name="ewald">  38007.72388820 </i>
    <i name="hartreedc"> -43075.17972607 </i>
    <i name="XCdc">    173.39625243 </i>
    <i name="pawpsdc">   4396.59401611 </i>
    <i name="pawaedc">  -4972.51379873 </i>
    <i name="eentropy">     -0.01700823 </i>
    <i name="bandstr">   -243.81964846 </i>
    <i name="atom">   5575.94961827 </i>
    <i name="e_fr_energy">    -16.98994844 </i>
    <i name="e_wo_entrp">    -16.97294022 </i>
    <i name="e_0_energy">    -16.98144433 </i>
   </energy>
  </scstep>
  <structure>
   <crystal>
    <varray name="basis" >
     <v>       2.57386868       0.00000000       0.00000000 </v>
     <v>       1.28693434       2.22903567       0.00000000 </v>
     <v>       0.00000000       0.00000000      30.30466494 </v>
    </varray>
    <i name="volume">    173.86529028 </i>
    <varray name="rec_basis" >
     <v>       0.38852021      -0.22431225       0.00000000 </v>
     <v>       0.00000000       0.44862450       0.00000000 </v>
     <v>       0.00000000       0.00000000       0.03299822 </v>
    </varray>
   </crystal>
   <varray name="positions" >
    <v>       0.00000000       0.00000000       0.39597864 </v>
    <v>       0.33333333       0.33333333       0.46532621 </v>
    <v>       0.66666666       0.66666667       0.53467379 </v>
    <v>       0.00000000       0.00000000       0.60402136 </v>
    <v>       0.53885202       0.00000000       0.63701958 </v>
   </varray>
  </structure>
  <varray name="forces" >
   <v>       0.00003652       0.01144849       0.14295387 </v>
   <v>       0.00027432       0.00280714      -0.01908904 </v>
   <v>       0.00600298       0.01676232      -0.27890250 </v>
   <v>       0.62859263      -0.01632305      -0.06076363 </v>
   <v>      -0.63490646      -0.01469490       0.21580129 </v>
  </varray>
  <varray name="stress" >
   <v>     -43.34297229      -0.13494099      -5.92998354 </v>
   <v>      -0.13494101     -44.65606006      -1.28268772 </v>
   <v>      -5.92998352      -1.28268760     -44.34132604 </v>
  </varray>
  <energy>
   <i name="e_fr_energy">    -16.98994844 </i>
   <i name="e_wo_entrp">    -16.98144433 </i>
   <i name="e_0_energy">     -0.01700823 </i>
  </energy>
  <time name="totalsc">   21.78   21.90</time>
  <eigenvalues>
   <array>
    <dimension dim="1">band</dimension>
    <dimension dim="2">kpoint</dimension>
    <dimension dim="3">spin</dimension>
    <field>eigene</field>
    <field>occ</field>
    <set>
     <set comment="spin 1">
      <set comment="kpoint 1">
       <r>  -11.6187    1.0000 </r>
       <r>  -10.6357    1.0000 </r>
       <r>   -9.0345    1.0000 </r>
       <r>   -7.5864    1.0000 </r>
       <r>   -6.3357    1.0000 </r>
       <r>   -5.7066    1.0000 </r>
       <r>   -5.5544    1.0000 </r>
       <r>   -5.4810    1.0000 </r>
       <r>   -5.3653    1.0000 </r>
       <r>   -5.3507    1.0000 </r>
       <r>   -5.3289    1.0000 </r>
       <r>   -5.2866    1.0000 </r>
       <r>   -5.2851    1.0000 </r>
       <r>   -5.0345    1.0000 </r>
       <r>   -5.0304    1.0000 </r>
       <r>   -4.9336    1.0000 </r>
       <r>   -4.8388    1.0000 </r>
       <r>   -4.7445    1.0000 </r>
       <r>   -4.5416    1.0000 </r>
       <r>   -4.5325    1.0000 </r>
       <r>   -4.3263    1.0000 </r>
       <r>   -4.3100    1.0000 </r>
       <r>   -4.0477    1.0000 </r>
       <r>   -4.0430    1.0000 </r>
       <r>   -2.9654    1.0000 </r>
       <r>    1.6214    0.0000 </r>
       <r>    1.9487    0.0000 </r>
       <r>    2.3752    0.0000 </r>
      </set>
      <set comment="kpoint 2">
       <r>  -11.3112    1.0000 </r>
       <r>  -10.3391    1.0000 </r>
       <r>   -8.7757    1.0000 </r>
       <r>   -7.3665    1.0000 </r>
       <r>   -6.3594    1.0000 </r>
       <r>   -5.7422    1.0000 </r>
       <r>   -5.6493    1.0000 </r>
       <r>   -5.4931    1.0000 </r>
       <r>   -5.4358    1.0000 </r>
       <r>   -5.3811    1.0000 </r>
       <r>   -5.3396    1.0000 </r>
       <r>   -5.2512    1.0000 </r>
       <r>   -5.1913    1.0000 </r>
       <r>   -5.1556    1.0000 </r>
       <r>   -5.0542    1.0000 </r>
       <r>   -4.9447    1.0000 </r>
       <r>   -4.8175    1.0000 </r>
       <r>   -4.7408    1.0000 </r>
       <r>   -4.5466    1.0000 </r>
       <r>   -4.5141    1.0000 </r>
       <r>   -4.3418    1.0000 </r>
       <r>   -4.3088    1.0000 </r>
       <r>   -4.0398    1.0000 </r>
       <r>   -3.7998    1.0000 </r>
       <r>   -2.2754    0.0608 </r>
       <r>    1.8641    0.0000 </r>
       <r>    2.2521    0.0000 </r>
       <r>    2.6783    0.0000 </r>
      </set>
      <set comment="kpoint 3">
       <r>  -10.4268    1.0000 </r>
       <r>   -9.5026    1.0000 </r>
       <r>   -8.1115    1.0000 </r>
       <r>   -6.8562    1.0000 </r>
       <r>   -6.4607    1.0000 </r>
       <r>   -5.9824    1.0000 </r>
       <r>   -5.8198    1.0000 </r>
       <r>   -5.7031    1.0000 </r>
       <r>   -5.5304    1.0000 </r>
       <r>   -5.3304    1.0000 </r>
       <r>   -5.2692    1.0000 </r>
       <r>   -5.2395    1.0000 </r>
       <r>   -5.1244    1.0000 </r>
       <r>   -5.0527    1.0000 </r>
       <r>   -4.9278    1.0000 </r>
       <r>   -4.8757    1.0000 </r>
       <r>   -4.8339    1.0000 </r>
       <r>   -4.6602    1.0000 </r>
       <r>   -4.6154    1.0000 </r>
       <r>   -4.4907    1.0000 </r>
       <r>   -4.3114    1.0000 </r>
       <r>   -4.1166    1.0000 </r>
       <r>   -4.0350    1.0000 </r>
       <r>   -2.9086    1.0000 </r>
       <r>   -0.9358    0.0000 </r>
       <r>    2.5855    0.0000 </r>
       <r>    3.1616    0.0000 </r>
       <r>    3.5886    0.0000 </r>
      </set>
      <set comment="kpoint 4">
       <r>   -9.1284    1.0000 </r>
       <r>   -8.3681    1.0000 </r>
       <r>   -7.4793    1.0000 </r>
       <r>   -6.7049    1.0000 </r>
       <r>   -6.4474    1.0000 </r>
       <r>   -6.2476    1.0000 </r>
       <r>   -5.9421    1.0000 </r>
       <r>   -5.7101    1.0000 </r>
       <r>   -5.5877    1.0000 </r>
       <r>   -5.3378    1.0000 </r>
       <r>   -5.2176    1.0000 </r>
       <r>   -5.1071    1.0000 </r>
       <r>   -4.9319    1.0000 </r>
       <r>   -4.8828    1.0000 </r>
       <r>   -4.8086    1.0000 </r>
       <r>   -4.6603    1.0000 </r>
       <r>   -4.5665    1.0000 </r>
       <r>   -4.4232    1.0000 </r>
       <r>   -4.3836    1.0000 </r>
       <r>   -4.3026    1.0000 </r>
       <r>   -4.1869    1.0000 </r>
       <r>   -4.0223    1.0000 </r>
       <r>   -3.6101    1.0000 </r>
       <r>   -1.7175    0.0000 </r>
       <r>    0.7627    0.0000 </r>
       <r>    3.7655    0.0000 </r>
       <r>    4.6373    0.0000 </r>
       <r>    5.0684    0.0000 </r>
      </set>
      <set comment="kpoint 5">
       <r>   -8.0633    1.0000 </r>
       <r>   -7.4770    1.0000 </r>
       <r>   -7.1479    1.0000 </r>
       <r>   -6.8093    1.0000 </r>
       <r>   -6.5596    1.0000 </r>
       <r>   -6.4117    1.0000 </r>
       <r>   -6.0655    1.0000 </r>
       <r>   -5.5354    1.0000 </r>
       <r>   -5.4184    1.0000 </r>
       <r>   -5.3187    1.0000 </r>
       <r>   -5.2617    1.0000 </r>
       <r>   -4.9674    1.0000 </r>
       <r>   -4.8488    1.0000 </r>
       <r>   -4.5341    1.0000 </r>
       <r>   -4.4231    1.0000 </r>
       <r>   -4.3661    1.0000 </r>
       <r>   -4.1615    1.0000 </r>
       <r>   -4.1398    1.0000 </r>
       <r>   -4.1054    1.0000 </r>
       <r>   -4.0232    1.0000 </r>
       <r>   -3.8705    1.0000 </r>
       <r>   -3.5842    1.0000 </r>
       <r>   -2.5342    0.9826 </r>
       <r>   -0.3102    0.0000 </r>
       <r>    2.1867    0.0000 </r>
       <r>    2.7896    0.0000 </r>
       <r>    3.1607    0.0000 </r>
       <r>    4.3906    0.0000 </r>
      </set>
      <set comment="kpoint 6">
       <r>   -7.8574    1.0000 </r>
       <r>   -7.1705    1.0000 </r>
       <r>   -6.9613    1.0000 </r>
       <r>   -6.8713    1.0000 </r>
       <r>   -6.6177    1.0000 </r>
       <r>   -6.4634    1.0000 </r>
       <r>   -6.0930    1.0000 </r>
       <r>   -5.4597    1.0000 </r>
       <r>   -5.4440    1.0000 </r>
       <r>   -5.2835    1.0000 </r>
       <r>   -5.1615    1.0000 </r>
       <r>   -4.9578    1.0000 </r>
       <r>   -4.6283    1.0000 </r>
       <r>   -4.4681    1.0000 </r>
       <r>   -4.3317    1.0000 </r>
       <r>   -4.2312    1.0000 </r>
       <r>   -4.1006    1.0000 </r>
       <r>   -4.0060    1.0000 </r>
       <r>   -3.9503    1.0000 </r>
       <r>   -3.7538    1.0000 </r>
       <r>   -3.6626    1.0000 </r>
       <r>   -2.2473    0.0259 </r>
       <r>   -1.4116    0.0000 </r>
       <r>   -0.8718    0.0000 </r>
       <r>    1.4067    0.0000 </r>
       <r>    2.0698    0.0000 </r>
       <r>    2.7249    0.0000 </r>
       <r>    3.6888    0.0000 </r>
      </set>
      <set comment="kpoint 7">
       <r>  -11.3252    1.0000 </r>
       <r>  -10.3404    1.0000 </r>
       <r>   -8.7661    1.0000 </r>
       <r>   -7.3618    1.0000 </r>
       <r>   -6.2849    1.0000 </r>
       <r>   -5.7756    1.0000 </r>
       <r>   -5.5659    1.0000 </r>
       <r>   -5.4550    1.0000 </r>
       <r>   -5.4213    1.0000 </r>
       <r>   -5.3937    1.0000 </r>
       <r>   -5.3238    1.0000 </r>
       <r>   -5.2922    1.0000 </r>
       <r>   -5.1863    1.0000 </r>
       <r>   -5.1570    1.0000 </r>
       <r>   -5.0547    1.0000 </r>
       <r>   -4.9689    1.0000 </r>
       <r>   -4.8905    1.0000 </r>
       <r>   -4.7586    1.0000 </r>
       <r>   -4.5576    1.0000 </r>
       <r>   -4.5023    1.0000 </r>
       <r>   -4.3452    1.0000 </r>
       <r>   -4.3219    1.0000 </r>
       <r>   -4.0436    1.0000 </r>
       <r>   -3.8208    1.0000 </r>
       <r>   -2.2851    0.0791 </r>
       <r>    1.8649    0.0000 </r>
       <r>    2.2519    0.0000 </r>
       <r>    2.6776    0.0000 </r>
      </set>
      <set comment="kpoint 8">
       <r>  -11.3113    1.0000 </r>
       <r>  -10.3390    1.0000 </r>
       <r>   -8.7757    1.0000 </r>
       <r>   -7.3669    1.0000 </r>
       <r>   -6.3557    1.0000 </r>
       <r>   -5.7425    1.0000 </r>
       <r>   -5.6589    1.0000 </r>
       <r>   -5.4940    1.0000 </r>
       <r>   -5.4274    1.0000 </r>
       <r>   -5.3918    1.0000 </r>
       <r>   -5.3371    1.0000 </r>
       <r>   -5.2513    1.0000 </r>
       <r>   -5.1907    1.0000 </r>
       <r>   -5.1530    1.0000 </r>
       <r>   -5.0551    1.0000 </r>
       <r>   -4.9452    1.0000 </r>
       <r>   -4.7980    1.0000 </r>
       <r>   -4.7482    1.0000 </r>
       <r>   -4.5485    1.0000 </r>
       <r>   -4.5105    1.0000 </r>
       <r>   -4.3460    1.0000 </r>
       <r>   -4.3107    1.0000 </r>
       <r>   -4.0404    1.0000 </r>
       <r>   -3.8010    1.0000 </r>
       <r>   -2.2762    0.0622 </r>
       <r>    1.8641    0.0000 </r>
       <r>    2.2521    0.0000 </r>
       <r>    2.6779    0.0000 </r>
      </set>
      <set comment="kpoint 9">
       <r>  -10.7045    1.0000 </r>
       <r>   -9.7719    1.0000 </r>
       <r>   -8.3224    1.0000 </r>
       <r>   -6.9950    1.0000 </r>
       <r>   -6.4344    1.0000 </r>
       <r>   -5.8765    1.0000 </r>
       <r>   -5.8053    1.0000 </r>
       <r>   -5.6338    1.0000 </r>
       <r>   -5.5278    1.0000 </r>
       <r>   -5.4174    1.0000 </r>
       <r>   -5.3295    1.0000 </r>
       <r>   -5.2139    1.0000 </r>
       <r>   -5.1468    1.0000 </r>
       <r>   -5.1240    1.0000 </r>
       <r>   -4.9834    1.0000 </r>
       <r>   -4.8842    1.0000 </r>
       <r>   -4.7595    1.0000 </r>
       <r>   -4.6519    1.0000 </r>
       <r>   -4.6223    1.0000 </r>
       <r>   -4.4851    1.0000 </r>
       <r>   -4.3935    1.0000 </r>
       <r>   -4.1358    1.0000 </r>
       <r>   -4.0676    1.0000 </r>
       <r>   -3.1421    1.0000 </r>
       <r>   -1.3210    0.0000 </r>
       <r>    2.3463    0.0000 </r>
       <r>    2.8591    0.0000 </r>
       <r>    3.2838    0.0000 </r>
      </set>
      <set comment="kpoint 10">
       <r>   -9.6022    1.0000 </r>
       <r>   -8.7732    1.0000 </r>
       <r>   -7.6642    1.0000 </r>
       <r>   -6.6354    1.0000 </r>
       <r>   -6.3699    1.0000 </r>
       <r>   -6.0940    1.0000 </r>
       <r>   -5.9284    1.0000 </r>
       <r>   -5.8045    1.0000 </r>
       <r>   -5.6468    1.0000 </r>
       <r>   -5.3620    1.0000 </r>
       <r>   -5.3216    1.0000 </r>
       <r>   -5.2089    1.0000 </r>
       <r>   -5.1228    1.0000 </r>
       <r>   -5.0081    1.0000 </r>
       <r>   -4.9091    1.0000 </r>
       <r>   -4.7992    1.0000 </r>
       <r>   -4.6495    1.0000 </r>
       <r>   -4.5132    1.0000 </r>
       <r>   -4.3923    1.0000 </r>
       <r>   -4.3507    1.0000 </r>
       <r>   -4.2013    1.0000 </r>
       <r>   -4.0981    1.0000 </r>
       <r>   -3.7253    1.0000 </r>
       <r>   -2.1177    0.0001 </r>
       <r>    0.1541    0.0000 </r>
       <r>    3.3176    0.0000 </r>
       <r>    4.0668    0.0000 </r>
       <r>    4.5085    0.0000 </r>
      </set>
      <set comment="kpoint 11">
       <r>   -8.4007    1.0000 </r>
       <r>   -7.7310    1.0000 </r>
       <r>   -7.1798    1.0000 </r>
       <r>   -6.6572    1.0000 </r>
       <r>   -6.4254    1.0000 </r>
       <r>   -6.2499    1.0000 </r>
       <r>   -5.9861    1.0000 </r>
       <r>   -5.6734    1.0000 </r>
       <r>   -5.6010    1.0000 </r>
       <r>   -5.3515    1.0000 </r>
       <r>   -5.2644    1.0000 </r>
       <r>   -5.1319    1.0000 </r>
       <r>   -4.9525    1.0000 </r>
       <r>   -4.7881    1.0000 </r>
       <r>   -4.7333    1.0000 </r>
       <r>   -4.5541    1.0000 </r>
       <r>   -4.4418    1.0000 </r>
       <r>   -4.3204    1.0000 </r>
       <r>   -4.2206    1.0000 </r>
       <r>   -4.0452    1.0000 </r>
       <r>   -3.9938    1.0000 </r>
       <r>   -3.6743    1.0000 </r>
       <r>   -2.8215    1.0000 </r>
       <r>   -0.7002    0.0000 </r>
       <r>    1.9659    0.0000 </r>
       <r>    3.9586    0.0000 </r>
       <r>    4.4097    0.0000 </r>
       <r>    5.1235    0.0000 </r>
      </set>
      <set comment="kpoint 12">
       <r>   -7.8832    1.0000 </r>
       <r>   -7.0930    1.0000 </r>
       <r>   -6.9096    1.0000 </r>
       <r>   -6.7242    1.0000 </r>
       <r>   -6.5259    1.0000 </r>
       <r>   -6.3508    1.0000 </r>
       <r>   -6.0635    1.0000 </r>
       <r>   -5.5701    1.0000 </r>
       <r>   -5.4571    1.0000 </r>
       <r>   -5.3483    1.0000 </r>
       <r>   -5.2343    1.0000 </r>
       <r>   -5.0480    1.0000 </r>
       <r>   -4.8195    1.0000 </r>
       <r>   -4.5870    1.0000 </r>
       <r>   -4.4517    1.0000 </r>
       <r>   -4.3029    1.0000 </r>
       <r>   -4.1852    1.0000 </r>
       <r>   -4.1550    1.0000 </r>
       <r>   -4.0786    1.0000 </r>
       <r>   -3.9257    1.0000 </r>
       <r>   -3.4774    1.0000 </r>
       <r>   -2.3757    0.4483 </r>
       <r>   -1.3657    0.0000 </r>
       <r>    0.0637    0.0000 </r>
       <r>    1.6993    0.0000 </r>
       <r>    2.4438    0.0000 </r>
       <r>    2.9359    0.0000 </r>
       <r>    4.1665    0.0000 </r>
      </set>
      <set comment="kpoint 13">
       <r>   -7.8037    1.0000 </r>
       <r>   -7.0919    1.0000 </r>
       <r>   -6.9017    1.0000 </r>
       <r>   -6.7501    1.0000 </r>
       <r>   -6.5255    1.0000 </r>
       <r>   -6.3785    1.0000 </r>
       <r>   -6.0849    1.0000 </r>
       <r>   -5.6305    1.0000 </r>
       <r>   -5.4451    1.0000 </r>
       <r>   -5.3580    1.0000 </r>
       <r>   -5.2756    1.0000 </r>
       <r>   -5.0518    1.0000 </r>
       <r>   -4.8424    1.0000 </r>
       <r>   -4.5555    1.0000 </r>
       <r>   -4.4598    1.0000 </r>
       <r>   -4.3031    1.0000 </r>
       <r>   -4.1908    1.0000 </r>
       <r>   -4.1294    1.0000 </r>
       <r>   -4.0803    1.0000 </r>
       <r>   -3.9203    1.0000 </r>
       <r>   -3.3973    1.0000 </r>
       <r>   -2.3768    0.4545 </r>
       <r>   -1.3918    0.0000 </r>
       <r>    0.0527    0.0000 </r>
       <r>    1.6920    0.0000 </r>
       <r>    2.4117    0.0000 </r>
       <r>    2.9780    0.0000 </r>
       <r>    4.1455    0.0000 </r>
      </set>
      <set comment="kpoint 14">
       <r>   -8.3578    1.0000 </r>
       <r>   -7.6929    1.0000 </r>
       <r>   -7.1553    1.0000 </r>
       <r>   -6.6731    1.0000 </r>
       <r>   -6.4344    1.0000 </r>
       <r>   -6.2865    1.0000 </r>
       <r>   -6.0289    1.0000 </r>
       <r>   -5.7161    1.0000 </r>
       <r>   -5.6175    1.0000 </r>
       <r>   -5.3784    1.0000 </r>
       <r>   -5.3043    1.0000 </r>
       <r>   -5.1426    1.0000 </r>
       <r>   -4.9599    1.0000 </r>
       <r>   -4.7919    1.0000 </r>
       <r>   -4.6604    1.0000 </r>
       <r>   -4.5512    1.0000 </r>
       <r>   -4.4287    1.0000 </r>
       <r>   -4.2725    1.0000 </r>
       <r>   -4.1952    1.0000 </r>
       <r>   -4.0301    1.0000 </r>
       <r>   -3.9650    1.0000 </r>
       <r>   -3.6708    1.0000 </r>
       <r>   -2.8780    1.0000 </r>
       <r>   -0.7966    0.0000 </r>
       <r>    1.8938    0.0000 </r>
       <r>    4.0265    0.0000 </r>
       <r>    4.4590    0.0000 </r>
       <r>    5.1414    0.0000 </r>
      </set>
      <set comment="kpoint 15">
       <r>   -9.6508    1.0000 </r>
       <r>   -8.7484    1.0000 </r>
       <r>   -7.5771    1.0000 </r>
       <r>   -6.5927    1.0000 </r>
       <r>   -6.3692    1.0000 </r>
       <r>   -6.1182    1.0000 </r>
       <r>   -5.9512    1.0000 </r>
       <r>   -5.8118    1.0000 </r>
       <r>   -5.6403    1.0000 </r>
       <r>   -5.3742    1.0000 </r>
       <r>   -5.3265    1.0000 </r>
       <r>   -5.2422    1.0000 </r>
       <r>   -5.0906    1.0000 </r>
       <r>   -4.9597    1.0000 </r>
       <r>   -4.8720    1.0000 </r>
       <r>   -4.7997    1.0000 </r>
       <r>   -4.6230    1.0000 </r>
       <r>   -4.5523    1.0000 </r>
       <r>   -4.4147    1.0000 </r>
       <r>   -4.3475    1.0000 </r>
       <r>   -4.1980    1.0000 </r>
       <r>   -4.1023    1.0000 </r>
       <r>   -3.7789    1.0000 </r>
       <r>   -2.2249    0.0118 </r>
       <r>    0.1001    0.0000 </r>
       <r>    3.3132    0.0000 </r>
       <r>    4.0670    0.0000 </r>
       <r>    4.5204    0.0000 </r>
      </set>
      <set comment="kpoint 16">
       <r>  -10.7440    1.0000 </r>
       <r>   -9.7707    1.0000 </r>
       <r>   -8.2827    1.0000 </r>
       <r>   -6.9739    1.0000 </r>
       <r>   -6.3142    1.0000 </r>
       <r>   -5.8913    1.0000 </r>
       <r>   -5.7750    1.0000 </r>
       <r>   -5.6315    1.0000 </r>
       <r>   -5.5060    1.0000 </r>
       <r>   -5.3899    1.0000 </r>
       <r>   -5.2461    1.0000 </r>
       <r>   -5.2295    1.0000 </r>
       <r>   -5.1783    1.0000 </r>
       <r>   -5.1488    1.0000 </r>
       <r>   -4.9848    1.0000 </r>
       <r>   -4.9131    1.0000 </r>
       <r>   -4.7684    1.0000 </r>
       <r>   -4.7115    1.0000 </r>
       <r>   -4.6520    1.0000 </r>
       <r>   -4.5084    1.0000 </r>
       <r>   -4.4050    1.0000 </r>
       <r>   -4.1424    1.0000 </r>
       <r>   -4.0813    1.0000 </r>
       <r>   -3.2203    1.0000 </r>
       <r>   -1.3509    0.0000 </r>
       <r>    2.3474    0.0000 </r>
       <r>    2.8586    0.0000 </r>
       <r>    3.2829    0.0000 </r>
      </set>
      <set comment="kpoint 17">
       <r>  -10.5009    1.0000 </r>
       <r>   -9.5045    1.0000 </r>
       <r>   -8.0564    1.0000 </r>
       <r>   -6.8245    1.0000 </r>
       <r>   -6.2256    1.0000 </r>
       <r>   -5.9382    1.0000 </r>
       <r>   -5.7391    1.0000 </r>
       <r>   -5.6609    1.0000 </r>
       <r>   -5.5395    1.0000 </r>
       <r>   -5.3653    1.0000 </r>
       <r>   -5.2725    1.0000 </r>
       <r>   -5.2529    1.0000 </r>
       <r>   -5.1504    1.0000 </r>
       <r>   -5.0900    1.0000 </r>
       <r>   -4.9550    1.0000 </r>
       <r>   -4.8933    1.0000 </r>
       <r>   -4.8700    1.0000 </r>
       <r>   -4.6761    1.0000 </r>
       <r>   -4.6425    1.0000 </r>
       <r>   -4.5044    1.0000 </r>
       <r>   -4.3240    1.0000 </r>
       <r>   -4.1769    1.0000 </r>
       <r>   -4.0390    1.0000 </r>
       <r>   -3.0372    1.0000 </r>
       <r>   -0.9879    0.0000 </r>
       <r>    2.5830    0.0000 </r>
       <r>    3.1608    0.0000 </r>
       <r>    3.5884    0.0000 </r>
      </set>
      <set comment="kpoint 18">
       <r>  -10.7441    1.0000 </r>
       <r>   -9.7703    1.0000 </r>
       <r>   -8.2828    1.0000 </r>
       <r>   -6.9760    1.0000 </r>
       <r>   -6.3077    1.0000 </r>
       <r>   -5.8870    1.0000 </r>
       <r>   -5.7891    1.0000 </r>
       <r>   -5.6188    1.0000 </r>
       <r>   -5.5159    1.0000 </r>
       <r>   -5.3891    1.0000 </r>
       <r>   -5.2764    1.0000 </r>
       <r>   -5.2249    1.0000 </r>
       <r>   -5.1539    1.0000 </r>
       <r>   -5.1449    1.0000 </r>
       <r>   -4.9940    1.0000 </r>
       <r>   -4.9241    1.0000 </r>
       <r>   -4.7607    1.0000 </r>
       <r>   -4.6763    1.0000 </r>
       <r>   -4.6556    1.0000 </r>
       <r>   -4.5282    1.0000 </r>
       <r>   -4.4057    1.0000 </r>
       <r>   -4.1320    1.0000 </r>
       <r>   -4.0847    1.0000 </r>
       <r>   -3.2269    1.0000 </r>
       <r>   -1.3530    0.0000 </r>
       <r>    2.3475    0.0000 </r>
       <r>    2.8584    0.0000 </r>
       <r>    3.2828    0.0000 </r>
      </set>
      <set comment="kpoint 19">
       <r>  -10.4271    1.0000 </r>
       <r>   -9.5019    1.0000 </r>
       <r>   -8.1122    1.0000 </r>
       <r>   -6.8612    1.0000 </r>
       <r>   -6.4418    1.0000 </r>
       <r>   -5.9914    1.0000 </r>
       <r>   -5.8276    1.0000 </r>
       <r>   -5.6966    1.0000 </r>
       <r>   -5.5488    1.0000 </r>
       <r>   -5.3302    1.0000 </r>
       <r>   -5.2742    1.0000 </r>
       <r>   -5.2456    1.0000 </r>
       <r>   -5.0980    1.0000 </r>
       <r>   -5.0517    1.0000 </r>
       <r>   -4.9361    1.0000 </r>
       <r>   -4.8708    1.0000 </r>
       <r>   -4.8325    1.0000 </r>
       <r>   -4.6545    1.0000 </r>
       <r>   -4.6127    1.0000 </r>
       <r>   -4.4923    1.0000 </r>
       <r>   -4.3161    1.0000 </r>
       <r>   -4.1127    1.0000 </r>
       <r>   -4.0353    1.0000 </r>
       <r>   -2.9139    1.0000 </r>
       <r>   -0.9384    0.0000 </r>
       <r>    2.5857    0.0000 </r>
       <r>    3.1612    0.0000 </r>
       <r>    3.5873    0.0000 </r>
      </set>
      <set comment="kpoint 20">
       <r>   -9.6025    1.0000 </r>
       <r>   -8.7725    1.0000 </r>
       <r>   -7.6655    1.0000 </r>
       <r>   -6.6396    1.0000 </r>
       <r>   -6.3517    1.0000 </r>
       <r>   -6.0987    1.0000 </r>
       <r>   -5.9314    1.0000 </r>
       <r>   -5.8016    1.0000 </r>
       <r>   -5.6595    1.0000 </r>
       <r>   -5.3687    1.0000 </r>
       <r>   -5.3239    1.0000 </r>
       <r>   -5.2190    1.0000 </r>
       <r>   -5.1113    1.0000 </r>
       <r>   -4.9940    1.0000 </r>
       <r>   -4.9073    1.0000 </r>
       <r>   -4.7998    1.0000 </r>
       <r>   -4.6506    1.0000 </r>
       <r>   -4.5113    1.0000 </r>
       <r>   -4.3938    1.0000 </r>
       <r>   -4.3525    1.0000 </r>
       <r>   -4.2014    1.0000 </r>
       <r>   -4.0974    1.0000 </r>
       <r>   -3.7250    1.0000 </r>
       <r>   -2.1200    0.0001 </r>
       <r>    0.1516    0.0000 </r>
       <r>    3.3177    0.0000 </r>
       <r>    4.0662    0.0000 </r>
       <r>    4.4948    0.0000 </r>
      </set>
      <set comment="kpoint 21">
       <r>   -8.5496    1.0000 </r>
       <r>   -7.8153    1.0000 </r>
       <r>   -7.1429    1.0000 </r>
       <r>   -6.5192    1.0000 </r>
       <r>   -6.2326    1.0000 </r>
       <r>   -6.1163    1.0000 </r>
       <r>   -5.9690    1.0000 </r>
       <r>   -5.8946    1.0000 </r>
       <r>   -5.6254    1.0000 </r>
       <r>   -5.4688    1.0000 </r>
       <r>   -5.3669    1.0000 </r>
       <r>   -5.3214    1.0000 </r>
       <r>   -5.0488    1.0000 </r>
       <r>   -4.9746    1.0000 </r>
       <r>   -4.7852    1.0000 </r>
       <r>   -4.7313    1.0000 </r>
       <r>   -4.4753    1.0000 </r>
       <r>   -4.3613    1.0000 </r>
       <r>   -4.2692    1.0000 </r>
       <r>   -4.0362    1.0000 </r>
       <r>   -3.9900    1.0000 </r>
       <r>   -3.6209    1.0000 </r>
       <r>   -2.8259    1.0000 </r>
       <r>   -0.8304    0.0000 </r>
       <r>    1.7350    0.0000 </r>
       <r>    4.5470    0.0000 </r>
       <r>    5.1850    0.0000 </r>
       <r>    5.6551    0.0000 </r>
      </set>
      <set comment="kpoint 22">
       <r>   -7.9251    1.0000 </r>
       <r>   -6.9355    1.0000 </r>
       <r>   -6.7158    1.0000 </r>
       <r>   -6.4951    1.0000 </r>
       <r>   -6.3260    1.0000 </r>
       <r>   -6.1711    1.0000 </r>
       <r>   -5.9864    1.0000 </r>
       <r>   -5.8079    1.0000 </r>
       <r>   -5.6093    1.0000 </r>
       <r>   -5.5394    1.0000 </r>
       <r>   -5.3766    1.0000 </r>
       <r>   -5.1134    1.0000 </r>
       <r>   -5.0103    1.0000 </r>
       <r>   -4.8661    1.0000 </r>
       <r>   -4.7047    1.0000 </r>
       <r>   -4.5835    1.0000 </r>
       <r>   -4.4376    1.0000 </r>
       <r>   -4.2581    1.0000 </r>
       <r>   -4.1136    1.0000 </r>
       <r>   -3.9439    1.0000 </r>
       <r>   -3.3289    1.0000 </r>
       <r>   -2.3957    0.5605 </r>
       <r>   -1.2171    0.0000 </r>
       <r>    0.8340    0.0000 </r>
       <r>    2.7975    0.0000 </r>
       <r>    3.5367    0.0000 </r>
       <r>    3.7850    0.0000 </r>
       <r>    4.9745    0.0000 </r>
      </set>
      <set comment="kpoint 23">
       <r>   -7.6927    1.0000 </r>
       <r>   -6.7059    1.0000 </r>
       <r>   -6.6261    1.0000 </r>
       <r>   -6.4551    1.0000 </r>
       <r>   -6.3303    1.0000 </r>
       <r>   -6.1918    1.0000 </r>
       <r>   -6.0094    1.0000 </r>
       <r>   -5.8572    1.0000 </r>
       <r>   -5.6145    1.0000 </r>
       <r>   -5.5104    1.0000 </r>
       <r>   -5.3409    1.0000 </r>
       <r>   -5.1534    1.0000 </r>
       <r>   -4.9346    1.0000 </r>
       <r>   -4.7524    1.0000 </r>
       <r>   -4.6163    1.0000 </r>
       <r>   -4.5189    1.0000 </r>
       <r>   -4.3359    1.0000 </r>
       <r>   -4.1759    1.0000 </r>
       <r>   -4.1175    1.0000 </r>
       <r>   -4.0128    1.0000 </r>
       <r>   -2.5112    0.9630 </r>
       <r>   -0.7559    0.0000 </r>
       <r>   -0.1874    0.0000 </r>
       <r>    0.5741    0.0000 </r>
       <r>    1.8101    0.0000 </r>
       <r>    2.7316    0.0000 </r>
       <r>    3.2734    0.0000 </r>
       <r>    4.3014    0.0000 </r>
      </set>
      <set comment="kpoint 24">
       <r>   -7.7912    1.0000 </r>
       <r>   -6.9457    1.0000 </r>
       <r>   -6.7232    1.0000 </r>
       <r>   -6.5020    1.0000 </r>
       <r>   -6.3275    1.0000 </r>
       <r>   -6.2187    1.0000 </r>
       <r>   -6.0083    1.0000 </r>
       <r>   -5.8424    1.0000 </r>
       <r>   -5.6219    1.0000 </r>
       <r>   -5.5749    1.0000 </r>
       <r>   -5.4271    1.0000 </r>
       <r>   -5.1165    1.0000 </r>
       <r>   -5.0141    1.0000 </r>
       <r>   -4.8654    1.0000 </r>
       <r>   -4.7167    1.0000 </r>
       <r>   -4.5900    1.0000 </r>
       <r>   -4.4310    1.0000 </r>
       <r>   -4.2559    1.0000 </r>
       <r>   -4.0821    1.0000 </r>
       <r>   -3.9424    1.0000 </r>
       <r>   -3.1564    1.0000 </r>
       <r>   -2.4096    0.6364 </r>
       <r>   -1.3207    0.0000 </r>
       <r>    0.6749    0.0000 </r>
       <r>    2.7937    0.0000 </r>
       <r>    3.5287    0.0000 </r>
       <r>    3.7617    0.0000 </r>
       <r>    4.8760    0.0000 </r>
      </set>
      <set comment="kpoint 25">
       <r>   -8.6463    1.0000 </r>
       <r>   -7.7234    1.0000 </r>
       <r>   -7.0126    1.0000 </r>
       <r>   -6.4888    1.0000 </r>
       <r>   -6.2246    1.0000 </r>
       <r>   -6.1143    1.0000 </r>
       <r>   -5.9721    1.0000 </r>
       <r>   -5.8947    1.0000 </r>
       <r>   -5.6241    1.0000 </r>
       <r>   -5.4782    1.0000 </r>
       <r>   -5.4510    1.0000 </r>
       <r>   -5.3541    1.0000 </r>
       <r>   -5.0465    1.0000 </r>
       <r>   -4.9750    1.0000 </r>
       <r>   -4.8569    1.0000 </r>
       <r>   -4.6563    1.0000 </r>
       <r>   -4.4812    1.0000 </r>
       <r>   -4.3299    1.0000 </r>
       <r>   -4.1968    1.0000 </r>
       <r>   -4.0369    1.0000 </r>
       <r>   -3.9329    1.0000 </r>
       <r>   -3.6316    1.0000 </r>
       <r>   -2.9502    1.0000 </r>
       <r>   -1.0628    0.0000 </r>
       <r>    1.5541    0.0000 </r>
       <r>    4.4252    0.0000 </r>
       <r>    5.4012    0.0000 </r>
       <r>    5.6133    0.0000 </r>
      </set>
      <set comment="kpoint 26">
       <r>   -9.7400    1.0000 </r>
       <r>   -8.7484    1.0000 </r>
       <r>   -7.5205    1.0000 </r>
       <r>   -6.5109    1.0000 </r>
       <r>   -6.2699    1.0000 </r>
       <r>   -6.0462    1.0000 </r>
       <r>   -5.8685    1.0000 </r>
       <r>   -5.7903    1.0000 </r>
       <r>   -5.6571    1.0000 </r>
       <r>   -5.3561    1.0000 </r>
       <r>   -5.3321    1.0000 </r>
       <r>   -5.2895    1.0000 </r>
       <r>   -5.1475    1.0000 </r>
       <r>   -4.9855    1.0000 </r>
       <r>   -4.8698    1.0000 </r>
       <r>   -4.8118    1.0000 </r>
       <r>   -4.6258    1.0000 </r>
       <r>   -4.5663    1.0000 </r>
       <r>   -4.4507    1.0000 </r>
       <r>   -4.3504    1.0000 </r>
       <r>   -4.1982    1.0000 </r>
       <r>   -4.1028    1.0000 </r>
       <r>   -3.8372    1.0000 </r>
       <r>   -2.3312    0.2239 </r>
       <r>    0.0418    0.0000 </r>
       <r>    3.2951    0.0000 </r>
       <r>    4.0678    0.0000 </r>
       <r>    4.5063    0.0000 </r>
      </set>
      <set comment="kpoint 27">
       <r>   -9.3909    1.0000 </r>
       <r>   -8.3376    1.0000 </r>
       <r>   -7.3164    1.0000 </r>
       <r>   -6.5155    1.0000 </r>
       <r>   -6.3696    1.0000 </r>
       <r>   -6.0642    1.0000 </r>
       <r>   -5.7619    1.0000 </r>
       <r>   -5.6683    1.0000 </r>
       <r>   -5.4663    1.0000 </r>
       <r>   -5.3690    1.0000 </r>
       <r>   -5.3170    1.0000 </r>
       <r>   -5.1415    1.0000 </r>
       <r>   -4.9808    1.0000 </r>
       <r>   -4.8926    1.0000 </r>
       <r>   -4.7947    1.0000 </r>
       <r>   -4.7574    1.0000 </r>
       <r>   -4.5709    1.0000 </r>
       <r>   -4.4420    1.0000 </r>
       <r>   -4.3972    1.0000 </r>
       <r>   -4.3098    1.0000 </r>
       <r>   -4.1875    1.0000 </r>
       <r>   -4.0266    1.0000 </r>
       <r>   -3.7969    1.0000 </r>
       <r>   -2.0202    0.0000 </r>
       <r>    0.5569    0.0000 </r>
       <r>    3.6350    0.0000 </r>
       <r>    4.6597    0.0000 </r>
       <r>    4.8838    0.0000 </r>
      </set>
      <set comment="kpoint 28">
       <r>   -9.7402    1.0000 </r>
       <r>   -8.7473    1.0000 </r>
       <r>   -7.5210    1.0000 </r>
       <r>   -6.5177    1.0000 </r>
       <r>   -6.2676    1.0000 </r>
       <r>   -6.0397    1.0000 </r>
       <r>   -5.8698    1.0000 </r>
       <r>   -5.7819    1.0000 </r>
       <r>   -5.6587    1.0000 </r>
       <r>   -5.3610    1.0000 </r>
       <r>   -5.3339    1.0000 </r>
       <r>   -5.2976    1.0000 </r>
       <r>   -5.1446    1.0000 </r>
       <r>   -5.0066    1.0000 </r>
       <r>   -4.8471    1.0000 </r>
       <r>   -4.8131    1.0000 </r>
       <r>   -4.6313    1.0000 </r>
       <r>   -4.5687    1.0000 </r>
       <r>   -4.4362    1.0000 </r>
       <r>   -4.3509    1.0000 </r>
       <r>   -4.1994    1.0000 </r>
       <r>   -4.1074    1.0000 </r>
       <r>   -3.8259    1.0000 </r>
       <r>   -2.3396    0.2607 </r>
       <r>    0.0383    0.0000 </r>
       <r>    3.2953    0.0000 </r>
       <r>    4.0672    0.0000 </r>
       <r>    4.5053    0.0000 </r>
      </set>
      <set comment="kpoint 29">
       <r>   -9.6514    1.0000 </r>
       <r>   -8.7463    1.0000 </r>
       <r>   -7.5791    1.0000 </r>
       <r>   -6.6083    1.0000 </r>
       <r>   -6.3358    1.0000 </r>
       <r>   -6.1178    1.0000 </r>
       <r>   -5.9611    1.0000 </r>
       <r>   -5.8062    1.0000 </r>
       <r>   -5.6574    1.0000 </r>
       <r>   -5.3861    1.0000 </r>
       <r>   -5.3287    1.0000 </r>
       <r>   -5.2455    1.0000 </r>
       <r>   -5.0799    1.0000 </r>
       <r>   -4.9753    1.0000 </r>
       <r>   -4.8375    1.0000 </r>
       <r>   -4.8026    1.0000 </r>
       <r>   -4.6324    1.0000 </r>
       <r>   -4.5547    1.0000 </r>
       <r>   -4.4048    1.0000 </r>
       <r>   -4.3485    1.0000 </r>
       <r>   -4.1993    1.0000 </r>
       <r>   -4.1057    1.0000 </r>
       <r>   -3.7680    1.0000 </r>
       <r>   -2.2348    0.0169 </r>
       <r>    0.0941    0.0000 </r>
       <r>    3.3135    0.0000 </r>
       <r>    4.0659    0.0000 </r>
       <r>    4.5165    0.0000 </r>
      </set>
      <set comment="kpoint 30">
       <r>   -9.1296    1.0000 </r>
       <r>   -8.3648    1.0000 </r>
       <r>   -7.4834    1.0000 </r>
       <r>   -6.7082    1.0000 </r>
       <r>   -6.4284    1.0000 </r>
       <r>   -6.2521    1.0000 </r>
       <r>   -5.9429    1.0000 </r>
       <r>   -5.7136    1.0000 </r>
       <r>   -5.5945    1.0000 </r>
       <r>   -5.3438    1.0000 </r>
       <r>   -5.2260    1.0000 </r>
       <r>   -5.1072    1.0000 </r>
       <r>   -4.9209    1.0000 </r>
       <r>   -4.8829    1.0000 </r>
       <r>   -4.8028    1.0000 </r>
       <r>   -4.6538    1.0000 </r>
       <r>   -4.5703    1.0000 </r>
       <r>   -4.4217    1.0000 </r>
       <r>   -4.3832    1.0000 </r>
       <r>   -4.3056    1.0000 </r>
       <r>   -4.1877    1.0000 </r>
       <r>   -4.0234    1.0000 </r>
       <r>   -3.6041    1.0000 </r>
       <r>   -1.7247    0.0000 </r>
       <r>    0.7526    0.0000 </r>
       <r>    3.7625    0.0000 </r>
       <r>    4.6326    0.0000 </r>
       <r>    5.0422    0.0000 </r>
      </set>
      <set comment="kpoint 31">
       <r>   -8.4020    1.0000 </r>
       <r>   -7.7256    1.0000 </r>
       <r>   -7.1856    1.0000 </r>
       <r>   -6.6576    1.0000 </r>
       <r>   -6.4202    1.0000 </r>
       <r>   -6.2475    1.0000 </r>
       <r>   -5.9901    1.0000 </r>
       <r>   -5.6750    1.0000 </r>
       <r>   -5.5997    1.0000 </r>
       <r>   -5.3554    1.0000 </r>
       <r>   -5.2680    1.0000 </r>
       <r>   -5.1288    1.0000 </r>
       <r>   -4.9616    1.0000 </r>
       <r>   -4.7933    1.0000 </r>
       <r>   -4.7004    1.0000 </r>
       <r>   -4.5577    1.0000 </r>
       <r>   -4.4466    1.0000 </r>
       <r>   -4.3251    1.0000 </r>
       <r>   -4.2230    1.0000 </r>
       <r>   -4.0456    1.0000 </r>
       <r>   -3.9915    1.0000 </r>
       <r>   -3.6748    1.0000 </r>
       <r>   -2.8198    1.0000 </r>
       <r>   -0.7049    0.0000 </r>
       <r>    1.9317    0.0000 </r>
       <r>    3.8992    0.0000 </r>
       <r>    4.5841    0.0000 </r>
       <r>    5.0881    0.0000 </r>
      </set>
      <set comment="kpoint 32">
       <r>   -7.9248    1.0000 </r>
       <r>   -6.9308    1.0000 </r>
       <r>   -6.7217    1.0000 </r>
       <r>   -6.4974    1.0000 </r>
       <r>   -6.3243    1.0000 </r>
       <r>   -6.1661    1.0000 </r>
       <r>   -5.9891    1.0000 </r>
       <r>   -5.8065    1.0000 </r>
       <r>   -5.6133    1.0000 </r>
       <r>   -5.5304    1.0000 </r>
       <r>   -5.3921    1.0000 </r>
       <r>   -5.1125    1.0000 </r>
       <r>   -5.0097    1.0000 </r>
       <r>   -4.8688    1.0000 </r>
       <r>   -4.6832    1.0000 </r>
       <r>   -4.5924    1.0000 </r>
       <r>   -4.4359    1.0000 </r>
       <r>   -4.2593    1.0000 </r>
       <r>   -4.1164    1.0000 </r>
       <r>   -3.9440    1.0000 </r>
       <r>   -3.3291    1.0000 </r>
       <r>   -2.3953    0.5583 </r>
       <r>   -1.2136    0.0000 </r>
       <r>    0.8315    0.0000 </r>
       <r>    2.6188    0.0000 </r>
       <r>    3.6080    0.0000 </r>
       <r>    4.0435    0.0000 </r>
       <r>    4.8852    0.0000 </r>
      </set>
      <set comment="kpoint 33">
       <r>   -7.6593    1.0000 </r>
       <r>   -6.4776    1.0000 </r>
       <r>   -6.4146    1.0000 </r>
       <r>   -6.2934    1.0000 </r>
       <r>   -6.2191    1.0000 </r>
       <r>   -6.1102    1.0000 </r>
       <r>   -6.0046    1.0000 </r>
       <r>   -5.9470    1.0000 </r>
       <r>   -5.7542    1.0000 </r>
       <r>   -5.5803    1.0000 </r>
       <r>   -5.4785    1.0000 </r>
       <r>   -5.0951    1.0000 </r>
       <r>   -5.0458    1.0000 </r>
       <r>   -4.8563    1.0000 </r>
       <r>   -4.7120    1.0000 </r>
       <r>   -4.5673    1.0000 </r>
       <r>   -4.5055    1.0000 </r>
       <r>   -4.2203    1.0000 </r>
       <r>   -4.1305    1.0000 </r>
       <r>   -4.0371    1.0000 </r>
       <r>   -2.1355    0.0002 </r>
       <r>   -0.4180    0.0000 </r>
       <r>    0.7592    0.0000 </r>
       <r>    2.1823    0.0000 </r>
       <r>    2.2366    0.0000 </r>
       <r>    2.5304    0.0000 </r>
       <r>    3.3080    0.0000 </r>
       <r>    3.9277    0.0000 </r>
      </set>
      <set comment="kpoint 34">
       <r>   -7.6176    1.0000 </r>
       <r>   -6.4949    1.0000 </r>
       <r>   -6.4375    1.0000 </r>
       <r>   -6.2865    1.0000 </r>
       <r>   -6.2161    1.0000 </r>
       <r>   -6.1064    1.0000 </r>
       <r>   -6.0093    1.0000 </r>
       <r>   -5.9397    1.0000 </r>
       <r>   -5.7231    1.0000 </r>
       <r>   -5.6083    1.0000 </r>
       <r>   -5.4829    1.0000 </r>
       <r>   -5.0973    1.0000 </r>
       <r>   -5.0451    1.0000 </r>
       <r>   -4.8719    1.0000 </r>
       <r>   -4.7273    1.0000 </r>
       <r>   -4.5793    1.0000 </r>
       <r>   -4.5047    1.0000 </r>
       <r>   -4.2060    1.0000 </r>
       <r>   -4.1280    1.0000 </r>
       <r>   -4.0370    1.0000 </r>
       <r>   -1.9745    0.0000 </r>
       <r>   -0.4498    0.0000 </r>
       <r>    0.6019    0.0000 </r>
       <r>    1.7720    0.0000 </r>
       <r>    2.3299    0.0000 </r>
       <r>    2.5540    0.0000 </r>
       <r>    3.2235    0.0000 </r>
       <r>    3.7329    0.0000 </r>
      </set>
      <set comment="kpoint 35">
       <r>   -8.0210    1.0000 </r>
       <r>   -6.8840    1.0000 </r>
       <r>   -6.6901    1.0000 </r>
       <r>   -6.4241    1.0000 </r>
       <r>   -6.3087    1.0000 </r>
       <r>   -6.0605    1.0000 </r>
       <r>   -5.9719    1.0000 </r>
       <r>   -5.7885    1.0000 </r>
       <r>   -5.6210    1.0000 </r>
       <r>   -5.5604    1.0000 </r>
       <r>   -5.4080    1.0000 </r>
       <r>   -5.1219    1.0000 </r>
       <r>   -5.0498    1.0000 </r>
       <r>   -4.9018    1.0000 </r>
       <r>   -4.6801    1.0000 </r>
       <r>   -4.6367    1.0000 </r>
       <r>   -4.4314    1.0000 </r>
       <r>   -4.2655    1.0000 </r>
       <r>   -4.0768    1.0000 </r>
       <r>   -3.9424    1.0000 </r>
       <r>   -3.0433    1.0000 </r>
       <r>   -2.4312    0.7437 </r>
       <r>   -1.4302    0.0000 </r>
       <r>    0.3667    0.0000 </r>
       <r>    2.1347    0.0000 </r>
       <r>    3.2559    0.0000 </r>
       <r>    4.2860    0.0000 </r>
       <r>    5.5617    0.0000 </r>
      </set>
      <set comment="kpoint 36">
       <r>   -8.7305    1.0000 </r>
       <r>   -7.6237    1.0000 </r>
       <r>   -7.0118    1.0000 </r>
       <r>   -6.4895    1.0000 </r>
       <r>   -6.3897    1.0000 </r>
       <r>   -6.1034    1.0000 </r>
       <r>   -5.8473    1.0000 </r>
       <r>   -5.6532    1.0000 </r>
       <r>   -5.5201    1.0000 </r>
       <r>   -5.4246    1.0000 </r>
       <r>   -5.2856    1.0000 </r>
       <r>   -5.1563    1.0000 </r>
       <r>   -5.0381    1.0000 </r>
       <r>   -4.8033    1.0000 </r>
       <r>   -4.6981    1.0000 </r>
       <r>   -4.5764    1.0000 </r>
       <r>   -4.4364    1.0000 </r>
       <r>   -4.2535    1.0000 </r>
       <r>   -4.2164    1.0000 </r>
       <r>   -4.0367    1.0000 </r>
       <r>   -3.9574    1.0000 </r>
       <r>   -3.6954    1.0000 </r>
       <r>   -3.0462    1.0000 </r>
       <r>   -1.1192    0.0000 </r>
       <r>    1.4831    0.0000 </r>
       <r>    3.5977    0.0000 </r>
       <r>    4.5738    0.0000 </r>
       <r>    5.4223    0.0000 </r>
      </set>
      <set comment="kpoint 37">
       <r>   -8.5904    1.0000 </r>
       <r>   -7.3789    1.0000 </r>
       <r>   -7.0323    1.0000 </r>
       <r>   -6.5815    1.0000 </r>
       <r>   -6.5201    1.0000 </r>
       <r>   -6.2018    1.0000 </r>
       <r>   -5.8030    1.0000 </r>
       <r>   -5.4944    1.0000 </r>
       <r>   -5.4289    1.0000 </r>
       <r>   -5.3492    1.0000 </r>
       <r>   -5.1123    1.0000 </r>
       <r>   -5.0192    1.0000 </r>
       <r>   -4.6972    1.0000 </r>
       <r>   -4.5420    1.0000 </r>
       <r>   -4.4201    1.0000 </r>
       <r>   -4.4018    1.0000 </r>
       <r>   -4.1615    1.0000 </r>
       <r>   -4.1045    1.0000 </r>
       <r>   -4.0418    1.0000 </r>
       <r>   -4.0271    1.0000 </r>
       <r>   -3.8709    1.0000 </r>
       <r>   -3.5800    1.0000 </r>
       <r>   -2.8546    1.0000 </r>
       <r>   -0.9315    0.0000 </r>
       <r>    1.0108    0.0000 </r>
       <r>    2.6035    0.0000 </r>
       <r>    3.5278    0.0000 </r>
       <r>    4.9957    0.0000 </r>
      </set>
      <set comment="kpoint 38">
       <r>   -8.7300    1.0000 </r>
       <r>   -7.6229    1.0000 </r>
       <r>   -7.0123    1.0000 </r>
       <r>   -6.4919    1.0000 </r>
       <r>   -6.3892    1.0000 </r>
       <r>   -6.1073    1.0000 </r>
       <r>   -5.8378    1.0000 </r>
       <r>   -5.6388    1.0000 </r>
       <r>   -5.5393    1.0000 </r>
       <r>   -5.4425    1.0000 </r>
       <r>   -5.2603    1.0000 </r>
       <r>   -5.1855    1.0000 </r>
       <r>   -5.0001    1.0000 </r>
       <r>   -4.7939    1.0000 </r>
       <r>   -4.7522    1.0000 </r>
       <r>   -4.5550    1.0000 </r>
       <r>   -4.4376    1.0000 </r>
       <r>   -4.2517    1.0000 </r>
       <r>   -4.2066    1.0000 </r>
       <r>   -4.0421    1.0000 </r>
       <r>   -3.9613    1.0000 </r>
       <r>   -3.6892    1.0000 </r>
       <r>   -3.0380    1.0000 </r>
       <r>   -1.1289    0.0000 </r>
       <r>    1.4746    0.0000 </r>
       <r>    3.5991    0.0000 </r>
       <r>    4.5811    0.0000 </r>
       <r>    5.4228    0.0000 </r>
      </set>
      <set comment="kpoint 39">
       <r>   -8.6460    1.0000 </r>
       <r>   -7.7197    1.0000 </r>
       <r>   -7.0174    1.0000 </r>
       <r>   -6.4991    1.0000 </r>
       <r>   -6.2011    1.0000 </r>
       <r>   -6.1173    1.0000 </r>
       <r>   -5.9615    1.0000 </r>
       <r>   -5.9050    1.0000 </r>
       <r>   -5.6307    1.0000 </r>
       <r>   -5.4865    1.0000 </r>
       <r>   -5.4554    1.0000 </r>
       <r>   -5.3561    1.0000 </r>
       <r>   -5.0542    1.0000 </r>
       <r>   -4.9898    1.0000 </r>
       <r>   -4.8158    1.0000 </r>
       <r>   -4.6627    1.0000 </r>
       <r>   -4.4893    1.0000 </r>
       <r>   -4.3219    1.0000 </r>
       <r>   -4.1950    1.0000 </r>
       <r>   -4.0420    1.0000 </r>
       <r>   -3.9339    1.0000 </r>
       <r>   -3.6269    1.0000 </r>
       <r>   -2.9407    1.0000 </r>
       <r>   -1.0760    0.0000 </r>
       <r>    1.5396    0.0000 </r>
       <r>    4.4201    0.0000 </r>
       <r>    5.4029    0.0000 </r>
       <r>    5.6166    0.0000 </r>
      </set>
      <set comment="kpoint 40">
       <r>   -8.3595    1.0000 </r>
       <r>   -7.6832    1.0000 </r>
       <r>   -7.1647    1.0000 </r>
       <r>   -6.6771    1.0000 </r>
       <r>   -6.4256    1.0000 </r>
       <r>   -6.2837    1.0000 </r>
       <r>   -6.0297    1.0000 </r>
       <r>   -5.7167    1.0000 </r>
       <r>   -5.6223    1.0000 </r>
       <r>   -5.3922    1.0000 </r>
       <r>   -5.2988    1.0000 </r>
       <r>   -5.1540    1.0000 </r>
       <r>   -4.9461    1.0000 </r>
       <r>   -4.7894    1.0000 </r>
       <r>   -4.6599    1.0000 </r>
       <r>   -4.5388    1.0000 </r>
       <r>   -4.4341    1.0000 </r>
       <r>   -4.2755    1.0000 </r>
       <r>   -4.1941    1.0000 </r>
       <r>   -4.0328    1.0000 </r>
       <r>   -3.9657    1.0000 </r>
       <r>   -3.6693    1.0000 </r>
       <r>   -2.8695    1.0000 </r>
       <r>   -0.8082    0.0000 </r>
       <r>    1.8538    0.0000 </r>
       <r>    3.9538    0.0000 </r>
       <r>    4.6540    0.0000 </r>
       <r>    5.1040    0.0000 </r>
      </set>
      <set comment="kpoint 41">
       <r>   -8.0669    1.0000 </r>
       <r>   -7.4599    1.0000 </r>
       <r>   -7.1603    1.0000 </r>
       <r>   -6.8035    1.0000 </r>
       <r>   -6.5606    1.0000 </r>
       <r>   -6.4133    1.0000 </r>
       <r>   -6.0808    1.0000 </r>
       <r>   -5.5331    1.0000 </r>
       <r>   -5.4148    1.0000 </r>
       <r>   -5.3264    1.0000 </r>
       <r>   -5.2627    1.0000 </r>
       <r>   -4.9584    1.0000 </r>
       <r>   -4.8340    1.0000 </r>
       <r>   -4.5214    1.0000 </r>
       <r>   -4.4360    1.0000 </r>
       <r>   -4.3694    1.0000 </r>
       <r>   -4.1607    1.0000 </r>
       <r>   -4.1388    1.0000 </r>
       <r>   -4.1062    1.0000 </r>
       <r>   -4.0247    1.0000 </r>
       <r>   -3.8713    1.0000 </r>
       <r>   -3.5873    1.0000 </r>
       <r>   -2.5299    0.9799 </r>
       <r>   -0.3150    0.0000 </r>
       <r>    1.9583    0.0000 </r>
       <r>    2.8761    0.0000 </r>
       <r>    3.3997    0.0000 </r>
       <r>    4.3778    0.0000 </r>
      </set>
      <set comment="kpoint 42">
       <r>   -7.8837    1.0000 </r>
       <r>   -7.0810    1.0000 </r>
       <r>   -6.9159    1.0000 </r>
       <r>   -6.7183    1.0000 </r>
       <r>   -6.5312    1.0000 </r>
       <r>   -6.3493    1.0000 </r>
       <r>   -6.0820    1.0000 </r>
       <r>   -5.5580    1.0000 </r>
       <r>   -5.4586    1.0000 </r>
       <r>   -5.3685    1.0000 </r>
       <r>   -5.2368    1.0000 </r>
       <r>   -5.0199    1.0000 </r>
       <r>   -4.8290    1.0000 </r>
       <r>   -4.5769    1.0000 </r>
       <r>   -4.4440    1.0000 </r>
       <r>   -4.3011    1.0000 </r>
       <r>   -4.1881    1.0000 </r>
       <r>   -4.1625    1.0000 </r>
       <r>   -4.0806    1.0000 </r>
       <r>   -3.9261    1.0000 </r>
       <r>   -3.4741    1.0000 </r>
       <r>   -2.3760    0.4502 </r>
       <r>   -1.3570    0.0000 </r>
       <r>    0.0767    0.0000 </r>
       <r>    1.4160    0.0000 </r>
       <r>    2.5417    0.0000 </r>
       <r>    3.2438    0.0000 </r>
       <r>    4.1430    0.0000 </r>
      </set>
      <set comment="kpoint 43">
       <r>   -7.6907    1.0000 </r>
       <r>   -6.7021    1.0000 </r>
       <r>   -6.6270    1.0000 </r>
       <r>   -6.4535    1.0000 </r>
       <r>   -6.3397    1.0000 </r>
       <r>   -6.1860    1.0000 </r>
       <r>   -6.0145    1.0000 </r>
       <r>   -5.8530    1.0000 </r>
       <r>   -5.6163    1.0000 </r>
       <r>   -5.5105    1.0000 </r>
       <r>   -5.3555    1.0000 </r>
       <r>   -5.1505    1.0000 </r>
       <r>   -4.9305    1.0000 </r>
       <r>   -4.7528    1.0000 </r>
       <r>   -4.6144    1.0000 </r>
       <r>   -4.5035    1.0000 </r>
       <r>   -4.3368    1.0000 </r>
       <r>   -4.1821    1.0000 </r>
       <r>   -4.1172    1.0000 </r>
       <r>   -4.0146    1.0000 </r>
       <r>   -2.5097    0.9613 </r>
       <r>   -0.7415    0.0000 </r>
       <r>   -0.1638    0.0000 </r>
       <r>    0.5968    0.0000 </r>
       <r>    1.5034    0.0000 </r>
       <r>    2.8097    0.0000 </r>
       <r>    3.6718    0.0000 </r>
       <r>    4.1615    0.0000 </r>
      </set>
      <set comment="kpoint 44">
       <r>   -7.6155    1.0000 </r>
       <r>   -6.5034    1.0000 </r>
       <r>   -6.4300    1.0000 </r>
       <r>   -6.2897    1.0000 </r>
       <r>   -6.2195    1.0000 </r>
       <r>   -6.1031    1.0000 </r>
       <r>   -6.0099    1.0000 </r>
       <r>   -5.9301    1.0000 </r>
       <r>   -5.7087    1.0000 </r>
       <r>   -5.6353    1.0000 </r>
       <r>   -5.4829    1.0000 </r>
       <r>   -5.0970    1.0000 </r>
       <r>   -5.0453    1.0000 </r>
       <r>   -4.8831    1.0000 </r>
       <r>   -4.7092    1.0000 </r>
       <r>   -4.5787    1.0000 </r>
       <r>   -4.5035    1.0000 </r>
       <r>   -4.2063    1.0000 </r>
       <r>   -4.1286    1.0000 </r>
       <r>   -4.0394    1.0000 </r>
       <r>   -1.9712    0.0000 </r>
       <r>   -0.4424    0.0000 </r>
       <r>    0.6099    0.0000 </r>
       <r>    1.7533    0.0000 </r>
       <r>    2.3149    0.0000 </r>
       <r>    2.4585    0.0000 </r>
       <r>    3.2131    0.0000 </r>
       <r>    3.8178    0.0000 </r>
      </set>
      <set comment="kpoint 45">
       <r>   -7.8810    1.0000 </r>
       <r>   -6.6961    1.0000 </r>
[...]
        <r>  0.0003  0.0004  0.0008  0.0002  0.0395  0.0443  0.0763  0.0100  0.0397 </r>
        <r>  0.0001  0.0009  0.0006  0.0015  0.0332  0.0138  0.0133  0.0014  0.0437 </r>
        <r>  0.0009  0.0000  0.0000  0.0000  0.0000  0.0000  0.0000  0.0000  0.0000 </r>
       </set>
       <set comment="band 19">
        <r>  0.0010  0.0006  0.0010  0.0029  0.0111  0.0017  0.2431  0.0107  0.1245 </r>
        <r>  0.0002  0.0001  0.0001  0.0004  0.0382  0.0214  0.0657  0.0355  0.1421 </r>
        <r>  0.0002  0.0000  0.0003  0.0004  0.0749  0.0241  0.0247  0.0001  0.1152 </r>
        <r>  0.0001  0.0003  0.0000  0.0009  0.0100  0.0053  0.0002  0.0002  0.0227 </r>
        <r>  0.0006  0.0000  0.0000  0.0000  0.0000  0.0000  0.0000  0.0000  0.0000 </r>
       </set>
       <set comment="band 20">
        <r>  0.0017  0.0008  0.0003  0.0029  0.1629  0.0031  0.0532  0.0170  0.3050 </r>
        <r>  0.0000  0.0000  0.0004  0.0001  0.1096  0.0139  0.1437  0.0069  0.0478 </r>
        <r>  0.0000  0.0001  0.0001  0.0003  0.0207  0.0039  0.0085  0.0247  0.0451 </r>
        <r>  0.0001  0.0001  0.0002  0.0000  0.0037  0.0033  0.0045  0.0002  0.0009 </r>
        <r>  0.0000  0.0000  0.0000  0.0000  0.0000  0.0000  0.0000  0.0000  0.0000 </r>
       </set>
       <set comment="band 21">
        <r>  0.0003  0.0005  0.0004  0.0008  0.0098  0.0031  0.0122  0.0028  0.0069 </r>
        <r>  0.0007  0.0013  0.0005  0.0034  0.0068  0.0010  0.0077  0.0176  0.0177 </r>
        <r>  0.0052  0.0040  0.0058  0.0069  0.0750  0.0241  0.1090  0.0077  0.0139 </r>
        <r>  0.0179  0.0186  0.0005  0.0654  0.1082  0.0002  0.0104  0.1155  0.1437 </r>
        <r>  0.0480  0.0000  0.0001  0.0000  0.0000  0.0000  0.0000  0.0000  0.0000 </r>
       </set>
       <set comment="band 22">
        <r>  0.0205  0.0151  0.0051  0.0303  0.0652  0.0071  0.0387  0.0078  0.0119 </r>
        <r>  0.0427  0.0357  0.0011  0.0677  0.1113  0.0001  0.0315  0.0001  0.0159 </r>
        <r>  0.0237  0.0144  0.0058  0.0291  0.0562  0.0097  0.0389  0.0065  0.0097 </r>
        <r>  0.0023  0.0012  0.0052  0.0057  0.0039  0.0028  0.0096  0.0217  0.0063 </r>
        <r>  0.0077  0.0000  0.0000  0.0000  0.0000  0.0000  0.0000  0.0000  0.0000 </r>
       </set>
       <set comment="band 23">
        <r>  0.0351  0.0441  0.0005  0.0879  0.0493  0.0013  0.0017  0.0016  0.0152 </r>
        <r>  0.0125  0.0008  0.0344  0.0011  0.0115  0.0257  0.0158  0.0138  0.0021 </r>
        <r>  0.0176  0.0409  0.0037  0.0894  0.0226  0.0004  0.0022  0.0022  0.0183 </r>
        <r>  0.0069  0.0001  0.0171  0.0064  0.0075  0.0097  0.0152  0.0289  0.0100 </r>
        <r>  0.0151  0.0000  0.0000  0.0000  0.0000  0.0000  0.0000  0.0000  0.0000 </r>
       </set>
       <set comment="band 24">
        <r>  0.0142  0.0295  0.0186  0.0806  0.0085  0.0029  0.0188  0.0022  0.0187 </r>
        <r>  0.0052  0.0375  0.0141  0.1186  0.0019  0.0010  0.0353  0.0032  0.0333 </r>
        <r>  0.0066  0.0128  0.0229  0.0453  0.0029  0.0061  0.0160  0.0057  0.0143 </r>
        <r>  0.0150  0.0005  0.0096  0.0016  0.0087  0.0038  0.0048  0.0105  0.0043 </r>
        <r>  0.0077  0.0000  0.0000  0.0000  0.0000  0.0000  0.0000  0.0000  0.0000 </r>
       </set>
       <set comment="band 25">
        <r>  0.0069  0.0009  0.0020  0.0036  0.0025  0.0003  0.0018  0.0006  0.0018 </r>
        <r>  0.0387  0.0010  0.0039  0.0052  0.0144  0.0014  0.0052  0.0034  0.0065 </r>
        <r>  0.1071  0.0010  0.0116  0.0133  0.0393  0.0070  0.0151  0.0126  0.0189 </r>
        <r>  0.1770  0.0080  0.0088  0.0218  0.0603  0.0088  0.0164  0.0415  0.0222 </r>
        <r>  0.0261  0.0009  0.0003  0.0060  0.0000  0.0000  0.0000  0.0000  0.0000 </r>
       </set>
       <set comment="band 26">
        <r>  0.1280  0.0048  0.0106  0.0228  0.0376  0.0065  0.0084  0.0118  0.0183 </r>
        <r>  0.1266  0.0026  0.0007  0.0024  0.0390  0.0057  0.0029  0.0185  0.0131 </r>
        <r>  0.0054  0.0036  0.0192  0.0102  0.0020  0.0050  0.0011  0.0115  0.0019 </r>
        <r>  0.0391  0.0033  0.0307  0.0177  0.0088  0.0042  0.0034  0.0051  0.0056 </r>
        <r>  0.0025  0.0008  0.0004  0.0049  0.0000  0.0000  0.0000  0.0000  0.0000 </r>
       </set>
       <set comment="band 27">
        <r>  0.0897  0.0006  0.0052  0.0209  0.0227  0.0008  0.0042  0.0008  0.0145 </r>
        <r>  0.0041  0.0006  0.0158  0.0008  0.0009  0.0019  0.0001  0.0143  0.0003 </r>
        <r>  0.0735  0.0016  0.0041  0.0263  0.0190  0.0053  0.0033  0.0098  0.0140 </r>
        <r>  0.0627  0.0067  0.0435  0.0114  0.0185  0.0072  0.0012  0.0446  0.0081 </r>
        <r>  0.0237  0.0018  0.0006  0.0079  0.0000  0.0000  0.0000  0.0000  0.0000 </r>
       </set>
       <set comment="band 28">
        <r>  0.0465  0.0008  0.0735  0.0117  0.0097  0.0069  0.0012  0.0040  0.0064 </r>
        <r>  0.0191  0.0030  0.0212  0.0121  0.0058  0.0115  0.0005  0.0190  0.0039 </r>
        <r>  0.0277  0.0057  0.0367  0.0112  0.0075  0.0045  0.0011  0.0118  0.0032 </r>
        <r>  0.0120  0.0318  0.0001  0.0133  0.0064  0.0059  0.0028  0.0508  0.0008 </r>
        <r>  0.0420  0.0002  0.0021  0.0003  0.0000  0.0000  0.0000  0.0000  0.0000 </r>
       </set>
      </set>
      <set comment="kpoint 52">
       <set comment="band 1">
        <r>  0.0000  0.0000  0.0000  0.0000  0.0000  0.0000  0.0000  0.0000  0.0000 </r>
        <r>  0.0002  0.0001  0.0000  0.0002  0.0002  0.0006  0.0002  0.0019  0.0001 </r>
        <r>  0.0072  0.0001  0.0007  0.0001  0.0110  0.0013  0.0031  0.0012  0.0033 </r>
        <r>  0.0022  0.0041  0.0004  0.0442  0.0008  0.0426  0.0027  0.5293  0.0003 </r>
        <r>  0.1764  0.0000  0.0017  0.0001  0.0000  0.0000  0.0000  0.0000  0.0000 </r>
       </set>
       <set comment="band 2">
        <r>  0.0044  0.0006  0.0011  0.0019  0.0063  0.0057  0.0044  0.0171  0.0021 </r>
        <r>  0.0445  0.0001  0.0005  0.0002  0.1369  0.0024  0.0121  0.0072  0.0456 </r>
        <r>  0.0255  0.0000  0.0000  0.0000  0.0489  0.0381  0.0239  0.1119  0.0163 </r>
        <r>  0.0343  0.0005  0.0027  0.0025  0.1825  0.0000  0.0015  0.0024  0.0601 </r>
        <r>  0.0022  0.0005  0.0000  0.0001  0.0000  0.0000  0.0000  0.0000  0.0000 </r>
       </set>
       <set comment="band 3">
        <r>  0.0077  0.0001  0.0009  0.0002  0.0272  0.0010  0.0009  0.0029  0.0091 </r>
        <r>  0.0004  0.0004  0.0001  0.0012  0.0011  0.0467  0.0089  0.1388  0.0004 </r>
        <r>  0.0412  0.0000  0.0012  0.0000  0.2452  0.0102  0.0003  0.0370  0.0826 </r>
        <r>  0.0052  0.0038  0.0004  0.0189  0.0891  0.0039  0.0151  0.0019  0.0247 </r>
        <r>  0.0142  0.0002  0.0002  0.0000  0.0000  0.0000  0.0000  0.0000  0.0000 </r>
       </set>
       <set comment="band 4">
        <r>  0.0003  0.0013  0.0003  0.0039  0.0002  0.0156  0.0038  0.0468  0.0001 </r>
        <r>  0.0397  0.0001  0.0001  0.0002  0.2071  0.0099  0.0007  0.0296  0.0690 </r>
        <r>  0.0025  0.0031  0.0020  0.0092  0.0048  0.0044  0.0025  0.0137  0.0016 </r>
        <r>  0.0223  0.0003  0.0001  0.0015  0.2612  0.0000  0.0100  0.0001  0.0846 </r>
        <r>  0.0008  0.0007  0.0000  0.0000  0.0000  0.0000  0.0000  0.0000  0.0000 </r>
       </set>
       <set comment="band 5">
        <r>  0.0144  0.0002  0.0027  0.0005  0.0294  0.0024  0.0140  0.0071  0.0098 </r>
        <r>  0.0011  0.0002  0.0021  0.0006  0.0929  0.0457  0.0468  0.1372  0.0309 </r>
        <r>  0.0012  0.0000  0.0014  0.0001  0.1385  0.0313  0.0792  0.0964  0.0461 </r>
        <r>  0.0031  0.0002  0.0019  0.0010  0.0050  0.0012  0.0534  0.0010  0.0018 </r>
        <r>  0.0004  0.0000  0.0000  0.0001  0.0000  0.0000  0.0000  0.0000  0.0000 </r>
       </set>
       <set comment="band 6">
        <r>  0.0390  0.0000  0.0003  0.0000  0.4028  0.0000  0.0173  0.0001  0.1342 </r>
        <r>  0.0005  0.0033  0.0010  0.0097  0.0315  0.0003  0.0614  0.0012  0.0105 </r>
        <r>  0.0095  0.0000  0.0000  0.0000  0.0240  0.0137  0.0132  0.0496  0.0083 </r>
        <r>  0.0000  0.0025  0.0000  0.0111  0.0026  0.0066  0.0028  0.0004  0.0014 </r>
        <r>  0.0057  0.0000  0.0001  0.0000  0.0000  0.0000  0.0000  0.0000  0.0000 </r>
       </set>
       <set comment="band 7">
        <r>  0.0000  0.0016  0.0011  0.0048  0.0299  0.0607  0.0351  0.1812  0.0099 </r>
        <r>  0.0024  0.0024  0.0051  0.0071  0.0032  0.0245  0.0468  0.0794  0.0010 </r>
        <r>  0.0016  0.0022  0.0016  0.0076  0.0031  0.0354  0.0049  0.1373  0.0012 </r>
        <r>  0.0027  0.0042  0.0012  0.0181  0.0169  0.0229  0.0990  0.0040  0.0074 </r>
        <r>  0.0085  0.0000  0.0001  0.0001  0.0000  0.0000  0.0000  0.0000  0.0000 </r>
       </set>
       <set comment="band 8">
        <r>  0.0005  0.0000  0.0004  0.0001  0.0504  0.0599  0.0225  0.2002  0.0171 </r>
        <r>  0.0001  0.0015  0.0018  0.0048  0.0643  0.0270  0.1034  0.1255  0.0224 </r>
        <r>  0.0001  0.0010  0.0023  0.0036  0.0471  0.0001  0.0818  0.0137  0.0175 </r>
        <r>  0.0003  0.0002  0.0001  0.0008  0.0058  0.0158  0.0370  0.0000  0.0028 </r>
        <r>  0.0006  0.0000  0.0000  0.0001  0.0000  0.0000  0.0000  0.0000  0.0000 </r>
       </set>
       <set comment="band 9">
        <r>  0.0007  0.0000  0.0003  0.0000  0.0003  0.0006  0.0155  0.0319  0.0003 </r>
        <r>  0.0001  0.0004  0.0018  0.0003  0.0085  0.0175  0.0027  0.0322  0.0011 </r>
        <r>  0.0027  0.0001  0.0026  0.0012  0.0259  0.1736  0.1744  0.0002  0.0036 </r>
        <r>  0.0001  0.0052  0.0006  0.0161  0.0160  0.3527  0.0379  0.0016  0.0003 </r>
        <r>  0.0093  0.0001  0.0001  0.0000  0.0000  0.0000  0.0000  0.0000  0.0000 </r>
       </set>
       <set comment="band 10">
        <r>  0.0015  0.0001  0.0016  0.0000  0.0257  0.0049  0.1162  0.0059  0.0068 </r>
        <r>  0.0025  0.0030  0.0005  0.0116  0.0035  0.0893  0.1004  0.0008  0.0002 </r>
        <r>  0.0023  0.0040  0.0009  0.0115  0.0005  0.1011  0.0924  0.0026  0.0015 </r>
        <r>  0.0049  0.0010  0.0003  0.0080  0.0000  0.0361  0.2731  0.0060  0.0004 </r>
        <r>  0.0020  0.0000  0.0000  0.0005  0.0000  0.0000  0.0000  0.0000  0.0000 </r>
       </set>
       <set comment="band 11">
        <r>  0.0003  0.0000  0.0000  0.0006  0.0036  0.0968  0.0000  0.0363  0.0026 </r>
        <r>  0.0015  0.0004  0.0063  0.0005  0.0026  0.1386  0.0899  0.0218  0.0037 </r>
        <r>  0.0020  0.0059  0.0004  0.0226  0.0002  0.0533  0.0791  0.1426  0.0016 </r>
        <r>  0.0045  0.0028  0.0001  0.0203  0.0093  0.0010  0.1159  0.0255  0.0041 </r>
        <r>  0.0083  0.0000  0.0000  0.0002  0.0000  0.0000  0.0000  0.0000  0.0000 </r>
       </set>
       <set comment="band 12">
        <r>  0.0012  0.0007  0.0002  0.0000  0.0004  0.0683  0.0303  0.1004  0.0003 </r>
        <r>  0.0002  0.0004  0.0012  0.0033  0.0002  0.2228  0.0077  0.1063  0.0007 </r>
        <r>  0.0015  0.0029  0.0002  0.0004  0.0005  0.0002  0.0608  0.0013  0.0001 </r>
        <r>  0.0005  0.0009  0.0000  0.0040  0.0022  0.2803  0.0131  0.0397  0.0032 </r>
        <r>  0.0004  0.0000  0.0000  0.0000  0.0000  0.0000  0.0000  0.0000  0.0000 </r>
       </set>
       <set comment="band 13">
        <r>  0.0068  0.0002  0.0002  0.0001  0.0016  0.0567  0.3284  0.0405  0.0014 </r>
        <r>  0.0000  0.0096  0.0012  0.0158  0.0012  0.0001  0.0158  0.0566  0.0003 </r>
        <r>  0.0003  0.0008  0.0090  0.0019  0.0050  0.1561  0.0072  0.0009  0.0015 </r>
        <r>  0.0003  0.0030  0.0004  0.0219  0.0091  0.0154  0.1234  0.0095  0.0033 </r>
        <r>  0.0094  0.0000  0.0001  0.0002  0.0000  0.0000  0.0000  0.0000  0.0000 </r>
       </set>
       <set comment="band 14">
        <r>  0.0008  0.0004  0.0000  0.0018  0.0003  0.2578  0.0619  0.0151  0.0000 </r>
        <r>  0.0002  0.0001  0.0002  0.0032  0.0004  0.0118  0.0484  0.0126  0.0001 </r>
        <r>  0.0000  0.0010  0.0009  0.0009  0.0003  0.1322  0.0038  0.1756  0.0007 </r>
        <r>  0.0000  0.0025  0.0005  0.0039  0.0000  0.1398  0.0463  0.0257  0.0154 </r>
        <r>  0.0006  0.0000  0.0000  0.0000  0.0000  0.0000  0.0000  0.0000  0.0000 </r>
       </set>
       <set comment="band 15">
        <r>  0.0000  0.0001  0.0000  0.0002  0.0000  0.0072  0.0000  0.0000  0.0000 </r>
        <r>  0.0000  0.0000  0.0000  0.0000  0.0005  0.0001  0.0062  0.0008  0.0001 </r>
        <r>  0.0000  0.0000  0.0000  0.0000  0.0003  0.0005  0.0001  0.0054  0.0024 </r>
        <r>  0.0001  0.0000  0.0002  0.0000  0.2426  0.0003  0.0019  0.0024  0.7211 </r>
        <r>  0.0001  0.0001  0.0000  0.0006  0.0000  0.0000  0.0000  0.0000  0.0000 </r>
       </set>
       <set comment="band 16">
        <r>  0.0020  0.0033  0.0002  0.0107  0.0158  0.0001  0.1166  0.1144  0.0063 </r>
        <r>  0.0014  0.0012  0.0001  0.0059  0.0377  0.0019  0.3106  0.0133  0.0182 </r>
        <r>  0.0003  0.0000  0.0050  0.0002  0.0124  0.0364  0.0221  0.0508  0.0020 </r>
        <r>  0.0000  0.0032  0.0023  0.0145  0.0041  0.0047  0.0618  0.0308  0.0191 </r>
        <r>  0.0063  0.0000  0.0000  0.0000  0.0000  0.0000  0.0000  0.0000  0.0000 </r>
       </set>
       <set comment="band 17">
        <r>  0.0001  0.0003  0.0000  0.0000  0.0025  0.2759  0.0083  0.0813  0.0005 </r>
        <r>  0.0000  0.0001  0.0000  0.0000  0.0247  0.2667  0.0031  0.0592  0.0404 </r>
        <r>  0.0000  0.0002  0.0001  0.0000  0.0158  0.1210  0.0055  0.0346  0.0217 </r>
        <r>  0.0000  0.0004  0.0000  0.0000  0.0000  0.0208  0.0008  0.0026  0.0017 </r>
        <r>  0.0000  0.0000  0.0000  0.0000  0.0000  0.0000  0.0000  0.0000  0.0000 </r>
       </set>
       <set comment="band 18">
        <r>  0.0000  0.0000  0.0000  0.0000  0.0004  0.0010  0.0002  0.0004  0.0020 </r>
        <r>  0.0000  0.0000  0.0000  0.0000  0.0968  0.0012  0.0001  0.0001  0.2801 </r>
        <r>  0.0000  0.0000  0.0000  0.0000  0.1482  0.0006  0.0002  0.0003  0.4597 </r>
        <r>  0.0000  0.0000  0.0000  0.0000  0.0004  0.0005  0.0000  0.0000  0.0017 </r>
        <r>  0.0000  0.0000  0.0000  0.0000  0.0000  0.0000  0.0000  0.0000  0.0000 </r>
       </set>
       <set comment="band 19">
        <r>  0.0000  0.0000  0.0000  0.0000  0.0048  0.0300  0.0014  0.0107  0.0087 </r>
        <r>  0.0000  0.0000  0.0000  0.0000  0.1280  0.0250  0.0001  0.0040  0.4114 </r>
        <r>  0.0000  0.0000  0.0000  0.0000  0.0770  0.0130  0.0017  0.0050  0.2669 </r>
        <r>  0.0000  0.0000  0.0000  0.0000  0.0002  0.0045  0.0001  0.0001  0.0015 </r>
        <r>  0.0001  0.0000  0.0000  0.0000  0.0000  0.0000  0.0000  0.0000  0.0000 </r>
       </set>
       <set comment="band 20">
        <r>  0.0000  0.0000  0.0000  0.0000  0.2393  0.0006  0.0001  0.0003  0.7356 </r>
        <r>  0.0000  0.0000  0.0000  0.0000  0.0026  0.0041  0.0000  0.0007  0.0086 </r>
        <r>  0.0000  0.0000  0.0000  0.0000  0.0000  0.0006  0.0003  0.0004  0.0005 </r>
        <r>  0.0000  0.0000  0.0000  0.0001  0.0000  0.0001  0.0000  0.0001  0.0000 </r>
        <r>  0.0001  0.0000  0.0000  0.0000  0.0000  0.0000  0.0000  0.0000  0.0000 </r>
       </set>
       <set comment="band 21">
        <r>  0.0000  0.0016  0.0021  0.0046  0.0164  0.0057  0.1152  0.0083  0.0020 </r>
        <r>  0.0000  0.0039  0.0008  0.0129  0.0019  0.0087  0.0013  0.0581  0.0000 </r>
        <r>  0.0010  0.0048  0.0075  0.0113  0.0466  0.0200  0.2144  0.0051  0.0089 </r>
        <r>  0.0007  0.0157  0.0001  0.0756  0.0082  0.0000  0.0144  0.1391  0.0000 </r>
        <r>  0.0393  0.0000  0.0002  0.0000  0.0000  0.0000  0.0000  0.0000  0.0000 </r>
       </set>
       <set comment="band 22">
        <r>  0.0050  0.0215  0.0056  0.0645  0.0120  0.0041  0.0372  0.0123  0.0040 </r>
        <r>  0.0000  0.0339  0.0116  0.1010  0.0001  0.0000  0.0001  0.0000  0.0000 </r>
        <r>  0.0173  0.0221  0.0008  0.0688  0.0342  0.0053  0.0786  0.0111  0.0112 </r>
        <r>  0.0063  0.0014  0.0080  0.0100  0.0091  0.0029  0.0209  0.0348  0.0035 </r>
        <r>  0.0103  0.0000  0.0000  0.0000  0.0000  0.0000  0.0000  0.0000  0.0000 </r>
       </set>
       <set comment="band 23">
        <r>  0.0007  0.0242  0.0005  0.0725  0.0009  0.0006  0.0017  0.0018  0.0003 </r>
        <r>  0.0666  0.0061  0.0021  0.0185  0.0709  0.0039  0.1016  0.0114  0.0234 </r>
        <r>  0.0013  0.0397  0.0115  0.1210  0.0011  0.0002  0.0022  0.0011  0.0004 </r>
        <r>  0.0248  0.0002  0.0132  0.0020  0.0222  0.0012  0.0265  0.0098  0.0070 </r>
        <r>  0.0028  0.0000  0.0000  0.0000  0.0000  0.0000  0.0000  0.0000  0.0000 </r>
       </set>
       <set comment="band 24">
        <r>  0.0348  0.0448  0.0160  0.1343  0.0334  0.0000  0.0368  0.0000  0.0111 </r>
        <r>  0.0107  0.0293  0.0472  0.0880  0.0082  0.0004  0.0094  0.0013  0.0027 </r>
        <r>  0.0188  0.0075  0.0158  0.0229  0.0151  0.0007  0.0159  0.0022  0.0050 </r>
        <r>  0.0068  0.0000  0.0024  0.0002  0.0048  0.0002  0.0041  0.0014  0.0015 </r>
        <r>  0.0004  0.0000  0.0000  0.0000  0.0000  0.0000  0.0000  0.0000  0.0000 </r>
       </set>
       <set comment="band 25">
        <r>  0.0071  0.0008  0.0006  0.0023  0.0030  0.0001  0.0012  0.0004  0.0010 </r>
        <r>  0.0298  0.0004  0.0043  0.0012  0.0125  0.0019  0.0037  0.0060  0.0041 </r>
        <r>  0.1038  0.0012  0.0046  0.0046  0.0432  0.0074  0.0126  0.0188  0.0145 </r>
        <r>  0.2242  0.0041  0.0054  0.0017  0.0802  0.0070  0.0178  0.0509  0.0193 </r>
        <r>  0.0254  0.0011  0.0002  0.0072  0.0000  0.0000  0.0000  0.0000  0.0000 </r>
       </set>
       <set comment="band 26">
        <r>  0.1721  0.0051  0.0000  0.0153  0.0558  0.0019  0.0093  0.0056  0.0186 </r>
        <r>  0.0593  0.0005  0.0001  0.0014  0.0211  0.0152  0.0016  0.0456  0.0070 </r>
        <r>  0.0544  0.0041  0.0103  0.0126  0.0175  0.0005  0.0021  0.0018  0.0058 </r>
        <r>  0.0565  0.0010  0.0349  0.0017  0.0158  0.0000  0.0012  0.0000  0.0034 </r>
        <r>  0.0007  0.0011  0.0000  0.0058  0.0000  0.0000  0.0000  0.0000  0.0000 </r>
       </set>
       <set comment="band 27">
        <r>  0.0871  0.0013  0.0174  0.0039  0.0237  0.0008  0.0014  0.0026  0.0079 </r>
        <r>  0.0019  0.0077  0.0004  0.0227  0.0005  0.0001  0.0000  0.0001  0.0002 </r>
        <r>  0.0847  0.0008  0.0276  0.0016  0.0230  0.0002  0.0008  0.0002  0.0077 </r>
        <r>  0.0322  0.0061  0.0640  0.0024  0.0076  0.0121  0.0003  0.0673  0.0017 </r>
        <r>  0.0274  0.0016  0.0009  0.0077  0.0000  0.0000  0.0000  0.0000  0.0000 </r>
       </set>
       <set comment="band 28">
        <r>  0.0761  0.0024  0.0488  0.0071  0.0181  0.0021  0.0007  0.0064  0.0060 </r>
        <r>  0.1365  0.0015  0.0042  0.0046  0.0356  0.0005  0.0003  0.0014  0.0119 </r>
        <r>  0.0006  0.0017  0.0253  0.0073  0.0000  0.0111  0.0001  0.0386  0.0000 </r>
        <r>  0.0051  0.0164  0.0036  0.0134  0.0012  0.0086  0.0001  0.0592  0.0006 </r>
        <r>  0.0374  0.0000  0.0017  0.0000  0.0000  0.0000  0.0000  0.0000  0.0000 </r>
       </set>
      </set>
     </set>
    </set>
   </array>
  </projected>
 </calculation>
 <structure name="finalpos" >
  <crystal>
   <varray name="basis" >
    <v>       2.57386868       0.00000000       0.00000000 </v>
    <v>       1.28693434       2.22903567       0.00000000 </v>
    <v>       0.00000000       0.00000000      30.30466494 </v>
   </varray>
   <i name="volume">    173.86529028 </i>
   <varray name="rec_basis" >
    <v>       0.38852021      -0.22431225       0.00000000 </v>
    <v>       0.00000000       0.44862450       0.00000000 </v>
    <v>       0.00000000       0.00000000       0.03299822 </v>
   </varray>
  </crystal>
  <varray name="positions" >
   <v>       0.00000000       0.00000000       0.39597864 </v>
   <v>       0.33333333       0.33333333       0.46532621 </v>
   <v>       0.66666666       0.66666667       0.53467379 </v>
   <v>       0.00000000       0.00000000       0.60402136 </v>
   <v>       0.53885202       0.00000000       0.63701958 </v>
  </varray>
 </structure>
</modeling>
