unknown system                          
   3.30000000000000     
     1.000000    0.000000    0.000000
     0.000000    1.000000    0.000000
     0.000000    0.000000    1.000000
   Pt
     2
Direct
  0.000000  0.000000  0.000000
  0.500000  0.500000  0.500000
 
   36   36   36
  138.42      135.29      126.89      115.64      104.01      93.187      82.862      71.934      59.739      46.775    
  34.503      24.449      17.337      12.792      9.8138      7.8796      6.7082      6.0853      5.8903      6.0853    
  6.7082      7.8796      9.8138      12.792      17.337      24.449      34.503      46.775      59.739      71.934    
  82.862      93.187      104.01      115.64      126.89      135.29      135.29      132.26      124.16      113.30    
  102.01      91.449      81.297      70.515      58.501      45.778      33.783      23.990      17.075      12.646    
  9.7281      7.8312      6.6803      6.0673      5.8751      6.0673      6.6803      7.8312      9.7281      12.646    
  17.075      23.990      33.783      45.778      58.501      70.515      81.297      91.449      102.01      113.30    
  124.16      132.26      126.89      124.16      116.84      106.96      96.562      86.646      76.921      66.517    
  55.002      42.962      31.754      22.699      16.338      12.231      9.4827      7.6921      6.6002      6.0153    
  5.8313      6.0153      6.6002      7.6921      9.4827      12.231      16.338      22.699      31.754      42.962    
  55.002      66.517      76.921      86.646      96.562      106.96      116.84      124.16      115.64      113.30    
  106.96      98.288      88.959      79.772      70.522      60.597      49.804      38.787      28.761      20.801    
  15.249      11.600      9.1099      7.4800      6.4774      5.9354      5.7638      5.9354      6.4774      7.4800    
  9.1099      11.600      15.249      20.801      28.761      38.787      49.804      60.597      70.522      79.772    
  88.959      98.288      106.96      113.30      104.01      102.01      96.562      88.959      80.503      71.858    
  62.973      53.541      43.615      33.854      25.257      18.591      13.967      10.830      8.6545      7.2198    
  6.3262      5.8369      5.6808      5.8369      6.3262      7.2198      8.6545      10.830      13.967      18.591    
  25.257      33.854      43.615      53.541      62.973      71.858      80.503      88.959      96.562      102.01    
  93.187      91.449      86.646      79.772      71.858      63.524      54.914      46.026      37.101      28.746    
  21.683      16.349      12.633      10.003      8.1649      6.9389      6.1627      5.7311      5.5921      5.7311    
  6.1627      6.9389      8.1649      10.003      12.633      16.349      21.683      28.746      37.101      46.026    
  54.914      63.524      71.858      79.772      86.646      91.449      82.862      81.297      76.921      70.522    
  62.973      54.914      46.689      38.534      30.786      23.923      18.374      14.272      11.338      9.1913    
  7.6834      6.6620      6.0027      5.6298      5.5086      5.6298      6.0027      6.6620      7.6834      9.1913    
  11.338      14.272      18.374      23.923      30.786      38.534      46.689      54.914      62.973      70.522    
  76.921      81.297      71.934      70.515      66.517      60.597      53.541      46.026      38.534      31.429    
  25.046      19.690      15.524      12.450      10.145      8.4467      7.2410      6.4083      5.8594      5.5438    
  5.4403      5.5438      5.8594      6.4083      7.2410      8.4467      10.145      12.450      15.524      19.690    
  25.046      31.429      38.534      46.026      53.541      60.597      66.517      70.515      59.739      58.501    
  55.002      49.804      43.615      37.101      30.786      25.046      20.138      16.194      13.181      10.875    
  9.1056      7.7985      6.8558      6.1903      5.7427      5.4818      5.3958      5.4818      5.7427      6.1903    
  6.8558      7.7985      9.1056      10.875      13.181      16.194      20.138      25.046      30.786      37.101    
  43.615      49.804      55.002      58.501      46.775      45.778      42.962      38.787      33.854      28.746    
  23.923      19.690      16.194      13.436      11.268      9.5506      8.2368      7.2561      6.5345      6.0140    
  5.6584      5.4494      5.3803      5.4494      5.6584      6.0140      6.5345      7.2561      8.2368      9.5506    
  11.268      13.436      16.194      19.690      23.923      28.746      33.854      38.787      42.962      45.778    
  34.503      33.783      31.754      28.761      25.257      21.683      18.374      15.524      13.181      11.268    
  9.7075      8.4777      7.5321      6.8144      6.2756      5.8807      5.6087      5.4487      5.3958      5.4487    
  5.6087      5.8807      6.2756      6.8144      7.5321      8.4777      9.7075      11.268      13.181      15.524    
  18.374      21.683      25.257      28.761      31.754      33.783      24.449      23.990      22.699      20.801    
  18.591      16.349      14.272      12.450      10.875      9.5506      8.4777      7.6305      6.9709      6.4618    
  6.0741      5.7884      5.5923      5.4779      5.4403      5.4779      5.5923      5.7884      6.0741      6.4618    
  6.9709      7.6305      8.4777      9.5506      10.875      12.450      14.272      16.349      18.591      20.801    
  22.699      23.990      17.337      17.075      16.338      15.249      13.967      12.633      11.338      10.145    
  9.1056      8.2368      7.5321      6.9709      6.5290      6.1849      5.9233      5.7328      5.6050      5.5321    
  5.5086      5.5321      5.6050      5.7328      5.9233      6.1849      6.5290      6.9709      7.5321      8.2368    
  9.1056      10.145      11.338      12.633      13.967      15.249      16.338      17.075      12.792      12.646    
  12.231      11.600      10.830      10.003      9.1913      8.4467      7.7985      7.2561      6.8144      6.4618    
  6.1849      5.9728      5.8166      5.7084      5.6401      5.6035      5.5921      5.6035      5.6401      5.7084    
  5.8166      5.9728      6.1849      6.4618      6.8144      7.2561      7.7985      8.4467      9.1913      10.003    
  10.830      11.600      12.231      12.646      9.8138      9.7281      9.4827      9.1099      8.6545      8.1649    
  7.6834      7.2410      6.8558      6.5345      6.2756      6.0741      5.9233      5.8166      5.7474      5.7078    
  5.6890      5.6822      5.6808      5.6822      5.6890      5.7078      5.7474      5.8166      5.9233      6.0741    
  6.2756      6.5345      6.8558      7.2410      7.6834      8.1649      8.6545      9.1099      9.4827      9.7281    
  7.8796      7.8312      7.6921      7.4800      7.2198      6.9389      6.6620      6.4083      6.1903      6.0140    
  5.8807      5.7884      5.7328      5.7084      5.7078      5.7220      5.7416      5.7577      5.7638      5.7577    
  5.7416      5.7220      5.7078      5.7084      5.7328      5.7884      5.8807      6.0140      6.1903      6.4083    
  6.6620      6.9389      7.2198      7.4800      7.6921      7.8312      6.7082      6.6803      6.6002      6.4774    
  6.3262      6.1627      6.0027      5.8594      5.7427      5.6584      5.6087      5.5923      5.6050      5.6401    
  5.6890      5.7416      5.7882      5.8200      5.8313      5.8200      5.7882      5.7416      5.6890      5.6401    
  5.6050      5.5923      5.6087      5.6584      5.7427      5.8594      6.0027      6.1627      6.3262      6.4774    
  6.6002      6.6803      6.0853      6.0673      6.0153      5.9354      5.8369      5.7311      5.6298      5.5438    
  5.4818      5.4494      5.4487      5.4779      5.5321      5.6035      5.6822      5.7577      5.8200      5.8609    
  5.8751      5.8609      5.8200      5.7577      5.6822      5.6035      5.5321      5.4779      5.4487      5.4494    
  5.4818      5.5438      5.6298      5.7311      5.8369      5.9354      6.0153      6.0673      5.8903      5.8751    
  5.8313      5.7638      5.6808      5.5921      5.5086      5.4403      5.3958      5.3803      5.3958      5.4403    
  5.5086      5.5921      5.6808      5.7638      5.8313      5.8751      5.8903      5.8751      5.8313      5.7638    
  5.6808      5.5921      5.5086      5.4403      5.3958      5.3803      5.3958      5.4403      5.5086      5.5921    
  5.6808      5.7638      5.8313      5.8751      6.0853      6.0673      6.0153      5.9354      5.8369      5.7311    
  5.6298      5.5438      5.4818      5.4494      5.4487      5.4779      5.5321      5.6035      5.6822      5.7577    
  5.8200      5.8609      5.8751      5.8609      5.8200      5.7577      5.6822      5.6035      5.5321      5.4779    
  5.4487      5.4494      5.4818      5.5438      5.6298      5.7311      5.8369      5.9354      6.0153      6.0673    
  6.7082      6.6803      6.6002      6.4774      6.3262      6.1627      6.0027      5.8594      5.7427      5.6584    
  5.6087      5.5923      5.6050      5.6401      5.6890      5.7416      5.7882      5.8200      5.8313      5.8200    
  5.7882      5.7416      5.6890      5.6401      5.6050      5.5923      5.6087      5.6584      5.7427      5.8594    
  6.0027      6.1627      6.3262      6.4774      6.6002      6.6803      7.8796      7.8312      7.6921      7.4800    
  7.2198      6.9389      6.6620      6.4083      6.1903      6.0140      5.8807      5.7884      5.7328      5.7084    
  5.7078      5.7220      5.7416      5.7577      5.7638      5.7577      5.7416      5.7220      5.7078      5.7084    
  5.7328      5.7884      5.8807      6.0140      6.1903      6.4083      6.6620      6.9389      7.2198      7.4800    
  7.6921      7.8312      9.8138      9.7281      9.4827      9.1099      8.6545      8.1649      7.6834      7.2410    
  6.8558      6.5345      6.2756      6.0741      5.9233      5.8166      5.7474      5.7078      5.6890      5.6822    
  5.6808      5.6822      5.6890      5.7078      5.7474      5.8166      5.9233      6.0741      6.2756      6.5345    
  6.8558      7.2410      7.6834      8.1649      8.6545      9.1099      9.4827      9.7281      12.792      12.646    
  12.231      11.600      10.830      10.003      9.1913      8.4467      7.7985      7.2561      6.8144      6.4618    
  6.1849      5.9728      5.8166      5.7084      5.6401      5.6035      5.5921      5.6035      5.6401      5.7084    
  5.8166      5.9728      6.1849      6.4618      6.8144      7.2561      7.7985      8.4467      9.1913      10.003    
  10.830      11.600      12.231      12.646      17.337      17.075      16.338      15.249      13.967      12.633    
  11.338      10.145      9.1056      8.2368      7.5321      6.9709      6.5290      6.1849      5.9233      5.7328    
  5.6050      5.5321      5.5086      5.5321      5.6050      5.7328      5.9233      6.1849      6.5290      6.9709    
  7.5321      8.2368      9.1056      10.145      11.338      12.633      13.967      15.249      16.338      17.075    
  24.449      23.990      22.699      20.801      18.591      16.349      14.272      12.450      10.875      9.5506    
  8.4777      7.6305      6.9709      6.4618      6.0741      5.7884      5.5923      5.4779      5.4403      5.4779    
  5.5923      5.7884      6.0741      6.4618      6.9709      7.6305      8.4777      9.5506      10.875      12.450    
  14.272      16.349      18.591      20.801      22.699      23.990      34.503      33.783      31.754      28.761    
  25.257      21.683      18.374      15.524      13.181      11.268      9.7075      8.4777      7.5321      6.8144    
  6.2756      5.8807      5.6087      5.4487      5.3958      5.4487      5.6087      5.8807      6.2756      6.8144    
  7.5321      8.4777      9.7075      11.268      13.181      15.524      18.374      21.683      25.257      28.761    
  31.754      33.783      46.775      45.778      42.962      38.787      33.854      28.746      23.923      19.690    
  16.194      13.436      11.268      9.5506      8.2368      7.2561      6.5345      6.0140      5.6584      5.4494    
  5.3803      5.4494      5.6584      6.0140      6.5345      7.2561      8.2368      9.5506      11.268      13.436    
  16.194      19.690      23.923      28.746      33.854      38.787      42.962      45.778      59.739      58.501    
  55.002      49.804      43.615      37.101      30.786      25.046      20.138      16.194      13.181      10.875    
  9.1056      7.7985      6.8558      6.1903      5.7427      5.4818      5.3958      5.4818      5.7427      6.1903    
  6.8558      7.7985      9.1056      10.875      13.181      16.194      20.138      25.046      30.786      37.101    
  43.615      49.804      55.002      58.501      71.934      70.515      66.517      60.597      53.541      46.026    
  38.534      31.429      25.046      19.690      15.524      12.450      10.145      8.4467      7.2410      6.4083    
  5.8594      5.5438      5.4403      5.5438      5.8594      6.4083      7.2410      8.4467      10.145      12.450    
  15.524      19.690      25.046      31.429      38.534      46.026      53.541      60.597      66.517      70.515    
  82.862      81.297      76.921      70.522      62.973      54.914      46.689      38.534      30.786      23.923    
  18.374      14.272      11.338      9.1913      7.6834      6.6620      6.0027      5.6298      5.5086      5.6298    
  6.0027      6.6620      7.6834      9.1913      11.338      14.272      18.374      23.923      30.786      38.534    
  46.689      54.914      62.973      70.522      76.921      81.297      93.187      91.449      86.646      79.772    
  71.858      63.524      54.914      46.026      37.101      28.746      21.683      16.349      12.633      10.003    
  8.1649      6.9389      6.1627      5.7311      5.5921      5.7311      6.1627      6.9389      8.1649      10.003    
  12.633      16.349      21.683      28.746      37.101      46.026      54.914      63.524      71.858      79.772    
  86.646      91.449      104.01      102.01      96.562      88.959      80.503      71.858      62.973      53.541    
  43.615      33.854      25.257      18.591      13.967      10.830      8.6545      7.2198      6.3262      5.8369    
  5.6808      5.8369      6.3262      7.2198      8.6545      10.830      13.967      18.591      25.257      33.854    
  43.615      53.541      62.973      71.858      80.503      88.959      96.562      102.01      115.64      113.30    
  106.96      98.288      88.959      79.772      70.522      60.597      49.804      38.787      28.761      20.801    
  15.249      11.600      9.1099      7.4800      6.4774      5.9354      5.7638      5.9354      6.4774      7.4800    
  9.1099      11.600      15.249      20.801      28.761      38.787      49.804      60.597      70.522      79.772    
  88.959      98.288      106.96      113.30      126.89      124.16      116.84      106.96      96.562      86.646    
  76.921      66.517      55.002      42.962      31.754      22.699      16.338      12.231      9.4827      7.6921    
  6.6002      6.0153      5.8313      6.0153      6.6002      7.6921      9.4827      12.231      16.338      22.699    
  31.754      42.962      55.002      66.517      76.921      86.646      96.562      106.96      116.84      124.16    
  135.29      132.26      124.16      113.30      102.01      91.449      81.297      70.515      58.501      45.778    
  33.783      23.990      17.075      12.646      9.7281      7.8312      6.6803      6.0673      5.8751      6.0673    
  6.6803      7.8312      9.7281      12.646      17.075      23.990      33.783      45.778      58.501      70.515    
  81.297      91.449      102.01      113.30      124.16      132.26      135.29      132.26      124.16      113.30    
  102.01      91.449      81.297      70.515      58.501      45.778      33.783      23.990      17.075      12.646    
  9.7281      7.8312      6.6803      6.0673      5.8751      6.0673      6.6803      7.8312      9.7281      12.646    
  17.075      23.990      33.783      45.778      58.501      70.515      81.297      91.449      102.01      113.30    
  124.16      132.26      132.26      129.35      121.53      111.03      100.07      89.757      79.771      69.131    
  57.295      44.810      33.086      23.547      16.823      12.505      9.6452      7.7845      6.6538      6.0503    
  5.8609      6.0503      6.6538      7.7845      9.6452      12.505      16.823      23.547      33.086      44.810    
  57.295      69.131      79.771      89.757      100.07      111.03      121.53      129.35      124.16      121.53    
  114.45      104.88      94.777      85.075      75.499      65.229      53.886      42.072      31.119      22.298    
  16.110      12.102      9.4081      7.6509      6.5775      6.0014      5.8200      6.0014      6.5775      7.6509    
  9.4081      12.102      16.110      22.298      31.119      42.072      53.886      65.229      75.499      85.075    
  94.777      104.88      114.45      121.53      113.30      111.03      104.88      96.468      87.372      78.360    
  69.242      59.446      48.819      38.014      28.218      20.463      15.058      11.490      9.0481      7.4476    
  6.4613      5.9270      5.7577      5.9270      6.4613      7.4476      9.0481      11.490      15.058      20.463    
  28.218      38.014      48.819      59.446      69.242      78.360      87.372      96.468      104.88      111.03    
  102.01      100.07      94.777      87.372      79.101      70.607      61.847      52.546      42.783      33.218    
  24.821      18.326      13.818      10.744      8.6092      7.1991      6.3192      5.8364      5.6822      5.8364    
  6.3192      7.1991      8.6092      10.744      13.818      18.326      24.821      33.218      42.783      52.546    
  61.847      70.607      79.101      87.372      94.777      100.07      91.449      89.757      85.075      78.360    
  70.607      62.416      53.938      45.191      36.428      28.249      21.355      16.156      12.525      9.9439    
  8.1384      6.9322      6.1671      5.7409      5.6035      5.7409      6.1671      6.9322      8.1384      9.9439    
  12.525      16.156      21.355      28.249      36.428      45.191      53.938      62.416      70.607      78.360    
  85.075      89.757      81.297      79.771      75.499      69.242      61.847      53.938      45.861      37.857    
  30.267      23.559      18.145      14.143      11.267      9.1592      7.6769      6.6710      6.0205      5.6520    
  5.5321      5.6520      6.0205      6.6710      7.6769      9.1592      11.267      14.143      18.145      23.559    
  30.267      37.857      45.861      53.938      61.847      69.242      75.499      79.771      70.515      69.131    
  65.229      59.446      52.546      45.191      37.857      30.905      24.668      19.441      15.378      12.372    
  10.109      8.4407      7.2548      6.4341      5.8922      5.5803      5.4779      5.5803      5.8922      6.4341    
  7.2548      8.4407      10.109      12.372      15.378      19.441      24.668      30.905      37.857      45.191    
  52.546      59.446      65.229      69.131      58.501      57.295      53.886      48.819      42.783      36.428    
  30.267      24.668      19.884      16.040      13.098      10.837      9.1008      7.8168      6.8893      6.2333    
  5.7915      5.5337      5.4487      5.5337      5.7915      6.2333      6.8893      7.8168      9.1008      10.837    
  13.098      16.040      19.884      24.668      30.267      36.428      42.783      48.819      53.886      57.295    
  45.778      44.810      42.072      38.014      33.218      28.249      23.559      19.441      16.040      13.352    
  11.230      9.5470      8.2589      7.2961      6.5866      6.0742      5.7237      5.5177      5.4494      5.5177    
  5.7237      6.0742      6.5866      7.2961      8.2589      9.5470      11.230      13.352      16.040      19.441    
  23.559      28.249      33.218      38.014      42.072      44.810      33.783      33.086      31.119      28.218    
  24.821      21.355      18.145      15.378      13.098      11.230      9.7045      8.5021      7.5768      6.8737    
  6.3454      5.9578      5.6908      5.5337      5.4818      5.5337      5.6908      5.9578      6.3454      6.8737    
  7.5768      8.5021      9.7045      11.230      13.098      15.378      18.145      21.355      24.821      28.218    
  31.119      33.086      23.990      23.547      22.298      20.463      18.326      16.156      14.143      12.372    
  10.837      9.5470      8.5021      7.6769      7.0342      6.5380      6.1602      5.8820      5.6913      5.5803    
  5.5438      5.5803      5.6913      5.8820      6.1602      6.5380      7.0342      7.6769      8.5021      9.5470    
  10.837      12.372      14.143      16.156      18.326      20.463      22.298      23.547      17.075      16.823    
  16.110      15.058      13.818      12.525      11.267      10.109      9.1008      8.2589      7.5768      7.0342    
  6.6075      6.2761      6.0247      5.8427      5.7210      5.6520      5.6298      5.6520      5.7210      5.8427    
  6.0247      6.2761      6.6075      7.0342      7.5768      8.2589      9.1008      10.109      11.267      12.525    
  13.818      15.058      16.110      16.823      12.646      12.505      12.102      11.490      10.744      9.9439    
  9.1592      8.4407      7.8168      7.2961      6.8737      6.5380      6.2761      6.0771      5.9324      5.8338    
  5.7729      5.7409      5.7311      5.7409      5.7729      5.8338      5.9324      6.0771      6.2761      6.5380    
  6.8737      7.2961      7.8168      8.4407      9.1592      9.9439      10.744      11.490      12.102      12.505    
  9.7281      9.6452      9.4081      9.0481      8.6092      8.1384      7.6769      7.2548      6.8893      6.5866    
  6.3454      6.1602      6.0247      5.9324      5.8761      5.8477      5.8376      5.8364      5.8369      5.8364    
  5.8376      5.8477      5.8761      5.9324      6.0247      6.1602      6.3454      6.5866      6.8893      7.2548    
  7.6769      8.1384      8.6092      9.0481      9.4081      9.6452      7.8312      7.7845      7.6509      7.4476    
  7.1991      6.9322      6.6710      6.4341      6.2333      6.0742      5.9578      5.8820      5.8427      5.8338    
  5.8477      5.8747      5.9044      5.9270      5.9354      5.9270      5.9044      5.8747      5.8477      5.8338    
  5.8427      5.8820      5.9578      6.0742      6.2333      6.4341      6.6710      6.9322      7.1991      7.4476    
  7.6509      7.7845      6.6803      6.6538      6.5775      6.4613      6.3192      6.1671      6.0205      5.8922    
  5.7915      5.7237      5.6908      5.6913      5.7210      5.7729      5.8376      5.9044      5.9623      6.0014    
  6.0153      6.0014      5.9623      5.9044      5.8376      5.7729      5.7210      5.6913      5.6908      5.7237    
  5.7915      5.8922      6.0205      6.1671      6.3192      6.4613      6.5775      6.6538      6.0673      6.0503    
  6.0014      5.9270      5.8364      5.7409      5.6520      5.5803      5.5337      5.5177      5.5337      5.5803    
  5.6520      5.7409      5.8364      5.9270      6.0014      6.0503      6.0673      6.0503      6.0014      5.9270    
  5.8364      5.7409      5.6520      5.5803      5.5337      5.5177      5.5337      5.5803      5.6520      5.7409    
  5.8364      5.9270      6.0014      6.0503      5.8751      5.8609      5.8200      5.7577      5.6822      5.6035    
  5.5321      5.4779      5.4487      5.4494      5.4818      5.5438      5.6298      5.7311      5.8369      5.9354    
  6.0153      6.0673      6.0853      6.0673      6.0153      5.9354      5.8369      5.7311      5.6298      5.5438    
  5.4818      5.4494      5.4487      5.4779      5.5321      5.6035      5.6822      5.7577      5.8200      5.8609    
  6.0673      6.0503      6.0014      5.9270      5.8364      5.7409      5.6520      5.5803      5.5337      5.5177    
  5.5337      5.5803      5.6520      5.7409      5.8364      5.9270      6.0014      6.0503      6.0673      6.0503    
  6.0014      5.9270      5.8364      5.7409      5.6520      5.5803      5.5337      5.5177      5.5337      5.5803    
  5.6520      5.7409      5.8364      5.9270      6.0014      6.0503      6.6803      6.6538      6.5775      6.4613    
  6.3192      6.1671      6.0205      5.8922      5.7915      5.7237      5.6908      5.6913      5.7210      5.7729    
  5.8376      5.9044      5.9623      6.0014      6.0153      6.0014      5.9623      5.9044      5.8376      5.7729    
  5.7210      5.6913      5.6908      5.7237      5.7915      5.8922      6.0205      6.1671      6.3192      6.4613    
  6.5775      6.6538      7.8312      7.7845      7.6509      7.4476      7.1991      6.9322      6.6710      6.4341    
  6.2333      6.0742      5.9578      5.8820      5.8427      5.8338      5.8477      5.8747      5.9044      5.9270    
  5.9354      5.9270      5.9044      5.8747      5.8477      5.8338      5.8427      5.8820      5.9578      6.0742    
  6.2333      6.4341      6.6710      6.9322      7.1991      7.4476      7.6509      7.7845      9.7281      9.6452    
  9.4081      9.0481      8.6092      8.1384      7.6769      7.2548      6.8893      6.5866      6.3454      6.1602    
  6.0247      5.9324      5.8761      5.8477      5.8376      5.8364      5.8369      5.8364      5.8376      5.8477    
  5.8761      5.9324      6.0247      6.1602      6.3454      6.5866      6.8893      7.2548      7.6769      8.1384    
  8.6092      9.0481      9.4081      9.6452      12.646      12.505      12.102      11.490      10.744      9.9439    
  9.1592      8.4407      7.8168      7.2961      6.8737      6.5380      6.2761      6.0771      5.9324      5.8338    
  5.7729      5.7409      5.7311      5.7409      5.7729      5.8338      5.9324      6.0771      6.2761      6.5380    
  6.8737      7.2961      7.8168      8.4407      9.1592      9.9439      10.744      11.490      12.102      12.505    
  17.075      16.823      16.110      15.058      13.818      12.525      11.267      10.109      9.1008      8.2589    
  7.5768      7.0342      6.6075      6.2761      6.0247      5.8427      5.7210      5.6520      5.6298      5.6520    
  5.7210      5.8427      6.0247      6.2761      6.6075      7.0342      7.5768      8.2589      9.1008      10.109    
  11.267      12.525      13.818      15.058      16.110      16.823      23.990      23.547      22.298      20.463    
  18.326      16.156      14.143      12.372      10.837      9.5470      8.5021      7.6769      7.0342      6.5380    
  6.1602      5.8820      5.6913      5.5803      5.5438      5.5803      5.6913      5.8820      6.1602      6.5380    
  7.0342      7.6769      8.5021      9.5470      10.837      12.372      14.143      16.156      18.326      20.463    
  22.298      23.547      33.783      33.086      31.119      28.218      24.821      21.355      18.145      15.378    
  13.098      11.230      9.7045      8.5021      7.5768      6.8737      6.3454      5.9578      5.6908      5.5337    
  5.4818      5.5337      5.6908      5.9578      6.3454      6.8737      7.5768      8.5021      9.7045      11.230    
  13.098      15.378      18.145      21.355      24.821      28.218      31.119      33.086      45.778      44.810    
  42.072      38.014      33.218      28.249      23.559      19.441      16.040      13.352      11.230      9.5470    
  8.2589      7.2961      6.5866      6.0742      5.7237      5.5177      5.4494      5.5177      5.7237      6.0742    
  6.5866      7.2961      8.2589      9.5470      11.230      13.352      16.040      19.441      23.559      28.249    
  33.218      38.014      42.072      44.810      58.501      57.295      53.886      48.819      42.783      36.428    
  30.267      24.668      19.884      16.040      13.098      10.837      9.1008      7.8168      6.8893      6.2333    
  5.7915      5.5337      5.4487      5.5337      5.7915      6.2333      6.8893      7.8168      9.1008      10.837    
  13.098      16.040      19.884      24.668      30.267      36.428      42.783      48.819      53.886      57.295    
  70.515      69.131      65.229      59.446      52.546      45.191      37.857      30.905      24.668      19.441    
  15.378      12.372      10.109      8.4407      7.2548      6.4341      5.8922      5.5803      5.4779      5.5803    
  5.8922      6.4341      7.2548      8.4407      10.109      12.372      15.378      19.441      24.668      30.905    
  37.857      45.191      52.546      59.446      65.229      69.131      81.297      79.771      75.499      69.242    
  61.847      53.938      45.861      37.857      30.267      23.559      18.145      14.143      11.267      9.1592    
  7.6769      6.6710      6.0205      5.6520      5.5321      5.6520      6.0205      6.6710      7.6769      9.1592    
  11.267      14.143      18.145      23.559      30.267      37.857      45.861      53.938      61.847      69.242    
  75.499      79.771      91.449      89.757      85.075      78.360      70.607      62.416      53.938      45.191    
  36.428      28.249      21.355      16.156      12.525      9.9439      8.1384      6.9322      6.1671      5.7409    
  5.6035      5.7409      6.1671      6.9322      8.1384      9.9439      12.525      16.156      21.355      28.249    
  36.428      45.191      53.938      62.416      70.607      78.360      85.075      89.757      102.01      100.07    