unknown system                          
   3.30000000000000     
     1.000000    0.000000    0.000000
     0.000000    1.000000    0.000000
     0.000000    0.000000    1.000000
   Pt
     2
Direct
  0.000000  0.000000  0.000000
  0.500000  0.500000  0.500000
 
   36   36   36
 0.13842051515E+03 0.13528538671E+03 0.12688625466E+03 0.11564476698E+03 0.10400703226E+03
 0.93187468530E+02 0.82861776974E+02 0.71934077252E+02 0.59738596118E+02 0.46775181491E+02
 0.34502939308E+02 0.24449451529E+02 0.17336912848E+02 0.12791932339E+02 0.98137656119E+01
 0.78796465526E+01 0.67081758328E+01 0.60853172445E+01 0.58903403291E+01 0.60853172445E+01
 0.67081758328E+01 0.78796465526E+01 0.98137656119E+01 0.12791932339E+02 0.17336912848E+02
 0.24449451529E+02 0.34502939308E+02 0.46775181491E+02 0.59738596118E+02 0.71934077252E+02
 0.82861776974E+02 0.93187468530E+02 0.10400703226E+03 0.11564476698E+03 0.12688625466E+03
 0.13528538671E+03 0.13528538671E+03 0.13226299890E+03 0.12416064079E+03 0.11329761570E+03
 0.10201014942E+03 0.91449213138E+02 0.81297039669E+02 0.70515364949E+02 0.58500819543E+02
 0.45778408018E+02 0.33783216841E+02 0.23990382399E+02 0.17075241612E+02 0.12646368275E+02
 0.97280812882E+01 0.78311650687E+01 0.66803178368E+01 0.60672786805E+01 0.58751355968E+01
 0.60672786805E+01 0.66803178368E+01 0.78311650687E+01 0.97280812882E+01 0.12646368275E+02
 0.17075241612E+02 0.23990382399E+02 0.33783216841E+02 0.45778408018E+02 0.58500819543E+02
 0.70515364949E+02 0.81297039669E+02 0.91449213138E+02 0.10201014942E+03 0.11329761570E+03
 0.12416064079E+03 0.13226299890E+03 0.12688625466E+03 0.12416064079E+03 0.11683604794E+03
 0.10695526833E+03 0.96561892052E+02 0.86645903660E+02 0.76921350782E+02 0.66517321493E+02
 0.55002213908E+02 0.42962049633E+02 0.31753883771E+02 0.22698506567E+02 0.16337573509E+02
 0.12230559717E+02 0.94827180866E+01 0.76920724640E+01 0.66001813119E+01 0.60152757503E+01
 0.58312689218E+01 0.60152757503E+01 0.66001813119E+01 0.76920724640E+01 0.94827180866E+01
 0.12230559717E+02 0.16337573509E+02 0.22698506567E+02 0.31753883771E+02 0.42962049633E+02
 0.55002213908E+02 0.66517321493E+02 0.76921350782E+02 0.86645903660E+02 0.96561892052E+02
 0.10695526833E+03 0.11683604794E+03 0.12416064079E+03 0.11564476698E+03 0.11329761570E+03
 0.10695526833E+03 0.98288487966E+02 0.88959427854E+02 0.79771504835E+02 0.70521854767E+02
 0.60597015425E+02 0.49803507347E+02 0.38787204000E+02 0.28760809371E+02 0.20800582891E+02
 0.15248579114E+02 0.11599572876E+02 0.91098574110E+01 0.74799673937E+01 0.64774362252E+01
 0.59353896089E+01 0.57638357121E+01 0.59353896089E+01 0.64774362252E+01 0.74799673937E+01
 0.91098574110E+01 0.11599572876E+02 0.15248579114E+02 0.20800582891E+02 0.28760809371E+02
 0.38787204000E+02 0.49803507347E+02 0.60597015425E+02 0.70521854767E+02 0.79771504835E+02
 0.88959427854E+02 0.98288487966E+02 0.10695526833E+03 0.11329761570E+03 0.10400703226E+03
 0.10201014942E+03 0.96561892052E+02 0.88959427854E+02 0.80502757806E+02 0.71858358298E+02
 0.62972852720E+02 0.53541291738E+02 0.43614556757E+02 0.33854354001E+02 0.25257460908E+02
 0.18591346281E+02 0.13966533882E+02 0.10829811458E+02 0.86545395444E+01 0.72198094966E+01
 0.63262221921E+01 0.58369059854E+01 0.56807991499E+01 0.58369059854E+01 0.63262221921E+01
 0.72198094966E+01 0.86545395444E+01 0.10829811458E+02 0.13966533882E+02 0.18591346281E+02
 0.25257460908E+02 0.33854354001E+02 0.43614556757E+02 0.53541291738E+02 0.62972852720E+02
 0.71858358298E+02 0.80502757806E+02 0.88959427854E+02 0.96561892052E+02 0.10201014942E+03
 0.93187468530E+02 0.91449213138E+02 0.86645903660E+02 0.79771504835E+02 0.71858358298E+02
 0.63523781489E+02 0.54913567466E+02 0.46025547781E+02 0.37101283071E+02 0.28745914364E+02
 0.21683125904E+02 0.16349143728E+02 0.12633003888E+02 0.10003111252E+02 0.81649077188E+01
 0.69388588038E+01 0.61627194916E+01 0.57311076598E+01 0.55921245091E+01 0.57311076598E+01
 0.61627194916E+01 0.69388588038E+01 0.81649077188E+01 0.10003111252E+02 0.12633003888E+02
 0.16349143728E+02 0.21683125904E+02 0.28745914364E+02 0.37101283071E+02 0.46025547781E+02
 0.54913567466E+02 0.63523781489E+02 0.71858358298E+02 0.79771504835E+02 0.86645903660E+02
 0.91449213138E+02 0.82861776974E+02 0.81297039669E+02 0.76921350782E+02 0.70521854767E+02
 0.62972852720E+02 0.54913567466E+02 0.46689069627E+02 0.38533793350E+02 0.30786295693E+02
 0.23923016304E+02 0.18374018074E+02 0.14272282626E+02 0.11337805349E+02 0.91913447478E+01
 0.76833822117E+01 0.66619528894E+01 0.60026687973E+01 0.56297994047E+01 0.55085746705E+01
 0.56297994047E+01 0.60026687973E+01 0.66619528894E+01 0.76833822117E+01 0.91913447478E+01
 0.11337805349E+02 0.14272282626E+02 0.18374018074E+02 0.23923016304E+02 0.30786295693E+02
 0.38533793350E+02 0.46689069627E+02 0.54913567466E+02 0.62972852720E+02 0.70521854767E+02
 0.76921350782E+02 0.81297039669E+02 0.71934077252E+02 0.70515364949E+02 0.66517321493E+02
 0.60597015425E+02 0.53541291738E+02 0.46025547781E+02 0.38533793350E+02 0.31428847131E+02
 0.25045930706E+02 0.19689638852E+02 0.15523703511E+02 0.12449962171E+02 0.10145326094E+02
 0.84466864921E+01 0.72410207926E+01 0.64083072444E+01 0.58594032762E+01 0.55438290888E+01
 0.54403445414E+01 0.55438290888E+01 0.58594032762E+01 0.64083072444E+01 0.72410207926E+01
 0.84466864921E+01 0.10145326094E+02 0.12449962171E+02 0.15523703511E+02 0.19689638852E+02
 0.25045930706E+02 0.31428847131E+02 0.38533793350E+02 0.46025547781E+02 0.53541291738E+02
 0.60597015425E+02 0.66517321493E+02 0.70515364949E+02 0.59738596118E+02 0.58500819543E+02
 0.55002213908E+02 0.49803507347E+02 0.43614556757E+02 0.37101283071E+02 0.30786295693E+02
 0.25045930706E+02 0.20137662748E+02 0.16194382217E+02 0.13180873447E+02 0.10874988961E+02
 0.91056488205E+01 0.77985232569E+01 0.68558387789E+01 0.61903099429E+01 0.57426997464E+01
 0.54818480346E+01 0.53957665345E+01 0.54818480346E+01 0.57426997464E+01 0.61903099429E+01
 0.68558387789E+01 0.77985232569E+01 0.91056488205E+01 0.10874988961E+02 0.13180873447E+02
 0.16194382217E+02 0.20137662748E+02 0.25045930706E+02 0.30786295693E+02 0.37101283071E+02
 0.43614556757E+02 0.49803507347E+02 0.55002213908E+02 0.58500819543E+02 0.46775181491E+02
 0.45778408018E+02 0.42962049633E+02 0.38787204000E+02 0.33854354001E+02 0.28745914364E+02
 0.23923016304E+02 0.19689638852E+02 0.16194382217E+02 0.13435835333E+02 0.11267979960E+02
 0.95505627664E+01 0.82367953608E+01 0.72560643618E+01 0.65344575731E+01 0.60140340128E+01
 0.56584219067E+01 0.54494429120E+01 0.53802781636E+01 0.54494429120E+01 0.56584219067E+01
 0.60140340128E+01 0.65344575731E+01 0.72560643618E+01 0.82367953608E+01 0.95505627664E+01
 0.11267979960E+02 0.13435835333E+02 0.16194382217E+02 0.19689638852E+02 0.23923016304E+02
 0.28745914364E+02 0.33854354001E+02 0.38787204000E+02 0.42962049633E+02 0.45778408018E+02
 0.34502939308E+02 0.33783216841E+02 0.31753883771E+02 0.28760809371E+02 0.25257460908E+02
 0.21683125904E+02 0.18374018074E+02 0.15523703511E+02 0.13180873447E+02 0.11267979960E+02
 0.97074901998E+01 0.84777456781E+01 0.75320879373E+01 0.68144409020E+01 0.62756350765E+01
 0.58807152256E+01 0.56086914152E+01 0.54486605779E+01 0.53957665345E+01 0.54486605779E+01
 0.56086914152E+01 0.58807152256E+01 0.62756350765E+01 0.68144409020E+01 0.75320879373E+01
 0.84777456781E+01 0.97074901998E+01 0.11267979960E+02 0.13180873447E+02 0.15523703511E+02
 0.18374018074E+02 0.21683125904E+02 0.25257460908E+02 0.28760809371E+02 0.31753883771E+02
 0.33783216841E+02 0.24449451529E+02 0.23990382399E+02 0.22698506567E+02 0.20800582891E+02
 0.18591346281E+02 0.16349143728E+02 0.14272282626E+02 0.12449962171E+02 0.10874988961E+02
 0.95505627664E+01 0.84777456781E+01 0.76305405270E+01 0.69709242458E+01 0.64617641389E+01
 0.60740766114E+01 0.57883553753E+01 0.55922759229E+01 0.54778983073E+01 0.54403445414E+01
 0.54778983073E+01 0.55922759229E+01 0.57883553753E+01 0.60740766114E+01 0.64617641389E+01
 0.69709242458E+01 0.76305405270E+01 0.84777456781E+01 0.95505627664E+01 0.10874988961E+02
 0.12449962171E+02 0.14272282626E+02 0.16349143728E+02 0.18591346281E+02 0.20800582891E+02
 0.22698506567E+02 0.23990382399E+02 0.17336912848E+02 0.17075241612E+02 0.16337573509E+02
 0.15248579114E+02 0.13966533882E+02 0.12633003888E+02 0.11337805349E+02 0.10145326094E+02
 0.91056488205E+01 0.82367953608E+01 0.75320879373E+01 0.69709242458E+01 0.65289512569E+01
 0.61849381156E+01 0.59232551889E+01 0.57328483551E+01 0.56049976383E+01 0.55321369952E+01
 0.55085746705E+01 0.55321369952E+01 0.56049976383E+01 0.57328483551E+01 0.59232551889E+01
 0.61849381156E+01 0.65289512569E+01 0.69709242458E+01 0.75320879373E+01 0.82367953608E+01
 0.91056488205E+01 0.10145326094E+02 0.11337805349E+02 0.12633003888E+02 0.13966533882E+02
 0.15248579114E+02 0.16337573509E+02 0.17075241612E+02 0.12791932339E+02 0.12646368275E+02
 0.12230559717E+02 0.11599572876E+02 0.10829811458E+02 0.10003111252E+02 0.91913447478E+01
 0.84466864921E+01 0.77985232569E+01 0.72560643618E+01 0.68144409020E+01 0.64617641389E+01
 0.61849381156E+01 0.59728295796E+01 0.58166184814E+01 0.57084424481E+01 0.56401432683E+01
 0.56035132442E+01 0.55921245091E+01 0.56035132442E+01 0.56401432683E+01 0.57084424481E+01
 0.58166184814E+01 0.59728295796E+01 0.61849381156E+01 0.64617641389E+01 0.68144409020E+01
 0.72560643618E+01 0.77985232569E+01 0.84466864921E+01 0.91913447478E+01 0.10003111252E+02
 0.10829811458E+02 0.11599572876E+02 0.12230559717E+02 0.12646368275E+02 0.98137656119E+01
 0.97280812882E+01 0.94827180866E+01 0.91098574110E+01 0.86545395444E+01 0.81649077188E+01
 0.76833822117E+01 0.72410207926E+01 0.68558387789E+01 0.65344575731E+01 0.62756350765E+01
 0.60740766114E+01 0.59232551889E+01 0.58166184814E+01 0.57473777482E+01 0.57077821623E+01
 0.56889963719E+01 0.56822233491E+01 0.56807991499E+01 0.56822233491E+01 0.56889963719E+01
 0.57077821623E+01 0.57473777482E+01 0.58166184814E+01 0.59232551889E+01 0.60740766114E+01
 0.62756350765E+01 0.65344575731E+01 0.68558387789E+01 0.72410207926E+01 0.76833822117E+01
 0.81649077188E+01 0.86545395444E+01 0.91098574110E+01 0.94827180866E+01 0.97280812882E+01
 0.78796465526E+01 0.78311650687E+01 0.76920724640E+01 0.74799673937E+01 0.72198094966E+01
 0.69388588038E+01 0.66619528894E+01 0.64083072444E+01 0.61903099429E+01 0.60140340128E+01
 0.58807152256E+01 0.57883553753E+01 0.57328483551E+01 0.57084424481E+01 0.57077821623E+01
 0.57220436848E+01 0.57416495348E+01 0.57577071714E+01 0.57638357121E+01 0.57577071714E+01
 0.57416495348E+01 0.57220436848E+01 0.57077821623E+01 0.57084424481E+01 0.57328483551E+01
 0.57883553753E+01 0.58807152256E+01 0.60140340128E+01 0.61903099429E+01 0.64083072444E+01
 0.66619528894E+01 0.69388588038E+01 0.72198094966E+01 0.74799673937E+01 0.76920724640E+01
 0.78311650687E+01 0.67081758328E+01 0.66803178368E+01 0.66001813119E+01 0.64774362252E+01
 0.63262221921E+01 0.61627194916E+01 0.60026687973E+01 0.58594032762E+01 0.57426997464E+01
 0.56584219067E+01 0.56086914152E+01 0.55922759229E+01 0.56049976383E+01 0.56401432683E+01
 0.56889963719E+01 0.57416495348E+01 0.57881648636E+01 0.58199772516E+01 0.58312689218E+01
 0.58199772516E+01 0.57881648636E+01 0.57416495348E+01 0.56889963719E+01 0.56401432683E+01
 0.56049976383E+01 0.55922759229E+01 0.56086914152E+01 0.56584219067E+01 0.57426997464E+01
 0.58594032762E+01 0.60026687973E+01 0.61627194916E+01 0.63262221921E+01 0.64774362252E+01
 0.66001813119E+01 0.66803178368E+01 0.60853172445E+01 0.60672786805E+01 0.60152757503E+01
 0.59353896089E+01 0.58369059854E+01 0.57311076598E+01 0.56297994047E+01 0.55438290888E+01
 0.54818480346E+01 0.54494429120E+01 0.54486605779E+01 0.54778983073E+01 0.55321369952E+01
 0.56035132442E+01 0.56822233491E+01 0.57577071714E+01 0.58199772516E+01 0.58608870965E+01
 0.58751355968E+01 0.58608870965E+01 0.58199772516E+01 0.57577071714E+01 0.56822233491E+01
 0.56035132442E+01 0.55321369952E+01 0.54778983073E+01 0.54486605779E+01 0.54494429120E+01
 0.54818480346E+01 0.55438290888E+01 0.56297994047E+01 0.57311076598E+01 0.58369059854E+01
 0.59353896089E+01 0.60152757503E+01 0.60672786805E+01 0.58903403291E+01 0.58751355968E+01
 0.58312689218E+01 0.57638357121E+01 0.56807991499E+01 0.55921245091E+01 0.55085746705E+01
 0.54403445414E+01 0.53957665345E+01 0.53802781636E+01 0.53957665345E+01 0.54403445414E+01
 0.55085746705E+01 0.55921245091E+01 0.56807991499E+01 0.57638357121E+01 0.58312689218E+01
 0.58751355968E+01 0.58903403291E+01 0.58751355968E+01 0.58312689218E+01 0.57638357121E+01
 0.56807991499E+01 0.55921245091E+01 0.55085746705E+01 0.54403445414E+01 0.53957665345E+01
 0.53802781636E+01 0.53957665345E+01 0.54403445414E+01 0.55085746705E+01 0.55921245091E+01
 0.56807991499E+01 0.57638357121E+01 0.58312689218E+01 0.58751355968E+01 0.60853172445E+01
 0.60672786805E+01 0.60152757503E+01 0.59353896089E+01 0.58369059854E+01 0.57311076598E+01
 0.56297994047E+01 0.55438290888E+01 0.54818480346E+01 0.54494429120E+01 0.54486605779E+01
 0.54778983073E+01 0.55321369952E+01 0.56035132442E+01 0.56822233491E+01 0.57577071714E+01
 0.58199772516E+01 0.58608870965E+01 0.58751355968E+01 0.58608870965E+01 0.58199772516E+01
 0.57577071714E+01 0.56822233491E+01 0.56035132442E+01 0.55321369952E+01 0.54778983073E+01
 0.54486605779E+01 0.54494429120E+01 0.54818480346E+01 0.55438290888E+01 0.56297994047E+01
 0.57311076598E+01 0.58369059854E+01 0.59353896089E+01 0.60152757503E+01 0.60672786805E+01
 0.67081758328E+01 0.66803178368E+01 0.66001813119E+01 0.64774362252E+01 0.63262221921E+01
 0.61627194916E+01 0.60026687973E+01 0.58594032762E+01 0.57426997464E+01 0.56584219067E+01
 0.56086914152E+01 0.55922759229E+01 0.56049976383E+01 0.56401432683E+01 0.56889963719E+01
 0.57416495348E+01 0.57881648636E+01 0.58199772516E+01 0.58312689218E+01 0.58199772516E+01
 0.57881648636E+01 0.57416495348E+01 0.56889963719E+01 0.56401432683E+01 0.56049976383E+01
 0.55922759229E+01 0.56086914152E+01 0.56584219067E+01 0.57426997464E+01 0.58594032762E+01
 0.60026687973E+01 0.61627194916E+01 0.63262221921E+01 0.64774362252E+01 0.66001813119E+01
 0.66803178368E+01 0.78796465526E+01 0.78311650687E+01 0.76920724640E+01 0.74799673937E+01
 0.72198094966E+01 0.69388588038E+01 0.66619528894E+01 0.64083072444E+01 0.61903099429E+01
 0.60140340128E+01 0.58807152256E+01 0.57883553753E+01 0.57328483551E+01 0.57084424481E+01
 0.57077821623E+01 0.57220436848E+01 0.57416495348E+01 0.57577071714E+01 0.57638357121E+01
 0.57577071714E+01 0.57416495348E+01 0.57220436848E+01 0.57077821623E+01 0.57084424481E+01
 0.57328483551E+01 0.57883553753E+01 0.58807152256E+01 0.60140340128E+01 0.61903099429E+01
 0.64083072444E+01 0.66619528894E+01 0.69388588038E+01 0.72198094966E+01 0.74799673937E+01
 0.76920724640E+01 0.78311650687E+01 0.98137656119E+01 0.97280812882E+01 0.94827180866E+01
 0.91098574110E+01 0.86545395444E+01 0.81649077188E+01 0.76833822117E+01 0.72410207926E+01
 0.68558387789E+01 0.65344575731E+01 0.62756350765E+01 0.60740766114E+01 0.59232551889E+01
 0.58166184814E+01 0.57473777482E+01 0.57077821623E+01 0.56889963719E+01 0.56822233491E+01
 0.56807991499E+01 0.56822233491E+01 0.56889963719E+01 0.57077821623E+01 0.57473777482E+01
 0.58166184814E+01 0.59232551889E+01 0.60740766114E+01 0.62756350765E+01 0.65344575731E+01
 0.68558387789E+01 0.72410207926E+01 0.76833822117E+01 0.81649077188E+01 0.86545395444E+01
 0.91098574110E+01 0.94827180866E+01 0.97280812882E+01 0.12791932339E+02 0.12646368275E+02
 0.12230559717E+02 0.11599572876E+02 0.10829811458E+02 0.10003111252E+02 0.91913447478E+01
 0.84466864921E+01 0.77985232569E+01 0.72560643618E+01 0.68144409020E+01 0.64617641389E+01
 0.61849381156E+01 0.59728295796E+01 0.58166184814E+01 0.57084424481E+01 0.56401432683E+01
 0.56035132442E+01 0.55921245091E+01 0.56035132442E+01 0.56401432683E+01 0.57084424481E+01
 0.58166184814E+01 0.59728295796E+01 0.61849381156E+01 0.64617641389E+01 0.68144409020E+01
 0.72560643618E+01 0.77985232569E+01 0.84466864921E+01 0.91913447478E+01 0.10003111252E+02
 0.10829811458E+02 0.11599572876E+02 0.12230559717E+02 0.12646368275E+02 0.17336912848E+02
 0.17075241612E+02 0.16337573509E+02 0.15248579114E+02 0.13966533882E+02 0.12633003888E+02
 0.11337805349E+02 0.10145326094E+02 0.91056488205E+01 0.82367953608E+01 0.75320879373E+01
 0.69709242458E+01 0.65289512569E+01 0.61849381156E+01 0.59232551889E+01 0.57328483551E+01
 0.56049976383E+01 0.55321369952E+01 0.55085746705E+01 0.55321369952E+01 0.56049976383E+01
 0.57328483551E+01 0.59232551889E+01 0.61849381156E+01 0.65289512569E+01 0.69709242458E+01
 0.75320879373E+01 0.82367953608E+01 0.91056488205E+01 0.10145326094E+02 0.11337805349E+02
 0.12633003888E+02 0.13966533882E+02 0.15248579114E+02 0.16337573509E+02 0.17075241612E+02
 0.24449451529E+02 0.23990382399E+02 0.22698506567E+02 0.20800582891E+02 0.18591346281E+02
 0.16349143728E+02 0.14272282626E+02 0.12449962171E+02 0.10874988961E+02 0.95505627664E+01
 0.84777456781E+01 0.76305405270E+01 0.69709242458E+01 0.64617641389E+01 0.60740766114E+01
 0.57883553753E+01 0.55922759229E+01 0.54778983073E+01 0.54403445414E+01 0.54778983073E+01
 0.55922759229E+01 0.57883553753E+01 0.60740766114E+01 0.64617641389E+01 0.69709242458E+01
 0.76305405270E+01 0.84777456781E+01 0.95505627664E+01 0.10874988961E+02 0.12449962171E+02
 0.14272282626E+02 0.16349143728E+02 0.18591346281E+02 0.20800582891E+02 0.22698506567E+02
 0.23990382399E+02 0.34502939308E+02 0.33783216841E+02 0.31753883771E+02 0.28760809371E+02
 0.25257460908E+02 0.21683125904E+02 0.18374018074E+02 0.15523703511E+02 0.13180873447E+02
 0.11267979960E+02 0.97074901998E+01 0.84777456781E+01 0.75320879373E+01 0.68144409020E+01
 0.62756350765E+01 0.58807152256E+01 0.56086914152E+01 0.54486605779E+01 0.53957665345E+01
 0.54486605779E+01 0.56086914152E+01 0.58807152256E+01 0.62756350765E+01 0.68144409020E+01
 0.75320879373E+01 0.84777456781E+01 0.97074901998E+01 0.11267979960E+02 0.13180873447E+02
 0.15523703511E+02 0.18374018074E+02 0.21683125904E+02 0.25257460908E+02 0.28760809371E+02
 0.31753883771E+02 0.33783216841E+02 0.46775181491E+02 0.45778408018E+02 0.42962049633E+02
 0.38787204000E+02 0.33854354001E+02 0.28745914364E+02 0.23923016304E+02 0.19689638852E+02
 0.16194382217E+02 0.13435835333E+02 0.11267979960E+02 0.95505627664E+01 0.82367953608E+01
 0.72560643618E+01 0.65344575731E+01 0.60140340128E+01 0.56584219067E+01 0.54494429120E+01
 0.53802781636E+01 0.54494429120E+01 0.56584219067E+01 0.60140340128E+01 0.65344575731E+01
 0.72560643618E+01 0.82367953608E+01 0.95505627664E+01 0.11267979960E+02 0.13435835333E+02
 0.16194382217E+02 0.19689638852E+02 0.23923016304E+02 0.28745914364E+02 0.33854354001E+02
 0.38787204000E+02 0.42962049633E+02 0.45778408018E+02 0.59738596118E+02 0.58500819543E+02
 0.55002213908E+02 0.49803507347E+02 0.43614556757E+02 0.37101283071E+02 0.30786295693E+02
 0.25045930706E+02 0.20137662748E+02 0.16194382217E+02 0.13180873447E+02 0.10874988961E+02
 0.91056488205E+01 0.77985232569E+01 0.68558387789E+01 0.61903099429E+01 0.57426997464E+01
 0.54818480346E+01 0.53957665345E+01 0.54818480346E+01 0.57426997464E+01 0.61903099429E+01
 0.68558387789E+01 0.77985232569E+01 0.91056488205E+01 0.10874988961E+02 0.13180873447E+02
 0.16194382217E+02 0.20137662748E+02 0.25045930706E+02 0.30786295693E+02 0.37101283071E+02
 0.43614556757E+02 0.49803507347E+02 0.55002213908E+02 0.58500819543E+02 0.71934077252E+02
 0.70515364949E+02 0.66517321493E+02 0.60597015425E+02 0.53541291738E+02 0.46025547781E+02
 0.38533793350E+02 0.31428847131E+02 0.25045930706E+02 0.19689638852E+02 0.15523703511E+02
 0.12449962171E+02 0.10145326094E+02 0.84466864921E+01 0.72410207926E+01 0.64083072444E+01
 0.58594032762E+01 0.55438290888E+01 0.54403445414E+01 0.55438290888E+01 0.58594032762E+01
 0.64083072444E+01 0.72410207926E+01 0.84466864921E+01 0.10145326094E+02 0.12449962171E+02
 0.15523703511E+02 0.19689638852E+02 0.25045930706E+02 0.31428847131E+02 0.38533793350E+02
 0.46025547781E+02 0.53541291738E+02 0.60597015425E+02 0.66517321493E+02 0.70515364949E+02
 0.82861776974E+02 0.81297039669E+02 0.76921350782E+02 0.70521854767E+02 0.62972852720E+02
 0.54913567466E+02 0.46689069627E+02 0.38533793350E+02 0.30786295693E+02 0.23923016304E+02
 0.18374018074E+02 0.14272282626E+02 0.11337805349E+02 0.91913447478E+01 0.76833822117E+01
 0.66619528894E+01 0.60026687973E+01 0.56297994047E+01 0.55085746705E+01 0.56297994047E+01
 0.60026687973E+01 0.66619528894E+01 0.76833822117E+01 0.91913447478E+01 0.11337805349E+02
 0.14272282626E+02 0.18374018074E+02 0.23923016304E+02 0.30786295693E+02 0.38533793350E+02
 0.46689069627E+02 0.54913567466E+02 0.62972852720E+02 0.70521854767E+02 0.76921350782E+02
 0.81297039669E+02 0.93187468530E+02 0.91449213138E+02 0.86645903660E+02 0.79771504835E+02
 0.71858358298E+02 0.63523781489E+02 0.54913567466E+02 0.46025547781E+02 0.37101283071E+02
 0.28745914364E+02 0.21683125904E+02 0.16349143728E+02 0.12633003888E+02 0.10003111252E+02
 0.81649077188E+01 0.69388588038E+01 0.61627194916E+01 0.57311076598E+01 0.55921245091E+01
 0.57311076598E+01 0.61627194916E+01 0.69388588038E+01 0.81649077188E+01 0.10003111252E+02
 0.12633003888E+02 0.16349143728E+02 0.21683125904E+02 0.28745914364E+02 0.37101283071E+02
 0.46025547781E+02 0.54913567466E+02 0.63523781489E+02 0.71858358298E+02 0.79771504835E+02
 0.86645903660E+02 0.91449213138E+02 0.10400703226E+03 0.10201014942E+03 0.96561892052E+02
 0.88959427854E+02 0.80502757806E+02 0.71858358298E+02 0.62972852720E+02 0.53541291738E+02
 0.43614556757E+02 0.33854354001E+02 0.25257460908E+02 0.18591346281E+02 0.13966533882E+02
 0.10829811458E+02 0.86545395444E+01 0.72198094966E+01 0.63262221921E+01 0.58369059854E+01
 0.56807991499E+01 0.58369059854E+01 0.63262221921E+01 0.72198094966E+01 0.86545395444E+01
 0.10829811458E+02 0.13966533882E+02 0.18591346281E+02 0.25257460908E+02 0.33854354001E+02
 0.43614556757E+02 0.53541291738E+02 0.62972852720E+02 0.71858358298E+02 0.80502757806E+02
 0.88959427854E+02 0.96561892052E+02 0.10201014942E+03 0.11564476698E+03 0.11329761570E+03
 0.10695526833E+03 0.98288487966E+02 0.88959427854E+02 0.79771504835E+02 0.70521854767E+02
 0.60597015425E+02 0.49803507347E+02 0.38787204000E+02 0.28760809371E+02 0.20800582891E+02
 0.15248579114E+02 0.11599572876E+02 0.91098574110E+01 0.74799673937E+01 0.64774362252E+01
 0.59353896089E+01 0.57638357121E+01 0.59353896089E+01 0.64774362252E+01 0.74799673937E+01
 0.91098574110E+01 0.11599572876E+02 0.15248579114E+02 0.20800582891E+02 0.28760809371E+02
 0.38787204000E+02 0.49803507347E+02 0.60597015425E+02 0.70521854767E+02 0.79771504835E+02
 0.88959427854E+02 0.98288487966E+02 0.10695526833E+03 0.11329761570E+03 0.12688625466E+03
 0.12416064079E+03 0.11683604794E+03 0.10695526833E+03 0.96561892052E+02 0.86645903660E+02
 0.76921350782E+02 0.66517321493E+02 0.55002213908E+02 0.42962049633E+02 0.31753883771E+02
 0.22698506567E+02 0.16337573509E+02 0.12230559717E+02 0.94827180866E+01 0.76920724640E+01
 0.66001813119E+01 0.60152757503E+01 0.58312689218E+01 0.60152757503E+01 0.66001813119E+01
 0.76920724640E+01 0.94827180866E+01 0.12230559717E+02 0.16337573509E+02 0.22698506567E+02
 0.31753883771E+02 0.42962049633E+02 0.55002213908E+02 0.66517321493E+02 0.76921350782E+02
 0.86645903660E+02 0.96561892052E+02 0.10695526833E+03 0.11683604794E+03 0.12416064079E+03
 0.13528538671E+03 0.13226299890E+03 0.12416064079E+03 0.11329761570E+03 0.10201014942E+03
 0.91449213138E+02 0.81297039669E+02 0.70515364949E+02 0.58500819543E+02 0.45778408018E+02
 0.33783216841E+02 0.23990382399E+02 0.17075241612E+02 0.12646368275E+02 0.97280812882E+01
 0.78311650687E+01 0.66803178368E+01 0.60672786805E+01 0.58751355968E+01 0.60672786805E+01
 0.66803178368E+01 0.78311650687E+01 0.97280812882E+01 0.12646368275E+02 0.17075241612E+02
 0.23990382399E+02 0.33783216841E+02 0.45778408018E+02 0.58500819543E+02 0.70515364949E+02
 0.81297039669E+02 0.91449213138E+02 0.10201014942E+03 0.11329761570E+03 0.12416064079E+03
 0.13226299890E+03 0.13528538671E+03 0.13226299890E+03 0.12416064079E+03 0.11329761570E+03
 0.10201014942E+03 0.91449213138E+02 0.81297039669E+02 0.70515364949E+02 0.58500819543E+02
 0.45778408018E+02 0.33783216841E+02 0.23990382399E+02 0.17075241612E+02 0.12646368275E+02
 0.97280812882E+01 0.78311650687E+01 0.66803178368E+01 0.60672786805E+01 0.58751355968E+01
 0.60672786805E+01 0.66803178368E+01 0.78311650687E+01 0.97280812882E+01 0.12646368275E+02
 0.17075241612E+02 0.23990382399E+02 0.33783216841E+02 0.45778408018E+02 0.58500819543E+02
 0.70515364949E+02 0.81297039669E+02 0.91449213138E+02 0.10201014942E+03 0.11329761570E+03
 0.12416064079E+03 0.13226299890E+03 0.13226299890E+03 0.12934820824E+03 0.12152887713E+03
 0.11102627023E+03 0.10007178577E+03 0.89756636863E+02 0.79770578163E+02 0.69131342601E+02
 0.57295113003E+02 0.44809753095E+02 0.33085705279E+02 0.23546636707E+02 0.16822608307E+02
 0.12505305022E+02 0.96452213307E+01 0.77845278629E+01 0.66537514446E+01 0.60502706466E+01
 0.58608870965E+01 0.60502706466E+01 0.66537514446E+01 0.77845278629E+01 0.96452213307E+01
 0.12505305022E+02 0.16822608307E+02 0.23546636707E+02 0.33085705279E+02 0.44809753095E+02
 0.57295113003E+02 0.69131342601E+02 0.79770578163E+02 0.89756636863E+02 0.10007178577E+03
 0.11102627023E+03 0.12152887713E+03 0.12934820824E+03 0.12416064079E+03 0.12152887713E+03
 0.11445070657E+03 0.10488270274E+03 0.94777384783E+02 0.85074776848E+02 0.75498671924E+02
 0.65229226869E+02 0.53886294476E+02 0.42072498425E+02 0.31118863058E+02 0.22297768158E+02
 0.16110230521E+02 0.12102093698E+02 0.94080666547E+01 0.76508814807E+01 0.65775092640E+01
 0.60014317333E+01 0.58199772516E+01 0.60014317333E+01 0.65775092640E+01 0.76508814807E+01
 0.94080666547E+01 0.12102093698E+02 0.16110230521E+02 0.22297768158E+02 0.31118863058E+02
 0.42072498425E+02 0.53886294476E+02 0.65229226869E+02 0.75498671924E+02 0.85074776848E+02
 0.94777384783E+02 0.10488270274E+03 0.11445070657E+03 0.12152887713E+03 0.11329761570E+03
 0.11102627023E+03 0.10488270274E+03 0.96467891979E+02 0.87371665113E+02 0.78360119268E+02
 0.69241776226E+02 0.59445991106E+02 0.48818743479E+02 0.38014038498E+02 0.28217589893E+02
 0.20462662982E+02 0.15057940330E+02 0.11490176208E+02 0.90480619442E+01 0.74475650841E+01
 0.64612850869E+01 0.59270073158E+01 0.57577071714E+01 0.59270073158E+01 0.64612850869E+01
 0.74475650841E+01 0.90480619442E+01 0.11490176208E+02 0.15057940330E+02 0.20462662982E+02
 0.28217589893E+02 0.38014038498E+02 0.48818743479E+02 0.59445991106E+02 0.69241776226E+02
 0.78360119268E+02 0.87371665113E+02 0.96467891979E+02 0.10488270274E+03 0.11102627023E+03
 0.10201014942E+03 0.10007178577E+03 0.94777384783E+02 0.87371665113E+02 0.79101402690E+02
 0.70607358736E+02 0.61846760520E+02 0.52546408518E+02 0.42782855231E+02 0.33217563310E+02
 0.24821124040E+02 0.18325777751E+02 0.13817731219E+02 0.10744207450E+02 0.86091860193E+01
 0.71991119664E+01 0.63191654956E+01 0.58364129678E+01 0.56822233491E+01 0.58364129678E+01
 0.63191654956E+01 0.71991119664E+01 0.86091860193E+01 0.10744207450E+02 0.13817731219E+02
 0.18325777751E+02 0.24821124040E+02 0.33217563310E+02 0.42782855231E+02 0.52546408518E+02
 0.61846760520E+02 0.70607358736E+02 0.79101402690E+02 0.87371665113E+02 0.94777384783E+02
 0.10007178577E+03 0.91449213138E+02 0.89756636863E+02 0.85074776848E+02 0.78360119268E+02
 0.70607358736E+02 0.62415799037E+02 0.53937871665E+02 0.45190655188E+02 0.36428275915E+02
 0.28249472672E+02 0.21355072674E+02 0.16155550017E+02 0.12525191973E+02 0.99439053047E+01
 0.81383799797E+01 0.69322124798E+01 0.61671266379E+01 0.57409031492E+01 0.56035132442E+01
 0.57409031492E+01 0.61671266379E+01 0.69322124798E+01 0.81383799797E+01 0.99439053047E+01
 0.12525191973E+02 0.16155550017E+02 0.21355072674E+02 0.28249472672E+02 0.36428275915E+02
 0.45190655188E+02 0.53937871665E+02 0.62415799037E+02 0.70607358736E+02 0.78360119268E+02
 0.85074776848E+02 0.89756636863E+02 0.81297039669E+02 0.79770578163E+02 0.75498671924E+02
 0.69241776226E+02 0.61846760520E+02 0.53937871665E+02 0.45860531668E+02 0.37856569225E+02
 0.30266887936E+02 0.23558775097E+02 0.18145008301E+02 0.14142693954E+02 0.11266990328E+02
 0.91591999680E+01 0.76768928306E+01 0.66710427952E+01 0.60205347574E+01 0.56520423961E+01
 0.55321369952E+01 0.56520423961E+01 0.60205347574E+01 0.66710427952E+01 0.76768928306E+01
 0.91591999680E+01 0.11266990328E+02 0.14142693954E+02 0.18145008301E+02 0.23558775097E+02
 0.30266887936E+02 0.37856569225E+02 0.45860531668E+02 0.53937871665E+02 0.61846760520E+02
 0.69241776226E+02 0.75498671924E+02 0.79770578163E+02 0.70515364949E+02 0.69131342601E+02
 0.65229226869E+02 0.59445991106E+02 0.52546408518E+02 0.45190655188E+02 0.37856569225E+02
 0.30905256304E+02 0.24668172988E+02 0.19441290533E+02 0.15377634184E+02 0.12371838318E+02
 0.10109237094E+02 0.84407178026E+01 0.72547764261E+01 0.64341454714E+01 0.58922297816E+01
 0.55802658314E+01 0.54778983073E+01 0.55802658314E+01 0.58922297816E+01 0.64341454714E+01
 0.72547764261E+01 0.84407178026E+01 0.10109237094E+02 0.12371838318E+02 0.15377634184E+02
 0.19441290533E+02 0.24668172988E+02 0.30905256304E+02 0.37856569225E+02 0.45190655188E+02
 0.52546408518E+02 0.59445991106E+02 0.65229226869E+02 0.69131342601E+02 0.58500819543E+02
 0.57295113003E+02 0.53886294476E+02 0.48818743479E+02 0.42782855231E+02 0.36428275915E+02
 0.30266887936E+02 0.24668172988E+02 0.19883714626E+02 0.16040361241E+02 0.13098164845E+02
 0.10837133023E+02 0.91007984122E+01 0.78167994001E+01 0.68892968126E+01 0.62333180106E+01
 0.57914774342E+01 0.55337472307E+01 0.54486605779E+01 0.55337472307E+01 0.57914774342E+01
 0.62333180106E+01 0.68892968126E+01 0.78167994001E+01 0.91007984122E+01 0.10837133023E+02
 0.13098164845E+02 0.16040361241E+02 0.19883714626E+02 0.24668172988E+02 0.30266887936E+02
 0.36428275915E+02 0.42782855231E+02 0.48818743479E+02 0.53886294476E+02 0.57295113003E+02
 0.45778408018E+02 0.44809753095E+02 0.42072498425E+02 0.38014038498E+02 0.33217563310E+02
 0.28249472672E+02 0.23558775097E+02 0.19441290533E+02 0.16040361241E+02 0.13351555990E+02