   2   2   0   0
  0.1796850E+02  0.3300000E-09  0.3300000E-09  0.3300000E-09  0.5000000E-15
  1.000000000000000E-004
  CAR 
 unknown system                          
     21.07070070     -4.98583315  301      5.24405929      1.00000000
     -4.986  0.0000E+00  0.0000E+00
     -4.899  0.0000E+00  0.0000E+00
     -4.812  0.0000E+00  0.0000E+00
     -4.725  0.0000E+00  0.0000E+00
     -4.638  0.0000E+00  0.0000E+00
     -4.552  0.0000E+00  0.0000E+00
     -4.465  0.0000E+00  0.0000E+00
     -4.378  0.0000E+00  0.0000E+00
     -4.291  0.0000E+00  0.0000E+00
     -4.204  0.0000E+00  0.0000E+00
     -4.117  0.0000E+00  0.0000E+00
     -4.030  0.0000E+00  0.0000E+00
     -3.944  0.0000E+00  0.0000E+00
     -3.857  0.0000E+00  0.0000E+00
     -3.770  0.0000E+00  0.0000E+00
     -3.683  0.0000E+00  0.0000E+00
     -3.596  0.0000E+00  0.0000E+00
     -3.509  0.0000E+00  0.0000E+00
     -3.422  0.0000E+00  0.0000E+00
     -3.336  0.0000E+00  0.0000E+00
     -3.249  0.0000E+00  0.0000E+00
     -3.162  0.0000E+00  0.0000E+00
     -3.075  0.0000E+00  0.0000E+00
     -2.988  0.0000E+00  0.0000E+00
     -2.901  0.7276E-02  0.2050E-03
     -2.814  0.2991E-01  0.1709E-02
     -2.728  0.6609E-01  0.5829E-02
     -2.641  0.9293E-01  0.1285E-01
     -2.554  0.1038E+00  0.2151E-01
     -2.467  0.1075E+00  0.3064E-01
     -2.380  0.1174E+00  0.4036E-01
     -2.293  0.1329E+00  0.5120E-01
     -2.206  0.1499E+00  0.6348E-01
     -2.120  0.1678E+00  0.7727E-01
     -2.033  0.1829E+00  0.9256E-01
     -1.946  0.1909E+00  0.1088E+00
     -1.859  0.1986E+00  0.1257E+00
     -1.772  0.2105E+00  0.1434E+00
     -1.685  0.2240E+00  0.1623E+00
     -1.598  0.2369E+00  0.1823E+00
     -1.512  0.2498E+00  0.2035E+00
     -1.425  0.2627E+00  0.2257E+00
     -1.338  0.2770E+00  0.2491E+00
     -1.251  0.2958E+00  0.2740E+00
     -1.164  0.3190E+00  0.3007E+00
     -1.077  0.3436E+00  0.3294E+00
     -0.990  0.3665E+00  0.3603E+00
     -0.904  0.3887E+00  0.3931E+00
     -0.817  0.4111E+00  0.4278E+00
     -0.730  0.4338E+00  0.4645E+00
     -0.643  0.4700E+00  0.5034E+00
     -0.556  0.5284E+00  0.5467E+00
     -0.469  0.5897E+00  0.5954E+00
     -0.383  0.6455E+00  0.6490E+00
     -0.296  0.7287E+00  0.7082E+00
     -0.209  0.8797E+00  0.7776E+00
     -0.122  0.1507E+01  0.8774E+00
     -0.035  0.1968E+01  0.1031E+01
      0.052  0.3075E+01  0.1230E+01
      0.139  0.2010E+01  0.1444E+01
      0.225  0.1548E+01  0.1589E+01
      0.312  0.1531E+01  0.1723E+01
      0.399  0.1637E+01  0.1858E+01
      0.486  0.2041E+01  0.2016E+01
      0.573  0.2292E+01  0.2208E+01
      0.660  0.2734E+01  0.2418E+01
      0.747  0.3313E+01  0.2693E+01
      0.833  0.3409E+01  0.2983E+01
      0.920  0.3795E+01  0.3335E+01
      1.007  0.3430E+01  0.3653E+01
      1.094  0.2571E+01  0.3926E+01
      1.181  0.1509E+01  0.4099E+01
      1.268  0.1070E+01  0.4206E+01
      1.355  0.3798E+01  0.4479E+01
      1.441  0.4980E+01  0.4830E+01
      1.528  0.5501E+01  0.5327E+01
      1.615  0.5368E+01  0.5788E+01
      1.702  0.5454E+01  0.6259E+01
      1.789  0.5935E+01  0.6798E+01
      1.876  0.3155E+01  0.7202E+01
      1.963  0.2525E+01  0.7441E+01
      2.049  0.2566E+01  0.7666E+01
      2.136  0.3311E+01  0.7912E+01
      2.223  0.4162E+01  0.8252E+01
      2.310  0.5009E+01  0.8644E+01
      2.397  0.1099E+02  0.9185E+01
      2.484  0.4421E+01  0.9686E+01
      2.571  0.3400E+01  0.1003E+02
      2.657  0.3211E+01  0.1032E+02
      2.744  0.2860E+01  0.1058E+02
      2.831  0.2235E+01  0.1081E+02
      2.918  0.2092E+01  0.1100E+02
      3.005  0.1946E+01  0.1117E+02
      3.092  0.1768E+01  0.1133E+02
      3.179  0.1531E+01  0.1148E+02
      3.265  0.1362E+01  0.1160E+02
      3.352  0.1409E+01  0.1173E+02
      3.439  0.1578E+01  0.1186E+02
      3.526  0.1922E+01  0.1201E+02
      3.613  0.2564E+01  0.1220E+02
      3.700  0.3041E+01  0.1245E+02
      3.787  0.3553E+01  0.1273E+02
      3.873  0.4182E+01  0.1307E+02
      3.960  0.5071E+01  0.1347E+02
      4.047  0.5340E+01  0.1393E+02
      4.134  0.5353E+01  0.1439E+02
      4.221  0.5239E+01  0.1487E+02
      4.308  0.5355E+01  0.1537E+02
      4.395  0.4975E+01  0.1583E+02
      4.481  0.4646E+01  0.1627E+02
      4.568  0.4483E+01  0.1665E+02
      4.655  0.7278E+01  0.1719E+02
      4.742  0.8754E+01  0.1821E+02
      4.829  0.4410E+01  0.1872E+02
      4.916  0.3641E+01  0.1907E+02
      5.003  0.2609E+01  0.1936E+02
      5.089  0.3051E+01  0.1957E+02
      5.176  0.2513E+01  0.1983E+02
      5.263  0.2430E+01  0.2005E+02
      5.350  0.2295E+01  0.2025E+02
      5.437  0.2881E+01  0.2047E+02
      5.524  0.2328E+01  0.2069E+02
      5.610  0.1840E+01  0.2088E+02
      5.697  0.1201E+01  0.2101E+02
      5.784  0.9380E+00  0.2110E+02
      5.871  0.8393E+00  0.2117E+02
      5.958  0.7921E+00  0.2124E+02
      6.045  0.7726E+00  0.2131E+02
      6.132  0.7059E+00  0.2138E+02
      6.218  0.6503E+00  0.2144E+02
      6.305  0.6032E+00  0.2149E+02
      6.392  0.5866E+00  0.2154E+02
      6.479  0.5811E+00  0.2159E+02
      6.566  0.6025E+00  0.2164E+02
      6.653  0.6308E+00  0.2170E+02
      6.740  0.6653E+00  0.2175E+02
      6.826  0.6906E+00  0.2181E+02
      6.913  0.6658E+00  0.2187E+02
      7.000  0.6610E+00  0.2193E+02
      7.087  0.6532E+00  0.2199E+02
      7.174  0.6503E+00  0.2204E+02
      7.261  0.6470E+00  0.2210E+02
      7.348  0.6434E+00  0.2215E+02
      7.434  0.6394E+00  0.2221E+02
      7.521  0.6352E+00  0.2227E+02
      7.608  0.6335E+00  0.2232E+02
      7.695  0.6175E+00  0.2238E+02
      7.782  0.6012E+00  0.2243E+02
      7.869  0.5962E+00  0.2248E+02
      7.956  0.5939E+00  0.2253E+02
      8.042  0.5914E+00  0.2258E+02
      8.129  0.5887E+00  0.2263E+02
      8.216  0.5857E+00  0.2269E+02
      8.303  0.5850E+00  0.2274E+02
      8.390  0.6003E+00  0.2279E+02
      8.477  0.6133E+00  0.2284E+02
      8.564  0.6084E+00  0.2289E+02
      8.650  0.5969E+00  0.2295E+02
      8.737  0.5886E+00  0.2300E+02
      8.824  0.5838E+00  0.2305E+02
      8.911  0.5803E+00  0.2310E+02
      8.998  0.5783E+00  0.2315E+02
      9.085  0.5776E+00  0.2320E+02
      9.172  0.5784E+00  0.2325E+02
      9.258  0.5806E+00  0.2330E+02
      9.345  0.6891E+00  0.2335E+02
      9.432  0.6752E+00  0.2341E+02
      9.519  0.6448E+00  0.2347E+02
      9.606  0.6595E+00  0.2352E+02
      9.693  0.8110E+00  0.2359E+02
      9.780  0.7528E+00  0.2366E+02
      9.866  0.4001E+00  0.2372E+02
      9.953  0.3710E+00  0.2375E+02
     10.040  0.3380E+00  0.2378E+02
     10.127  0.3054E+00  0.2381E+02
     10.214  0.3616E+00  0.2384E+02
     10.301  0.3402E+00  0.2387E+02
     10.388  0.3595E+00  0.2390E+02
     10.474  0.5191E+00  0.2394E+02
     10.561  0.4713E+00  0.2398E+02
     10.648  0.4948E+00  0.2403E+02
     10.735  0.5230E+00  0.2407E+02
     10.822  0.5302E+00  0.2411E+02
     10.909  0.5708E+00  0.2416E+02
     10.996  0.6125E+00  0.2421E+02
     11.082  0.6551E+00  0.2427E+02
     11.169  0.6997E+00  0.2433E+02
     11.256  0.1206E+01  0.2440E+02
     11.343  0.1057E+01  0.2451E+02
     11.430  0.1162E+01  0.2461E+02
     11.517  0.1075E+01  0.2471E+02
     11.603  0.8468E+00  0.2479E+02
     11.690  0.8394E+00  0.2487E+02
     11.777  0.8429E+00  0.2494E+02
     11.864  0.8468E+00  0.2501E+02
     11.951  0.8512E+00  0.2509E+02
     12.038  0.8604E+00  0.2516E+02
     12.125  0.8512E+00  0.2524E+02
     12.211  0.7621E+00  0.2531E+02
     12.298  0.7415E+00  0.2537E+02
     12.385  0.7224E+00  0.2544E+02
     12.472  0.7325E+00  0.2550E+02
     12.559  0.7403E+00  0.2556E+02
     12.646  0.7344E+00  0.2563E+02
     12.733  0.7305E+00  0.2569E+02
     12.819  0.7268E+00  0.2576E+02
     12.906  0.7261E+00  0.2582E+02
     12.993  0.7285E+00  0.2588E+02
     13.080  0.6643E+00  0.2594E+02
     13.167  0.6085E+00  0.2600E+02
     13.254  0.6004E+00  0.2605E+02
     13.341  0.6052E+00  0.2610E+02
     13.427  0.6116E+00  0.2616E+02
     13.514  0.6144E+00  0.2621E+02
     13.601  0.6135E+00  0.2626E+02
     13.688  0.5889E+00  0.2632E+02
     13.775  0.5815E+00  0.2637E+02
     13.862  0.5830E+00  0.2642E+02
     13.949  0.5854E+00  0.2647E+02
     14.035  0.5992E+00  0.2652E+02
     14.122  0.6285E+00  0.2657E+02
     14.209  0.5959E+00  0.2663E+02
     14.296  0.5847E+00  0.2668E+02
     14.383  0.5829E+00  0.2673E+02
     14.470  0.5749E+00  0.2678E+02
     14.557  0.5609E+00  0.2683E+02
     14.643  0.5508E+00  0.2688E+02
     14.730  0.5424E+00  0.2692E+02
     14.817  0.5359E+00  0.2697E+02
     14.904  0.5306E+00  0.2702E+02
     14.991  0.5259E+00  0.2706E+02
     15.078  0.5219E+00  0.2711E+02
     15.165  0.5205E+00  0.2715E+02
     15.251  0.5260E+00  0.2720E+02
     15.338  0.5301E+00  0.2724E+02
     15.425  0.5047E+00  0.2729E+02
     15.512  0.4939E+00  0.2733E+02
     15.599  0.4829E+00  0.2737E+02
     15.686  0.4720E+00  0.2742E+02
     15.773  0.4630E+00  0.2746E+02
     15.859  0.4119E+00  0.2750E+02
     15.946  0.3937E+00  0.2753E+02
     16.033  0.3810E+00  0.2756E+02
     16.120  0.3679E+00  0.2760E+02
     16.207  0.3543E+00  0.2763E+02
     16.294  0.3402E+00  0.2766E+02
     16.381  0.3072E+00  0.2769E+02
     16.467  0.2927E+00  0.2771E+02
     16.554  0.2780E+00  0.2774E+02
     16.641  0.2631E+00  0.2776E+02
     16.728  0.2479E+00  0.2778E+02
     16.815  0.2329E+00  0.2780E+02
     16.902  0.2211E+00  0.2782E+02
     16.989  0.2072E+00  0.2784E+02
     17.075  0.1907E+00  0.2786E+02
     17.162  0.1750E+00  0.2788E+02
     17.249  0.1602E+00  0.2789E+02
     17.336  0.1463E+00  0.2790E+02
     17.423  0.1350E+00  0.2792E+02
     17.510  0.1216E+00  0.2793E+02
     17.596  0.1097E+00  0.2794E+02
     17.683  0.9946E-01  0.2795E+02
     17.770  0.9078E-01  0.2795E+02
     17.857  0.8369E-01  0.2796E+02
     17.944  0.7819E-01  0.2797E+02
     18.031  0.5896E-01  0.2797E+02
     18.118  0.5198E-01  0.2798E+02
     18.204  0.4535E-01  0.2798E+02
     18.291  0.3906E-01  0.2799E+02
     18.378  0.3312E-01  0.2799E+02
     18.465  0.2752E-01  0.2799E+02
     18.552  0.2226E-01  0.2799E+02
     18.639  0.1735E-01  0.2800E+02
     18.726  0.1279E-01  0.2800E+02
     18.812  0.9053E-02  0.2800E+02
     18.899  0.5728E-02  0.2800E+02
     18.986  0.2687E-02  0.2800E+02
     19.073  0.0000E+00  0.2800E+02
     19.160  0.0000E+00  0.2800E+02
     19.247  0.0000E+00  0.2800E+02
     19.334  0.0000E+00  0.2800E+02
     19.420  0.0000E+00  0.2800E+02
     19.507  0.0000E+00  0.2800E+02
     19.594  0.0000E+00  0.2800E+02
     19.681  0.0000E+00  0.2800E+02
     19.768  0.0000E+00  0.2800E+02
     19.855  0.0000E+00  0.2800E+02
     19.942  0.0000E+00  0.2800E+02
     20.028  0.0000E+00  0.2800E+02
     20.115  0.0000E+00  0.2800E+02
     20.202  0.0000E+00  0.2800E+02
     20.289  0.0000E+00  0.2800E+02
     20.376  0.0000E+00  0.2800E+02
     20.463  0.0000E+00  0.2800E+02
     20.550  0.0000E+00  0.2800E+02
     20.636  0.0000E+00  0.2800E+02
     20.723  0.0000E+00  0.2800E+02
     20.810  0.0000E+00  0.2800E+02
     20.897  0.0000E+00  0.2800E+02
     20.984  0.0000E+00  0.2800E+02
     21.071  0.0000E+00  0.2800E+02
