    2    2    1    1
  0.1796850E+02  0.3300000E-09  0.3300000E-09  0.3300000E-09  0.5000000E-15
  1.000000000000000E-004
  CAR 
 unknown system                          
     20     35     14
 
  0.0000000E+00  0.0000000E+00  0.0000000E+00  0.1371742E-02
    1       -2.985833   1.000000
    2        0.342224   1.000000
    3        0.342224   1.000000
    4        2.391812   1.000000
    5        2.391812   1.000000
    6        2.391812   1.000000
    7        4.455077   1.000000
    8        4.455077   1.000000
    9        5.630460   0.078289
   10        5.630460  -0.238590
   11        5.630460   0.000000
   12       12.722391   0.000000
   13       12.722391   0.000000
   14       12.722391   0.000000
 
  0.1111111E+00  0.0000000E+00  0.0000000E+00  0.8230453E-02
    1       -2.763219   1.000000
    2        0.444124   1.000000
    3        0.475941   1.000000
    4        2.398446   1.000000
    5        2.398446   1.000000
    6        2.474989   1.000000
    7        4.301490   1.000000
    8        4.512568   1.000000
    9        5.318141   0.798118
   10        5.318141   0.609539
   11        5.513817  -0.001982
   12       11.279974   0.000000
   13       13.298893   0.000000
   14       13.298893   0.000000
 
  0.2222222E+00  0.0000000E+00  0.0000000E+00  0.8230453E-02
    1       -2.117585   1.000000
    2        0.743443   1.000000
    3        0.808373   1.000000
    4        2.438335   1.000000
    5        2.438335   1.000000
    6        2.718259   1.000000
    7        3.872711   1.000000
    8        4.620668   1.000000
    9        4.620668   1.000541
   10        4.661881   1.029344
   11        5.186500   0.344328
   12        9.001250   0.000000
   13       14.777754   0.000000
   14       14.777754   0.000000
 
  0.3333333E+00  0.0000000E+00  0.0000000E+00  0.8230453E-02
    1       -1.127140   1.000000
    2        1.099105   1.000000
    3        1.219959   1.000000
    4        2.561202   1.000000
    5        2.561202   1.000000
    6        3.103083   1.000000
    7        3.251280   1.000000
    8        3.877456   1.000000
    9        3.877456   1.000000
   10        4.707544   1.000000
   11        4.849825   1.098754
   12        6.977452   0.000000
   13       16.782938   0.000000
   14       16.782939   0.000000
 
  0.4444444E+00  0.0000000E+00  0.0000000E+00  0.8230453E-02
    1        0.019828   1.000000
    2        0.906640   1.000000
    3        1.837551   1.000000
    4        2.540520   1.000000
    5        2.822149   1.000000
    6        2.822149   1.000000
    7        3.259497   1.000000
    8        3.259497   1.000000
    9        3.597178   1.000000
   10        4.152878   1.000000
   11        5.081396   1.000000
   12        5.639659   0.000000
   13       18.742617   0.000000
   14       19.070701   0.000000
 
  0.1111111E+00  0.1111111E+00  0.0000000E+00  0.1646091E-01
    1       -2.547732   1.000000
    2        0.548704   1.000000
    3        0.601183   1.000000
    4        2.242232   1.000000
    5        2.393942   1.000000
    6        2.721457   1.000000
    7        4.287013   1.000000
    8        4.467487   1.000000
    9        4.814262   1.019381
   10        4.995918   1.010866
   11        5.676951  -0.003449
   12       11.557744   0.000000
   13       12.148165   0.000000
   14       13.780834   0.000000
 
  0.2222222E+00  0.1111111E+00  0.0000000E+00  0.3292181E-01
    1       -1.927631   1.000000
    2        0.807327   1.000000
    3        0.948317   1.000000
    4        2.153235   1.000000
    5        2.406859   1.000000
    6        3.093222   1.000000
    7        3.977323   1.000000
    8        4.070780   1.000000
    9        4.319695   1.000684
   10        4.596983   1.005479
   11        5.553695  -0.051761
   12        9.509796   0.000000
   13       13.180757   0.000000
   14       15.083202   0.000000
 
  0.3333333E+00  0.1111111E+00  0.0000000E+00  0.3292181E-01
    1       -0.994585   1.000000
    2        1.081617   1.000000
    3        1.359827   1.000000
    4        2.191695   1.000000
    5        2.459954   1.000000
    6        3.355157   1.000000
    7        3.522420   1.000000
    8        3.555509   1.000000
    9        3.722997   1.000000
   10        4.802258   1.000000
   11        5.171141   0.628581
   12        7.391464   0.000000
   13       14.753522   0.000000
   14       16.936925   0.000000
 
  0.4444444E+00  0.1111111E+00  0.0000000E+00  0.3292181E-01
    1        0.051387   1.000000
    2        0.864438   1.000000
    3        1.860774   1.000000
    4        2.339170   1.000000
    5        2.392768   1.000000
    6        2.781003   1.000000
    7        3.293011   1.000000
    8        3.429386   1.000000
    9        4.088690   1.000000
   10        4.650246   1.000000
   11        5.086448   0.920420
   12        5.835890   0.000000
   13       16.328697   0.000000
   14       17.952921   0.000000
 
  0.2222222E+00  0.2222222E+00  0.0000000E+00  0.1646091E-01
    1       -1.401766   1.000000
    2        0.896321   1.000000
    3        1.366710   1.000000
    4        1.883321   1.000000
    5        2.409325   1.000000
    6        3.303594   1.000000
    7        3.638716   1.000000
    8        3.790783   1.000000
    9        4.104595   1.000000
   10        4.515276   1.006082
   11        5.796288  -0.030356
   12       10.619072   0.000000
   13       10.746013   0.000000
   14       15.988934   0.000000
 
  0.3333333E+00  0.2222222E+00  0.0000000E+00  0.3292181E-01
    1       -0.681849   1.000000
    2        0.863505   1.000000
    3        1.767478   1.000000
    4        1.883893   1.000000
    5        2.556853   1.000000
    6        2.629199   1.000000
    7        3.554029   1.000000
    8        3.960585   1.000000
    9        4.225825   1.000000
   10        4.678753   1.031399
   11        5.699230  -0.082427
   12        8.293942   0.000000
   13       12.143260   0.000000
   14       17.508244   0.000000
 
  0.4444444E+00  0.2222222E+00  0.0000000E+00  0.3292181E-01
    1        0.019634   1.000000
    2        0.558700   1.000000
    3        1.843472   1.000000
    4        2.131369   1.000000
    5        2.335064   1.000000
    6        2.624378   1.000000
    7        3.726905   1.000000
    8        3.880666   1.000000
    9        4.811558   1.000000
   10        5.104680   0.960032
   11        5.333576   0.082389
   12        6.329590   0.000000
   13       13.716658   0.000000
   14       15.487329   0.000000
 
  0.3333333E+00  0.3333333E+00  0.0000000E+00  0.1646091E-01
    1       -0.369564   1.000000
    2        0.520776   1.000000
    3        1.505181   1.000000
    4        2.028160   1.000000
    5        2.598412   1.000000
    6        3.131660   1.000000
    7        3.647634   1.000000
    8        4.227654   1.000000
    9        4.600395   1.003595
   10        4.884610   1.068122
   11        5.934909   0.000000
   12        8.583548   0.000000
   13       10.545422   0.000000
   14       15.231978   0.000000
 
  0.4444444E+00  0.3333333E+00  0.0000000E+00  0.3292181E-01
    1       -0.111077   1.000000
    2        0.174175   1.000000
    3        1.451133   1.000000
    4        1.626000   1.000000
    5        3.223359   1.000000
    6        3.545391   1.000000
    7        3.989420   1.000000
    8        4.290908   1.000000
    9        5.127854   0.985285
   10        5.449892   0.073458
   11        5.831997   0.000000
   12        6.804880   0.000000
   13       11.502880   0.000000
   14       13.167931   0.000000
 
  0.4444444E+00  0.4444444E+00  0.0000000E+00  0.1646091E-01
    1       -0.180515   1.000000
    2       -0.090932   1.000000
    3        1.272968   1.000000
    4        1.331462   1.000000
    5        4.163911   1.000000
    6        4.183742   1.000000
    7        4.234092   1.000000
    8        4.675412   1.000000
    9        5.366413   0.670054
   10        5.885341  -0.118819
   11        6.027105   0.000000
   12        6.528388   0.000000
   13       10.534085   0.000000
   14       11.341399   0.000000
 
  0.1111111E+00  0.1111111E+00  0.1111111E+00  0.1097394E-01
    1       -2.337301   1.000000
    2        0.688299   1.000000
    3        0.688299   1.000000
    4        2.229712   1.000000
    5        2.229712   1.000000
    6        2.980106   1.000000
    7        4.161378   1.000000
    8        4.359913   1.000000
    9        4.359913   1.019708
   10        5.368331   0.803590
   11        5.368331   0.011496
   12       11.638499   0.000000
   13       12.698154   0.000000
   14       12.698154   0.000000
 
  0.2222222E+00  0.1111111E+00  0.1111111E+00  0.3292181E-01
    1       -1.735946   1.000000
    2        0.939536   1.000000
    3        1.024700   1.000000
    4        2.090968   1.000000
    5        2.205308   1.000000
    6        3.390163   1.000000
    7        3.429804   1.000000
    8        4.064750   1.000000
    9        4.541948   1.000186
   10        4.695741   1.008519
   11        5.413821   0.019921
   12        9.933024   0.000000
   13       13.040357   0.000000
   14       14.076489   0.000000
 
  0.3333333E+00  0.1111111E+00  0.1111111E+00  0.3292181E-01
    1       -0.847257   1.000000
    2        1.236867   1.000000
    3        1.320285   1.000000
    4        2.133339   1.000000
    5        2.180299   1.000000
    6        2.856659   1.000000
    7        3.677956   1.000000
    8        3.964968   1.000000
    9        4.016428   1.000000
   10        4.767543   1.000000
   11        5.130276   0.605780
   12        7.833055   0.000000
   13       14.264072   0.000000
   14       15.865725   0.000000
 
  0.4444444E+00  0.1111111E+00  0.1111111E+00  0.3292181E-01
    1        0.119533   1.000000
    2        0.895638   1.000000
    3        1.752014   1.000000
    4        2.074668   1.000000
    5        2.388214   1.000000
    6        2.665185   1.000000
    7        3.415403   1.000000
    8        3.537576   1.000000
    9        4.443347   1.000000
   10        4.745471   1.000000
   11        5.175697   0.588696
   12        6.186045   0.000000
   13       15.680170   0.000000
   14       17.341561   0.000000
 
  0.2222222E+00  0.2222222E+00  0.1111111E+00  0.3292181E-01
    1       -1.207146   1.000000
    2        1.069508   1.000000
    3        1.407943   1.000000
    4        1.854853   1.000000
    5        2.140490   1.000000
    6        2.664966   1.000000
    7        4.021699   1.000000
    8        4.179510   1.000000
    9        4.361767   1.000000
   10        4.479228   1.005862
   11        5.483352  -0.008415
   12       10.772992   0.000000
   13       11.154058   0.000000
   14       14.565304   0.000000
 
  0.3333333E+00  0.2222222E+00  0.1111111E+00  0.6584362E-01
    1       -0.496176   1.000000
    2        1.029346   1.000000
    3        1.742397   1.000000
    4        1.787139   1.000000
    5        2.236834   1.000000
    6        2.342053   1.000000
    7        3.928855   1.000000
    8        4.014254   1.000000
    9        4.588496   1.000000
   10        4.765747   1.025158
   11        5.381617   0.025629
   12        8.744828   0.000000
   13       12.176112   0.000000
   14       15.845783   0.000000
 
  0.4444444E+00  0.2222222E+00  0.1111111E+00  0.6584362E-01
    1        0.164882   1.000000
    2        0.679560   1.000000
    3        1.778215   1.000000
    4        1.839128   1.000000
    5        2.451934   1.000000
    6        2.482335   1.000000
    7        3.821895   1.000000
    8        3.865330   1.000000
    9        4.747978   1.000000
   10        5.026603   1.009993
   11        5.633759  -0.062173
   12        6.912942   0.000000
   13       13.613486   0.000000
   14       15.359994   0.000000
 
  0.3333333E+00  0.3333333E+00  0.1111111E+00  0.3292181E-01
    1       -0.161815   1.000000
    2        0.664298   1.000000
    3        1.486913   1.000000
    4        1.869083   1.000000
    5        2.553424   1.000000
    6        2.698876   1.000000
    7        3.879321   1.000000
    8        4.238286   1.000000
    9        4.599470   1.002358
   10        5.466689   0.430225
   11        5.541209   0.000013
   12        9.243513   0.000000
   13       10.470554   0.000000
   14       15.198211   0.000000
 
  0.4444444E+00  0.3333333E+00  0.1111111E+00  0.6584362E-01
    1        0.073979   1.000000
    2        0.326529   1.000000
    3        1.435876   1.000000
    4        1.580521   1.000000
    5        3.127425   1.000000
    6        3.247611   1.000000
    7        4.069261   1.000000
    8        4.237935   1.000000
    9        4.783360   1.011154
   10        5.289249   0.546751
   11        6.328674   0.000000
   12        7.621301   0.000000
   13       11.470088   0.000000
   14       13.126801   0.000000
 
  0.4444444E+00  0.4444444E+00  0.1111111E+00  0.3292181E-01
    1        0.008311   1.000000
    2        0.084125   1.000000
    3        1.269231   1.000000
    4        1.324521   1.000000
    5        3.980010   1.000000
    6        4.185807   1.000000
    7        4.250540   1.000000
    8        4.439359   1.000000
    9        4.681128   1.038984
   10        5.188046   0.637831
   11        7.049305   0.000000
   12        7.756220   0.000000
   13       10.428127   0.000000
   14       11.287169   0.000000
 
  0.2222222E+00  0.2222222E+00  0.2222222E+00  0.1097394E-01
    1       -0.677290   1.000000
    2        1.513783   1.000000
    3        1.513783   1.000000
    4        1.791619   1.000000
    5        1.791619   1.000000
    6        1.928047   1.000000
    7        4.373043   1.000000
    8        4.373043   1.000000
    9        4.743415   1.000000
   10        4.864072   1.004436
   11        4.864072   0.814176
   12       10.786741   0.000000
   13       12.429802   0.000000
   14       12.429802   0.000000
 
  0.3333333E+00  0.2222222E+00  0.2222222E+00  0.3292181E-01
    1       -0.020147   1.000000
    2        1.247761   1.000000
    3        1.632328   1.000000
    4        1.738598   1.000000
    5        1.745912   1.000000
    6        2.145316   1.000000
    7        4.217047   1.000000
    8        4.337020   1.000000
    9        4.592293   1.000000
   10        4.977911   1.002746
   11        5.561191  -0.011205
   12        9.579654   0.000000
   13       12.019628   0.000000
   14       14.018876   0.000000
 
  0.4444444E+00  0.2222222E+00  0.2222222E+00  0.3292181E-01
    1        0.448134   1.000000
    2        0.797503   1.000000
    3        1.702252   1.000000
    4        1.719044   1.000000
    5        2.138269   1.000000
    6        2.436665   1.000000
    7        4.076666   1.000000
    8        4.077613   1.000000
    9        4.720487   1.000000
   10        4.827490   1.020659
   11        6.539864  -0.014126
   12        7.859469   0.000000
   13       13.018418   0.000000
   14       14.661678   0.000000
 
  0.3333333E+00  0.3333333E+00  0.2222222E+00  0.3292181E-01
    1        0.422314   1.000000
    2        0.913478   1.000000
    3        1.456961   1.000000
    4        1.757947   1.000000
    5        1.997160   1.000000
    6        2.396542   1.000000
    7        4.308319   1.000000
    8        4.378240   1.000000
    9        4.590328   1.000000
   10        4.961974   1.015540
   11        6.468647  -0.011884
   12       10.304716   0.000000
   13       10.626451   0.000000
   14       14.226036   0.000000
 
  0.4444444E+00  0.3333333E+00  0.2222222E+00  0.6584362E-01
    1        0.553082   1.000000
    2        0.658496   1.000000
    3        1.450847   1.000000
    4        1.594086   1.000000
    5        2.558662   1.000000
    6        2.771009   1.000000
    7        4.293453   1.000000
    8        4.344756   1.000000
    9        4.700009   1.000000
   10        4.848950   1.030020
   11        7.468884   0.000000
   12        8.773137   0.000000
   13       11.474955   0.000000
   14       12.995188   0.000000
 
  0.4444444E+00  0.4444444E+00  0.2222222E+00  0.3292181E-01
    1        0.526959   1.000000
    2        0.538688   1.000000
    3        1.280590   1.000000
    4        1.356718   1.000000
    5        3.252932   1.000000
    6        3.325636   1.000000
    7        4.418193   1.000000
    8        4.456243   1.000000
    9        4.694894   1.000000
   10        4.793207   1.033175
   11        8.418535   0.000000
   12        9.408543   0.000000
   13       10.155280   0.000000
   14       11.236107   0.000000
 
  0.3333333E+00  0.3333333E+00  0.3333333E+00  0.1097394E-01
    1        0.892234   1.000000
    2        1.198195   1.000000
    3        1.471880   1.000000
    4        1.471880   1.000000
    5        2.121217   1.000000
    6        2.121217   1.000000
    7        4.563575   1.000000
    8        4.563575   1.000000
    9        4.623542   1.000000
   10        4.623542   1.000000
   11        7.485782  -0.004967
   12       10.148221   0.000000
   13       12.263391   0.000000
   14       12.263392   0.000000
 
  0.4444444E+00  0.3333333E+00  0.3333333E+00  0.3292181E-01
    1        0.860832   1.000000
    2        1.010637   1.000000
    3        1.585001   1.000000
    4        1.815298   1.000000
    5        2.083378   1.000000
    6        2.407840   1.000000
    7        4.517554   1.000000
    8        4.526164   1.000000
    9        4.687256   1.000000
   10        4.717379   1.000000
   11        8.495643   0.000000
   12        9.569671   0.000000
   13       11.600299   0.000000
   14       12.543408   0.000000
 
  0.4444444E+00  0.4444444E+00  0.3333333E+00  0.3292181E-01
    1        1.000577   1.000000
    2        1.204870   1.000000
    3        1.362111   1.000000
    4        1.602008   1.000000
    5        2.439305   1.000000
    6        2.567884   1.000000
    7        4.603603   1.000000
    8        4.612440   1.000000
    9        4.708742   1.000000
   10        4.721667   1.000000
   11        9.336224   0.000000
   12        9.838088   0.000000
   13       11.204373   0.000000
   14       11.596408   0.000000
 
  0.4444444E+00  0.4444444E+00  0.4444444E+00  0.1097394E-01
    1        1.301825   1.000000
    2        1.576237   1.000000
    3        1.576237   1.000000
    4        1.971418   1.000000
    5        1.971418   1.000000
    6        2.025070   1.000000
    7        4.715173   1.000000
    8        4.715173   1.000000
    9        4.715632   1.000000
   10        4.715632   1.000000
   11        9.557852   0.000000
   12        9.627456   0.000000
   13       12.363651   0.000000
   14       13.074794   0.000000
