unknown system                          
   4.00000000000000     
     0.980530   -0.000000    0.000000
    -0.000000    0.980530    0.000000
    -0.000000   -0.000000    0.980530
   Pt
     4
Direct
  0.000000  0.000000  0.000000
  0.000000  0.500000  0.500000
  0.500000  0.000000  0.500000
  0.500000  0.500000  0.000000
 
   60   60   60
  245.03      242.06      233.63      221.07      206.13      190.47      175.21      160.70      146.67      132.50    
  117.64      101.96      85.866      70.209      55.970      43.951      34.525      27.563      22.516      18.711    
  15.827      13.673      12.056      10.834      9.9018      9.1920      8.6597      8.2767      8.0197      7.8732    
  7.8254      7.8732      8.0197      8.2767      8.6597      9.1920      9.9018      10.834      12.056      13.673    
  15.827      18.711      22.516      27.563      34.525      43.951      55.970      70.209      85.866      101.96    
  117.64      132.50      146.67      160.70      175.21      190.47      206.13      221.07      233.63      242.06    
  242.06      239.15      230.90      218.61      203.98      188.62      173.61      159.30      145.42      131.35    
  116.58      101.00      85.039      69.530      55.450      43.580      34.280      27.413      22.426      18.659    
  15.804      13.671      12.069      10.858      9.9323      9.2276      8.6998      8.3200      8.0656      7.9206    
  7.8732      7.9206      8.0656      8.3200      8.6998      9.2276      9.9323      10.858      12.069      13.671    
  15.804      18.659      22.426      27.413      34.280      43.580      55.450      69.530      85.039      101.00    
  116.58      131.35      145.42      159.30      173.61      188.62      203.98      218.61      230.90      239.15    
  233.63      230.90      223.17      211.63      197.86      183.33      169.03      155.26      141.76      127.98    
  113.48      98.210      82.622      67.551      53.933      42.502      33.570      26.978      22.166      18.512    
  15.743      13.670      12.112      10.930      10.028      9.3404      8.8255      8.4549      8.2071      8.0656    
  8.0197      8.0656      8.2071      8.4549      8.8255      9.3404      10.028      10.930      12.112      13.670    
  15.743      18.512      22.166      26.978      33.570      42.502      53.933      67.551      82.622      98.210    
  113.48      127.98      141.76      155.26      169.03      183.33      197.86      211.63      223.17      230.90    
  221.07      218.61      211.63      201.19      188.66      175.31      162.01      148.99      136.03      122.67    
  108.57      93.783      78.797      64.430      51.551      40.816      32.467      26.303      21.763      18.290    
  15.658      13.683      12.196      11.065      10.199      9.5385      9.0454      8.6910      8.4549      8.3200    
  8.2767      8.3200      8.4549      8.6910      9.0454      9.5385      10.199      11.065      12.196      13.683    
  15.658      18.290      21.763      26.303      32.467      40.816      51.551      64.430      78.797      93.783    
  108.57      122.67      136.03      148.99      162.01      175.31      188.66      201.19      211.63      218.61    
  206.13      203.98      197.86      188.66      177.51      165.48      153.26      141.05      128.67      115.77    
  102.17      88.019      73.837      60.404      48.500      38.673      31.074      25.455      21.258      18.024    
  15.575      13.731      12.338      11.275      10.461      9.8401      9.3776      9.0454      8.8255      8.6998    
  8.6597      8.6998      8.8255      9.0454      9.3776      9.8401      10.461      11.275      12.338      13.731    
  15.575      18.024      21.258      25.455      31.074      38.673      48.500      60.404      73.837      88.019    
  102.17      115.77      128.67      141.05      153.26      165.48      177.51      188.66      197.86      203.98    
  190.47      188.62      183.33      175.31      165.48      154.68      143.44      131.96      120.10      107.69    
  94.658      81.269      68.065      55.760      45.016      36.250      29.515      24.508      20.700      17.755    
  15.523      13.837      12.561      11.583      10.834      10.263      9.8401      9.5385      9.3404      9.2276    
  9.1920      9.2276      9.3404      9.5385      9.8401      10.263      10.834      11.583      12.561      13.837    
  15.523      17.755      20.700      24.508      29.515      36.250      45.016      55.760      68.065      81.269    
  94.658      107.69      120.10      131.96      143.44      154.68      165.48      175.31      183.33      188.62    
  175.21      173.61      169.03      162.01      153.26      143.44      132.99      122.08      110.68      98.753    
  86.380      73.892      61.825      50.800      41.344      33.729      27.910      23.535      20.143      17.522    
  15.534      14.029      12.885      12.010      11.340      10.834      10.461      10.199      10.028      9.9323    
  9.9018      9.9323      10.028      10.199      10.461      10.834      11.340      12.010      12.885      14.029    
  15.534      17.522      20.143      23.535      27.910      33.729      41.344      50.800      61.825      73.892    
  86.380      98.753      110.68      122.08      132.99      143.44      153.26      162.01      169.03      173.61    
  160.70      159.30      155.26      148.99      141.05      131.96      122.08      111.62      100.65      89.270    
  77.674      66.234      55.445      45.812      37.711      31.274      26.363      22.597      19.641      17.367    
  15.640      14.333      13.340      12.584      12.010      11.583      11.275      11.065      10.930      10.858    
  10.834      10.858      10.930      11.065      11.275      11.583      12.010      12.584      13.340      14.333    
  15.640      17.367      19.641      22.597      26.363      31.274      37.711      45.812      55.445      66.234    
  77.674      89.270      100.65      111.62      122.08      131.96      141.05      148.99      155.26      159.30    
  146.67      145.42      141.76      136.03      128.67      120.10      110.68      100.65      90.192      79.497    
  68.849      58.617      49.225      41.046      34.305      29.011      24.944      21.750      19.244      17.326    
  15.874      14.781      13.956      13.340      12.885      12.561      12.338      12.196      12.112      12.069    
  12.056      12.069      12.112      12.196      12.338      12.561      12.885      13.340      13.956      14.781    
  15.874      17.326      19.244      21.750      24.944      29.011      34.305      41.046      49.225      58.617    
  68.849      79.497      90.192      100.65      110.68      120.10      128.67      136.03      141.76      145.42    
  132.50      131.35      127.98      122.67      115.77      107.69      98.753      89.270      79.497      69.708    
  60.206      51.335      43.418      36.698      31.261      27.016      23.691      21.046      18.993      17.435    
  16.271      15.408      14.781      14.333      14.029      13.837      13.731      13.683      13.670      13.671    
  13.673      13.671      13.670      13.683      13.731      13.837      14.029      14.333      14.781      15.408    
  16.271      17.435      18.993      21.046      23.691      27.016      31.261      36.698      43.418      51.335    
  60.206      69.708      79.497      89.270      98.753      107.69      115.77      122.67      127.98      131.35    
  117.64      116.58      113.48      108.57      102.17      94.658      86.380      77.674      68.849      60.206    
  52.044      44.642      38.220      32.897      28.650      25.309      22.636      20.529      18.924      17.732    
  16.872      16.271      15.874      15.640      15.534      15.523      15.575      15.658      15.743      15.804    
  15.827      15.804      15.743      15.658      15.575      15.523      15.534      15.640      15.874      16.271    
  16.872      17.732      18.924      20.529      22.636      25.309      28.650      32.897      38.220      44.642    
  52.044      60.206      68.849      77.674      86.380      94.658      102.17      108.57      113.48      116.58    
  101.96      101.00      98.210      93.783      88.019      81.269      73.892      66.234      58.617      51.335    
  44.642      38.741      33.755      29.698      26.472      23.882      21.816      20.236      19.074      18.261    
  17.732      17.435      17.326      17.367      17.522      17.755      18.024      18.290      18.512      18.659    
  18.711      18.659      18.512      18.290      18.024      17.755      17.522      17.367      17.326      17.435    
  17.732      18.261      19.074      20.236      21.816      23.882      26.472      29.698      33.755      38.741    
  44.642      51.335      58.617      66.234      73.892      81.269      88.019      93.783      98.210      101.00    
  85.866      85.039      82.622      78.797      73.837      68.065      61.825      55.445      49.225      43.418    
  38.220      33.755      30.059      27.081      24.676      22.745      21.266      20.196      19.483      19.074    
  18.924      18.993      19.244      19.641      20.143      20.700      21.258      21.763      22.166      22.426    
  22.516      22.426      22.166      21.763      21.258      20.700      20.143      19.641      19.244      18.993    
  18.924      19.074      19.483      20.196      21.266      22.745      24.676      27.081      30.059      33.755    
  38.220      43.418      49.225      55.445      61.825      68.065      73.837      78.797      82.622      85.039    
  70.209      69.530      67.551      64.430      60.404      55.760      50.800      45.812      41.046      36.698    
  32.897      29.698      27.081      24.949      23.232      21.925      21.005      20.441      20.196      20.236    
  20.529      21.046      21.750      22.597      23.535      24.508      25.455      26.303      26.978      27.413    
  27.563      27.413      26.978      26.303      25.455      24.508      23.535      22.597      21.750      21.046    
  20.529      20.236      20.196      20.441      21.005      21.925      23.232      24.949      27.081      29.698    
  32.897      36.698      41.046      45.812      50.800      55.760      60.404      64.430      67.551      69.530    
  55.970      55.450      53.933      51.551      48.500      45.016      41.344      37.711      34.305      31.261    
  28.650      26.472      24.676      23.232      22.152      21.430      21.054      21.005      21.266      21.816    
  22.636      23.691      24.944      26.363      27.910      29.515      31.074      32.467      33.570      34.280    
  34.525      34.280      33.570      32.467      31.074      29.515      27.910      26.363      24.944      23.691    
  22.636      21.816      21.266      21.005      21.054      21.430      22.152      23.232      24.676      26.472    
  28.650      31.261      34.305      37.711      41.344      45.016      48.500      51.551      53.933      55.450    
  43.951      43.580      42.502      40.816      38.673      36.250      33.729      31.274      29.011      27.016    
  25.309      23.882      22.745      21.925      21.430      21.265      21.430      21.925      22.745      23.882    
  25.309      27.016      29.011      31.274      33.729      36.250      38.673      40.816      42.502      43.580    
  43.951      43.580      42.502      40.816      38.673      36.250      33.729      31.274      29.011      27.016    
  25.309      23.882      22.745      21.925      21.430      21.265      21.430      21.925      22.745      23.882    
  25.309      27.016      29.011      31.274      33.729      36.250      38.673      40.816      42.502      43.580    
  34.525      34.280      33.570      32.467      31.074      29.515      27.910      26.363      24.944      23.691    
  22.636      21.816      21.266      21.005      21.054      21.430      22.152      23.232      24.676      26.472    
  28.650      31.261      34.305      37.711      41.344      45.016      48.500      51.551      53.933      55.450    
  55.970      55.450      53.933      51.551      48.500      45.016      41.344      37.711      34.305      31.261    
  28.650      26.472      24.676      23.232      22.152      21.430      21.054      21.005      21.266      21.816    
  22.636      23.691      24.944      26.363      27.910      29.515      31.074      32.467      33.570      34.280    
  27.563      27.413      26.978      26.303      25.455      24.508      23.535      22.597      21.750      21.046    
  20.529      20.236      20.196      20.441      21.005      21.925      23.232      24.949      27.081      29.698    
  32.897      36.698      41.046      45.812      50.800      55.760      60.404      64.430      67.551      69.530    
  70.209      69.530      67.551      64.430      60.404      55.760      50.800      45.812      41.046      36.698    
  32.897      29.698      27.081      24.949      23.232      21.925      21.005      20.441      20.196      20.236    
  20.529      21.046      21.750      22.597      23.535      24.508      25.455      26.303      26.978      27.413    
  22.516      22.426      22.166      21.763      21.258      20.700      20.143      19.641      19.244      18.993    
  18.924      19.074      19.483      20.196      21.266      22.745      24.676      27.081      30.059      33.755    
  38.220      43.418      49.225      55.445      61.825      68.065      73.837      78.797      82.622      85.039    
  85.866      85.039      82.622      78.797      73.837      68.065      61.825      55.445      49.225      43.418    
  38.220      33.755      30.059      27.081      24.676      22.745      21.266      20.196      19.483      19.074    
  18.924      18.993      19.244      19.641      20.143      20.700      21.258      21.763      22.166      22.426    
  18.711      18.659      18.512      18.290      18.024      17.755      17.522      17.367      17.326      17.435    
  17.732      18.261      19.074      20.236      21.816      23.882      26.472      29.698      33.755      38.741    
  44.642      51.335      58.617      66.234      73.892      81.269      88.019      93.783      98.210      101.00    
  101.96      101.00      98.210      93.783      88.019      81.269      73.892      66.234      58.617      51.335    
  44.642      38.741      33.755      29.698      26.472      23.882      21.816      20.236      19.074      18.261    
  17.732      17.435      17.326      17.367      17.522      17.755      18.024      18.290      18.512      18.659    
  15.827      15.804      15.743      15.658      15.575      15.523      15.534      15.640      15.874      16.271    
  16.872      17.732      18.924      20.529      22.636      25.309      28.650      32.897      38.220      44.642    
  52.044      60.206      68.849      77.674      86.380      94.658      102.17      108.57      113.48      116.58    
  117.64      116.58      113.48      108.57      102.17      94.658      86.380      77.674      68.849      60.206    
  52.044      44.642      38.220      32.897      28.650      25.309      22.636      20.529      18.924      17.732    
  16.872      16.271      15.874      15.640      15.534      15.523      15.575      15.658      15.743      15.804    
  13.673      13.671      13.670      13.683      13.731      13.837      14.029      14.333      14.781      15.408    
  16.271      17.435      18.993      21.046      23.691      27.016      31.261      36.698      43.418      51.335    
  60.206      69.708      79.497      89.270      98.753      107.69      115.77      122.67      127.98      131.35    
  132.50      131.35      127.98      122.67      115.77      107.69      98.753      89.270      79.497      69.708    
  60.206      51.335      43.418      36.698      31.261      27.016      23.691      21.046      18.993      17.435    
  16.271      15.408      14.781      14.333      14.029      13.837      13.731      13.683      13.670      13.671    
  12.056      12.069      12.112      12.196      12.338      12.561      12.885      13.340      13.956      14.781    
  15.874      17.326      19.244      21.750      24.944      29.011      34.305      41.046      49.225      58.617    
  68.849      79.497      90.192      100.65      110.68      120.10      128.67      136.03      141.76      145.42    
  146.67      145.42      141.76      136.03      128.67      120.10      110.68      100.65      90.192      79.497    
  68.849      58.617      49.225      41.046      34.305      29.011      24.944      21.750      19.244      17.326    
  15.874      14.781      13.956      13.340      12.885      12.561      12.338      12.196      12.112      12.069    
  10.834      10.858      10.930      11.065      11.275      11.583      12.010      12.584      13.340      14.333    
  15.640      17.367      19.641      22.597      26.363      31.274      37.711      45.812      55.445      66.234    
  77.674      89.270      100.65      111.62      122.08      131.96      141.05      148.99      155.26      159.30    
  160.70      159.30      155.26      148.99      141.05      131.96      122.08      111.62      100.65      89.270    
  77.674      66.234      55.445      45.812      37.711      31.274      26.363      22.597      19.641      17.367    
  15.640      14.333      13.340      12.584      12.010      11.583      11.275      11.065      10.930      10.858    
  9.9018      9.9323      10.028      10.199      10.461      10.834      11.340      12.010      12.885      14.029    
  15.534      17.522      20.143      23.535      27.910      33.729      41.344      50.800      61.825      73.892    
  86.380      98.753      110.68      122.08      132.99      143.44      153.26      162.01      169.03      173.61    
  175.21      173.61      169.03      162.01      153.26      143.44      132.99      122.08      110.68      98.753    
  86.380      73.892      61.825      50.800      41.344      33.729      27.910      23.535      20.143      17.522    
  15.534      14.029      12.885      12.010      11.340      10.834      10.461      10.199      10.028      9.9323    
  9.1920      9.2276      9.3404      9.5385      9.8401      10.263      10.834      11.583      12.561      13.837    
  15.523      17.755      20.700      24.508      29.515      36.250      45.016      55.760      68.065      81.269    
  94.658      107.69      120.10      131.96      143.44      154.68      165.48      175.31      183.33      188.62    
  190.47      188.62      183.33      175.31      165.48      154.68      143.44      131.96      120.10      107.69    
  94.658      81.269      68.065      55.760      45.016      36.250      29.515      24.508      20.700      17.755    
  15.523      13.837      12.561      11.583      10.834      10.263      9.8401      9.5385      9.3404      9.2276    
  8.6597      8.6998      8.8255      9.0454      9.3776      9.8401      10.461      11.275      12.338      13.731    
  15.575      18.024      21.258      25.455      31.074      38.673      48.500      60.404      73.837      88.019    
  102.17      115.77      128.67      141.05      153.26      165.48      177.51      188.66      197.86      203.98    
  206.13      203.98      197.86      188.66      177.51      165.48      153.26      141.05      128.67      115.77    
  102.17      88.019      73.837      60.404      48.500      38.673      31.074      25.455      21.258      18.024    
  15.575      13.731      12.338      11.275      10.461      9.8401      9.3776      9.0454      8.8255      8.6998    
  8.2767      8.3200      8.4549      8.6910      9.0454      9.5385      10.199      11.065      12.196      13.683    
  15.658      18.290      21.763      26.303      32.467      40.816      51.551      64.430      78.797      93.783    
  108.57      122.67      136.03      148.99      162.01      175.31      188.66      201.19      211.63      218.61    
  221.07      218.61      211.63      201.19      188.66      175.31      162.01      148.99      136.03      122.67    
  108.57      93.783      78.797      64.430      51.551      40.816      32.467      26.303      21.763      18.290    
  15.658      13.683      12.196      11.065      10.199      9.5385      9.0454      8.6910      8.4549      8.3200    
  8.0197      8.0656      8.2071      8.4549      8.8255      9.3404      10.028      10.930      12.112      13.670    
  15.743      18.512      22.166      26.978      33.570      42.502      53.933      67.551      82.622      98.210    
  113.48      127.98      141.76      155.26      169.03      183.33      197.86      211.63      223.17      230.90    
  233.63      230.90      223.17      211.63      197.86      183.33      169.03      155.26      141.76      127.98    
  113.48      98.210      82.622      67.551      53.933      42.502      33.570      26.978      22.166      18.512    
  15.743      13.670      12.112      10.930      10.028      9.3404      8.8255      8.4549      8.2071      8.0656    
  7.8732      7.9206      8.0656      8.3200      8.6998      9.2276      9.9323      10.858      12.069      13.671    
  15.804      18.659      22.426      27.413      34.280      43.580      55.450      69.530      85.039      101.00    
  116.58      131.35      145.42      159.30      173.61      188.62      203.98      218.61      230.90      239.15    
  242.06      239.15      230.90      218.61      203.98      188.62      173.61      159.30      145.42      131.35    
  116.58      101.00      85.039      69.530      55.450      43.580      34.280      27.413      22.426      18.659    
  15.804      13.671      12.069      10.858      9.9323      9.2276      8.6998      8.3200      8.0656      7.9206    
  7.8254      7.8732      8.0197      8.2767      8.6597      9.1920      9.9018      10.834      12.056      13.673    
  15.827      18.711      22.516      27.563      34.525      43.951      55.970      70.209      85.866      101.96    
  117.64      132.50      146.67      160.70      175.21      190.47      206.13      221.07      233.63      242.06    
  245.03      242.06      233.63      221.07      206.13      190.47      175.21      160.70      146.67      132.50    
  117.64      101.96      85.866      70.209      55.970      43.951      34.525      27.563      22.516      18.711    
  15.827      13.673      12.056      10.834      9.9018      9.1920      8.6597      8.2767      8.0197      7.8732    
  7.8732      7.9206      8.0656      8.3200      8.6998      9.2276      9.9323      10.858      12.069      13.671    
  15.804      18.659      22.426      27.413      34.280      43.580      55.450      69.530      85.039      101.00    
  116.58      131.35      145.42      159.30      173.61      188.62      203.98      218.61      230.90      239.15    
  242.06      239.15      230.90      218.61      203.98      188.62      173.61      159.30      145.42      131.35    
  116.58      101.00      85.039      69.530      55.450      43.580      34.280      27.413      22.426      18.659    
  15.804      13.671      12.069      10.858      9.9323      9.2276      8.6998      8.3200      8.0656      7.9206    
  8.0197      8.0656      8.2071      8.4549      8.8255      9.3404      10.028      10.930      12.112      13.670    
  15.743      18.512      22.166      26.978      33.570      42.502      53.933      67.551      82.622      98.210    
  113.48      127.98      141.76      155.26      169.03      183.33      197.86      211.63      223.17      230.90    
  233.63      230.90      223.17      211.63      197.86      183.33      169.03      155.26      141.76      127.98    
  113.48      98.210      82.622      67.551      53.933      42.502      33.570      26.978      22.166      18.512    
  15.743      13.670      12.112      10.930      10.028      9.3404      8.8255      8.4549      8.2071      8.0656    
  8.2767      8.3200      8.4549      8.6910      9.0454      9.5385      10.199      11.065      12.196      13.683    
  15.658      18.290      21.763      26.303      32.467      40.816      51.551      64.430      78.797      93.783    
  108.57      122.67      136.03      148.99      162.01      175.31      188.66      201.19      211.63      218.61    
  221.07      218.61      211.63      201.19      188.66      175.31      162.01      148.99      136.03      122.67    
  108.57      93.783      78.797      64.430      51.551      40.816      32.467      26.303      21.763      18.290    
  15.658      13.683      12.196      11.065      10.199      9.5385      9.0454      8.6910      8.4549      8.3200    
  8.6597      8.6998      8.8255      9.0454      9.3776      9.8401      10.461      11.275      12.338      13.731    
  15.575      18.024      21.258      25.455      31.074      38.673      48.500      60.404      73.837      88.019    
  102.17      115.77      128.67      141.05      153.26      165.48      177.51      188.66      197.86      203.98    
  206.13      203.98      197.86      188.66      177.51      165.48      153.26      141.05      128.67      115.77    
  102.17      88.019      73.837      60.404      48.500      38.673      31.074      25.455      21.258      18.024    
  15.575      13.731      12.338      11.275      10.461      9.8401      9.3776      9.0454      8.8255      8.6998    
  9.1920      9.2276      9.3404      9.5385      9.8401      10.263      10.834      11.583      12.561      13.837    
  15.523      17.755      20.700      24.508      29.515      36.250      45.016      55.760      68.065      81.269    
  94.658      107.69      120.10      131.96      143.44      154.68      165.48      175.31      183.33      188.62    
  190.47      188.62      183.33      175.31      165.48      154.68      143.44      131.96      120.10      107.69    
  94.658      81.269      68.065      55.760      45.016      36.250      29.515      24.508      20.700      17.755    
  15.523      13.837      12.561      11.583      10.834      10.263      9.8401      9.5385      9.3404      9.2276    
  9.9018      9.9323      10.028      10.199      10.461      10.834      11.340      12.010      12.885      14.029    
  15.534      17.522      20.143      23.535      27.910      33.729      41.344      50.800      61.825      73.892    
  86.380      98.753      110.68      122.08      132.99      143.44      153.26      162.01      169.03      173.61    
  175.21      173.61      169.03      162.01      153.26      143.44      132.99      122.08      110.68      98.753    
  86.380      73.892      61.825      50.800      41.344      33.729      27.910      23.535      20.143      17.522    
  15.534      14.029      12.885      12.010      11.340      10.834      10.461      10.199      10.028      9.9323    
  10.834      10.858      10.930      11.065      11.275      11.583      12.010      12.584      13.340      14.333    
  15.640      17.367      19.641      22.597      26.363      31.274      37.711      45.812      55.445      66.234    
  77.674      89.270      100.65      111.62      122.08      131.96      141.05      148.99      155.26      159.30    
  160.70      159.30      155.26      148.99      141.05      131.96      122.08      111.62      100.65      89.270    
  77.674      66.234      55.445      45.812      37.711      31.274      26.363      22.597      19.641      17.367    
  15.640      14.333      13.340      12.584      12.010      11.583      11.275      11.065      10.930      10.858    
  12.056      12.069      12.112      12.196      12.338      12.561      12.885      13.340      13.956      14.781    
  15.874      17.326      19.244      21.750      24.944      29.011      34.305      41.046      49.225      58.617    
  68.849      79.497      90.192      100.65      110.68      120.10      128.67      136.03      141.76      145.42    
  146.67      145.42      141.76      136.03      128.67      120.10      110.68      100.65      90.192      79.497    
  68.849      58.617      49.225      41.046      34.305      29.011      24.944      21.750      19.244      17.326    
  15.874      14.781      13.956      13.340      12.885      12.561      12.338      12.196      12.112      12.069    
  13.673      13.671      13.670      13.683      13.731      13.837      14.029      14.333      14.781      15.408    
  16.271      17.435      18.993      21.046      23.691      27.016      31.261      36.698      43.418      51.335    
  60.206      69.708      79.497      89.270      98.753      107.69      115.77      122.67      127.98      131.35    
  132.50      131.35      127.98      122.67      115.77      107.69      98.753      89.270      79.497      69.708    
  60.206      51.335      43.418      36.698      31.261      27.016      23.691      21.046      18.993      17.435    
  16.271      15.408      14.781      14.333      14.029      13.837      13.731      13.683      13.670      13.671    
  15.827      15.804      15.743      15.658      15.575      15.523      15.534      15.640      15.874      16.271    
  16.872      17.732      18.924      20.529      22.636      25.309      28.650      32.897      38.220      44.642    
  52.044      60.206      68.849      77.674      86.380      94.658      102.17      108.57      113.48      116.58    
  117.64      116.58      113.48      108.57      102.17      94.658      86.380      77.674      68.849      60.206    
  52.044      44.642      38.220      32.897      28.650      25.309      22.636      20.529      18.924      17.732    