unknown system                          
   4.00000000000000     
     0.994584   -0.000000    0.000000
    -0.000000    0.994584    0.000000
    -0.000000   -0.000000    0.994584
   Pt
     4
Direct
 -0.000000 -0.000000  0.000000
  0.000000  0.500000  0.500000
  0.500000  0.000000  0.500000
  0.500000  0.500000 -0.000000
 
   60   60   60
 0.24089957250E+03 0.23800617768E+03 0.22980372790E+03 0.21757365133E+03 0.20300816359E+03
 0.18771100233E+03 0.17277688654E+03 0.15858575645E+03 0.14487869043E+03 0.13105799642E+03
 0.11658624199E+03 0.10130928815E+03 0.85594809431E+02 0.70237074677E+02 0.56189980492E+02
 0.44251176313E+02 0.34822067202E+02 0.27818961503E+02 0.22742409930E+02 0.18925784632E+02
 0.16024528185E+02 0.13854251706E+02 0.12224008025E+02 0.10992264095E+02 0.10051434421E+02
 0.93351970608E+01 0.87971296166E+01 0.84096822922E+01 0.81491903662E+01 0.80008093862E+01
 0.79520812383E+01 0.80008093862E+01 0.81491903662E+01 0.84096822922E+01 0.87971296166E+01
 0.93351970608E+01 0.10051434421E+02 0.10992264095E+02 0.12224008025E+02 0.13854251706E+02
 0.16024528185E+02 0.18925784632E+02 0.22742409930E+02 0.27818961503E+02 0.34822067202E+02
 0.44251176313E+02 0.56189980492E+02 0.70237074677E+02 0.85594809431E+02 0.10130928815E+03
 0.11658624199E+03 0.13105799642E+03 0.14487869043E+03 0.15858575645E+03 0.17277688654E+03
 0.18771100233E+03 0.20300816359E+03 0.21757365133E+03 0.22980372790E+03 0.23800617768E+03
 0.23800617768E+03 0.23517592239E+03 0.22715083440E+03 0.21517991041E+03 0.20091086205E+03
 0.18590293221E+03 0.17121684119E+03 0.15721695415E+03 0.14364796783E+03 0.12993043000E+03
 0.11554998565E+03 0.10037416076E+03 0.84782591901E+02 0.69567759220E+02 0.55673122492E+02
 0.43880380477E+02 0.34576016256E+02 0.27667482446E+02 0.22652243500E+02 0.18874490617E+02
 0.16001942544E+02 0.13852406112E+02 0.12237468146E+02 0.11015957815E+02 0.10082286394E+02
 0.93714182090E+01 0.88378864269E+01 0.84538994439E+01 0.81959523010E+01 0.80489987600E+01
 0.80008093862E+01 0.80489987600E+01 0.81959523010E+01 0.84538994439E+01 0.88378864269E+01
 0.93714182090E+01 0.10082286394E+02 0.11015957815E+02 0.12237468146E+02 0.13852406112E+02
 0.16001942544E+02 0.18874490617E+02 0.22652243500E+02 0.27667482446E+02 0.34576016256E+02
 0.43880380477E+02 0.55673122492E+02 0.69567759220E+02 0.84782591901E+02 0.10037416076E+03
 0.11554998565E+03 0.12993043000E+03 0.14364796783E+03 0.15721695415E+03 0.17121684119E+03
 0.18590293221E+03 0.20091086205E+03 0.21517991041E+03 0.22715083440E+03 0.23517592239E+03
 0.22980372790E+03 0.22715083440E+03 0.21962355286E+03 0.20837865219E+03 0.19493778710E+03
 0.18073500051E+03 0.16673669556E+03 0.15326477465E+03 0.14007514656E+03 0.12664186698E+03
 0.11252091244E+03 0.97639775770E+02 0.82407826513E+02 0.67614291168E+02 0.54167276829E+02
 0.42802780003E+02 0.33862661554E+02 0.27229216942E+02 0.22391913302E+02 0.18727100594E+02
 0.15940504149E+02 0.13852184196E+02 0.12280658896E+02 0.11090000912E+02 0.10179668762E+02
 0.94858733358E+01 0.89653055699E+01 0.85905072158E+01 0.83392091997E+01 0.81959523010E+01
 0.81491903662E+01 0.81959523010E+01 0.83392091997E+01 0.85905072158E+01 0.89653055699E+01
 0.94858733358E+01 0.10179668762E+02 0.11090000912E+02 0.12280658896E+02 0.13852184196E+02
 0.15940504149E+02 0.18727100594E+02 0.22391913302E+02 0.27229216942E+02 0.33862661554E+02
 0.42802780003E+02 0.54167276829E+02 0.67614291168E+02 0.82407826513E+02 0.97639775770E+02
 0.11252091244E+03 0.12664186698E+03 0.14007514656E+03 0.15326477465E+03 0.16673669556E+03
 0.18073500051E+03 0.19493778710E+03 0.20837865219E+03 0.21962355286E+03 0.22715083440E+03
 0.21757365133E+03 0.21517991041E+03 0.20837865219E+03 0.19818882985E+03 0.18594448655E+03
 0.17289519498E+03 0.15987115581E+03 0.14713841949E+03 0.13447846715E+03 0.12145213267E+03
 0.10772121514E+03 0.93302973047E+02 0.78648162029E+02 0.64530890466E+02 0.51800603335E+02
 0.41117222276E+02 0.32752564340E+02 0.26549899008E+02 0.21988636004E+02 0.18504979000E+02
 0.15856012067E+02 0.13866339544E+02 0.12366635935E+02 0.11226112482E+02 0.10352936450E+02
 0.96868206952E+01 0.91884058269E+01 0.88299004849E+01 0.85905072158E+01 0.84538994439E+01
 0.84096822922E+01 0.84538994439E+01 0.85905072158E+01 0.88299004849E+01 0.91884058269E+01
 0.96868206952E+01 0.10352936450E+02 0.11226112482E+02 0.12366635935E+02 0.13866339544E+02
 0.15856012067E+02 0.18504979000E+02 0.21988636004E+02 0.26549899008E+02 0.32752564340E+02
 0.41117222276E+02 0.51800603335E+02 0.64530890466E+02 0.78648162029E+02 0.93302973047E+02
 0.10772121514E+03 0.12145213267E+03 0.13447846715E+03 0.14713841949E+03 0.15987115581E+03
 0.17289519498E+03 0.18594448655E+03 0.19818882985E+03 0.20837865219E+03 0.21517991041E+03
 0.20300816359E+03 0.20091086205E+03 0.19493778710E+03 0.18594448655E+03 0.17504461923E+03
 0.16327480235E+03 0.15131424501E+03 0.13937603758E+03 0.12728557098E+03 0.11471777200E+03
 0.10146733954E+03 0.87654582818E+02 0.73767686971E+02 0.60550465017E+02 0.48765947313E+02
 0.38972198943E+02 0.31350782071E+02 0.25696545656E+02 0.21484039088E+02 0.18239093126E+02
 0.15773758198E+02 0.13915636821E+02 0.12511407833E+02 0.11439606187E+02 0.10618916374E+02
 0.99921522262E+01 0.95244788193E+01 0.91884058269E+01 0.89653055699E+01 0.88378864269E+01
 0.87971296166E+01 0.88378864269E+01 0.89653055699E+01 0.91884058269E+01 0.95244788193E+01
 0.99921522262E+01 0.10618916374E+02 0.11439606187E+02 0.12511407833E+02 0.13915636821E+02
 0.15773758198E+02 0.18239093126E+02 0.21484039088E+02 0.25696545656E+02 0.31350782071E+02
 0.38972198943E+02 0.48765947313E+02 0.60550465017E+02 0.73767686971E+02 0.87654582818E+02
 0.10146733954E+03 0.11471777200E+03 0.12728557098E+03 0.13937603758E+03 0.15131424501E+03
 0.16327480235E+03 0.17504461923E+03 0.18594448655E+03 0.19493778710E+03 0.20091086205E+03
 0.18771100233E+03 0.18590293221E+03 0.18073500051E+03 0.17289519498E+03 0.16327480235E+03
 0.15270031899E+03 0.14171145386E+03 0.13048709773E+03 0.11891987672E+03 0.10681723969E+03
 0.94114663418E+02 0.81032761546E+02 0.68083290083E+02 0.55952844904E+02 0.45295524629E+02
 0.36544278258E+02 0.29780841518E+02 0.24745493897E+02 0.20927372644E+02 0.17969218979E+02
 0.15722804718E+02 0.14023867984E+02 0.12737239830E+02 0.11751215016E+02 0.10995664689E+02
 0.10419392088E+02 0.99921522262E+01 0.96868206952E+01 0.94858733358E+01 0.93714182090E+01
 0.93351970608E+01 0.93714182090E+01 0.94858733358E+01 0.96868206952E+01 0.99921522262E+01
 0.10419392088E+02 0.10995664689E+02 0.11751215016E+02 0.12737239830E+02 0.14023867984E+02
 0.15722804718E+02 0.17969218979E+02 0.20927372644E+02 0.24745493897E+02 0.29780841518E+02
 0.36544278258E+02 0.45295524629E+02 0.55952844904E+02 0.68083290083E+02 0.81032761546E+02
 0.94114663418E+02 0.10681723969E+03 0.11891987672E+03 0.13048709773E+03 0.14171145386E+03
 0.15270031899E+03 0.16327480235E+03 0.17289519498E+03 0.18073500051E+03 0.18590293221E+03
 0.17277688654E+03 0.17121684119E+03 0.16673669556E+03 0.15987115581E+03 0.15131424501E+03
 0.14171145386E+03 0.13149631035E+03 0.12084042344E+03 0.10972319895E+03 0.98089286961E+02
 0.86011100828E+02 0.73787606839E+02 0.61927244201E+02 0.51033829224E+02 0.41631586333E+02
 0.34014748458E+02 0.28165874160E+02 0.23770280287E+02 0.20371580059E+02 0.17736563799E+02
 0.15735378826E+02 0.14218293635E+02 0.13065603812E+02 0.12182656798E+02 0.11507489546E+02
 0.10995664689E+02 0.10618916374E+02 0.10352936450E+02 0.10179668762E+02 0.10082286394E+02
 0.10051434421E+02 0.10082286394E+02 0.10179668762E+02 0.10352936450E+02 0.10618916374E+02
 0.10995664689E+02 0.11507489546E+02 0.12182656798E+02 0.13065603812E+02 0.14218293635E+02
 0.15735378826E+02 0.17736563799E+02 0.20371580059E+02 0.23770280287E+02 0.28165874160E+02
 0.34014748458E+02 0.41631586333E+02 0.51033829224E+02 0.61927244201E+02 0.73787606839E+02
 0.86011100828E+02 0.98089286961E+02 0.10972319895E+03 0.12084042344E+03 0.13149631035E+03
 0.14171145386E+03 0.15131424501E+03 0.15987115581E+03 0.16673669556E+03 0.17121684119E+03
 0.15858575645E+03 0.15721695415E+03 0.15326477465E+03 0.14713841949E+03 0.13937603758E+03
 0.13048709773E+03 0.12084042344E+03 0.11062870150E+03 0.99930280241E+02 0.88818529520E+02
 0.77478060105E+02 0.66253810753E+02 0.55621815139E+02 0.46075757960E+02 0.38000019416E+02
 0.31547512108E+02 0.26610369190E+02 0.22833885011E+02 0.19869509574E+02 0.17582151015E+02
 0.15842857558E+02 0.14525779946E+02 0.13524634711E+02 0.12761980754E+02 0.12182656798E+02
 0.11751215016E+02 0.11439606187E+02 0.11226112482E+02 0.11090000912E+02 0.11015957815E+02
 0.10992264095E+02 0.11015957815E+02 0.11090000912E+02 0.11226112482E+02 0.11439606187E+02
 0.11751215016E+02 0.12182656798E+02 0.12761980754E+02 0.13524634711E+02 0.14525779946E+02
 0.15842857558E+02 0.17582151015E+02 0.19869509574E+02 0.22833885011E+02 0.26610369190E+02
 0.31547512108E+02 0.38000019416E+02 0.46075757960E+02 0.55621815139E+02 0.66253810753E+02
 0.77478060105E+02 0.88818529520E+02 0.99930280241E+02 0.11062870150E+03 0.12084042344E+03
 0.13048709773E+03 0.13937603758E+03 0.14713841949E+03 0.15326477465E+03 0.15721695415E+03
 0.14487869043E+03 0.14364796783E+03 0.14007514656E+03 0.13447846715E+03 0.12728557098E+03
 0.11891987672E+03 0.10972319895E+03 0.99930280241E+02 0.89713347989E+02 0.79253647638E+02
 0.68812808414E+02 0.58744210881E+02 0.49458042529E+02 0.41326648654E+02 0.34588198976E+02
 0.29271460646E+02 0.25186802912E+02 0.21988722208E+02 0.19471600618E+02 0.17541884941E+02
 0.16078957913E+02 0.14977270524E+02 0.14146050156E+02 0.13524634711E+02 0.13065603812E+02
 0.12737239830E+02 0.12511407833E+02 0.12366635935E+02 0.12280658896E+02 0.12237468146E+02
 0.12224008025E+02 0.12237468146E+02 0.12280658896E+02 0.12366635935E+02 0.12511407833E+02
 0.12737239830E+02 0.13065603812E+02 0.13524634711E+02 0.14146050156E+02 0.14977270524E+02
 0.16078957913E+02 0.17541884941E+02 0.19471600618E+02 0.21988722208E+02 0.25186802912E+02
 0.29271460646E+02 0.34588198976E+02 0.41326648654E+02 0.49458042529E+02 0.58744210881E+02
 0.68812808414E+02 0.79253647638E+02 0.89713347989E+02 0.99930280241E+02 0.10972319895E+03
 0.11891987672E+03 0.12728557098E+03 0.13447846715E+03 0.14007514656E+03 0.14364796783E+03
 0.13105799642E+03 0.12993043000E+03 0.12664186698E+03 0.12145213267E+03 0.11471777200E+03
 0.10681723969E+03 0.98089286961E+02 0.88818529520E+02 0.79253647638E+02 0.69651991583E+02
 0.60304904831E+02 0.51542838861E+02 0.43686196736E+02 0.36981684882E+02 0.31531984069E+02
 0.27266287888E+02 0.23935031467E+02 0.21283954663E+02 0.19220407369E+02 0.17652207259E+02
 0.16478557758E+02 0.15610126538E+02 0.14977270524E+02 0.14525779946E+02 0.14218293635E+02
 0.14023867984E+02 0.13915636821E+02 0.13866339544E+02 0.13852184196E+02 0.13852406112E+02
 0.13854251706E+02 0.13852406112E+02 0.13852184196E+02 0.13866339544E+02 0.13915636821E+02
 0.14023867984E+02 0.14218293635E+02 0.14525779946E+02 0.14977270524E+02 0.15610126538E+02
 0.16478557758E+02 0.17652207259E+02 0.19220407369E+02 0.21283954663E+02 0.23935031467E+02
 0.27266287888E+02 0.31531984069E+02 0.36981684882E+02 0.43686196736E+02 0.51542838861E+02
 0.60304904831E+02 0.69651991583E+02 0.79253647638E+02 0.88818529520E+02 0.98089286961E+02
 0.10681723969E+03 0.11471777200E+03 0.12145213267E+03 0.12664186698E+03 0.12993043000E+03
 0.11658624199E+03 0.11554998565E+03 0.11252091244E+03 0.10772121514E+03 0.10146733954E+03
 0.94114663418E+02 0.86011100828E+02 0.77478060105E+02 0.68812808414E+02 0.60304904831E+02
 0.52243220067E+02 0.44901544509E+02 0.38501656163E+02 0.33172462289E+02 0.28907202780E+02
 0.25556513337E+02 0.22881283820E+02 0.20766297491E+02 0.19151947309E+02 0.17951223852E+02
 0.17084524586E+02 0.16478557758E+02 0.16078957913E+02 0.15842857558E+02 0.15735378826E+02
 0.15722804718E+02 0.15773758198E+02 0.15856012067E+02 0.15940504149E+02 0.16001942544E+02
 0.16024528185E+02 0.16001942544E+02 0.15940504149E+02 0.15856012067E+02 0.15773758198E+02
 0.15722804718E+02 0.15735378826E+02 0.15842857558E+02 0.16078957913E+02 0.16478557758E+02
 0.17084524586E+02 0.17951223852E+02 0.19151947309E+02 0.20766297491E+02 0.22881283820E+02
 0.25556513337E+02 0.28907202780E+02 0.33172462289E+02 0.38501656163E+02 0.44901544509E+02
 0.52243220067E+02 0.60304904831E+02 0.68812808414E+02 0.77478060105E+02 0.86011100828E+02
 0.94114663418E+02 0.10146733954E+03 0.10772121514E+03 0.11252091244E+03 0.11554998565E+03
 0.10130928815E+03 0.10037416076E+03 0.97639775770E+02 0.93302973047E+02 0.87654582818E+02
 0.81032761546E+02 0.73787606839E+02 0.66253810753E+02 0.58744210881E+02 0.51542838861E+02
 0.44901544509E+02 0.39021406937E+02 0.34032683957E+02 0.29960170002E+02 0.26722458132E+02
 0.24131149500E+02 0.22060737113E+02 0.20472491434E+02 0.19302371803E+02 0.18484186349E+02
 0.17951223852E+02 0.17652207259E+02 0.17541884941E+02 0.17582151015E+02 0.17736563799E+02
 0.17969218979E+02 0.18239093126E+02 0.18504979000E+02 0.18727100594E+02 0.18874490617E+02
 0.18925784632E+02 0.18874490617E+02 0.18727100594E+02 0.18504979000E+02 0.18239093126E+02
 0.17969218979E+02 0.17736563799E+02 0.17582151015E+02 0.17541884941E+02 0.17652207259E+02
 0.17951223852E+02 0.18484186349E+02 0.19302371803E+02 0.20472491434E+02 0.22060737113E+02
 0.24131149500E+02 0.26722458132E+02 0.29960170002E+02 0.34032683957E+02 0.39021406937E+02
 0.44901544509E+02 0.51542838861E+02 0.58744210881E+02 0.66253810753E+02 0.73787606839E+02
 0.81032761546E+02 0.87654582818E+02 0.93302973047E+02 0.97639775770E+02 0.10037416076E+03
 0.85594809431E+02 0.84782591901E+02 0.82407826513E+02 0.78648162029E+02 0.73767686971E+02
 0.68083290083E+02 0.61927244201E+02 0.55621815139E+02 0.49458042529E+02 0.43686196736E+02
 0.38501656163E+02 0.34032683957E+02 0.30323052594E+02 0.27332915613E+02 0.24927054441E+02
 0.22994021167E+02 0.21508788409E+02 0.20432083670E+02 0.19714231909E+02 0.19302371803E+02
 0.19151947309E+02 0.19220407369E+02 0.19471600618E+02 0.19869509574E+02 0.20371580059E+02
 0.20927372644E+02 0.21484039088E+02 0.21988636004E+02 0.22391913302E+02 0.22652243500E+02
 0.22742409930E+02 0.22652243500E+02 0.22391913302E+02 0.21988636004E+02 0.21484039088E+02
 0.20927372644E+02 0.20371580059E+02 0.19869509574E+02 0.19471600618E+02 0.19220407369E+02
 0.19151947309E+02 0.19302371803E+02 0.19714231909E+02 0.20432083670E+02 0.21508788409E+02
 0.22994021167E+02 0.24927054441E+02 0.27332915613E+02 0.30323052594E+02 0.34032683957E+02
 0.38501656163E+02 0.43686196736E+02 0.49458042529E+02 0.55621815139E+02 0.61927244201E+02
 0.68083290083E+02 0.73767686971E+02 0.78648162029E+02 0.82407826513E+02 0.84782591901E+02
 0.70237074677E+02 0.69567759220E+02 0.67614291168E+02 0.64530890466E+02 0.60550465017E+02
 0.55952844904E+02 0.51033829224E+02 0.46075757960E+02 0.41326648654E+02 0.36981684882E+02
 0.33172462289E+02 0.29960170002E+02 0.27332915613E+02 0.25200289404E+02 0.23482910954E+02
 0.22171091957E+02 0.21246848160E+02 0.20679040367E+02 0.20432083670E+02 0.20472491434E+02
 0.20766297491E+02 0.21283954663E+02 0.21988722208E+02 0.22833885011E+02 0.23770280287E+02
 0.24745493897E+02 0.25696545656E+02 0.26549899008E+02 0.27229216942E+02 0.27667482446E+02
 0.27818961503E+02 0.27667482446E+02 0.27229216942E+02 0.26549899008E+02 0.25696545656E+02
 0.24745493897E+02 0.23770280287E+02 0.22833885011E+02 0.21988722208E+02 0.21283954663E+02
 0.20766297491E+02 0.20472491434E+02 0.20432083670E+02 0.20679040367E+02 0.21246848160E+02
 0.22171091957E+02 0.23482910954E+02 0.25200289404E+02 0.27332915613E+02 0.29960170002E+02
 0.33172462289E+02 0.36981684882E+02 0.41326648654E+02 0.46075757960E+02 0.51033829224E+02
 0.55952844904E+02 0.60550465017E+02 0.64530890466E+02 0.67614291168E+02 0.69567759220E+02
 0.56189980492E+02 0.55673122492E+02 0.54167276829E+02 0.51800603335E+02 0.48765947313E+02
 0.45295524629E+02 0.41631586333E+02 0.38000019416E+02 0.34588198976E+02 0.31531984069E+02
 0.28907202780E+02 0.26722458132E+02 0.24927054441E+02 0.23482910954E+02 0.22398961456E+02
 0.21674068295E+02 0.21295724234E+02 0.21246848160E+02 0.21508788409E+02 0.22060737113E+02
 0.22881283820E+02 0.23935031467E+02 0.25186802912E+02 0.26610369190E+02 0.28165874160E+02
 0.29780841518E+02 0.31350782071E+02 0.32752564340E+02 0.33862661554E+02 0.34576016256E+02
 0.34822067202E+02 0.34576016256E+02 0.33862661554E+02 0.32752564340E+02 0.31350782071E+02
 0.29780841518E+02 0.28165874160E+02 0.26610369190E+02 0.25186802912E+02 0.23935031467E+02
 0.22881283820E+02 0.22060737113E+02 0.21508788409E+02 0.21246848160E+02 0.21295724234E+02
 0.21674068295E+02 0.22398961456E+02 0.23482910954E+02 0.24927054441E+02 0.26722458132E+02
 0.28907202780E+02 0.31531984069E+02 0.34588198976E+02 0.38000019416E+02 0.41631586333E+02
 0.45295524629E+02 0.48765947313E+02 0.51800603335E+02 0.54167276829E+02 0.55673122492E+02
 0.44251176313E+02 0.43880380477E+02 0.42802780003E+02 0.41117222276E+02 0.38972198943E+02
 0.36544278258E+02 0.34014748458E+02 0.31547512108E+02 0.29271460646E+02 0.27266287888E+02
 0.25556513337E+02 0.24131149500E+02 0.22994021167E+02 0.22171091957E+02 0.21674068295E+02
 0.21507935060E+02 0.21674068295E+02 0.22171091957E+02 0.22994021167E+02 0.24131149500E+02
 0.25556513337E+02 0.27266287888E+02 0.29271460646E+02 0.31547512108E+02 0.34014748458E+02
 0.36544278258E+02 0.38972198943E+02 0.41117222276E+02 0.42802780003E+02 0.43880380477E+02
 0.44251176313E+02 0.43880380477E+02 0.42802780003E+02 0.41117222276E+02 0.38972198943E+02
 0.36544278258E+02 0.34014748458E+02 0.31547512108E+02 0.29271460646E+02 0.27266287888E+02
 0.25556513337E+02 0.24131149500E+02 0.22994021167E+02 0.22171091957E+02 0.21674068295E+02
 0.21507935060E+02 0.21674068295E+02 0.22171091957E+02 0.22994021167E+02 0.24131149500E+02
 0.25556513337E+02 0.27266287888E+02 0.29271460646E+02 0.31547512108E+02 0.34014748458E+02
 0.36544278258E+02 0.38972198943E+02 0.41117222276E+02 0.42802780003E+02 0.43880380477E+02
 0.34822067202E+02 0.34576016256E+02 0.33862661554E+02 0.32752564340E+02 0.31350782071E+02
 0.29780841518E+02 0.28165874160E+02 0.26610369190E+02 0.25186802912E+02 0.23935031467E+02
 0.22881283820E+02 0.22060737113E+02 0.21508788409E+02 0.21246848160E+02 0.21295724234E+02
 0.21674068295E+02 0.22398961456E+02 0.23482910954E+02 0.24927054441E+02 0.26722458132E+02
 0.28907202780E+02 0.31531984069E+02 0.34588198976E+02 0.38000019416E+02 0.41631586333E+02
 0.45295524629E+02 0.48765947313E+02 0.51800603335E+02 0.54167276829E+02 0.55673122492E+02
 0.56189980492E+02 0.55673122492E+02 0.54167276829E+02 0.51800603335E+02 0.48765947313E+02
 0.45295524629E+02 0.41631586333E+02 0.38000019416E+02 0.34588198976E+02 0.31531984069E+02
 0.28907202780E+02 0.26722458132E+02 0.24927054441E+02 0.23482910954E+02 0.22398961456E+02
 0.21674068295E+02 0.21295724234E+02 0.21246848160E+02 0.21508788409E+02 0.22060737113E+02
 0.22881283820E+02 0.23935031467E+02 0.25186802912E+02 0.26610369190E+02 0.28165874160E+02
 0.29780841518E+02 0.31350782071E+02 0.32752564340E+02 0.33862661554E+02 0.34576016256E+02
 0.27818961503E+02 0.27667482446E+02 0.27229216942E+02 0.26549899008E+02 0.25696545656E+02
 0.24745493897E+02 0.23770280287E+02 0.22833885011E+02 0.21988722208E+02 0.21283954663E+02
 0.20766297491E+02 0.20472491434E+02 0.20432083670E+02 0.20679040367E+02 0.21246848160E+02
 0.22171091957E+02 0.23482910954E+02 0.25200289404E+02 0.27332915613E+02 0.29960170002E+02
 0.33172462289E+02 0.36981684882E+02 0.41326648654E+02 0.46075757960E+02 0.51033829224E+02
 0.55952844904E+02 0.60550465017E+02 0.64530890466E+02 0.67614291168E+02 0.69567759220E+02
 0.70237074677E+02 0.69567759220E+02 0.67614291168E+02 0.64530890466E+02 0.60550465017E+02
 0.55952844904E+02 0.51033829224E+02 0.46075757960E+02 0.41326648654E+02 0.36981684882E+02
 0.33172462289E+02 0.29960170002E+02 0.27332915613E+02 0.25200289404E+02 0.23482910954E+02
 0.22171091957E+02 0.21246848160E+02 0.20679040367E+02 0.20432083670E+02 0.20472491434E+02
 0.20766297491E+02 0.21283954663E+02 0.21988722208E+02 0.22833885011E+02 0.23770280287E+02
 0.24745493897E+02 0.25696545656E+02 0.26549899008E+02 0.27229216942E+02 0.27667482446E+02
 0.22742409930E+02 0.22652243500E+02 0.22391913302E+02 0.21988636004E+02 0.21484039088E+02
 0.20927372644E+02 0.20371580059E+02 0.19869509574E+02 0.19471600618E+02 0.19220407369E+02
 0.19151947309E+02 0.19302371803E+02 0.19714231909E+02 0.20432083670E+02 0.21508788409E+02
 0.22994021167E+02 0.24927054441E+02 0.27332915613E+02 0.30323052594E+02 0.34032683957E+02
 0.38501656163E+02 0.43686196736E+02 0.49458042529E+02 0.55621815139E+02 0.61927244201E+02
 0.68083290083E+02 0.73767686971E+02 0.78648162029E+02 0.82407826513E+02 0.84782591901E+02
 0.85594809431E+02 0.84782591901E+02 0.82407826513E+02 0.78648162029E+02 0.73767686971E+02
 0.68083290083E+02 0.61927244201E+02 0.55621815139E+02 0.49458042529E+02 0.43686196736E+02
 0.38501656163E+02 0.34032683957E+02 0.30323052594E+02 0.27332915613E+02 0.24927054441E+02
 0.22994021167E+02 0.21508788409E+02 0.20432083670E+02 0.19714231909E+02 0.19302371803E+02
 0.19151947309E+02 0.19220407369E+02 0.19471600618E+02 0.19869509574E+02 0.20371580059E+02
 0.20927372644E+02 0.21484039088E+02 0.21988636004E+02 0.22391913302E+02 0.22652243500E+02
 0.18925784632E+02 0.18874490617E+02 0.18727100594E+02 0.18504979000E+02 0.18239093126E+02
 0.17969218979E+02 0.17736563799E+02 0.17582151015E+02 0.17541884941E+02 0.17652207259E+02
 0.17951223852E+02 0.18484186349E+02 0.19302371803E+02 0.20472491434E+02 0.22060737113E+02
 0.24131149500E+02 0.26722458132E+02 0.29960170002E+02 0.34032683957E+02 0.39021406937E+02
 0.44901544509E+02 0.51542838861E+02 0.58744210881E+02 0.66253810753E+02 0.73787606839E+02
 0.81032761546E+02 0.87654582818E+02 0.93302973047E+02 0.97639775770E+02 0.10037416076E+03
 0.10130928815E+03 0.10037416076E+03 0.97639775770E+02 0.93302973047E+02 0.87654582818E+02
 0.81032761546E+02 0.73787606839E+02 0.66253810753E+02 0.58744210881E+02 0.51542838861E+02
 0.44901544509E+02 0.39021406937E+02 0.34032683957E+02 0.29960170002E+02 0.26722458132E+02
 0.24131149500E+02 0.22060737113E+02 0.20472491434E+02 0.19302371803E+02 0.18484186349E+02
 0.17951223852E+02 0.17652207259E+02 0.17541884941E+02 0.17582151015E+02 0.17736563799E+02
 0.17969218979E+02 0.18239093126E+02 0.18504979000E+02 0.18727100594E+02 0.18874490617E+02
 0.16024528185E+02 0.16001942544E+02 0.15940504149E+02 0.15856012067E+02 0.15773758198E+02
 0.15722804718E+02 0.15735378826E+02 0.15842857558E+02 0.16078957913E+02 0.16478557758E+02
 0.17084524586E+02 0.17951223852E+02 0.19151947309E+02 0.20766297491E+02 0.22881283820E+02
 0.25556513337E+02 0.28907202780E+02 0.33172462289E+02 0.38501656163E+02 0.44901544509E+02
 0.52243220067E+02 0.60304904831E+02 0.68812808414E+02 0.77478060105E+02 0.86011100828E+02
 0.94114663418E+02 0.10146733954E+03 0.10772121514E+03 0.11252091244E+03 0.11554998565E+03
 0.11658624199E+03 0.11554998565E+03 0.11252091244E+03 0.10772121514E+03 0.10146733954E+03
 0.94114663418E+02 0.86011100828E+02 0.77478060105E+02 0.68812808414E+02 0.60304904831E+02
 0.52243220067E+02 0.44901544509E+02 0.38501656163E+02 0.33172462289E+02 0.28907202780E+02
 0.25556513337E+02 0.22881283820E+02 0.20766297491E+02 0.19151947309E+02 0.17951223852E+02
 0.17084524586E+02 0.16478557758E+02 0.16078957913E+02 0.15842857558E+02 0.15735378826E+02
 0.15722804718E+02 0.15773758198E+02 0.15856012067E+02 0.15940504149E+02 0.16001942544E+02
 0.13854251706E+02 0.13852406112E+02 0.13852184196E+02 0.13866339544E+02 0.13915636821E+02
 0.14023867984E+02 0.14218293635E+02 0.14525779946E+02 0.14977270524E+02 0.15610126538E+02
 0.16478557758E+02 0.17652207259E+02 0.19220407369E+02 0.21283954663E+02 0.23935031467E+02
 0.27266287888E+02 0.31531984069E+02 0.36981684882E+02 0.43686196736E+02 0.51542838861E+02
 0.60304904831E+02 0.69651991583E+02 0.79253647638E+02 0.88818529520E+02 0.98089286961E+02
 0.10681723969E+03 0.11471777200E+03 0.12145213267E+03 0.12664186698E+03 0.12993043000E+03
 0.13105799642E+03 0.12993043000E+03 0.12664186698E+03 0.12145213267E+03 0.11471777200E+03
 0.10681723969E+03 0.98089286961E+02 0.88818529520E+02 0.79253647638E+02 0.69651991583E+02
 0.60304904831E+02 0.51542838861E+02 0.43686196736E+02 0.36981684882E+02 0.31531984069E+02
 0.27266287888E+02 0.23935031467E+02 0.21283954663E+02 0.19220407369E+02 0.17652207259E+02
 0.16478557758E+02 0.15610126538E+02 0.14977270524E+02 0.14525779946E+02 0.14218293635E+02
 0.14023867984E+02 0.13915636821E+02 0.13866339544E+02 0.13852184196E+02 0.13852406112E+02
 0.12224008025E+02 0.12237468146E+02 0.12280658896E+02 0.12366635935E+02 0.12511407833E+02
 0.12737239830E+02 0.13065603812E+02 0.13524634711E+02 0.14146050156E+02 0.14977270524E+02
 0.16078957913E+02 0.17541884941E+02 0.19471600618E+02 0.21988722208E+02 0.25186802912E+02
 0.29271460646E+02 0.34588198976E+02 0.41326648654E+02 0.49458042529E+02 0.58744210881E+02
 0.68812808414E+02 0.79253647638E+02 0.89713347989E+02 0.99930280241E+02 0.10972319895E+03
 0.11891987672E+03 0.12728557098E+03 0.13447846715E+03 0.14007514656E+03 0.14364796783E+03
 0.14487869043E+03 0.14364796783E+03 0.14007514656E+03 0.13447846715E+03 0.12728557098E+03
 0.11891987672E+03 0.10972319895E+03 0.99930280241E+02 0.89713347989E+02 0.79253647638E+02
 0.68812808414E+02 0.58744210881E+02 0.49458042529E+02 0.41326648654E+02 0.34588198976E+02
 0.29271460646E+02 0.25186802912E+02 0.21988722208E+02 0.19471600618E+02 0.17541884941E+02
 0.16078957913E+02 0.14977270524E+02 0.14146050156E+02 0.13524634711E+02 0.13065603812E+02
 0.12737239830E+02 0.12511407833E+02 0.12366635935E+02 0.12280658896E+02 0.12237468146E+02
 0.10992264095E+02 0.11015957815E+02 0.11090000912E+02 0.11226112482E+02 0.11439606187E+02
 0.11751215016E+02 0.12182656798E+02 0.12761980754E+02 0.13524634711E+02 0.14525779946E+02
 0.15842857558E+02 0.17582151015E+02 0.19869509574E+02 0.22833885011E+02 0.26610369190E+02
 0.31547512108E+02 0.38000019416E+02 0.46075757960E+02 0.55621815139E+02 0.66253810753E+02
 0.77478060105E+02 0.88818529520E+02 0.99930280241E+02 0.11062870150E+03 0.12084042344E+03
 0.13048709773E+03 0.13937603758E+03 0.14713841949E+03 0.15326477465E+03 0.15721695415E+03
 0.15858575645E+03 0.15721695415E+03 0.15326477465E+03 0.14713841949E+03 0.13937603758E+03
 0.13048709773E+03 0.12084042344E+03 0.11062870150E+03 0.99930280241E+02 0.88818529520E+02
 0.77478060105E+02 0.66253810753E+02 0.55621815139E+02 0.46075757960E+02 0.38000019416E+02
 0.31547512108E+02 0.26610369190E+02 0.22833885011E+02 0.19869509574E+02 0.17582151015E+02
 0.15842857558E+02 0.14525779946E+02 0.13524634711E+02 0.12761980754E+02 0.12182656798E+02
 0.11751215016E+02 0.11439606187E+02 0.11226112482E+02 0.11090000912E+02 0.11015957815E+02
 0.10051434421E+02 0.10082286394E+02 0.10179668762E+02 0.10352936450E+02 0.10618916374E+02
 0.10995664689E+02 0.11507489546E+02 0.12182656798E+02 0.13065603812E+02 0.14218293635E+02
 0.15735378826E+02 0.17736563799E+02 0.20371580059E+02 0.23770280287E+02 0.28165874160E+02
 0.34014748458E+02 0.41631586333E+02 0.51033829224E+02 0.61927244201E+02 0.73787606839E+02
 0.86011100828E+02 0.98089286961E+02 0.10972319895E+03 0.12084042344E+03 0.13149631035E+03
 0.14171145386E+03 0.15131424501E+03 0.15987115581E+03 0.16673669556E+03 0.17121684119E+03
 0.17277688654E+03 0.17121684119E+03 0.16673669556E+03 0.15987115581E+03 0.15131424501E+03
 0.14171145386E+03 0.13149631035E+03 0.12084042344E+03 0.10972319895E+03 0.98089286961E+02
 0.86011100828E+02 0.73787606839E+02 0.61927244201E+02 0.51033829224E+02 0.41631586333E+02
 0.34014748458E+02 0.28165874160E+02 0.23770280287E+02 0.20371580059E+02 0.17736563799E+02
 0.15735378826E+02 0.14218293635E+02 0.13065603812E+02 0.12182656798E+02 0.11507489546E+02
 0.10995664689E+02 0.10618916374E+02 0.10352936450E+02 0.10179668762E+02 0.10082286394E+02
 0.93351970608E+01 0.93714182090E+01 0.94858733358E+01 0.96868206952E+01 0.99921522262E+01
 0.10419392088E+02 0.10995664689E+02 0.11751215016E+02 0.12737239830E+02 0.14023867984E+02
 0.15722804718E+02 0.17969218979E+02 0.20927372644E+02 0.24745493897E+02 0.29780841518E+02
 0.36544278258E+02 0.45295524629E+02 0.55952844904E+02 0.68083290083E+02 0.81032761546E+02
 0.94114663418E+02 0.10681723969E+03 0.11891987672E+03 0.13048709773E+03 0.14171145386E+03
 0.15270031899E+03 0.16327480235E+03 0.17289519498E+03 0.18073500051E+03 0.18590293221E+03
 0.18771100233E+03 0.18590293221E+03 0.18073500051E+03 0.17289519498E+03 0.16327480235E+03
 0.15270031899E+03 0.14171145386E+03 0.13048709773E+03 0.11891987672E+03 0.10681723969E+03
 0.94114663418E+02 0.81032761546E+02 0.68083290083E+02 0.55952844904E+02 0.45295524629E+02
 0.36544278258E+02 0.29780841518E+02 0.24745493897E+02 0.20927372644E+02 0.17969218979E+02
 0.15722804718E+02 0.14023867984E+02 0.12737239830E+02 0.11751215016E+02 0.10995664689E+02
 0.10419392088E+02 0.99921522262E+01 0.96868206952E+01 0.94858733358E+01 0.93714182090E+01
 0.87971296166E+01 0.88378864269E+01 0.89653055699E+01 0.91884058269E+01 0.95244788193E+01
 0.99921522262E+01 0.10618916374E+02 0.11439606187E+02 0.12511407833E+02 0.13915636821E+02
 0.15773758198E+02 0.18239093126E+02 0.21484039088E+02 0.25696545656E+02 0.31350782071E+02
 0.38972198943E+02 0.48765947313E+02 0.60550465017E+02 0.73767686971E+02 0.87654582818E+02
 0.10146733954E+03 0.11471777200E+03 0.12728557098E+03 0.13937603758E+03 0.15131424501E+03
 0.16327480235E+03 0.17504461923E+03 0.18594448655E+03 0.19493778710E+03 0.20091086205E+03
 0.20300816359E+03 0.20091086205E+03 0.19493778710E+03 0.18594448655E+03 0.17504461923E+03
 0.16327480235E+03 0.15131424501E+03 0.13937603758E+03 0.12728557098E+03 0.11471777200E+03
 0.10146733954E+03 0.87654582818E+02 0.73767686971E+02 0.60550465017E+02 0.48765947313E+02
 0.38972198943E+02 0.31350782071E+02 0.25696545656E+02 0.21484039088E+02 0.18239093126E+02
 0.15773758198E+02 0.13915636821E+02 0.12511407833E+02 0.11439606187E+02 0.10618916374E+02
 0.99921522262E+01 0.95244788193E+01 0.91884058269E+01 0.89653055699E+01 0.88378864269E+01
 0.84096822922E+01 0.84538994439E+01 0.85905072158E+01 0.88299004849E+01 0.91884058269E+01