    4    4   80    1
  0.1600000E+02  0.4000000E-09  0.4000000E-09  0.4000000E-09  0.5000000E-15
  1.000000000000000E-004
  CAR 
 unknown system                          
     40     20     24
 
  0.0000000E+00  0.0000000E+00  0.0000000E+00  0.2915452E-02
    1       -2.495933   1.000000
    2        0.637126   1.000000
    3        0.637126   1.000000
    4        0.637126   1.000000
    5        1.062318   1.000000
    6        1.062318   1.000000
    7        1.062318   1.000000
    8        3.714630   1.000000
    9        3.714630   1.000000
   10        3.714630   1.000000
   11        5.734942   1.000000
   12        5.734942   1.000000
   13        7.257996   0.506215
   14        7.257996   0.506215
   15        7.257996   0.506215
   16        7.699422   0.000949
   17        7.699422   0.000949
   18        7.699422   0.000949
   19        7.699422   0.000949
   20        7.699422   0.000949
   21        7.699422   0.000949
   22        9.139856   0.000000
   23        9.139856   0.000000
   24        9.139856   0.000000
 
  0.1428571E+00  0.0000000E+00  0.0000000E+00  0.1749271E-01
    1       -2.233396   1.000000
    2        0.728114   1.000000
    3        0.827629   1.000000
    4        0.827629   1.000000
    5        1.169524   1.000000
    6        1.223934   1.000000
    7        1.223934   1.000000
    8        3.549439   1.000000
    9        3.848426   1.000000
   10        3.848426   1.000000
   11        5.552862   1.000000
   12        5.803061   1.000000
   13        6.473042   1.000000
   14        6.473042   1.000000
   15        6.984490   0.974386
   16        6.984490   0.974386
   17        7.174038   0.728820
   18        7.378713   0.201010
   19        7.378713   0.201010
   20        7.699989   0.000936
   21        7.699989   0.000936
   22        7.892342   0.000004
   23       10.512963   0.000000
   24       10.512963   0.000000
 
  0.2857143E+00  0.0000000E+00  0.0000000E+00  0.1749271E-01
    1       -1.480043   1.000000
    2        0.876947   1.000000
    3        1.334568   1.000000
    4        1.334568   1.000000
    5        1.479574   1.000000
    6        1.705355   1.000000
    7        1.705355   1.000000
    8        3.112115   1.000000
    9        4.243596   1.000000
   10        4.243596   1.000000
   11        4.925425   1.000000
   12        4.925425   1.000000
   13        5.081639   1.000000
   14        5.872005   1.000000
   15        5.997470   1.000000
   16        6.270725   1.000000
   17        6.270725   1.000000
   18        6.605714   0.999998
   19        6.605714   0.999998
   20        6.944158   0.987283
   21        7.701323   0.000907
   22        7.701323   0.000907
   23       12.478140   0.000000
   24       12.478140   0.000000
 
  0.4285714E+00  0.0000000E+00  0.0000000E+00  0.1749271E-01
    1       -0.382026   1.000000
    2        0.609830   1.000000
    3        1.880949   1.000000
    4        1.880949   1.000000
    5        1.957079   1.000000
    6        2.496514   1.000000
    7        2.496514   1.000000
    8        2.535737   1.000000
    9        3.579528   1.000000
   10        3.579528   1.000000
   11        4.575385   1.000000
   12        4.611308   1.000000
   13        4.877980   1.000000
   14        4.877980   1.000000
   15        5.542041   1.000000
   16        5.542041   1.000000
   17        5.701238   1.000000
   18        5.701238   1.000000
   19        6.288020   1.000000
   20        6.625357   0.999996
   21        7.702406   0.000883
   22        7.702406   0.000883
   23       14.196930   0.000000
   24       14.196930   0.000000
 
  0.1428571E+00  0.1428571E+00  0.0000000E+00  0.3498542E-01
    1       -1.979854   1.000000
    2        0.923729   1.000000
    3        0.923729   1.000000
    4        0.960673   1.000000
    5        1.324973   1.000000
    6        1.324973   1.000000
    7        1.418712   1.000000
    8        3.481511   1.000000
    9        3.899501   1.000000
   10        3.944060   1.000000
   11        5.511514   1.000000
   12        5.779663   1.000000
   13        5.938347   1.000000
   14        5.938347   1.000000
   15        5.941892   1.000000
   16        6.764035   0.999775
   17        6.979681   0.976348
   18        6.979681   0.976348
   19        7.377329   0.203769
   20        7.377329   0.203769
   21        7.493990   0.049150
   22        9.374120   0.000000
   23        9.374120   0.000000
   24       11.403516   0.000000
 
  0.2857143E+00  0.1428571E+00  0.0000000E+00  0.6997085E-01
    1       -1.252189   1.000000
    2        1.084307   1.000000
    3        1.361549   1.000000
    4        1.450070   1.000000
    5        1.616869   1.000000
    6        1.787000   1.000000
    7        1.928429   1.000000
    8        3.123193   1.000000
    9        4.183147   1.000000
   10        4.251917   1.000000
   11        4.477334   1.000000
   12        4.759618   1.000000
   13        4.861723   1.000000
   14        5.176280   1.000000
   15        6.018430   1.000000
   16        6.161887   1.000000
   17        6.352628   1.000000
   18        6.601557   0.999998
   19        6.615533   0.999997
   20        7.373365   0.211797
   21        7.386398   0.186099
   22        7.859874   0.000011
   23       10.990112   0.000000
   24       13.130502   0.000000
 
  0.4285714E+00  0.1428571E+00  0.0000000E+00  0.6997085E-01
    1       -0.185734   1.000000
    2        0.806942   1.000000
    3        1.949897   1.000000
    4        2.035610   1.000000
    5        2.063789   1.000000
    6        2.519257   1.000000
    7        2.540574   1.000000
    8        2.600169   1.000000
    9        3.274624   1.000000
   10        3.554597   1.000000
   11        4.101870   1.000000
   12        4.180155   1.000000
   13        4.876196   1.000000
   14        5.187322   1.000000
   15        5.547468   1.000000
   16        5.648683   1.000000
   17        5.696529   1.000000
   18        5.855671   1.000000
   19        6.440117   1.000000
   20        6.992673   0.970734
   21        7.366598   0.225920
   22        7.368050   0.222845
   23       12.207404   0.000000
   24       12.949652   0.000000
 
  0.2857143E+00  0.2857143E+00  0.0000000E+00  0.3498542E-01
    1       -0.601166   1.000000
    2        1.565964   1.000000
    3        1.656305   1.000000
    4        1.656305   1.000000
    5        2.019493   1.000000
    6        2.019493   1.000000
    7        2.403459   1.000000
    8        3.035552   1.000000
    9        3.692040   1.000000
   10        3.692040   1.000000
   11        4.114398   1.000000
   12        4.231971   1.000000
   13        4.425523   1.000000
   14        5.071491   1.000000
   15        5.804917   1.000000
   16        6.157160   1.000000
   17        6.157160   1.000000
   18        6.389005   1.000000
   19        6.594386   0.999999
   20        6.594386   0.999999
   21        6.919382   0.992022
   22        9.215649   0.000000
   23        9.215649   0.000000
   24       12.293852   0.000000
 
  0.4285714E+00  0.2857143E+00  0.0000000E+00  0.6997085E-01
    1        0.356946   1.000000
    2        1.327305   1.000000
    3        2.018766   1.000000
    4        2.363339   1.000000
    5        2.385530   1.000000
    6        2.655196   1.000000
    7        2.731358   1.000000
    8        2.736821   1.000000
    9        2.743605   1.000000
   10        3.447821   1.000000
   11        3.454434   1.000000
   12        3.862187   1.000000
   13        4.932421   1.000000
   14        5.071808   1.000000
   15        5.405296   1.000000
   16        5.572455   1.000000
   17        5.583940   1.000000
   18        5.704268   1.000000
   19        6.604253   0.999998
   20        6.679696   0.999980
   21        7.095300   0.878195
   22        7.984963   0.000000
   23       10.360362   0.000000
   24       11.269237   0.000000
 
  0.4285714E+00  0.4285714E+00  0.0000000E+00  0.3498542E-01
    1        1.103611   1.000000
    2        1.866575   1.000000
    3        1.866575   1.000000
    4        2.023399   1.000000
    5        2.784088   1.000000
    6        2.784088   1.000000
    7        2.833499   1.000000
    8        3.062120   1.000000
    9        3.143517   1.000000
   10        3.143517   1.000000
   11        3.189759   1.000000
   12        3.642815   1.000000
   13        4.833327   1.000000
   14        5.068152   1.000000
   15        5.130346   1.000000
   16        5.130346   1.000000
   17        5.205831   1.000000
   18        5.796923   1.000000
   19        5.796923   1.000000
   20        6.097634   1.000000
   21        8.018920   0.000000
   22        9.044591   0.000000
   23        9.044591   0.000000
   24       10.049378   0.000000
 
  0.1428571E+00  0.1428571E+00  0.1428571E+00  0.2332362E-01
    1       -1.739356   1.000000
    2        1.047590   1.000000
    3        1.047590   1.000000
    4        1.047590   1.000000
    5        1.524078   1.000000
    6        1.524078   1.000000
    7        1.524078   1.000000
    8        3.444208   1.000000
    9        3.969122   1.000000
   10        3.969122   1.000000
   11        5.490200   1.000000
   12        5.490200   1.000000
   13        5.490200   1.000000
   14        5.638061   1.000000
   15        5.638061   1.000000
   16        6.452392   1.000000
   17        6.452392   1.000000
   18        6.452392   1.000000
   19        7.501603   0.043912
   20        7.501603   0.043912
   21        7.501603   0.043912
   22       10.120823   0.000000
   23       10.120823   0.000000
   24       10.120823   0.000000
 
  0.2857143E+00  0.1428571E+00  0.1428571E+00  0.6997085E-01
    1       -1.051147   1.000000
    2        1.181867   1.000000
    3        1.427844   1.000000
    4        1.427844   1.000000
    5        1.826923   1.000000
    6        2.033985   1.000000
    7        2.033985   1.000000
    8        3.173295   1.000000
    9        4.148226   1.000000
   10        4.192377   1.000000
   11        4.397417   1.000000
   12        4.397417   1.000000
   13        4.510847   1.000000
   14        5.370139   1.000000
   15        5.818978   1.000000
   16        5.982073   1.000000
   17        5.994754   1.000000
   18        5.994754   1.000000
   19        7.333633   0.301790
   20        7.349119   0.264752
   21        7.349119   0.264752
   22        8.232356   0.000000
   23       11.477747   0.000000
   24       11.477747   0.000000
 
  0.4285714E+00  0.1428571E+00  0.1428571E+00  0.6997085E-01
    1       -0.046290   1.000000
    2        0.896874   1.000000
    3        2.025333   1.000000
    4        2.025333   1.000000
    5        2.252917   1.000000
    6        2.474198   1.000000
    7        2.474198   1.000000
    8        2.726071   1.000000
    9        3.479774   1.000000
   10        3.479774   1.000000
   11        3.893731   1.000000
   12        4.055951   1.000000
   13        4.589671   1.000000
   14        5.152027   1.000000
   15        5.495513   1.000000
   16        5.495513   1.000000
   17        5.649095   1.000000
   18        6.456398   1.000000
   19        6.689574   0.999973
   20        6.948819   0.986160
   21        7.221646   0.607424
   22        7.221646   0.607424
   23       12.584143   0.000000
   24       12.584143   0.000000
 
  0.2857143E+00  0.2857143E+00  0.1428571E+00  0.6997085E-01
    1       -0.484071   1.000000
    2        1.473009   1.000000
    3        1.473009   1.000000
    4        1.543651   1.000000
    5        2.365237   1.000000
    6        2.365237   1.000000
    7        2.493344   1.000000
    8        3.205430   1.000000
    9        3.733215   1.000000
   10        3.733215   1.000000
   11        4.091233   1.000000
   12        4.097838   1.000000
   13        4.203465   1.000000
   14        5.438497   1.000000
   15        5.464179   1.000000
   16        5.464179   1.000000
   17        5.465803   1.000000
   18        6.290010   1.000000
   19        7.160479   0.759633
   20        7.169827   0.738597
   21        7.169827   0.738597
   22        9.408832   0.000000
   23        9.408832   0.000000
   24       12.520705   0.000000
 
  0.4285714E+00  0.2857143E+00  0.1428571E+00  0.1399417E+00
    1        0.327170   1.000000
    2        1.116706   1.000000
    3        1.817534   1.000000
    4        1.849133   1.000000
    5        2.694090   1.000000
    6        2.694263   1.000000
    7        2.793237   1.000000
    8        3.061910   1.000000
    9        3.439800   1.000000
   10        3.486780   1.000000
   11        3.775329   1.000000
   12        3.853830   1.000000
   13        4.409562   1.000000
   14        4.856202   1.000000
   15        5.084816   1.000000
   16        5.161735   1.000000
   17        5.771066   1.000000
   18        6.575180   0.999999
   19        6.911465   0.993167
   20        6.911746   0.993129
   21        6.983267   0.974897
   22        7.899690   0.000003
   23       10.548596   0.000000
   24       11.567740   0.000000
 
  0.4285714E+00  0.4285714E+00  0.1428571E+00  0.6997085E-01
    1        0.828799   1.000000
    2        1.363364   1.000000
    3        1.363364   1.000000
    4        1.582794   1.000000
    5        3.006909   1.000000
    6        3.200761   1.000000
    7        3.200761   1.000000
    8        3.368271   1.000000
    9        3.516532   1.000000
   10        3.516532   1.000000
   11        3.724152   1.000000
   12        3.902695   1.000000
   13        4.339507   1.000000
   14        4.650872   1.000000
   15        4.650872   1.000000
   16        4.677776   1.000000
   17        5.817539   1.000000
   18        6.354002   1.000000
   19        6.354002   1.000000
   20        6.509074   1.000000
   21        7.897815   0.000003
   22        8.988456   0.000000
   23        8.988456   0.000000
   24       10.098021   0.000000
 
  0.2857143E+00  0.2857143E+00  0.2857143E+00  0.2332362E-01
    1       -0.155097   1.000000
    2        1.335800   1.000000
    3        1.335800   1.000000
    4        1.335800   1.000000
    5        2.827579   1.000000
    6        2.827579   1.000000
    7        2.827579   1.000000
    8        3.616617   1.000000
    9        3.891731   1.000000
   10        3.891731   1.000000
   11        3.891731   1.000000
   12        4.015188   1.000000
   13        4.015188   1.000000
   14        4.838267   1.000000
   15        4.838267   1.000000
   16        4.838267   1.000000
   17        6.137399   1.000000
   18        6.137399   1.000000
   19        7.375573   0.207302
   20        7.375573   0.207302
   21        7.375573   0.207302
   22       10.030067   0.000000
   23       10.030067   0.000000
   24       10.030067   0.000000
 
  0.4285714E+00  0.2857143E+00  0.2857143E+00  0.6997085E-01
    1        0.328259   1.000000
    2        0.875883   1.000000
    3        1.302631   1.000000
    4        1.302631   1.000000
    5        2.966499   1.000000
    6        2.966499   1.000000
    7        3.359861   1.000000
    8        3.793223   1.000000
    9        3.838308   1.000000
   10        3.889213   1.000000
   11        4.056319   1.000000
   12        4.255168   1.000000
   13        4.255168   1.000000
   14        4.342580   1.000000
   15        4.555863   1.000000
   16        4.555863   1.000000
   17        6.529661   1.000000
   18        6.789645   0.999562
   19        7.170151   0.737850
   20        7.170151   0.737850
   21        7.248520   0.532908
   22        7.927574   0.000001
   23       10.753856   0.000000
   24       10.753856   0.000000
 
  0.4285714E+00  0.4285714E+00  0.2857143E+00  0.6997085E-01
    1        0.475982   1.000000
    2        0.809952   1.000000
    3        0.809952   1.000000
    4        0.950616   1.000000
    5        3.252496   1.000000
    6        3.386651   1.000000
    7        3.386651   1.000000
    8        3.713524   1.000000
    9        3.901968   1.000000
   10        4.088239   1.000000
   11        4.088239   1.000000
   12        4.147005   1.000000
   13        4.696852   1.000000
   14        4.709346   1.000000
   15        4.709346   1.000000
   16        4.879038   1.000000
   17        6.560908   1.000000
   18        7.029003   0.948955
   19        7.029003   0.948955
   20        7.052982   0.928573
   21        7.532039   0.027290
   22        8.762099   0.000000
   23        8.762099   0.000000
   24        9.830078   0.000000
 
  0.4285714E+00  0.4285714E+00  0.4285714E+00  0.2332362E-01
    1        0.352174   1.000000
    2        0.514148   1.000000
    3        0.514148   1.000000
    4        0.514148   1.000000
    5        3.544142   1.000000
    6        3.544142   1.000000
    7        3.544142   1.000000
    8        3.715198   1.000000
    9        3.715198   1.000000
   10        3.802109   1.000000
   11        3.802109   1.000000
   12        3.802109   1.000000
   13        5.811310   1.000000
   14        5.811310   1.000000
   15        5.811310   1.000000
   16        6.090557   1.000000
   17        7.112405   0.852003
   18        7.112405   0.852003
   19        7.296181   0.399580
   20        7.296181   0.399580
   21        7.296181   0.399580
   22        8.384462   0.000000
   23        8.384462   0.000000
   24        8.384462   0.000000
