       N       E                     dE             d eps       ncg     rms          rms(c)
DAV:   1     0.466144738377E+03    0.46614E+03   -0.18356E+04   960   0.163E+03
DAV:   2     0.625689513893E+01   -0.45989E+03   -0.44507E+03   976   0.531E+02
DAV:   3    -0.247336290078E+02   -0.30991E+02   -0.30123E+02  1320   0.127E+02
DAV:   4    -0.257670124870E+02   -0.10334E+01   -0.10277E+01  1016   0.305E+01
DAV:   5    -0.257956401312E+02   -0.28628E-01   -0.28609E-01  1184   0.329E+00    0.725E+00
RMM:   6    -0.244317840041E+02    0.13639E+01   -0.31217E+00   960   0.190E+01    0.237E+00
RMM:   7    -0.243359148053E+02    0.95869E-01   -0.11845E+00   977   0.815E+00    0.625E-01
RMM:   8    -0.243223068229E+02    0.13608E-01   -0.54413E-02   976   0.236E+00    0.191E-01
RMM:   9    -0.243222696714E+02    0.37152E-04   -0.91789E-03  1017   0.428E-01    0.424E-02
RMM:  10    -0.243224533606E+02   -0.18369E-03   -0.16022E-03   971   0.458E-01    0.742E-02
RMM:  11    -0.243222905965E+02    0.16276E-03   -0.66779E-04   962   0.318E-01    0.312E-03
RMM:  12    -0.243222919652E+02   -0.13687E-05   -0.36967E-05   621   0.298E-02
   1 F= -.24322292E+02 E0= -.24246343E+02  d E =-.243223E+02
       N       E                     dE             d eps       ncg     rms          rms(c)
DAV:   1    -0.254267094130E+02   -0.11044E+01   -0.37150E+01   960   0.797E+01    0.601E+00
RMM:   2    -0.244574052475E+02    0.96930E+00   -0.10975E+01   960   0.367E+01    0.308E+00
RMM:   3    -0.243965602984E+02    0.60845E-01   -0.31869E-01   983   0.480E+00    0.270E+00
RMM:   4    -0.242469096016E+02    0.14965E+00   -0.10380E+00   960   0.122E+01    0.180E-01
RMM:   5    -0.242462572284E+02    0.65237E-03   -0.30002E-02   961   0.873E-01    0.153E-01
RMM:   6    -0.242458310179E+02    0.42621E-03   -0.59634E-04   935   0.254E-01    0.125E-01
RMM:   7    -0.242453784698E+02    0.45255E-03   -0.39665E-03   960   0.700E-01    0.428E-02
RMM:   8    -0.242453243637E+02    0.54106E-04   -0.19007E-04   960   0.202E-01    0.172E-03
RMM:   9    -0.242453255201E+02   -0.11564E-05   -0.79520E-06   516   0.195E-02
   2 F= -.24245326E+02 E0= -.24176104E+02  d E =0.769664E-01
       N       E                     dE             d eps       ncg     rms          rms(c)
DAV:   1    -0.249681595326E+02   -0.72284E+00   -0.19567E+01   960   0.582E+01    0.441E+00
RMM:   2    -0.243315117610E+02    0.63665E+00   -0.19381E+00   960   0.146E+01    0.647E-01
RMM:   3    -0.243378833692E+02   -0.63716E-02   -0.26905E-01   973   0.373E+00    0.233E-01
RMM:   4    -0.243360255691E+02    0.18578E-02   -0.63902E-03   997   0.599E-01    0.889E-02
RMM:   5    -0.243358711819E+02    0.15439E-03   -0.28040E-03   961   0.602E-01    0.492E-02
RMM:   6    -0.243357993216E+02    0.71860E-04   -0.21204E-04   962   0.188E-01    0.314E-03
RMM:   7    -0.243358009444E+02   -0.16228E-05   -0.19694E-05   571   0.232E-02
   3 F= -.24335801E+02 E0= -.24261683E+02  d E =-.904754E-01
       N       E                     dE             d eps       ncg     rms          rms(c)
DAV:   1    -0.243358845892E+02   -0.85268E-04   -0.19565E-03  1056   0.577E-01    0.420E-02
RMM:   2    -0.243358282101E+02    0.56379E-04   -0.25155E-04   949   0.167E-01    0.110E-03
RMM:   3    -0.243358294504E+02   -0.12403E-05   -0.10376E-05   489   0.166E-02    0.235E-03
RMM:   4    -0.243358294497E+02    0.73533E-09   -0.81354E-07   314   0.858E-03
   4 F= -.24335829E+02 E0= -.24261762E+02  d E =-.285053E-04
