 vasp.5.4.1 05Feb16 (build Mar 02 2016 14:09:44) complex                        
  
 executed on   Abel-impi-ifc-cuda date 2019.09.20  09:36:42
 running on    4 total cores
 distrk:  each k-point on    4 cores,    1 groups
 distr:  one band on NCORES_PER_BAND=   2 cores,    2 groups


--------------------------------------------------------------------------------------------------------


 INCAR:
 POTCAR:   PAW_PBE Pt 05Jan2001                   
 POTCAR:   PAW_PBE Pt 05Jan2001                   
  local pseudopotential read in
  partial core-charges read in
  atomic valenz-charges read in
  non local Contribution for L=           2  read in
    real space projection operators read in
  non local Contribution for L=           2  read in
    real space projection operators read in
  non local Contribution for L=           0  read in
    real space projection operators read in
  non local Contribution for L=           0  read in
    real space projection operators read in
  non local Contribution for L=           1  read in
    real space projection operators read in
  non local Contribution for L=           1  read in
    real space projection operators read in
    PAW grid and wavefunctions read in
 
   number of l-projection  operators is LMAX  =           6
   number of lm-projection operators is LMMAX =          18
 

 ----------------------------------------------------------------------------- 
|                                                                             |
|  ADVICE TO THIS USER RUNNING 'VASP/VAMP'   (HEAR YOUR MASTER'S VOICE ...):  |
|                                                                             |
|      You have a (more or less) 'small supercell' and for smaller cells      |
|      it is recommended  to use the reciprocal-space projection scheme!      |
|      The real space optimization is not  efficient for small cells and it   |
|      is also less accurate ...                                              |
|      Therefore set LREAL=.FALSE. in the  INCAR file                         |
|                                                                             |
 ----------------------------------------------------------------------------- 

 Optimization of the real space projectors (new method)

 maximal supplied QI-value         = 15.12
 optimisation between [QCUT,QGAM] = [ 11.34, 22.83] = [ 36.00,145.93] Ry 
 Optimized for a Real-space Cutoff    1.56 Angstroem

   l    n(q)    QCUT    max X(q) W(low)/X(q) W(high)/X(q)  e(spline) 
   2     10    11.338     3.643    0.58E-05    0.18E-04    0.79E-07
   2     10    11.338    46.462    0.14E-03    0.41E-03    0.78E-06
   0     11    11.338    13.796    0.17E-04    0.37E-05    0.56E-08
   0     11    11.338    57.669    0.42E-04    0.70E-04    0.20E-06
   1     10    11.338     7.440    0.30E-05    0.11E-04    0.38E-07
   1     10    11.338    10.255    0.32E-04    0.36E-04    0.14E-06
 PAW_PBE Pt 05Jan2001                   :
 energy of atom  1       EATOM= -729.1171
 kinetic energy error for atom=    0.0039 (will be added to EATOM!!)
 
 
 POSCAR: Pt_fcc                                  
  positions in direct lattice
  No initial velocities read in
 exchange correlation table for  LEXCH =        8
   RHO(1)=    0.500       N(1)  =     2000
   RHO(2)=  100.500       N(2)  =     4000
 


--------------------------------------------------------------------------------------------------------


 ion  position               nearest neighbor table
   1  0.000  0.000  0.000-   2 2.83   3 2.83   4 2.83   2 2.83   3 2.83   2 2.83   4 2.83   2 2.83
                             3 2.83   4 2.83   3 2.83   4 2.83
   2  0.000  0.500  0.500-   1 2.83   3 2.83   4 2.83   1 2.83   4 2.83   1 2.83   3 2.83   1 2.83
                             3 2.83   4 2.83   4 2.83   3 2.83
   3  0.500  0.000  0.500-   1 2.83   2 2.83   4 2.83   1 2.83   4 2.83   2 2.83   4 2.83   4 2.83
                             1 2.83   2 2.83   1 2.83   2 2.83
   4  0.500  0.500  0.000-   1 2.83   2 2.83   3 2.83   2 2.83   3 2.83   1 2.83   3 2.83   3 2.83
                             1 2.83   2 2.83   2 2.83   1 2.83
 
  LATTYP: Found a simple cubic cell.
 ALAT       =     4.0000000000
  
  Lattice vectors:
  
 A1 = (   4.0000000000,   0.0000000000,   0.0000000000)
 A2 = (   0.0000000000,   4.0000000000,   0.0000000000)
 A3 = (   0.0000000000,   0.0000000000,   4.0000000000)


Analysis of symmetry for initial positions (statically):
=====================================================================
 Subroutine PRICEL returns following result:
 
  LATTYP: Found a face centered cubic cell.
 ALAT       =     4.0000000000
  
  Lattice vectors:
  
 A1 = (   2.0000000000,   2.0000000000,   0.0000000000)
 A2 = (   2.0000000000,   0.0000000000,  -2.0000000000)
 A3 = (   0.0000000000,   2.0000000000,  -2.0000000000)
 
   4 primitive cells build up your supercell.
 

 Routine SETGRP: Setting up the symmetry group for a 
 simple cubic supercell.


 Subroutine GETGRP returns: Found 48 space group operations
 (whereof 48 operations were pure point group operations)
 out of a pool of 48 trial point group operations.


The static configuration has the point symmetry O_h .


Analysis of symmetry for dynamics (positions and initial velocities):
=====================================================================
 Subroutine PRICEL returns following result:
 
  LATTYP: Found a face centered cubic cell.
 ALAT       =     4.0000000000
  
  Lattice vectors:
  
 A1 = (   2.0000000000,   2.0000000000,   0.0000000000)
 A2 = (   2.0000000000,   0.0000000000,  -2.0000000000)
 A3 = (   0.0000000000,   2.0000000000,  -2.0000000000)
 
   4 primitive cells build up your supercell.
 

 Routine SETGRP: Setting up the symmetry group for a 
 simple cubic supercell.


 Subroutine GETGRP returns: Found 48 space group operations
 (whereof 48 operations were pure point group operations)
 out of a pool of 48 trial point group operations.


The dynamic configuration has the point symmetry O_h .


 Subroutine INISYM returns: Found 48 space group operations
 (whereof 48 operations are pure point group operations),
 and found     4 'primitive' translations

 
 
 KPOINTS: k-density: 4.0                          

Automatic generation of k-mesh.
Space group operators:
 irot       det(A)        alpha          n_x          n_y          n_z        tau_x        tau_y        tau_z
    1     1.000000     0.000000     1.000000     0.000000     0.000000     0.000000     0.000000     0.000000
    2    -1.000000     0.000000     1.000000     0.000000     0.000000     0.000000     0.000000     0.000000
    3     1.000000   120.000000    -0.577350    -0.577350    -0.577350     0.000000     0.000000     0.000000
    4    -1.000000   120.000000    -0.577350    -0.577350    -0.577350     0.000000     0.000000     0.000000
    5     1.000000   120.000000     0.577350     0.577350     0.577350     0.000000     0.000000     0.000000
    6    -1.000000   120.000000     0.577350     0.577350     0.577350     0.000000     0.000000     0.000000
    7     1.000000    90.000000     0.000000     0.000000    -1.000000     0.000000     0.000000     0.000000
    8    -1.000000    90.000000     0.000000     0.000000    -1.000000     0.000000     0.000000     0.000000
    9     1.000000   180.000000     0.000000     0.707107     0.707107     0.000000     0.000000     0.000000
   10    -1.000000   180.000000     0.000000     0.707107     0.707107     0.000000     0.000000     0.000000
   11     1.000000    90.000000     0.000000     1.000000     0.000000     0.000000     0.000000     0.000000
   12    -1.000000    90.000000     0.000000     1.000000     0.000000     0.000000     0.000000     0.000000
   13     1.000000   180.000000     0.000000     0.000000     1.000000     0.000000     0.000000     0.000000
   14    -1.000000   180.000000     0.000000     0.000000     1.000000     0.000000     0.000000     0.000000
   15     1.000000   120.000000    -0.577350     0.577350     0.577350     0.000000     0.000000     0.000000
   16    -1.000000   120.000000    -0.577350     0.577350     0.577350     0.000000     0.000000     0.000000
   17     1.000000   120.000000    -0.577350     0.577350    -0.577350     0.000000     0.000000     0.000000
   18    -1.000000   120.000000    -0.577350     0.577350    -0.577350     0.000000     0.000000     0.000000
   19     1.000000    90.000000     0.000000     0.000000     1.000000     0.000000     0.000000     0.000000
   20    -1.000000    90.000000     0.000000     0.000000     1.000000     0.000000     0.000000     0.000000
   21     1.000000    90.000000    -1.000000     0.000000     0.000000     0.000000     0.000000     0.000000
   22    -1.000000    90.000000    -1.000000     0.000000     0.000000     0.000000     0.000000     0.000000
   23     1.000000   180.000000     0.707107     0.000000     0.707107     0.000000     0.000000     0.000000
   24    -1.000000   180.000000     0.707107     0.000000     0.707107     0.000000     0.000000     0.000000
   25     1.000000   120.000000     0.577350    -0.577350     0.577350     0.000000     0.000000     0.000000
   26    -1.000000   120.000000     0.577350    -0.577350     0.577350     0.000000     0.000000     0.000000
   27     1.000000   120.000000    -0.577350    -0.577350     0.577350     0.000000     0.000000     0.000000
   28    -1.000000   120.000000    -0.577350    -0.577350     0.577350     0.000000     0.000000     0.000000
   29     1.000000   180.000000     1.000000     0.000000     0.000000     0.000000     0.000000     0.000000
   30    -1.000000   180.000000     1.000000     0.000000     0.000000     0.000000     0.000000     0.000000
   31     1.000000    90.000000     0.000000    -1.000000     0.000000     0.000000     0.000000     0.000000
   32    -1.000000    90.000000     0.000000    -1.000000     0.000000     0.000000     0.000000     0.000000
   33     1.000000   180.000000     0.707107     0.707107     0.000000     0.000000     0.000000     0.000000
   34    -1.000000   180.000000     0.707107     0.707107     0.000000     0.000000     0.000000     0.000000
   35     1.000000    90.000000     1.000000     0.000000     0.000000     0.000000     0.000000     0.000000
   36    -1.000000    90.000000     1.000000     0.000000     0.000000     0.000000     0.000000     0.000000
   37     1.000000   120.000000     0.577350    -0.577350    -0.577350     0.000000     0.000000     0.000000
   38    -1.000000   120.000000     0.577350    -0.577350    -0.577350     0.000000     0.000000     0.000000
   39     1.000000   180.000000     0.000000     1.000000     0.000000     0.000000     0.000000     0.000000
   40    -1.000000   180.000000     0.000000     1.000000     0.000000     0.000000     0.000000     0.000000
   41     1.000000   120.000000     0.577350     0.577350    -0.577350     0.000000     0.000000     0.000000
   42    -1.000000   120.000000     0.577350     0.577350    -0.577350     0.000000     0.000000     0.000000
   43     1.000000   180.000000     0.000000    -0.707107     0.707107     0.000000     0.000000     0.000000
   44    -1.000000   180.000000     0.000000    -0.707107     0.707107     0.000000     0.000000     0.000000
   45     1.000000   180.000000     0.707107    -0.707107     0.000000     0.000000     0.000000     0.000000
   46    -1.000000   180.000000     0.707107    -0.707107     0.000000     0.000000     0.000000     0.000000
   47     1.000000   180.000000     0.707107     0.000000    -0.707107     0.000000     0.000000     0.000000
   48    -1.000000   180.000000     0.707107     0.000000    -0.707107     0.000000     0.000000     0.000000
 
 Subroutine IBZKPT returns following result:
 ===========================================
 
 Found     20 irreducible k-points:
 
 Following reciprocal coordinates:
            Coordinates               Weight
  0.000000  0.000000  0.000000      1.000000
  0.142857  0.000000  0.000000      6.000000
  0.285714  0.000000  0.000000      6.000000
  0.428571  0.000000  0.000000      6.000000
  0.142857  0.142857  0.000000     12.000000
  0.285714  0.142857  0.000000     24.000000
  0.428571  0.142857  0.000000     24.000000
  0.285714  0.285714  0.000000     12.000000
  0.428571  0.285714  0.000000     24.000000
  0.428571  0.428571  0.000000     12.000000
  0.142857  0.142857  0.142857      8.000000
  0.285714  0.142857  0.142857     24.000000
  0.428571  0.142857  0.142857     24.000000
  0.285714  0.285714  0.142857     24.000000
  0.428571  0.285714  0.142857     48.000000
  0.428571  0.428571  0.142857     24.000000
  0.285714  0.285714  0.285714      8.000000
  0.428571  0.285714  0.285714     24.000000
  0.428571  0.428571  0.285714     24.000000
  0.428571  0.428571  0.428571      8.000000
 
 Following cartesian coordinates:
            Coordinates               Weight
  0.000000  0.000000  0.000000      1.000000
  0.142857  0.000000  0.000000      6.000000
  0.285714  0.000000  0.000000      6.000000
  0.428571  0.000000  0.000000      6.000000
  0.142857  0.142857  0.000000     12.000000
  0.285714  0.142857  0.000000     24.000000
  0.428571  0.142857  0.000000     24.000000
  0.285714  0.285714  0.000000     12.000000
  0.428571  0.285714  0.000000     24.000000
  0.428571  0.428571  0.000000     12.000000
  0.142857  0.142857  0.142857      8.000000
  0.285714  0.142857  0.142857     24.000000
  0.428571  0.142857  0.142857     24.000000
  0.285714  0.285714  0.142857     24.000000
  0.428571  0.285714  0.142857     48.000000
  0.428571  0.428571  0.142857     24.000000
  0.285714  0.285714  0.285714      8.000000
  0.428571  0.285714  0.285714     24.000000
  0.428571  0.428571  0.285714     24.000000
  0.428571  0.428571  0.428571      8.000000
 


--------------------------------------------------------------------------------------------------------




 Dimension of arrays:
   k-points           NKPTS =     20   k-points in BZ     NKDIM =     20   number of bands    NBANDS=     24
   number of dos      NEDOS =    301   number of ions     NIONS =      4
   non local maximal  LDIM  =      6   non local SUM 2l+1 LMDIM =     18
   total plane-waves  NPLWV =  27000
   max r-space proj   IRMAX =   6813   max aug-charges    IRDMAX= 204591
   dimension x,y,z NGX =    30 NGY =   30 NGZ =   30
   dimension x,y,z NGXF=    60 NGYF=   60 NGZF=   60
   support grid    NGXF=   120 NGYF=  120 NGZF=  120
   ions per type =               4
 NGX,Y,Z   is equivalent  to a cutoff of  12.47, 12.47, 12.47 a.u.
 NGXF,Y,Z  is equivalent  to a cutoff of  24.94, 24.94, 24.94 a.u.


 I would recommend the setting:
   dimension x,y,z NGX =    29 NGY =   29 NGZ =   29
 SYSTEM =  unknown system                          
 POSCAR =  Pt_fcc                                  

 Startparameter for this run:
   NWRITE =      1    write-flag & timer
   PREC   = accura    normal or accurate (medium, high low for compatibility)
   ISTART =      0    job   : 0-new  1-cont  2-samecut
   ICHARG =      2    charge: 1-file 2-atom 10-const
   ISPIN  =      1    spin polarized calculation?
   LNONCOLLINEAR =      F non collinear calculations
   LSORBIT =      F    spin-orbit coupling
   INIWAV =      1    electr: 0-lowe 1-rand  2-diag
   LASPH  =      F    aspherical Exc in radial PAW
   METAGGA=      F    non-selfconsistent MetaGGA calc.

 Electronic Relaxation 1
   ENCUT  =  500.0 eV  36.75 Ry    6.06 a.u.   7.29  7.29  7.29*2*pi/ulx,y,z
   ENINI  =  500.0     initial cutoff
   ENAUG  =  359.0 eV  augmentation charge cutoff
   NELM   =     60;   NELMIN=  4; NELMDL= -5     # of ELM steps 
   EDIFF  = 0.1E-04   stopping-criterion for ELM
   LREAL  =      T    real-space projection
   NLSPLINE    = F    spline interpolate recip. space projectors
   LCOMPAT=      F    compatible to vasp.4.4
   GGA_COMPAT  = T    GGA compatible to vasp.4.4-vasp.4.6
   LMAXPAW     = -100 max onsite density
   LMAXMIX     =    2 max onsite mixed and CHGCAR
   VOSKOWN=      0    Vosko Wilk Nusair interpolation
   ROPT   =   -0.00025
 Ionic relaxation
   EDIFFG = -.1E-01   stopping-criterion for IOM
   NSW    =     80    number of steps for IOM
   NBLOCK =      1;   KBLOCK =     80    inner block; outer block 
   IBRION =      1    ionic relax: 0-MD 1-quasi-New 2-CG
   NFREE  =      0    steps in history (QN), initial steepest desc. (CG)
   ISIF   =      3    stress and relaxation
   IWAVPR =     11    prediction:  0-non 1-charg 2-wave 3-comb
   ISYM   =      2    0-nonsym 1-usesym 2-fastsym
   LCORR  =      T    Harris-Foulkes like correction to forces

   POTIM  = 0.5000    time-step for ionic-motion
   TEIN   =    0.0    initial temperature
   TEBEG  =    0.0;   TEEND  =   0.0 temperature during run
   SMASS  =  -3.00    Nose mass-parameter (am)
   estimated Nose-frequenzy (Omega)   =  0.10E-29 period in steps =****** mass=  -0.366E-27a.u.
   SCALEE = 1.0000    scale energy and forces
   NPACO  =    256;   APACO  = 16.0  distance and # of slots for P.C.
   PSTRESS=    0.0 pullay stress

  Mass of Ions in am
   POMASS = 195.08
  Ionic Valenz
   ZVAL   =  10.00
  Atomic Wigner-Seitz radii
   RWIGS  =  -1.00
  virtual crystal weights 
   VCA    =   1.00
   NELECT =      40.0000    total number of electrons
   NUPDOWN=      -1.0000    fix difference up-down

 DOS related values:
   EMIN   =  10.00;   EMAX   =-10.00  energy-range for DOS
   EFERMI =   0.00
   ISMEAR =     0;   SIGMA  =   0.20  broadening in eV -4-tet -1-fermi 0-gaus

 Electronic relaxation 2 (details)
   IALGO  =     68    algorithm
   LDIAG  =      T    sub-space diagonalisation (order eigenvalues)
   LSUBROT=      F    optimize rotation matrix (better conditioning)
   TURBO    =      0    0=normal 1=particle mesh
   IRESTART =      0    0=no restart 2=restart with 2 vectors
   NREBOOT  =      0    no. of reboots
   NMIN     =      0    reboot dimension
   EREF     =   0.00    reference energy to select bands
   IMIX   =      4    mixing-type and parameters
     AMIX     =   0.40;   BMIX     =  1.00
     AMIX_MAG =   1.60;   BMIX_MAG =  1.00
     AMIN     =   0.10
     WC   =   100.;   INIMIX=   1;  MIXPRE=   1;  MAXMIX=  80

 Intra band minimization:
   WEIMIN = 0.0010     energy-eigenvalue tresh-hold
   EBREAK =  0.10E-06  absolut break condition
   DEPER  =   0.30     relativ break condition  

   TIME   =   0.40     timestep for ELM

  volume/ion in A,a.u.               =      16.00       107.97
  Fermi-wavevector in a.u.,A,eV,Ry     =   1.399700  2.645049 26.655976  1.959159
  Thomas-Fermi vector in A             =   2.522733
 
 Write flags
   LWAVE  =      T    write WAVECAR
   LCHARG =      T    write CHGCAR
   LVTOT  =      F    write LOCPOT, total local potential
   LVHAR  =      F    write LOCPOT, Hartree potential only
   LELF   =      F    write electronic localiz. function (ELF)
   LORBIT =      0    0 simple, 1 ext, 2 COOP (PROOUT)


 Dipole corrections
   LMONO  =      F    monopole corrections only (constant potential shift)
   LDIPOL =      F    correct potential (dipole corrections)
   IDIPOL =      0    1-x, 2-y, 3-z, 4-all directions 
   EPSILON=  1.0000000 bulk dielectric constant

 Exchange correlation treatment:
   GGA     =    --    GGA type
   LEXCH   =     8    internal setting for exchange type
   VOSKOWN=      0    Vosko Wilk Nusair interpolation
   LHFCALC =     F    Hartree Fock is set to
   LHFONE  =     F    Hartree Fock one center treatment
   AEXX    =    0.0000 exact exchange contribution

 Linear response parameters
   LEPSILON=     F    determine dielectric tensor
   LRPA    =     F    only Hartree local field effects (RPA)
   LNABLA  =     F    use nabla operator in PAW spheres
   LVEL    =     F    velocity operator in full k-point grid
   LINTERFAST=   F  fast interpolation
   KINTER  =     0    interpolate to denser k-point grid
   CSHIFT  =0.1000    complex shift for real part using Kramers Kronig
   OMEGAMAX=  -1.0    maximum frequency
   DEG_THRESHOLD= 0.2000000E-02 threshold for treating states as degnerate
   RTIME   =    0.100 relaxation time in fs

 Orbital magnetization related:
   ORBITALMAG=     F  switch on orbital magnetization
   LCHIMAG   =     F  perturbation theory with respect to B field
   DQ        =  0.001000  dq finite difference perturbation B field



--------------------------------------------------------------------------------------------------------


 quasi-Newton-method for relaxation of ions
 charge density and potential will be updated during run
 non-spin polarized calculation
 RMM-DIIS sequential band-by-band and
  variant of blocked Davidson during initial phase
 perform sub-space diagonalisation
    before iterative eigenvector-optimisation
 modified Broyden-mixing scheme, WC =      100.0
 initial mixing is a Kerker type mixing with AMIX =  0.4000 and BMIX =      1.0000
 Hartree-type preconditioning will be used
 using additional bands            4
 real space projection scheme for non local part
 use partial core corrections
 calculate Harris-corrections to forces 
   (improved forces if not selfconsistent)
 use gradient corrections 
 use of overlap-Matrix (Vanderbilt PP)
 Gauss-broadening in eV      SIGMA  =   0.20


--------------------------------------------------------------------------------------------------------


  energy-cutoff  :      500.00
  volume of cell :       64.00
      direct lattice vectors                 reciprocal lattice vectors
     4.000000000  0.000000000  0.000000000     0.250000000  0.000000000  0.000000000
     0.000000000  4.000000000  0.000000000     0.000000000  0.250000000  0.000000000
     0.000000000  0.000000000  4.000000000     0.000000000  0.000000000  0.250000000

  length of vectors
     4.000000000  4.000000000  4.000000000     0.250000000  0.250000000  0.250000000


 
 k-points in units of 2pi/SCALE and weight: k-density: 4.0                          
   0.00000000  0.00000000  0.00000000       0.003
   0.14285714  0.00000000  0.00000000       0.017
   0.28571429  0.00000000  0.00000000       0.017
   0.42857143  0.00000000  0.00000000       0.017
   0.14285714  0.14285714  0.00000000       0.035
   0.28571429  0.14285714  0.00000000       0.070
   0.42857143  0.14285714  0.00000000       0.070
   0.28571429  0.28571429  0.00000000       0.035
   0.42857143  0.28571429  0.00000000       0.070
   0.42857143  0.42857143  0.00000000       0.035
   0.14285714  0.14285714  0.14285714       0.023
   0.28571429  0.14285714  0.14285714       0.070
   0.42857143  0.14285714  0.14285714       0.070
   0.28571429  0.28571429  0.14285714       0.070
   0.42857143  0.28571429  0.14285714       0.140
   0.42857143  0.42857143  0.14285714       0.070
   0.28571429  0.28571429  0.28571429       0.023
   0.42857143  0.28571429  0.28571429       0.070
   0.42857143  0.42857143  0.28571429       0.070
   0.42857143  0.42857143  0.42857143       0.023
 
 k-points in reciprocal lattice and weights: k-density: 4.0                          
   0.00000000  0.00000000  0.00000000       0.003
   0.14285714  0.00000000  0.00000000       0.017
   0.28571429  0.00000000  0.00000000       0.017
   0.42857143  0.00000000  0.00000000       0.017
   0.14285714  0.14285714  0.00000000       0.035
   0.28571429  0.14285714  0.00000000       0.070
   0.42857143  0.14285714  0.00000000       0.070
   0.28571429  0.28571429  0.00000000       0.035
   0.42857143  0.28571429  0.00000000       0.070
   0.42857143  0.42857143  0.00000000       0.035
   0.14285714  0.14285714  0.14285714       0.023
   0.28571429  0.14285714  0.14285714       0.070
   0.42857143  0.14285714  0.14285714       0.070
   0.28571429  0.28571429  0.14285714       0.070
   0.42857143  0.28571429  0.14285714       0.140
   0.42857143  0.42857143  0.14285714       0.070
   0.28571429  0.28571429  0.28571429       0.023
   0.42857143  0.28571429  0.28571429       0.070
   0.42857143  0.42857143  0.28571429       0.070
   0.42857143  0.42857143  0.42857143       0.023
 
 position of ions in fractional coordinates (direct lattice) 
   0.00000000  0.00000000  0.00000000
   0.00000000  0.50000000  0.50000000
   0.50000000  0.00000000  0.50000000
   0.50000000  0.50000000  0.00000000
 
 position of ions in cartesian coordinates  (Angst):
   0.00000000  0.00000000  0.00000000
   0.00000000  2.00000000  2.00000000
   2.00000000  0.00000000  2.00000000
   2.00000000  2.00000000  0.00000000
 


--------------------------------------------------------------------------------------------------------


 k-point  1 :   0.0000 0.0000 0.0000  plane waves:    1647
 k-point  2 :   0.1429 0.0000 0.0000  plane waves:    1639
 k-point  3 :   0.2857 0.0000 0.0000  plane waves:    1643
 k-point  4 :   0.4286 0.0000 0.0000  plane waves:    1638
 k-point  5 :   0.1429 0.1429 0.0000  plane waves:    1643
 k-point  6 :   0.2857 0.1429 0.0000  plane waves:    1617
 k-point  7 :   0.4286 0.1429 0.0000  plane waves:    1621
 k-point  8 :   0.2857 0.2857 0.0000  plane waves:    1616
 k-point  9 :   0.4286 0.2857 0.0000  plane waves:    1623
 k-point 10 :   0.4286 0.4286 0.0000  plane waves:    1636
 k-point 11 :   0.1429 0.1429 0.1429  plane waves:    1635
 k-point 12 :   0.2857 0.1429 0.1429  plane waves:    1629
 k-point 13 :   0.4286 0.1429 0.1429  plane waves:    1628
 k-point 14 :   0.2857 0.2857 0.1429  plane waves:    1627
 k-point 15 :   0.4286 0.2857 0.1429  plane waves:    1623
 k-point 16 :   0.4286 0.4286 0.1429  plane waves:    1616
 k-point 17 :   0.2857 0.2857 0.2857  plane waves:    1616
 k-point 18 :   0.4286 0.2857 0.2857  plane waves:    1627
 k-point 19 :   0.4286 0.4286 0.2857  plane waves:    1620
 k-point 20 :   0.4286 0.4286 0.4286  plane waves:    1622

 maximum and minimum number of plane-waves per node :       835      800

 maximum number of plane-waves:      1647
 maximum index in each direction: 
   IXMAX=    7   IYMAX=    7   IZMAX=    7
   IXMIN=   -7   IYMIN=   -7   IZMIN=   -7

 NGX is ok and might be reduce to  30
 NGY is ok and might be reduce to  30
 NGZ is ok and might be reduce to  30

 real space projection operators:
  total allocation   :       3723.19 KBytes
  max/ min on nodes  :       1861.59       1861.59


 parallel 3D FFT for wavefunctions:
    minimum data exchange during FFTs selected (reduces bandwidth)
 parallel 3D FFT for charge:
    minimum data exchange during FFTs selected (reduces bandwidth)


 total amount of memory used by VASP on root node    47671. kBytes
========================================================================

   base      :      30000. kBytes
   nonlr-proj:       2752. kBytes
   fftplans  :       8405. kBytes
   grid      :       3196. kBytes
   one-center:         31. kBytes
   wavefun   :       3287. kBytes
 
     INWAV:  cpu time    0.0000: real time    0.0000
 Broyden mixing: mesh for mixing (old mesh)
   NGX = 15   NGY = 15   NGZ = 15
  (NGX  = 60   NGY  = 60   NGZ  = 60)
  gives a total of   3375 points

 initial charge density was supplied:
 charge density of overlapping atoms calculated
 number of electron      40.0000000 magnetization 
 keeping initial charge density in first step


--------------------------------------------------------------------------------------------------------


 Maximum index for non-local projection operator         3340
 Maximum index for augmentation-charges        49431 (set IRDMAX)


--------------------------------------------------------------------------------------------------------


 First call to EWALD:  gamma=   0.443
 Maximum number of real-space cells 3x 3x 3
 Maximum number of reciprocal cells 3x 3x 3

 FEWALD executed in parallel
    FEWALD:  cpu time    0.0010: real time    0.0015


----------------------------------------- Iteration    1(   1)  ---------------------------------------


    POTLOK:  cpu time    0.0300: real time    0.0300
    SETDIJ:  cpu time    0.0770: real time    0.0784
     EDDAV:  cpu time    0.6819: real time    0.6840
       DOS:  cpu time    0.0010: real time    0.0012
    --------------------------------------------
      LOOP:  cpu time    0.7929: real time    0.8302

 eigenvalue-minimisations  :   960
 total energy-change (2. order) : 0.4661447E+03  (-0.1835565E+04)
 number of electron      40.0000000 magnetization 
 augmentation part       40.0000000 magnetization 

 Free energy of the ion-electron system (eV)
  ---------------------------------------------------
  alpha Z        PSCENC =       363.73820000
  Ewald energy   TEWEN  =     -3301.05193786
  -Hartree energ DENC   =      -307.27343439
  -exchange      EXHF   =         0.00000000
  -V(xc)+E(xc)   XCENC  =        14.24297471
  PAW double counting   =      2292.98197300    -2179.84848231
  entropy T*S    EENTRO =        -0.04211034
  eigenvalues    EBANDS =       666.94488832
  atomic energy  EATOM  =      2916.45266723
  Solvation  Ediel_sol  =         0.00000000
  ---------------------------------------------------
  free energy    TOTEN  =       466.14473838 eV

  energy without entropy =      466.18684871  energy(sigma->0) =      466.16579354


--------------------------------------------------------------------------------------------------------




----------------------------------------- Iteration    1(   2)  ---------------------------------------


     EDDAV:  cpu time    0.6759: real time    0.6767
       DOS:  cpu time    0.0010: real time    0.0011
    --------------------------------------------
      LOOP:  cpu time    0.6769: real time    0.6833

 eigenvalue-minimisations  :   976
 total energy-change (2. order) :-0.4598878E+03  (-0.4450672E+03)
 number of electron      40.0000000 magnetization 
 augmentation part       40.0000000 magnetization 

 Free energy of the ion-electron system (eV)
  ---------------------------------------------------
  alpha Z        PSCENC =       363.73820000
  Ewald energy   TEWEN  =     -3301.05193786
  -Hartree energ DENC   =      -307.27343439
  -exchange      EXHF   =         0.00000000
  -V(xc)+E(xc)   XCENC  =        14.24297471
  PAW double counting   =      2292.98197300    -2179.84848231
  entropy T*S    EENTRO =        -0.04546479
  eigenvalues    EBANDS =       207.06039954
  atomic energy  EATOM  =      2916.45266723
  Solvation  Ediel_sol  =         0.00000000
  ---------------------------------------------------
  free energy    TOTEN  =         6.25689514 eV

  energy without entropy =        6.30235993  energy(sigma->0) =        6.27962753


--------------------------------------------------------------------------------------------------------




----------------------------------------- Iteration    1(   3)  ---------------------------------------


     EDDAV:  cpu time    0.8769: real time    0.8769
       DOS:  cpu time    0.0010: real time    0.0013
    --------------------------------------------
      LOOP:  cpu time    0.8789: real time    0.8828

 eigenvalue-minimisations  :  1320
 total energy-change (2. order) :-0.3099052E+02  (-0.3012335E+02)
 number of electron      40.0000000 magnetization 
 augmentation part       40.0000000 magnetization 

 Free energy of the ion-electron system (eV)
  ---------------------------------------------------
  alpha Z        PSCENC =       363.73820000
  Ewald energy   TEWEN  =     -3301.05193786
  -Hartree energ DENC   =      -307.27343439
  -exchange      EXHF   =         0.00000000
  -V(xc)+E(xc)   XCENC  =        14.24297471
  PAW double counting   =      2292.98197300    -2179.84848231
  entropy T*S    EENTRO =        -0.13470793
  eigenvalues    EBANDS =       176.15911854
  atomic energy  EATOM  =      2916.45266723
  Solvation  Ediel_sol  =         0.00000000
  ---------------------------------------------------
  free energy    TOTEN  =       -24.73362901 eV

  energy without entropy =      -24.59892108  energy(sigma->0) =      -24.66627504


--------------------------------------------------------------------------------------------------------




----------------------------------------- Iteration    1(   4)  ---------------------------------------


     EDDAV:  cpu time    0.6999: real time    0.7001
       DOS:  cpu time    0.0010: real time    0.0013
    --------------------------------------------
      LOOP:  cpu time    0.7029: real time    0.7068

 eigenvalue-minimisations  :  1016
 total energy-change (2. order) :-0.1033383E+01  (-0.1027714E+01)
 number of electron      40.0000000 magnetization 
 augmentation part       40.0000000 magnetization 

 Free energy of the ion-electron system (eV)
  ---------------------------------------------------
  alpha Z        PSCENC =       363.73820000
  Ewald energy   TEWEN  =     -3301.05193786
  -Hartree energ DENC   =      -307.27343439
  -exchange      EXHF   =         0.00000000
  -V(xc)+E(xc)   XCENC  =        14.24297471
  PAW double counting   =      2292.98197300    -2179.84848231
  entropy T*S    EENTRO =        -0.13790989
  eigenvalues    EBANDS =       175.12893702
  atomic energy  EATOM  =      2916.45266723
  Solvation  Ediel_sol  =         0.00000000
  ---------------------------------------------------
  free energy    TOTEN  =       -25.76701249 eV

  energy without entropy =      -25.62910259  energy(sigma->0) =      -25.69805754


--------------------------------------------------------------------------------------------------------




----------------------------------------- Iteration    1(   5)  ---------------------------------------


     EDDAV:  cpu time    0.7939: real time    0.7941
       DOS:  cpu time    0.0010: real time    0.0013
    CHARGE:  cpu time    0.1190: real time    0.1186
    MIXING:  cpu time    0.0010: real time    0.0010
    --------------------------------------------
      LOOP:  cpu time    0.9159: real time    0.9196

 eigenvalue-minimisations  :  1184
 total energy-change (2. order) :-0.2862764E-01  (-0.2860930E-01)
 number of electron      40.0000001 magnetization 
 augmentation part       11.7774992 magnetization 

 Broyden mixing:
  rms(total) = 0.72529E+00    rms(broyden)= 0.72529E+00
  rms(prec ) = 0.18075E+01
  weight for this iteration     100.00

 Free energy of the ion-electron system (eV)
  ---------------------------------------------------
  alpha Z        PSCENC =       363.73820000
  Ewald energy   TEWEN  =     -3301.05193786
  -Hartree energ DENC   =      -307.27343439
  -exchange      EXHF   =         0.00000000
  -V(xc)+E(xc)   XCENC  =        14.24297471
  PAW double counting   =      2292.98197300    -2179.84848231
  entropy T*S    EENTRO =        -0.13778897
  eigenvalues    EBANDS =       175.10018845
  atomic energy  EATOM  =      2916.45266723
  Solvation  Ediel_sol  =         0.00000000
  ---------------------------------------------------
  free energy    TOTEN  =       -25.79564013 eV

  energy without entropy =      -25.65785116  energy(sigma->0) =      -25.72674564


--------------------------------------------------------------------------------------------------------




----------------------------------------- Iteration    1(   6)  ---------------------------------------


    POTLOK:  cpu time    0.0280: real time    0.0296
    SETDIJ:  cpu time    0.0740: real time    0.0735
    EDDIAG:  cpu time    0.0890: real time    0.0882
  RMM-DIIS:  cpu time    0.4729: real time    0.4740
    ORTHCH:  cpu time    0.0080: real time    0.0078
       DOS:  cpu time    0.0010: real time    0.0014
    CHARGE:  cpu time    0.1150: real time    0.1150
    MIXING:  cpu time    0.0020: real time    0.0011
    --------------------------------------------
      LOOP:  cpu time    0.7909: real time    0.7960

 eigenvalue-minimisations  :   960
 total energy-change (2. order) : 0.1363856E+01  (-0.3121720E+00)
 number of electron      40.0000001 magnetization 
 augmentation part       12.2984096 magnetization 

 Broyden mixing:
  rms(total) = 0.23748E+00    rms(broyden)= 0.23748E+00
  rms(prec ) = 0.58737E+00
  weight for this iteration     100.00

 eigenvalues of (default mixing * dielectric matrix)
  average eigenvalue GAMMA=   1.4133
  1.4133

 Free energy of the ion-electron system (eV)
  ---------------------------------------------------
  alpha Z        PSCENC =       363.73820000
  Ewald energy   TEWEN  =     -3301.05193786
  -Hartree energ DENC   =      -279.47023489
  -exchange      EXHF   =         0.00000000
  -V(xc)+E(xc)   XCENC  =        13.21073573
  PAW double counting   =      2290.94406284    -2182.83159762
  entropy T*S    EENTRO =        -0.15002929
  eigenvalues    EBANDS =       154.72634985
  atomic energy  EATOM  =      2916.45266723
  Solvation  Ediel_sol  =         0.00000000
  ---------------------------------------------------
  free energy    TOTEN  =       -24.43178400 eV

  energy without entropy =      -24.28175471  energy(sigma->0) =      -24.35676936


--------------------------------------------------------------------------------------------------------




----------------------------------------- Iteration    1(   7)  ---------------------------------------


    POTLOK:  cpu time    0.0280: real time    0.0283
    SETDIJ:  cpu time    0.0820: real time    0.0825
    EDDIAG:  cpu time    0.0870: real time    0.0871
  RMM-DIIS:  cpu time    0.4829: real time    0.4832
    ORTHCH:  cpu time    0.0080: real time    0.0078
       DOS:  cpu time    0.0010: real time    0.0013
    CHARGE:  cpu time    0.1170: real time    0.1176
    MIXING:  cpu time    0.0020: real time    0.0009
    --------------------------------------------
      LOOP:  cpu time    0.8089: real time    0.8137

 eigenvalue-minimisations  :   977
 total energy-change (2. order) : 0.9586920E-01  (-0.1184492E+00)
 number of electron      40.0000001 magnetization 
 augmentation part       12.5584292 magnetization 

 Broyden mixing:
  rms(total) = 0.62545E-01    rms(broyden)= 0.62544E-01
  rms(prec ) = 0.92573E-01
  weight for this iteration     100.00

 eigenvalues of (default mixing * dielectric matrix)
  average eigenvalue GAMMA=   1.6887
  1.6887  1.6887

 Free energy of the ion-electron system (eV)
  ---------------------------------------------------
  alpha Z        PSCENC =       363.73820000
  Ewald energy   TEWEN  =     -3301.05193786
  -Hartree energ DENC   =      -266.98280915
  -exchange      EXHF   =         0.00000000
  -V(xc)+E(xc)   XCENC  =        12.75752822
  PAW double counting   =      2312.15695215    -2207.30919255
  entropy T*S    EENTRO =        -0.15333116
  eigenvalues    EBANDS =       146.05600832
  atomic energy  EATOM  =      2916.45266723
  Solvation  Ediel_sol  =         0.00000000
  ---------------------------------------------------
  free energy    TOTEN  =       -24.33591481 eV

  energy without entropy =      -24.18258364  energy(sigma->0) =      -24.25924922


--------------------------------------------------------------------------------------------------------




----------------------------------------- Iteration    1(   8)  ---------------------------------------


    POTLOK:  cpu time    0.0290: real time    0.0295
    SETDIJ:  cpu time    0.0740: real time    0.0743
    EDDIAG:  cpu time    0.0870: real time    0.0873
  RMM-DIIS:  cpu time    0.4789: real time    0.4783
    ORTHCH:  cpu time    0.0080: real time    0.0080
       DOS:  cpu time    0.0010: real time    0.0014
    CHARGE:  cpu time    0.1180: real time    0.1179
    MIXING:  cpu time    0.0020: real time    0.0010
    --------------------------------------------
      LOOP:  cpu time    0.7989: real time    0.8039

 eigenvalue-minimisations  :   976
 total energy-change (2. order) : 0.1360798E-01  (-0.5441308E-02)
 number of electron      40.0000001 magnetization 
 augmentation part       12.5236631 magnetization 

 Broyden mixing:
  rms(total) = 0.19125E-01    rms(broyden)= 0.19124E-01
  rms(prec ) = 0.42588E-01
  weight for this iteration     100.00

 eigenvalues of (default mixing * dielectric matrix)
  average eigenvalue GAMMA=   1.6916
  1.2745  1.2745  2.5260

 Free energy of the ion-electron system (eV)
  ---------------------------------------------------
  alpha Z        PSCENC =       363.73820000
  Ewald energy   TEWEN  =     -3301.05193786
  -Hartree energ DENC   =      -268.67276445
  -exchange      EXHF   =         0.00000000
  -V(xc)+E(xc)   XCENC  =        12.81125877
  PAW double counting   =      2347.39346168    -2243.50109023
  entropy T*S    EENTRO =        -0.15176591
  eigenvalues    EBANDS =       148.65966394
  atomic energy  EATOM  =      2916.45266723
  Solvation  Ediel_sol  =         0.00000000
  ---------------------------------------------------
  free energy    TOTEN  =       -24.32230682 eV

  energy without entropy =      -24.17054091  energy(sigma->0) =      -24.24642387


--------------------------------------------------------------------------------------------------------




----------------------------------------- Iteration    1(   9)  ---------------------------------------


    POTLOK:  cpu time    0.0290: real time    0.0289
    SETDIJ:  cpu time    0.0720: real time    0.0719
    EDDIAG:  cpu time    0.0890: real time    0.0888
  RMM-DIIS:  cpu time    0.5029: real time    0.5026
    ORTHCH:  cpu time    0.0080: real time    0.0077
       DOS:  cpu time    0.0010: real time    0.0013
    CHARGE:  cpu time    0.1190: real time    0.1189
    MIXING:  cpu time    0.0010: real time    0.0010
    --------------------------------------------
      LOOP:  cpu time    0.8219: real time    0.8254

 eigenvalue-minimisations  :  1017
 total energy-change (2. order) : 0.3715150E-04  (-0.9178913E-03)
 number of electron      40.0000001 magnetization 
 augmentation part       12.5370854 magnetization 

 Broyden mixing:
  rms(total) = 0.42399E-02    rms(broyden)= 0.42392E-02
  rms(prec ) = 0.50751E-02
  weight for this iteration     100.00

 eigenvalues of (default mixing * dielectric matrix)
  average eigenvalue GAMMA=   1.9669
  2.9447  1.0396  1.4298  2.4535

 Free energy of the ion-electron system (eV)
  ---------------------------------------------------
  alpha Z        PSCENC =       363.73820000
  Ewald energy   TEWEN  =     -3301.05193786
  -Hartree energ DENC   =      -267.70930347
  -exchange      EXHF   =         0.00000000
  -V(xc)+E(xc)   XCENC  =        12.77594281
  PAW double counting   =      2358.34266633    -2254.92702957
  entropy T*S    EENTRO =        -0.15193611
  eigenvalues    EBANDS =       148.20846096
  atomic energy  EATOM  =      2916.45266723
  Solvation  Ediel_sol  =         0.00000000
  ---------------------------------------------------
  free energy    TOTEN  =       -24.32226967 eV

  energy without entropy =      -24.17033356  energy(sigma->0) =      -24.24630162


--------------------------------------------------------------------------------------------------------




----------------------------------------- Iteration    1(  10)  ---------------------------------------


    POTLOK:  cpu time    0.0280: real time    0.0293
    SETDIJ:  cpu time    0.0760: real time    0.0744
    EDDIAG:  cpu time    0.0870: real time    0.0877
  RMM-DIIS:  cpu time    0.4699: real time    0.4696
    ORTHCH:  cpu time    0.0080: real time    0.0077
       DOS:  cpu time    0.0010: real time    0.0013
    CHARGE:  cpu time    0.1190: real time    0.1192
    MIXING:  cpu time    0.0010: real time    0.0010
    --------------------------------------------
      LOOP:  cpu time    0.7919: real time    0.7960

 eigenvalue-minimisations  :   971
 total energy-change (2. order) :-0.1836892E-03  (-0.1602225E-03)
 number of electron      40.0000001 magnetization 
 augmentation part       12.5470710 magnetization 

 Broyden mixing:
  rms(total) = 0.74215E-02    rms(broyden)= 0.74215E-02
  rms(prec ) = 0.17074E-01
  weight for this iteration     100.00

 eigenvalues of (default mixing * dielectric matrix)
  average eigenvalue GAMMA=   1.6895
  2.8250  2.3014  1.2087  1.2087  0.9038

 Free energy of the ion-electron system (eV)
  ---------------------------------------------------
  alpha Z        PSCENC =       363.73820000
  Ewald energy   TEWEN  =     -3301.05193786
  -Hartree energ DENC   =      -267.47485837
  -exchange      EXHF   =         0.00000000
  -V(xc)+E(xc)   XCENC  =        12.76769277
  PAW double counting   =      2360.09940223    -2256.61158233
  entropy T*S    EENTRO =        -0.15205339
  eigenvalues    EBANDS =       147.91001635
  atomic energy  EATOM  =      2916.45266723
  Solvation  Ediel_sol  =         0.00000000
  ---------------------------------------------------
  free energy    TOTEN  =       -24.32245336 eV

  energy without entropy =      -24.17039997  energy(sigma->0) =      -24.24642667


--------------------------------------------------------------------------------------------------------




----------------------------------------- Iteration    1(  11)  ---------------------------------------


    POTLOK:  cpu time    0.0290: real time    0.0293
    SETDIJ:  cpu time    0.0730: real time    0.0729
    EDDIAG:  cpu time    0.0890: real time    0.0891
  RMM-DIIS:  cpu time    0.4649: real time    0.4649
    ORTHCH:  cpu time    0.0080: real time    0.0080
       DOS:  cpu time    0.0010: real time    0.0013
    CHARGE:  cpu time    0.1200: real time    0.1191
    MIXING:  cpu time    0.0010: real time    0.0011
    --------------------------------------------
      LOOP:  cpu time    0.7859: real time    0.7901

 eigenvalue-minimisations  :   962
 total energy-change (2. order) : 0.1627641E-03  (-0.6677893E-04)
 number of electron      40.0000001 magnetization 
 augmentation part       12.5393246 magnetization 

 Broyden mixing:
  rms(total) = 0.31194E-03    rms(broyden)= 0.31162E-03
  rms(prec ) = 0.56172E-03
  weight for this iteration     100.00

 eigenvalues of (default mixing * dielectric matrix)
  average eigenvalue GAMMA=   1.6846
  2.6181  2.6181  1.5001  0.9528  1.2093  1.2093

 Free energy of the ion-electron system (eV)
  ---------------------------------------------------
  alpha Z        PSCENC =       363.73820000
  Ewald energy   TEWEN  =     -3301.05193786
  -Hartree energ DENC   =      -267.83656935
  -exchange      EXHF   =         0.00000000
  -V(xc)+E(xc)   XCENC  =        12.78024509
  PAW double counting   =      2360.85297039    -2257.34420834
  entropy T*S    EENTRO =        -0.15189105
  eigenvalues    EBANDS =       148.23823328
  atomic energy  EATOM  =      2916.45266723
  Solvation  Ediel_sol  =         0.00000000
  ---------------------------------------------------
  free energy    TOTEN  =       -24.32229060 eV

  energy without entropy =      -24.17039955  energy(sigma->0) =      -24.24634507


--------------------------------------------------------------------------------------------------------




----------------------------------------- Iteration    1(  12)  ---------------------------------------


    POTLOK:  cpu time    0.0280: real time    0.0291
    SETDIJ:  cpu time    0.0750: real time    0.0745
    EDDIAG:  cpu time    0.0870: real time    0.0875
  RMM-DIIS:  cpu time    0.3270: real time    0.3261
    ORTHCH:  cpu time    0.0080: real time    0.0077
       DOS:  cpu time    0.0010: real time    0.0013
    --------------------------------------------
      LOOP:  cpu time    0.5269: real time    0.5309

 eigenvalue-minimisations  :   621
 total energy-change (2. order) :-0.1368689E-05  (-0.3696671E-05)
 number of electron      40.0000001 magnetization 
 augmentation part       12.5393246 magnetization 

 Free energy of the ion-electron system (eV)
  ---------------------------------------------------
  alpha Z        PSCENC =       363.73820000
  Ewald energy   TEWEN  =     -3301.05193786
  -Hartree energ DENC   =      -267.83490435
  -exchange      EXHF   =         0.00000000
  -V(xc)+E(xc)   XCENC  =        12.78020779
  PAW double counting   =      2360.68508833    -2257.17002812
  entropy T*S    EENTRO =        -0.15189746
  eigenvalues    EBANDS =       148.23031247
  atomic energy  EATOM  =      2916.45266723
  Solvation  Ediel_sol  =         0.00000000
  ---------------------------------------------------
  free energy    TOTEN  =       -24.32229197 eV

  energy without entropy =      -24.17039450  energy(sigma->0) =      -24.24634323


--------------------------------------------------------------------------------------------------------




 average (electrostatic) potential at core
  the test charge radii are     1.2059
  (the norm of the test charge is              1.0000)
       1 -49.6269       2 -49.6269       3 -49.6269       4 -49.6269
 
 
 
 E-fermi :   7.0146     XC(G=0): -13.1344     alpha+bet :-12.4952


 k-point     1 :       0.0000    0.0000    0.0000
  band No.  band energies     occupation 
      1      -2.5643      2.00000
      2       0.5616      2.00000
      3       0.5616      2.00000
      4       0.5616      2.00000
      5       0.9777      2.00000
      6       0.9777      2.00000
      7       0.9777      2.00000
      8       3.5636      2.00000
      9       3.5636      2.00000
     10       3.5636      2.00000
     11       5.5300      2.00000
     12       5.5300      2.00000
     13       7.0109      1.02063
     14       7.0109      1.02063
     15       7.0109      1.02063
     16       7.4397      0.00264
     17       7.4397      0.00264
     18       7.4397      0.00264
     19       7.4397      0.00264
     20       7.4397      0.00264
     21       7.4397      0.00264
     22       8.9267      0.00000
     23       8.9267      0.00000
     24       8.9267      0.00000

 k-point     2 :       0.1429    0.0000    0.0000
  band No.  band energies     occupation 
      1      -2.3058      2.00000
      2       0.6491      2.00000
      3       0.7483      2.00000
      4       0.7483      2.00000
      5       1.0826      2.00000
      6       1.1353      2.00000
      7       1.1353      2.00000
      8       3.4033      2.00000
      9       3.6942      2.00000
     10       3.6942      2.00000
     11       5.3538      2.00000
     12       5.5964      2.00000
     13       6.2594      2.00000
     14       6.2594      2.00000
     15       6.7467      1.94180
     16       6.7467      1.94180
     17       6.9294      1.45276
     18       7.1295      0.41639
     19       7.1295      0.41639
     20       7.4403      0.00261
     21       7.4403      0.00261
     22       7.6807      0.00000
     23      10.2544      0.00000
     24      10.2544      0.00000

 k-point     3 :       0.2857    0.0000    0.0000
  band No.  band energies     occupation 
      1      -1.5637      2.00000
      2       0.7880      2.00000
      3       1.2450      2.00000
      4       1.2450      2.00000
      5       1.3857      2.00000
      6       1.6047      2.00000
      7       1.6047      2.00000
      8       2.9781      2.00000
      9       4.0796      2.00000
     10       4.0796      2.00000
     11       4.7491      2.00000
     12       4.7491      2.00000
     13       4.8972      2.00000
     14       5.6798      2.00000
     15       5.7857      2.00000
     16       6.0557      2.00000
     17       6.0557      2.00000
     18       6.3798      1.99999
     19       6.3798      1.99999
     20       6.7063      1.97074
     21       7.4415      0.00253
     22       7.4415      0.00253
     23      12.1851      0.00000
     24      12.1851      0.00000

 k-point     4 :       0.4286    0.0000    0.0000
  band No.  band energies     occupation 
      1      -0.4791      2.00000
      2       0.5096      2.00000
      3       1.7804      2.00000
      4       1.7804      2.00000
      5       1.8522      2.00000
      6       2.3766      2.00000
      7       2.3766      2.00000
      8       2.4168      2.00000
      9       3.4341      2.00000
     10       3.4341      2.00000
     11       4.4057      2.00000
     12       4.4405      2.00000
     13       4.6982      2.00000
     14       4.6982      2.00000
     15       5.3480      2.00000
     16       5.3480      2.00000
     17       5.5002      2.00000
     18       5.5002      2.00000
     19       6.0685      2.00000
     20       6.3965      1.99999
     21       7.4426      0.00247
     22       7.4426      0.00247
     23      13.8380      0.00000
     24      13.8394      0.00000

 k-point     5 :       0.1429    0.1429    0.0000
  band No.  band energies     occupation 
      1      -2.0561      2.00000
      2       0.8408      2.00000
      3       0.8408      2.00000
      4       0.8786      2.00000
      5       1.2341      2.00000
      6       1.2341      2.00000
      7       1.3253      2.00000
      8       3.3375      2.00000
      9       3.7441      2.00000
     10       3.7875      2.00000
     11       5.3138      2.00000
     12       5.5741      2.00000
     13       5.7380      2.00000
     14       5.7380      2.00000
     15       5.7421      2.00000
     16       6.5333      1.99933
     17       6.7436      1.94466
     18       6.7436      1.94466
     19       7.1281      0.42194
     20       7.1281      0.42194
     21       7.2407      0.10987
     22       9.1121      0.00000
     23       9.1121      0.00000
     24      11.1251      0.00000

 k-point     6 :       0.2857    0.1429    0.0000
  band No.  band energies     occupation 
      1      -1.3389      2.00000
      2       0.9914      2.00000
      3       1.2708      2.00000
      4       1.3568      2.00000
      5       1.5195      2.00000
      6       1.6845      2.00000
      7       1.8230      2.00000
      8       2.9890      2.00000
      9       4.0211      2.00000
     10       4.0879      2.00000
     11       4.3105      2.00000
     12       4.5871      2.00000
     13       4.6855      2.00000
     14       4.9891      2.00000
     15       5.8066      2.00000
     16       5.9497      2.00000
     17       6.1357      2.00000
     18       6.3757      1.99999
     19       6.3916      1.99999
     20       7.1242      0.43807
     21       7.1366      0.38834
     22       7.6079      0.00003
     23      10.6949      0.00000
     24      12.8235      0.00000

 k-point     7 :       0.4286    0.1429    0.0000
  band No.  band energies     occupation 
      1      -0.2854      2.00000
      2       0.7032      2.00000
      3       1.8471      2.00000
      4       1.9312      2.00000
      5       1.9561      2.00000
      6       2.3987      2.00000
      7       2.4197      2.00000
      8       2.4795      2.00000
      9       3.1350      2.00000
     10       3.4098      2.00000
     11       3.9433      2.00000
     12       4.0203      2.00000
     13       4.6965      2.00000
     14       5.0003      2.00000
     15       5.3530      2.00000
     16       5.4518      2.00000
     17       5.4956      2.00000
     18       5.6520      2.00000
     19       6.2169      2.00000
     20       6.7552      1.93334
     21       7.1175      0.46665
     22       7.1190      0.46021
     23      11.8912      0.00000
     24      12.6271      0.00000

 k-point     8 :       0.2857    0.2857    0.0000
  band No.  band energies     occupation 
      1      -0.6963      2.00000
      2       1.4694      2.00000
      3       1.5524      2.00000
      4       1.5524      2.00000
      5       1.9119      2.00000
      6       1.9119      2.00000
      7       2.2874      2.00000
      8       2.9037      2.00000
      9       3.5423      2.00000
     10       3.5423      2.00000
     11       3.9550      2.00000
     12       4.0715      2.00000
     13       4.2573      2.00000
     14       4.8875      2.00000
     15       5.6027      2.00000
     16       5.9463      2.00000
     17       5.9463      2.00000
     18       6.1678      2.00000
     19       6.3686      2.00000
     20       6.3686      2.00000
     21       6.6834      1.98080
     22       8.9366      0.00000
     23       8.9366      0.00000
     24      11.9899      0.00000

 k-point     9 :       0.4286    0.2857    0.0000
  band No.  band energies     occupation 
      1       0.2507      2.00000
      2       1.2142      2.00000
      3       1.9100      2.00000
      4       2.2478      2.00000
      5       2.2671      2.00000
      6       2.5318      2.00000
      7       2.6053      2.00000
      8       2.6131      2.00000
      9       2.6190      2.00000
     10       3.3054      2.00000
     11       3.3136      2.00000
     12       3.7111      2.00000
     13       4.7513      2.00000
     14       4.8884      2.00000
     15       5.2143      2.00000
     16       5.3768      2.00000
     17       5.3887      2.00000
     18       5.5030      2.00000
     19       6.3780      1.99999
     20       6.4510      1.99993
     21       6.8556      1.73911
     22       7.7248      0.00000
     23      10.0635      0.00000
     24      10.9687      0.00000

 k-point    10 :       0.4286    0.4286    0.0000
  band No.  band energies     occupation 
      1       0.9898      2.00000
      2       1.7459      2.00000
      3       1.7459      2.00000
      4       1.9077      2.00000
      5       2.6578      2.00000
      6       2.6578      2.00000
      7       2.7063      2.00000
      8       2.9327      2.00000
      9       3.0129      2.00000
     10       3.0129      2.00000
     11       3.0535      2.00000
     12       3.4985      2.00000
     13       4.6568      2.00000
     14       4.8859      2.00000
     15       4.9466      2.00000
     16       4.9466      2.00000
     17       5.0177      2.00000
     18       5.5930      2.00000
     19       5.5930      2.00000
     20       5.8853      2.00000
     21       7.7567      0.00000
     22       8.7630      0.00000
     23       8.7630      0.00000
     24       9.7563      0.00000

 k-point    11 :       0.1429    0.1429    0.1429
  band No.  band energies     occupation 
      1      -1.8190      2.00000
      2       0.9622      2.00000
      3       0.9622      2.00000
      4       0.9622      2.00000
      5       1.4284      2.00000
      6       1.4284      2.00000
      7       1.4284      2.00000
      8       3.3014      2.00000
      9       3.8120      2.00000
     10       3.8120      2.00000
     11       5.3010      2.00000
     12       5.3010      2.00000
     13       5.3010      2.00000
     14       5.4370      2.00000
     15       5.4370      2.00000
     16       6.2308      2.00000
     17       6.2308      2.00000
     18       6.2308      2.00000
     19       7.2477      0.09926
     20       7.2477      0.09926
     21       7.2477      0.09926
     22       9.8432      0.00000
     23       9.8432      0.00000
     24       9.8432      0.00000

 k-point    12 :       0.2857    0.1429    0.1429
  band No.  band energies     occupation 
      1      -1.1400      2.00000
      2       1.0877      2.00000
      3       1.3341      2.00000
      4       1.3341      2.00000
      5       1.7241      2.00000
      6       1.9266      2.00000
      7       1.9266      2.00000
      8       3.0378      2.00000
      9       3.9873      2.00000
     10       4.0298      2.00000
     11       4.2325      2.00000
     12       4.2325      2.00000
     13       4.3423      2.00000
     14       5.1777      2.00000
     15       5.6151      2.00000
     16       5.7717      2.00000
     17       5.7873      2.00000
     18       5.7873      2.00000
     19       7.0845      0.62090
     20       7.1004      0.54402
     21       7.1004      0.54402
     22       7.9790      0.00000
     23      11.1720      0.00000
     24      11.1720      0.00000

 k-point    13 :       0.4286    0.1429    0.1429
  band No.  band energies     occupation 
      1      -0.1465      2.00000
      2       0.7930      2.00000
      3       1.9184      2.00000
      4       1.9184      2.00000
      5       2.1398      2.00000
      6       2.3560      2.00000
      7       2.3560      2.00000
      8       2.6018      2.00000
      9       3.3363      2.00000
     10       3.3363      2.00000
     11       3.7405      2.00000
     12       3.8993      2.00000
     13       4.4174      2.00000
     14       4.9656      2.00000
     15       5.3023      2.00000
     16       5.3023      2.00000
     17       5.4503      2.00000
     18       6.2328      2.00000
     19       6.4666      1.99989
     20       6.7110      1.96815
     21       6.9771      1.20882
     22       6.9771      1.20882
     23      12.2555      0.00000
     24      12.2557      0.00000

 k-point    14 :       0.2857    0.2857    0.1429
  band No.  band energies     occupation 
      1      -0.5786      2.00000
      2       1.3727      2.00000
      3       1.3727      2.00000
      4       1.4454      2.00000
      5       2.2505      2.00000
      6       2.2505      2.00000
      7       2.3763      2.00000
      8       3.0689      2.00000
      9       3.5823      2.00000
     10       3.5823      2.00000
     11       3.9322      2.00000
     12       3.9399      2.00000
     13       4.0411      2.00000
     14       5.2458      2.00000
     15       5.2707      2.00000
     16       5.2707      2.00000
     17       5.2710      2.00000
     18       6.0718      2.00000
     19       6.9172      1.50864
     20       6.9270      1.46395
     21       6.9270      1.46395
     22       9.1304      0.00000
     23       9.1304      0.00000
     24      12.3130      0.00000

 k-point    15 :       0.4286    0.2857    0.1429
  band No.  band energies     occupation 
      1       0.2257      2.00000
      2       1.0120      2.00000
      3       1.7096      2.00000
      4       1.7386      2.00000
      5       2.5735      2.00000
      6       2.5746      2.00000
      7       2.6665      2.00000
      8       2.9284      2.00000
      9       3.2970      2.00000
     10       3.3443      2.00000
     11       3.6259      2.00000
     12       3.7026      2.00000
     13       4.2424      2.00000
     14       4.6780      2.00000
     15       4.9018      2.00000
     16       4.9769      2.00000
     17       5.5688      2.00000
     18       6.3515      2.00000
     19       6.6763      1.98325
     20       6.6764      1.98319
     21       6.7467      1.94178
     22       7.6438      0.00001
     23      10.2523      0.00000
     24      11.2668      0.00000

 k-point    16 :       0.4286    0.4286    0.1429
  band No.  band energies     occupation 
      1       0.7257      2.00000
      2       1.2571      2.00000
      3       1.2571      2.00000
      4       1.4758      2.00000
      5       2.8789      2.00000
      6       3.0673      2.00000
      7       3.0673      2.00000
      8       3.2267      2.00000
      9       3.3731      2.00000
     10       3.3731      2.00000
     11       3.5778      2.00000
     12       3.7514      2.00000
     13       4.1749      2.00000
     14       4.4788      2.00000
     15       4.4788      2.00000
     16       4.5051      2.00000
     17       5.6134      2.00000
     18       6.1354      2.00000
     19       6.1354      2.00000
     20       6.2853      2.00000
     21       7.6395      0.00001
     22       8.7112      0.00000
     23       8.7112      0.00000
     24       9.8088      0.00000

 k-point    17 :       0.2857    0.2857    0.2857
  band No.  band energies     occupation 
      1      -0.2486      2.00000
      2       1.2367      2.00000
      3       1.2367      2.00000
      4       1.2367      2.00000
      5       2.7041      2.00000
      6       2.7041      2.00000
      7       2.7041      2.00000
      8       3.4700      2.00000
      9       3.7379      2.00000
     10       3.7379      2.00000
     11       3.7379      2.00000
     12       3.8578      2.00000
     13       3.8578      2.00000
     14       4.6609      2.00000
     15       4.6609      2.00000
     16       4.6609      2.00000
     17       5.9238      2.00000
     18       5.9238      2.00000
     19       7.1254      0.43320
     20       7.1254      0.43320
     21       7.1254      0.43320
     22       9.7486      0.00000
     23       9.7486      0.00000
     24       9.7486      0.00000

 k-point    18 :       0.4286    0.2857    0.2857
  band No.  band energies     occupation 
      1       0.2343      2.00000
      2       0.7793      2.00000
      3       1.2024      2.00000
      4       1.2024      2.00000
      5       2.8397      2.00000
      6       2.8397      2.00000
      7       3.2230      2.00000
      8       3.6418      2.00000
      9       3.6860      2.00000
     10       3.7381      2.00000
     11       3.8981      2.00000
     12       4.0959      2.00000
     13       4.0959      2.00000
     14       4.1775      2.00000
     15       4.3863      2.00000
     16       4.3863      2.00000
     17       6.3083      2.00000
     18       6.5571      1.99878
     19       6.9267      1.46556
     20       6.9267      1.46556
     21       7.0021      1.07044
     22       7.6807      0.00000
     23      10.4750      0.00000
     24      10.4751      0.00000

 k-point    19 :       0.4286    0.4286    0.2857
  band No.  band energies     occupation 
      1       0.3853      2.00000
      2       0.7168      2.00000
      3       0.7168      2.00000
      4       0.8563      2.00000
      5       3.1175      2.00000
      6       3.2478      2.00000
      7       3.2478      2.00000
      8       3.5647      2.00000
      9       3.7482      2.00000
     10       3.9299      2.00000
     11       3.9299      2.00000
     12       3.9874      2.00000
     13       4.5313      2.00000
     14       4.5423      2.00000
     15       4.5423      2.00000
     16       4.7087      2.00000
     17       6.3355      2.00000
     18       6.7905      1.88695
     19       6.7905      1.88695
     20       6.8129      1.84607
     21       7.2845      0.05631
     22       8.5009      0.00000
     23       8.5009      0.00000
     24       9.5643      0.00000

 k-point    20 :       0.4286    0.4286    0.4286
  band No.  band energies     occupation 
      1       0.2673      2.00000
      2       0.4278      2.00000
      3       0.4278      2.00000
      4       0.4278      2.00000
      5       3.4001      2.00000
      6       3.4001      2.00000
      7       3.4001      2.00000
      8       3.5660      2.00000
      9       3.5660      2.00000
     10       3.6508      2.00000
     11       3.6508      2.00000
     12       3.6508      2.00000
     13       5.6250      2.00000
     14       5.6250      2.00000
     15       5.6250      2.00000
     16       5.9119      2.00000
     17       6.8703      1.69220
     18       6.8703      1.69220
     19       7.0484      0.81088
     20       7.0484      0.81088
     21       7.0484      0.81088
     22       8.1446      0.00000
     23       8.1446      0.00000
     24       8.1446      0.00000


--------------------------------------------------------------------------------------------------------


 soft charge-density along one line, spin component           1
         0         1         2         3         4         5         6         7         8         9
 total charge-density along one line
 
 pseudopotential strength for first ion, spin component:           1
 -7.728   0.000  -0.000   0.000  -0.000  -0.212  -0.000   0.000
  0.000  -7.728   0.000   0.000   0.000  -0.000  -0.212  -0.000
 -0.000   0.000  -7.686   0.000   0.000   0.000  -0.000  -0.216
  0.000   0.000   0.000  -7.728  -0.000  -0.000  -0.000  -0.000
 -0.000   0.000   0.000  -0.000  -7.686   0.000  -0.000  -0.000
 -0.212  -0.000   0.000  -0.000   0.000   0.223  -0.000  -0.000
 -0.000  -0.212  -0.000  -0.000  -0.000  -0.000   0.223   0.000
  0.000  -0.000  -0.216  -0.000  -0.000  -0.000   0.000   0.224
 -0.000  -0.000  -0.000  -0.212   0.000  -0.000   0.000   0.000
  0.000  -0.000  -0.000   0.000  -0.216  -0.000   0.000   0.000
 -0.000   0.000   0.000   0.000   0.000   0.000  -0.000  -0.000
  0.000  -0.000  -0.000  -0.000  -0.000  -0.000   0.000   0.000
  0.000  -0.000  -0.000   0.000  -0.000  -0.000   0.000   0.000
  0.000   0.000  -0.000   0.000  -0.000  -0.000  -0.000   0.000
  0.000   0.000  -0.000  -0.000   0.000  -0.000  -0.000   0.000
 -0.000   0.000   0.000  -0.000   0.000   0.000  -0.000  -0.000
 -0.000  -0.000   0.000  -0.000   0.000   0.000   0.000  -0.000
 -0.000  -0.000   0.000   0.000  -0.000   0.000   0.000  -0.000
 total augmentation occupancy for first ion, spin component:           1
  1.668  -0.000   0.000   0.000  -0.000   0.112   0.000   0.000  -0.000   0.000   0.000   0.000   0.000   0.000   0.000  -0.000
 -0.000   1.668   0.000   0.000  -0.000  -0.000   0.112   0.000  -0.000   0.000  -0.000   0.000  -0.000   0.000  -0.000   0.000
  0.000   0.000   1.841   0.000   0.000  -0.000  -0.000  -0.032   0.000  -0.000   0.000  -0.000   0.000  -0.000   0.000   0.000
  0.000   0.000   0.000   1.668  -0.000  -0.000  -0.000  -0.000   0.112   0.000   0.000  -0.000  -0.000  -0.000   0.000   0.000
  0.000   0.000   0.000  -0.000   1.841  -0.000   0.000  -0.000   0.000  -0.032   0.000   0.000  -0.000   0.000   0.000   0.000
  0.112  -0.000  -0.000  -0.000  -0.000   0.287  -0.000   0.000  -0.000   0.000  -0.000   0.000   0.000   0.000  -0.000  -0.000
  0.000   0.112  -0.000  -0.000   0.000  -0.000   0.287  -0.000  -0.000   0.000  -0.000  -0.000   0.000  -0.000   0.000   0.000
  0.000   0.000  -0.032  -0.000  -0.000   0.000  -0.000   0.269   0.000  -0.000   0.000  -0.000   0.000   0.000   0.000  -0.000
 -0.000  -0.000   0.000   0.112   0.000  -0.000  -0.000  -0.000   0.287  -0.000   0.000   0.000   0.000   0.000  -0.000   0.000
 -0.000   0.000  -0.000   0.000  -0.032   0.000   0.000  -0.000  -0.000   0.269   0.000   0.000   0.000  -0.000  -0.000   0.000
 -0.000  -0.000   0.000   0.000   0.000  -0.000   0.000   0.000   0.000   0.000   1.076  -0.390   0.000   0.000   0.000   0.000
 -0.000  -0.000  -0.000  -0.000   0.000  -0.000  -0.000  -0.000   0.000  -0.000  -0.390   0.185   0.000   0.000   0.000   0.000
  0.000  -0.000   0.000  -0.000  -0.000   0.000   0.000  -0.000   0.000   0.000   0.000   0.000   0.189  -0.000  -0.000  -0.009
  0.000   0.000   0.000  -0.000  -0.000   0.000  -0.000   0.000   0.000  -0.000   0.000   0.000  -0.000   0.189  -0.000   0.000
  0.000  -0.000   0.000   0.000   0.000  -0.000   0.000   0.000  -0.000   0.000   0.000   0.000  -0.000  -0.000   0.189   0.000
 -0.000   0.000  -0.000   0.000   0.000  -0.000   0.000  -0.000   0.000  -0.000   0.000   0.000  -0.009  -0.000   0.000   0.000
 -0.000  -0.000   0.000  -0.000  -0.000  -0.000  -0.000  -0.000  -0.000   0.000   0.000   0.000   0.000  -0.009   0.000   0.000
 -0.000   0.000   0.000  -0.000  -0.000  -0.000   0.000   0.000   0.000   0.000   0.000   0.000   0.000   0.000  -0.009  -0.000


------------------------ aborting loop because EDIFF is reached ----------------------------------------


    CHARGE:  cpu time    0.1180: real time    0.1189
    FORLOC:  cpu time    0.0020: real time    0.0018
    FORNL :  cpu time    0.7099: real time    0.7094
    STRESS:  cpu time    2.2217: real time    2.2226
    FORCOR:  cpu time    0.0330: real time    0.0320
    FORHAR:  cpu time    0.0050: real time    0.0057
    MIXING:  cpu time    0.0010: real time    0.0010
    OFIELD:  cpu time    0.0000: real time    0.0000

  FORCE on cell =-STRESS in cart. coord.  units (eV):
  Direction    XX          YY          ZZ          XY          YZ          ZX
  --------------------------------------------------------------------------------------
  Alpha Z   363.73820   363.73820   363.73820
  Ewald   -1100.35113 -1100.35113 -1100.35113     0.00000    -0.00000     0.00000
  Hartree    89.26760    89.26760    89.26760    -0.00000    -0.00000    -0.00000
  E(xc)    -177.61618  -177.61618  -177.61618     0.00000    -0.00000    -0.00000
  Local     220.44925   220.44925   220.44925     0.00000     0.00000     0.00000
  n-local  -126.93580  -140.50496  -133.86496     8.30191     5.85857     4.59390
  augment   157.16991   157.16991   157.16991     0.00000     0.00000     0.00000
  Kinetic   587.99099   575.48261   575.01607     6.55676    -0.46416    -0.06816
  Fock        0.00000     0.00000     0.00000     0.00000     0.00000     0.00000
  -------------------------------------------------------------------------------------
  Total      -1.61436    -1.61436    -1.61436    -0.00000    -0.00000     0.00000
  in kB     -40.41395   -40.41395   -40.41395    -0.00000    -0.00000     0.00000
  external pressure =      -40.41 kB  Pullay stress =        0.00 kB


 VOLUME and BASIS-vectors are now :
 -----------------------------------------------------------------------------
  energy-cutoff  :      500.00
  volume of cell :       64.00
      direct lattice vectors                 reciprocal lattice vectors
     4.000000000  0.000000000  0.000000000     0.250000000  0.000000000  0.000000000
     0.000000000  4.000000000  0.000000000     0.000000000  0.250000000  0.000000000
     0.000000000  0.000000000  4.000000000     0.000000000  0.000000000  0.250000000

  length of vectors
     4.000000000  4.000000000  4.000000000     0.250000000  0.250000000  0.250000000


 FORCES acting on ions
    electron-ion (+dipol)            ewald-force                    non-local-force                 convergence-correction
 -----------------------------------------------------------------------------------------------
   -.100E-13 0.183E-14 -.160E-13   -.549E-14 -.374E-14 0.247E-14   -.159E-21 -.212E-21 0.212E-21   -.164E-15 0.145E-13 -.294E-13
   -.103E-13 0.748E-13 0.529E-13   -.492E-14 0.458E-14 0.474E-14   -.106E-21 0.212E-21 0.212E-21   0.999E-15 0.708E-14 0.253E-13
   0.594E-13 0.216E-14 -.196E-12   0.341E-14 -.522E-14 0.466E-14   -.159E-21 -.248E-21 -.106E-21   0.788E-14 0.129E-13 0.270E-13
   0.586E-13 0.117E-11 -.894E-12   0.398E-14 0.310E-14 -.828E-14   -.106E-21 0.106E-21 -.159E-21   0.736E-14 -.586E-16 -.320E-13
 -----------------------------------------------------------------------------------------------
   0.977E-13 0.125E-11 -.105E-11   -.302E-14 -.129E-14 0.358E-14   -.529E-21 -.142E-21 0.159E-21   0.161E-13 0.345E-13 -.908E-14
 
 
 POSITION                                       TOTAL-FORCE (eV/Angst)
 -----------------------------------------------------------------------------------
      0.00000      0.00000      0.00000        -0.000000     -0.000000      0.000000
      0.00000      2.00000      2.00000        -0.000000     -0.000000     -0.000000
      2.00000      0.00000      2.00000         0.000000      0.000000      0.000000
      2.00000      2.00000      0.00000         0.000000     -0.000000     -0.000000
 -----------------------------------------------------------------------------------
    total drift:                                0.000000      0.000000     -0.000000


--------------------------------------------------------------------------------------------------------



  FREE ENERGIE OF THE ION-ELECTRON SYSTEM (eV)
  ---------------------------------------------------
  free  energy   TOTEN  =       -24.32229197 eV

  energy  without entropy=      -24.17039450  energy(sigma->0) =      -24.24634323
 


--------------------------------------------------------------------------------------------------------


    POTLOK:  cpu time    0.1020: real time    0.1019


--------------------------------------------------------------------------------------------------------


 Quasi-Newton relaxation of ions (Broydens 2nd method)
  g(Force)  = 0.114E-60   g(Stress)= 0.943E-01

 Reset! Starting new Quasi-Newton update for ions 


--------------------------------------------------------------------------------------------------------


    WAVPRE:  cpu time    0.0050: real time    0.0054
 FEWALD executed in parallel
    FEWALD:  cpu time    0.0000: real time    0.0001
    GENKIN:  cpu time    0.0040: real time    0.0038

 real space projection operators:
  total allocation   :       3925.69 KBytes
  max/ min on nodes  :       1962.84       1962.84

    ORTHCH:  cpu time    0.0980: real time    0.0975
     LOOP+:  cpu time   12.8860: real time   13.0128


----------------------------------------- Iteration    2(   1)  ---------------------------------------


    POTLOK:  cpu time    0.0290: real time    0.0302
    SETDIJ:  cpu time    0.0840: real time    0.0836
     EDDAV:  cpu time    0.6849: real time    0.6840
       DOS:  cpu time    0.0010: real time    0.0013
    CHARGE:  cpu time    0.1310: real time    0.1308
    MIXING:  cpu time    0.0010: real time    0.0009
    --------------------------------------------
      LOOP:  cpu time    0.9329: real time    0.9372

 eigenvalue-minimisations  :   960
 total energy-change (2. order) :-0.1104419E+01  (-0.3714956E+01)
 number of electron      40.0000000 magnetization 
 augmentation part       11.8210873 magnetization 

  free energy =  -0.254267094130E+02  energy without entropy=  -0.252979789895E+02


--------------------------------------------------------------------------------------------------------




----------------------------------------- Iteration    2(   2)  ---------------------------------------


    POTLOK:  cpu time    0.0290: real time    0.0296
    SETDIJ:  cpu time    0.0770: real time    0.0766
    EDDIAG:  cpu time    0.0890: real time    0.0889
  RMM-DIIS:  cpu time    0.4729: real time    0.4731
    ORTHCH:  cpu time    0.0080: real time    0.0077
       DOS:  cpu time    0.0010: real time    0.0013
    CHARGE:  cpu time    0.1270: real time    0.1268
    MIXING:  cpu time    0.0010: real time    0.0011
    --------------------------------------------
      LOOP:  cpu time    0.8059: real time    0.8112

 eigenvalue-minimisations  :   960
 total energy-change (2. order) : 0.9693042E+00  (-0.1097506E+01)
 number of electron      40.0000000 magnetization 
 augmentation part       12.7695416 magnetization 

 eigenvalues of (default mixing * dielectric matrix)
  average eigenvalue GAMMA=   1.5961
  0.2785  2.9227  2.5720  2.2643  1.8249  1.0352  0.9800  0.8908

  free energy =  -0.244574052475E+02  energy without entropy=  -0.243122814098E+02


--------------------------------------------------------------------------------------------------------




----------------------------------------- Iteration    2(   3)  ---------------------------------------


    POTLOK:  cpu time    0.0290: real time    0.0300
    SETDIJ:  cpu time    0.0850: real time    0.0847
    EDDIAG:  cpu time    0.0870: real time    0.0872
  RMM-DIIS:  cpu time    0.4959: real time    0.4950
    ORTHCH:  cpu time    0.0080: real time    0.0077
       DOS:  cpu time    0.0010: real time    0.0013
    CHARGE:  cpu time    0.1230: real time    0.1230
    MIXING:  cpu time    0.0010: real time    0.0012
    --------------------------------------------
      LOOP:  cpu time    0.8309: real time    0.8351

 eigenvalue-minimisations  :   983
 total energy-change (2. order) : 0.6084495E-01  (-0.3186879E-01)
 number of electron      40.0000000 magnetization 
 augmentation part       12.7718603 magnetization 

 eigenvalues of (default mixing * dielectric matrix)
  average eigenvalue GAMMA=   1.7579
  3.0334  2.5931  2.5931  2.2761  1.2651  1.2651  0.9990  0.9151  0.8808

  free energy =  -0.243965602984E+02  energy without entropy=  -0.242534742304E+02


--------------------------------------------------------------------------------------------------------




----------------------------------------- Iteration    2(   4)  ---------------------------------------


    POTLOK:  cpu time    0.0310: real time    0.0310
    SETDIJ:  cpu time    0.0770: real time    0.0774
    EDDIAG:  cpu time    0.0870: real time    0.0865
  RMM-DIIS:  cpu time    0.4809: real time    0.4807
    ORTHCH:  cpu time    0.0080: real time    0.0078
       DOS:  cpu time    0.0010: real time    0.0013
    CHARGE:  cpu time    0.1250: real time    0.1257
    MIXING:  cpu time    0.0020: real time    0.0015
    --------------------------------------------
      LOOP:  cpu time    0.8129: real time    0.8189

 eigenvalue-minimisations  :   960
[...]
      8       3.0621      2.00000
      9       3.1435      2.00000
     10       3.1435      2.00000
     11       3.1898      2.00000
     12       3.6428      2.00000
     13       4.8333      2.00000
     14       5.0682      2.00000
     15       5.1303      2.00000
     16       5.1303      2.00000
     17       5.2058      2.00000
     18       5.7969      2.00000
     19       5.7969      2.00000
     20       6.0976      2.00000
     21       8.0189      0.00000
     22       9.0446      0.00000
     23       9.0446      0.00000
     24      10.0494      0.00000

 k-point    11 :       0.1429    0.1429    0.1429
  band No.  band energies     occupation 
      1      -1.7394      2.00000
      2       1.0476      2.00000
      3       1.0476      2.00000
      4       1.0476      2.00000
      5       1.5241      2.00000
      6       1.5241      2.00000
      7       1.5241      2.00000
      8       3.4442      2.00000
      9       3.9691      2.00000
     10       3.9691      2.00000
     11       5.4902      2.00000
     12       5.4902      2.00000
     13       5.4902      2.00000
     14       5.6381      2.00000
     15       5.6381      2.00000
     16       6.4524      2.00000
     17       6.4524      2.00000
     18       6.4524      2.00000
     19       7.5016      0.08782
     20       7.5016      0.08782
     21       7.5016      0.08782
     22      10.1208      0.00000
     23      10.1208      0.00000
     24      10.1208      0.00000

 k-point    12 :       0.2857    0.1429    0.1429
  band No.  band energies     occupation 
      1      -1.0511      2.00000
      2       1.1819      2.00000
      3       1.4278      2.00000
      4       1.4278      2.00000
      5       1.8269      2.00000
      6       2.0340      2.00000
      7       2.0340      2.00000
      8       3.1733      2.00000
      9       4.1482      2.00000
     10       4.1924      2.00000
     11       4.3974      2.00000
     12       4.3974      2.00000
     13       4.5108      2.00000
     14       5.3701      2.00000
     15       5.8190      2.00000
     16       5.9821      2.00000
     17       5.9948      2.00000
     18       5.9948      2.00000
     19       7.3336      0.60358
     20       7.3491      0.52950
     21       7.3491      0.52950
     22       8.2324      0.00000
     23      11.4777      0.00000
     24      11.4777      0.00000

 k-point    13 :       0.4286    0.1429    0.1429
  band No.  band energies     occupation 
      1      -0.0463      2.00000
      2       0.8969      2.00000
      3       2.0253      2.00000
      4       2.0253      2.00000
      5       2.2529      2.00000
      6       2.4742      2.00000
      7       2.4742      2.00000
      8       2.7261      2.00000
      9       3.4798      2.00000
     10       3.4798      2.00000
     11       3.8937      2.00000
     12       4.0560      2.00000
     13       4.5897      2.00000
     14       5.1520      2.00000
     15       5.4955      2.00000
     16       5.4955      2.00000
     17       5.6491      2.00000
     18       6.4564      2.00000
     19       6.6896      1.99995
     20       6.9488      1.97232
     21       7.2216      1.21485
     22       7.2216      1.21485
     23      12.5841      0.00000
     24      12.5841      0.00000

 k-point    14 :       0.2857    0.2857    0.1429
  band No.  band energies     occupation 
      1      -0.4841      2.00000
      2       1.4730      2.00000
      3       1.4730      2.00000
      4       1.5437      2.00000
      5       2.3652      2.00000
      6       2.3652      2.00000
      7       2.4933      2.00000
      8       3.2054      2.00000
      9       3.7332      2.00000
     10       3.7332      2.00000
     11       4.0912      2.00000
     12       4.0978      2.00000
     13       4.2035      2.00000
     14       5.4385      2.00000
     15       5.4642      2.00000
     16       5.4642      2.00000
     17       5.4658      2.00000
     18       6.2900      2.00000
     19       7.1605      1.51927
     20       7.1698      1.47719
     21       7.1698      1.47719
     22       9.4088      0.00000
     23       9.4088      0.00000
     24      12.5207      0.00000

 k-point    15 :       0.4286    0.2857    0.1429
  band No.  band energies     occupation 
      1       0.3272      2.00000
      2       1.1167      2.00000
      3       1.8175      2.00000
      4       1.8491      2.00000
      5       2.6941      2.00000
      6       2.6943      2.00000
      7       2.7932      2.00000
      8       3.0619      2.00000
      9       3.4398      2.00000
     10       3.4868      2.00000
     11       3.7753      2.00000
     12       3.8538      2.00000
     13       4.4096      2.00000
     14       4.8562      2.00000
     15       5.0848      2.00000
     16       5.1617      2.00000
     17       5.7711      2.00000
     18       6.5752      2.00000
     19       6.9115      1.98633
     20       6.9117      1.98626
     21       6.9833      1.94979
     22       7.8997      0.00001
     23      10.5486      0.00000
     24      11.5677      0.00000

 k-point    16 :       0.4286    0.4286    0.1429
  band No.  band energies     occupation 
      1       0.8288      2.00000
      2       1.3634      2.00000
      3       1.3634      2.00000
      4       1.5828      2.00000
      5       3.0069      2.00000
      6       3.2008      2.00000
      7       3.2008      2.00000
      8       3.3683      2.00000
      9       3.5165      2.00000
     10       3.5165      2.00000
     11       3.7242      2.00000
     12       3.9027      2.00000
     13       4.3395      2.00000
     14       4.6509      2.00000
     15       4.6509      2.00000
     16       4.6778      2.00000
     17       5.8175      2.00000
     18       6.3540      2.00000
     19       6.3540      2.00000
     20       6.5091      2.00000
     21       7.8978      0.00001
     22       8.9885      0.00000
     23       8.9885      0.00000
     24      10.0980      0.00000

 k-point    17 :       0.2857    0.2857    0.2857
  band No.  band energies     occupation 
      1      -0.1551      2.00000
      2       1.3358      2.00000
      3       1.3358      2.00000
      4       1.3358      2.00000
      5       2.8276      2.00000
      6       2.8276      2.00000
      7       2.8276      2.00000
      8       3.6166      2.00000
      9       3.8917      2.00000
     10       3.8917      2.00000
     11       3.8917      2.00000
     12       4.0152      2.00000
     13       4.0152      2.00000
     14       4.8383      2.00000
     15       4.8383      2.00000
     16       4.8383      2.00000
     17       6.1374      2.00000
     18       6.1374      2.00000
     19       7.3756      0.41460
     20       7.3756      0.41460
     21       7.3756      0.41460
     22      10.0301      0.00000
     23      10.0301      0.00000
     24      10.0301      0.00000

 k-point    18 :       0.4286    0.2857    0.2857
  band No.  band energies     occupation 
      1       0.3283      2.00000
      2       0.8759      2.00000
      3       1.3026      2.00000
      4       1.3026      2.00000
      5       2.9665      2.00000
      6       2.9665      2.00000
      7       3.3599      2.00000
      8       3.7932      2.00000
      9       3.8383      2.00000
     10       3.8892      2.00000
     11       4.0563      2.00000
     12       4.2552      2.00000
     13       4.2552      2.00000
     14       4.3426      2.00000
     15       4.5559      2.00000
     16       4.5559      2.00000
     17       6.5297      2.00000
     18       6.7896      1.99912
     19       7.1702      1.47570
     20       7.1702      1.47570
     21       7.2485      1.06582
     22       7.9276      0.00000
     23      10.7539      0.00000
     24      10.7539      0.00000

 k-point    19 :       0.4286    0.4286    0.2857
  band No.  band energies     occupation 
      1       0.4760      2.00000
      2       0.8100      2.00000
      3       0.8100      2.00000
      4       0.9506      2.00000
      5       3.2525      2.00000
      6       3.3867      2.00000
      7       3.3867      2.00000
      8       3.7135      2.00000
      9       3.9020      2.00000
     10       4.0882      2.00000
     11       4.0882      2.00000
     12       4.1470      2.00000
     13       4.6969      2.00000
     14       4.7093      2.00000
     15       4.7093      2.00000
     16       4.8790      2.00000
     17       6.5609      2.00000
     18       7.0290      1.89791
     19       7.0290      1.89791
     20       7.0530      1.85715
     21       7.5320      0.05458
     22       8.7621      0.00000
     23       8.7621      0.00000
     24       9.8301      0.00000

 k-point    20 :       0.4286    0.4286    0.4286
  band No.  band energies     occupation 
      1       0.3522      2.00000
      2       0.5141      2.00000
      3       0.5141      2.00000
      4       0.5141      2.00000
      5       3.5441      2.00000
      6       3.5441      2.00000
      7       3.5441      2.00000
      8       3.7152      2.00000
      9       3.7152      2.00000
     10       3.8021      2.00000
     11       3.8021      2.00000
     12       3.8021      2.00000
     13       5.8113      2.00000
     14       5.8113      2.00000
     15       5.8113      2.00000
     16       6.0906      2.00000
     17       7.1124      1.70401
     18       7.1124      1.70401
     19       7.2962      0.79916
     20       7.2962      0.79916
     21       7.2962      0.79916
     22       8.3845      0.00000
     23       8.3845      0.00000
     24       8.3845      0.00000


--------------------------------------------------------------------------------------------------------


 soft charge-density along one line, spin component           1
         0         1         2         3         4         5         6         7         8         9
 total charge-density along one line
 
 pseudopotential strength for first ion, spin component:           1
 -7.655   0.000  -0.000   0.000  -0.000  -0.221  -0.000   0.000
  0.000  -7.655   0.000   0.000   0.000  -0.000  -0.221  -0.000
 -0.000   0.000  -7.613   0.000  -0.000   0.000  -0.000  -0.225
  0.000   0.000   0.000  -7.655  -0.000  -0.000  -0.000  -0.000
 -0.000   0.000  -0.000  -0.000  -7.613   0.000  -0.000   0.000
 -0.221  -0.000   0.000  -0.000   0.000   0.224  -0.000  -0.000
 -0.000  -0.221  -0.000  -0.000  -0.000  -0.000   0.224   0.000
  0.000  -0.000  -0.225  -0.000   0.000  -0.000   0.000   0.225
 -0.000  -0.000  -0.000  -0.221   0.000  -0.000   0.000   0.000
  0.000  -0.000   0.000   0.000  -0.225  -0.000   0.000  -0.000
 -0.000   0.000   0.000   0.000  -0.000   0.000  -0.000  -0.000
  0.000  -0.000  -0.000  -0.000   0.000  -0.000   0.000   0.000
  0.000  -0.000  -0.000   0.000  -0.000  -0.000   0.000   0.000
  0.000   0.000  -0.000   0.000  -0.000  -0.000  -0.000   0.000
  0.000   0.000  -0.000  -0.000   0.000  -0.000  -0.000   0.000
 -0.000   0.000   0.000  -0.000   0.000   0.000  -0.000  -0.000
 -0.000  -0.000   0.000  -0.000   0.000   0.000   0.000  -0.000
 -0.000  -0.000   0.000   0.000  -0.000   0.000   0.000  -0.000
 total augmentation occupancy for first ion, spin component:           1
  1.669   0.000   0.000  -0.000  -0.000   0.123  -0.000  -0.000  -0.000   0.000   0.000   0.000  -0.000   0.000  -0.000   0.000
  0.000   1.669  -0.000  -0.000   0.000   0.000   0.123   0.000  -0.000   0.000  -0.000   0.000   0.000  -0.000  -0.000   0.000
  0.000  -0.000   1.843   0.000  -0.000   0.000   0.000  -0.025   0.000  -0.000  -0.000  -0.000   0.000   0.000  -0.000   0.000
 -0.000  -0.000   0.000   1.669   0.000   0.000  -0.000   0.000   0.123   0.000  -0.000  -0.000  -0.000  -0.000   0.000   0.000
  0.000   0.000  -0.000   0.000   1.843   0.000   0.000  -0.000  -0.000  -0.025   0.000   0.000  -0.000  -0.000   0.000  -0.000
  0.123   0.000   0.000  -0.000   0.000   0.303  -0.000   0.000   0.000  -0.000   0.000  -0.000   0.000  -0.000   0.000   0.000
  0.000   0.123   0.000  -0.000   0.000  -0.000   0.303  -0.000  -0.000  -0.000   0.000   0.000  -0.000   0.000  -0.000   0.000
 -0.000   0.000  -0.025   0.000  -0.000   0.000   0.000   0.283   0.000   0.000  -0.000   0.000   0.000  -0.000  -0.000   0.000
 -0.000  -0.000   0.000   0.123   0.000  -0.000  -0.000   0.000   0.303   0.000   0.000  -0.000   0.000  -0.000  -0.000   0.000
  0.000   0.000  -0.000   0.000  -0.025  -0.000  -0.000   0.000   0.000   0.283   0.000   0.000   0.000   0.000   0.000  -0.000
  0.000   0.000  -0.000  -0.000  -0.000   0.000   0.000  -0.000   0.000   0.000   1.088  -0.402   0.000  -0.000   0.000  -0.000
 -0.000   0.000   0.000  -0.000   0.000   0.000   0.000   0.000  -0.000  -0.000  -0.402   0.193  -0.000   0.000   0.000  -0.000
 -0.000   0.000   0.000  -0.000   0.000   0.000  -0.000  -0.000   0.000   0.000   0.000  -0.000   0.196  -0.000  -0.000  -0.009
  0.000  -0.000   0.000  -0.000  -0.000  -0.000   0.000  -0.000  -0.000  -0.000  -0.000   0.000  -0.000   0.196   0.000   0.000
 -0.000  -0.000  -0.000   0.000   0.000   0.000  -0.000   0.000  -0.000   0.000   0.000   0.000  -0.000   0.000   0.196   0.000
  0.000   0.000   0.000   0.000  -0.000   0.000   0.000  -0.000   0.000   0.000  -0.000  -0.000  -0.009   0.000   0.000   0.000
  0.000  -0.000  -0.000  -0.000   0.000  -0.000  -0.000   0.000  -0.000  -0.000   0.000   0.000  -0.000  -0.009  -0.000  -0.000
  0.000   0.000  -0.000   0.000   0.000   0.000  -0.000   0.000  -0.000  -0.000   0.000   0.000   0.000  -0.000  -0.009  -0.000


------------------------ aborting loop because EDIFF is reached ----------------------------------------


    CHARGE:  cpu time    0.1260: real time    0.1259
    FORLOC:  cpu time    0.0020: real time    0.0019
    FORNL :  cpu time    0.7179: real time    0.7176
    STRESS:  cpu time    2.2407: real time    2.2399
    FORCOR:  cpu time    0.0320: real time    0.0319
    FORHAR:  cpu time    0.0060: real time    0.0058
    MIXING:  cpu time    0.0020: real time    0.0019
    OFIELD:  cpu time    0.0000: real time    0.0000

  FORCE on cell =-STRESS in cart. coord.  units (eV):
  Direction    XX          YY          ZZ          XY          YZ          ZX
  --------------------------------------------------------------------------------------
  Alpha Z   369.71333   369.71333   369.71333
  Ewald   -1106.34359 -1106.34359 -1106.34359     0.00000     0.00000     0.00000
  Hartree    87.36286    87.36286    87.36286    -0.00000    -0.00000    -0.00000
  E(xc)    -177.94354  -177.94354  -177.94354    -0.00000     0.00000    -0.00000
  Local     222.13270   222.13270   222.13270     0.00000     0.00000     0.00000
  n-local  -125.20460  -139.01728  -132.42619     8.37876     5.91082     4.61519
  augment   157.03472   157.03472   157.03472    -0.00000     0.00000     0.00000
  Kinetic   588.82405   576.25218   575.59570     6.54703    -0.59247    -0.15696
  Fock        0.00000     0.00000     0.00000     0.00000     0.00000     0.00000
  -------------------------------------------------------------------------------------
  Total      -0.03557    -0.03557    -0.03557    -0.00000    -0.00000     0.00000
  in kB      -0.90496    -0.90496    -0.90496    -0.00000    -0.00000     0.00000
  external pressure =       -0.90 kB  Pullay stress =        0.00 kB


 VOLUME and BASIS-vectors are now :
 -----------------------------------------------------------------------------
  energy-cutoff  :      500.00
  volume of cell :       62.97
      direct lattice vectors                 reciprocal lattice vectors
     3.978334172 -0.000000000  0.000000000     0.251361489  0.000000000  0.000000000
    -0.000000000  3.978334172  0.000000000     0.000000000  0.251361489  0.000000000
    -0.000000000 -0.000000000  3.978334172    -0.000000000 -0.000000000  0.251361489

  length of vectors
     3.978334172  3.978334172  3.978334172     0.251361489  0.251361489  0.251361489


 FORCES acting on ions
    electron-ion (+dipol)            ewald-force                    non-local-force                 convergence-correction
 -----------------------------------------------------------------------------------------------
   -.847E-14 0.943E-15 -.169E-13   0.691E-14 -.899E-14 -.275E-14   -.489E-23 0.185E-23 -.331E-23   -.978E-13 0.529E-14 -.468E-13
   -.835E-14 0.762E-13 0.594E-13   0.799E-14 0.534E-14 0.328E-14   0.339E-23 -.312E-23 0.331E-23   -.980E-13 0.162E-13 0.368E-13
   0.645E-13 0.227E-14 -.186E-12   -.873E-14 -.442E-14 0.349E-14   0.343E-23 -.975E-23 0.000E+00   0.936E-13 0.350E-14 0.394E-13
   0.649E-13 0.117E-11 -.889E-12   -.765E-14 0.991E-14 -.585E-14   -.493E-23 0.183E-23 0.165E-23   0.905E-13 0.165E-13 -.474E-13
 -----------------------------------------------------------------------------------------------
   0.113E-12 0.125E-11 -.103E-11   -.148E-14 0.183E-14 -.182E-14   -.300E-23 -.919E-23 0.165E-23   -.116E-13 0.414E-13 -.180E-13
 
 
 POSITION                                       TOTAL-FORCE (eV/Angst)
 -----------------------------------------------------------------------------------
     -0.00000     -0.00000      0.00000         0.000000      0.000000      0.000000
     -0.00000      1.98917      1.98917        -0.000000     -0.000000     -0.000000
      1.98917     -0.00000      1.98917        -0.000000      0.000000     -0.000000
      1.98917      1.98917      0.00000         0.000000     -0.000000      0.000000
 -----------------------------------------------------------------------------------
    total drift:                                0.000000      0.000000     -0.000000


--------------------------------------------------------------------------------------------------------



  FREE ENERGIE OF THE ION-ELECTRON SYSTEM (eV)
  ---------------------------------------------------
  free  energy   TOTEN  =       -24.33582945 eV

  energy  without entropy=      -24.18769381  energy(sigma->0) =      -24.26176163
 
 d Force = 0.0000000E+00[ 0.000E+00, 0.000E+00]  d Energy = 0.2850532E-04-0.285E-04
 d Force = 0.0000000E+00[ 0.000E+00, 0.000E+00]  d Ewald  = 0.4556700E+00-0.456E+00


--------------------------------------------------------------------------------------------------------


    POTLOK:  cpu time    0.1040: real time    0.1047


--------------------------------------------------------------------------------------------------------


 Quasi-Newton relaxation of ions (Broydens 2nd method)
  g(Force)  = 0.879E-61   g(Stress)= 0.458E-04

 retain information from N=  1 steps
 eigenvalues of (default step * inverse Hessian matrix)
  average eigenvalue of G=   1.6679
 eigenvalue spectrum of G is  1.6679


--------------------------------------------------------------------------------------------------------


  
 reached required accuracy - stopping structural energy minimisation
 writing wavefunctions
     LOOP+:  cpu time    6.1121: real time    6.1683
    4ORBIT:  cpu time    0.0000: real time    0.0000

 total amount of memory used by VASP on root node    47671. kBytes
========================================================================

   base      :      30000. kBytes
   nonlr-proj:       2752. kBytes
   fftplans  :       8405. kBytes
   grid      :       3196. kBytes
   one-center:         31. kBytes
   wavefun   :       3287. kBytes
 
  
  
 General timing and accounting informations for this job:
 ========================================================
  
                  Total CPU time used (sec):       39.747
                            User time (sec):       37.516
                          System time (sec):        2.231
                         Elapsed time (sec):       40.421
  
                   Maximum memory used (kb):       72964.
                   Average memory used (kb):           0.
  
                          Minor page faults:       844168
                          Major page faults:          270
                 Voluntary context switches:         2830
