unknown system                          
           1
     3.922119   -0.000000    0.000000
    -0.000000    3.922119    0.000000
    -0.000000   -0.000000    3.922119
   Pt
   4
Direct configuration=     1
   0.00000000  0.00000000  0.00000000
   0.00000000  0.50000000  0.50000000
   0.50000000  0.00000000  0.50000000
   0.50000000  0.50000000  0.00000000
unknown system                          
           1
     3.978880   -0.000000    0.000000
    -0.000000    3.978880    0.000000
    -0.000000   -0.000000    3.978880
   Pt
   4
Direct configuration=     2
  -0.00000000 -0.00000000  0.00000000
  -0.00000000  0.50000000  0.50000000
   0.50000000  0.00000000  0.50000000
   0.50000000  0.50000000 -0.00000000
unknown system                          
           1
     3.978334   -0.000000    0.000000
    -0.000000    3.978334    0.000000
    -0.000000   -0.000000    3.978334
   Pt
   4
Direct configuration=     3
  -0.00000000  0.00000000  0.00000000
  -0.00000000  0.50000000  0.50000000
   0.50000000  0.00000000  0.50000000
   0.50000000  0.50000000 -0.00000000
unknown system                          
           1
     3.978334   -0.000000    0.000000
    -0.000000    3.978334    0.000000
    -0.000000   -0.000000    3.978334
   Pt
   4
Direct configuration=     4
  -0.00000000 -0.00000000  0.00000000
   0.00000000  0.50000000  0.50000000
   0.50000000  0.00000000  0.50000000
   0.50000000  0.50000000 -0.00000000
