   20   20  200    1
  0.2694813E+02  0.5581684E-09  0.5581684E-09  0.1997549E-08  0.5000000E-15
  1.000000000000000E-004
  CAR 
 unknown system                          
    128      5     76
 
  0.0000000E+00  0.0000000E+00  0.0000000E+00  0.4000000E-01
    1      -34.927165   1.000000
    2      -34.304077   1.000000
    3      -34.166313   1.000000
    4      -33.066117   1.000000
    5      -19.165724   1.000000
    6      -18.830797   1.000000
    7      -18.535539   1.000000
    8      -18.535538   1.000000
    9      -18.176791   1.000000
   10      -18.176790   1.000000
   11      -18.118757   1.000000
   12      -17.444778   1.000000
   13      -17.444777   1.000000
   14      -16.835735   1.000000
   15      -16.812356   1.000000
   16      -16.812356   1.000000
   17      -16.623672   1.000000
   18      -16.524494   1.000000
   19      -16.319384   1.000000
   20      -16.319383   1.000000
   21      -16.185317   1.000000
   22      -16.185317   1.000000
   23      -16.066055   1.000000
   24      -16.066055   1.000000
   25      -15.857249   1.000000
   26      -14.892479   1.000000
   27      -14.892478   1.000000
   28      -14.631759   1.000000
   29       -6.128781   1.000000
   30       -5.486440   1.000000
   31       -5.486433   1.000000
   32       -5.469366   1.000000
   33       -5.230924   1.000000
   34       -5.230922   1.000000
   35       -4.960397   1.000000
   36       -4.690359   1.000000
   37       -4.653811   1.000000
   38       -4.653810   1.000000
   39       -4.503220   1.000000
   40       -4.503215   1.000000
   41       -4.229585   1.000000
   42       -3.958711   1.000000
   43       -3.958707   1.000000
   44       -3.741398   1.000000
   45       -3.741391   1.000000
   46       -3.667012   1.000000
   47       -3.667009   1.000000
   48       -3.541499   1.000000
   49       -3.063743   1.000000
   50       -2.692448   1.000000
   51       -2.692432   1.000000
   52       -2.548497   1.000000
   53       -2.548492   1.000000
   54       -2.401081   1.000000
   55       -2.241061   1.000000
   56       -2.082637   1.000000
   57       -2.026296   1.000000
   58       -2.026282   1.000000
   59       -1.538917   1.000000
   60       -1.538912   1.000000
   61       -1.500754   1.000000
   62       -0.809380   0.965355
   63       -0.809366   0.965347
   64       -0.683180   0.822297
   65       -0.415494   0.166356
   66        1.029485   0.000000
   67        1.029487   0.000000
   68        1.563170   0.000000
   69        1.712642   0.000000
   70        1.712644   0.000000
   71        1.714082   0.000000
   72        2.370361   0.000000
   73        2.370366   0.000000
   74        2.382360   0.000000
   75        2.584673   0.000000
   76        2.584677   0.000000
 
  0.2000000E+00  0.2775558E-16  0.0000000E+00  0.2400000E+00
    1      -34.926793   1.000000
    2      -34.303755   1.000000
    3      -34.166021   1.000000
    4      -33.065925   1.000000
    5      -19.190070   1.000000
    6      -18.851612   1.000000
    7      -18.598397   1.000000
    8      -18.575318   1.000000
    9      -18.175899   1.000000
   10      -18.175322   1.000000
   11      -18.094304   1.000000
   12      -17.498689   1.000000
   13      -17.456974   1.000000
   14      -16.926688   1.000000
   15      -16.788379   1.000000
   16      -16.783508   1.000000
   17      -16.614908   1.000000
   18      -16.542008   1.000000
   19      -16.466753   1.000000
   20      -16.354789   1.000000
   21      -16.048029   1.000000
   22      -16.047829   1.000000
   23      -16.003246   1.000000
   24      -15.954074   1.000000
   25      -15.817522   1.000000
   26      -14.858753   1.000000
   27      -14.852953   1.000000
   28      -14.597066   1.000000
   29       -6.099692   1.000000
   30       -5.653671   1.000000
   31       -5.557525   1.000000
   32       -5.504793   1.000000
   33       -5.339562   1.000000
   34       -5.135604   1.000000
   35       -4.883854   1.000000
   36       -4.782271   1.000000
   37       -4.669623   1.000000
   38       -4.659494   1.000000
   39       -4.445232   1.000000
   40       -4.378923   1.000000
   41       -4.233825   1.000000
   42       -3.923619   1.000000
   43       -3.921102   1.000000
   44       -3.786089   1.000000
   45       -3.784547   1.000000
   46       -3.652216   1.000000
   47       -3.615797   1.000000
   48       -3.492080   1.000000
   49       -3.234949   1.000000
   50       -2.797461   1.000000
   51       -2.763197   1.000000
   52       -2.665903   1.000000
   53       -2.534070   1.000000
   54       -2.434162   1.000000
   55       -2.430928   1.000000
   56       -2.257463   1.000000
   57       -2.044215   1.000000
   58       -2.010943   1.000000
   59       -1.831676   1.000000
   60       -1.444048   1.000000
   61       -1.360337   1.000000
   62       -0.908125   0.994044
   63       -0.836389   0.977652
   64       -0.640557   0.733280
   65       -0.524846   0.422525
   66        0.958346   0.000000
   67        1.142910   0.000000
   68        1.460327   0.000000
   69        1.693930   0.000000
   70        1.755325   0.000000
   71        1.784219   0.000000
   72        2.360310   0.000000
   73        2.382241   0.000000
   74        2.494089   0.000000
   75        2.546401   0.000000
   76        2.550305   0.000000
 
  0.4000000E+00  0.5551115E-16  0.0000000E+00  0.2400000E+00
    1      -34.926193   1.000000
    2      -34.303236   1.000000
    3      -34.165548   1.000000
    4      -33.065613   1.000000
    5      -19.232444   1.000000
    6      -18.850670   1.000000
    7      -18.709319   1.000000
    8      -18.631177   1.000000
    9      -18.184641   1.000000
   10      -18.181087   1.000000
   11      -18.067587   1.000000
   12      -17.586926   1.000000
   13      -17.476346   1.000000
   14      -17.053077   1.000000
   15      -16.750058   1.000000
   16      -16.717603   1.000000
   17      -16.612893   1.000000
   18      -16.577070   1.000000
   19      -16.510086   1.000000
   20      -16.370592   1.000000
   21      -15.999431   1.000000
   22      -15.938049   1.000000
   23      -15.854088   1.000000
   24      -15.838937   1.000000
   25      -15.708335   1.000000
   26      -14.805757   1.000000
   27      -14.767455   1.000000
   28      -14.551817   1.000000
   29       -6.089811   1.000000
   30       -5.848551   1.000000
   31       -5.749136   1.000000
   32       -5.511985   1.000000
   33       -5.350694   1.000000
   34       -5.155405   1.000000
   35       -4.951663   1.000000
   36       -4.721304   1.000000
   37       -4.700069   1.000000
   38       -4.565866   1.000000
   39       -4.339417   1.000000
   40       -4.253619   1.000000
   41       -4.178071   1.000000
   42       -4.079158   1.000000
   43       -3.924535   1.000000
   44       -3.851142   1.000000
   45       -3.790154   1.000000
   46       -3.494701   1.000000
   47       -3.491056   1.000000
   48       -3.395781   1.000000
   49       -3.343309   1.000000
   50       -3.093355   1.000000
   51       -3.051072   1.000000
   52       -2.857166   1.000000
   53       -2.675376   1.000000
   54       -2.615589   1.000000
   55       -2.568530   1.000000
   56       -2.337239   1.000000
   57       -2.070507   1.000000
   58       -1.971653   1.000000
   59       -1.920250   1.000000
   60       -1.577055   1.000000
   61       -1.234230   0.999999
   62       -1.067976   0.999866
   63       -0.991041   0.999036
   64       -0.753869   0.922777
   65       -0.248186   0.015710
   66        0.794145   0.000000
   67        1.263575   0.000000
   68        1.304047   0.000000
   69        1.743600   0.000000
   70        1.817350   0.000000
   71        1.953950   0.000000
   72        2.116371   0.000000
   73        2.417418   0.000000
   74        2.426459   0.000000
   75        2.555357   0.000000
   76        2.703152   0.000000
 
  0.4000000E+00  0.2000000E+00  0.0000000E+00  0.2400000E+00
    1      -34.926308   1.000000
    2      -34.303335   1.000000
    3      -34.165639   1.000000
    4      -33.065672   1.000000
    5      -19.204602   1.000000
    6      -18.885200   1.000000
    7      -18.737449   1.000000
    8      -18.557096   1.000000
    9      -18.210794   1.000000
   10      -18.153871   1.000000
   11      -18.064812   1.000000
   12      -17.607418   1.000000
   13      -17.436254   1.000000
   14      -17.008422   1.000000
   15      -16.782034   1.000000
   16      -16.696667   1.000000
   17      -16.655441   1.000000
   18      -16.636390   1.000000
   19      -16.506746   1.000000
   20      -16.259934   1.000000
   21      -16.009032   1.000000
   22      -15.990874   1.000000
   23      -15.899407   1.000000
   24      -15.841614   1.000000
   25      -15.723098   1.000000
   26      -14.815309   1.000000
   27      -14.791770   1.000000
   28      -14.559070   1.000000
   29       -6.072728   1.000000
   30       -5.855392   1.000000
   31       -5.693879   1.000000
   32       -5.542004   1.000000
   33       -5.249222   1.000000
   34       -5.102338   1.000000
   35       -5.054159   1.000000
   36       -4.730099   1.000000
   37       -4.672170   1.000000
   38       -4.555678   1.000000
   39       -4.423668   1.000000
   40       -4.316158   1.000000
   41       -4.217424   1.000000
   42       -4.034997   1.000000
   43       -3.933311   1.000000
   44       -3.809626   1.000000
   45       -3.703297   1.000000
   46       -3.656226   1.000000
   47       -3.454469   1.000000
   48       -3.424685   1.000000
   49       -3.316818   1.000000
   50       -3.036048   1.000000
   51       -2.894413   1.000000
   52       -2.844799   1.000000
   53       -2.695681   1.000000
   54       -2.563561   1.000000
   55       -2.477830   1.000000
   56       -2.312763   1.000000
   57       -2.112780   1.000000
   58       -2.050853   1.000000
   59       -1.914874   1.000000
   60       -1.496169   1.000000
   61       -1.242607   0.999999
   62       -1.086245   0.999920
   63       -0.890027   0.991502
   64       -0.799535   0.959673
   65       -0.300384   0.037324
   66        0.884942   0.000000
   67        1.188404   0.000000
   68        1.287108   0.000000
   69        1.657521   0.000000
   70        1.807394   0.000000
   71        1.940793   0.000000
   72        2.286639   0.000000
   73        2.412492   0.000000
   74        2.483002   0.000000
   75        2.540318   0.000000
   76        2.620755   0.000000
 
 -0.4000000E+00  0.2000000E+00  0.0000000E+00  0.2400000E+00
    1      -34.926008   1.000000
    2      -34.303076   1.000000
    3      -34.165402   1.000000
    4      -33.065514   1.000000
    5      -19.195449   1.000000
    6      -18.899643   1.000000
    7      -18.842354   1.000000
    8      -18.546217   1.000000
    9      -18.240060   1.000000
   10      -18.132482   1.000000
   11      -18.041275   1.000000
   12      -17.686481   1.000000
   13      -17.417845   1.000000
   14      -17.036858   1.000000
   15      -16.779476   1.000000
   16      -16.740791   1.000000
   17      -16.681202   1.000000
   18      -16.620237   1.000000
   19      -16.489672   1.000000
   20      -16.214146   1.000000
   21      -15.947690   1.000000
   22      -15.922735   1.000000
   23      -15.919363   1.000000
   24      -15.814608   1.000000
   25      -15.635711   1.000000
   26      -14.790374   1.000000
   27      -14.747872   1.000000
   28      -14.541221   1.000000
   29       -6.062839   1.000000
   30       -5.961236   1.000000
   31       -5.778739   1.000000
   32       -5.510232   1.000000
   33       -5.280398   1.000000
   34       -5.233683   1.000000
   35       -4.874317   1.000000
   36       -4.815233   1.000000
   37       -4.637584   1.000000
   38       -4.500191   1.000000
   39       -4.373762   1.000000
   40       -4.326874   1.000000
   41       -4.221276   1.000000
   42       -4.107263   1.000000
   43       -3.992010   1.000000
   44       -3.743582   1.000000
   45       -3.702214   1.000000
   46       -3.578477   1.000000
   47       -3.427364   1.000000
   48       -3.363362   1.000000
   49       -3.342264   1.000000
   50       -3.139907   1.000000
   51       -2.998813   1.000000
   52       -2.885405   1.000000
   53       -2.827773   1.000000
   54       -2.699165   1.000000
   55       -2.557305   1.000000
   56       -2.380354   1.000000
   57       -2.103803   1.000000
   58       -1.983503   1.000000
   59       -1.944393   1.000000
   60       -1.568014   1.000000
   61       -1.311487   1.000000
   62       -1.110782   0.999961
   63       -0.958435   0.997951
   64       -0.800484   0.960252
   65       -0.144775   0.001970
   66        0.808574   0.000000
   67        1.129187   0.000000
   68        1.231369   0.000000
   69        1.675846   0.000000
   70        1.771928   0.000000
   71        2.136020   0.000000
   72        2.250394   0.000000
   73        2.333175   0.000000
   74        2.466045   0.000000
   75        2.566037   0.000000
   76        2.683983   0.000000
