<?xml version="1.0" encoding="ISO-8859-1"?>
<modeling>
 <generator>
  <i name="program" type="string">vasp </i>
  <i name="version" type="string">5.4.4.18Apr17-6-g9f103f2a35  </i>
  <i name="subversion" type="string">(build Jun 30 2017 11:15:00) complex            parallel </i>
  <i name="platform" type="string">STALLO_VASP_5.4.4 </i>
  <i name="date" type="string">2019 11 25 </i>
  <i name="time" type="string">09:10:12 </i>
 </generator>
 <incar>
  <i type="string" name="PREC">normal    ! low/normal/accurate</i>
  <i type="string" name="ALGO"> Fast      ! Algorithm for electronic re</i>
  <i type="int" name="ISPIN">     1</i>
  <i type="int" name="MAXMIX">    80</i>
  <i type="int" name="NELMIN">     4</i>
  <i type="int" name="IBRION">     1</i>
  <i name="EDIFF">      0.00001000</i>
  <i name="EDIFFG">     -0.05000000</i>
  <i type="int" name="NSW">   200</i>
  <i type="int" name="ISIF">     2</i>
  <i name="ENCUT">    500.00000000</i>
  <i type="string" name="LREAL"> Auto      ! Projection in reciprocal sp</i>
  <i type="int" name="ISMEAR">     0</i>
  <i name="SIGMA">      0.20000000</i>
  <i type="logical" name="LWAVE"> F  </i>
  <v type="int" name="KPOINT_BSE">    -1     0     0     0</v>
 </incar>
 <structure name="primitive_cell" >
  <crystal>
   <varray name="basis" >
    <v>       5.58168362       0.00000000       0.00000000 </v>
    <v>       2.79084181       4.83387982       0.00000000 </v>
    <v>       0.00000000       0.00000000      19.97549479 </v>
   </varray>
   <i name="volume">    538.96257656 </i>
   <varray name="rec_basis" >
    <v>       0.17915741      -0.10343658       0.00000000 </v>
    <v>       0.00000000       0.20687316       0.00000000 </v>
    <v>       0.00000000       0.00000000       0.05006134 </v>
   </varray>
  </crystal>
  <varray name="positions" >
   <v>      -0.50000000      -0.50000000       0.30036803 </v>
   <v>       0.33333333       0.33333333       0.35740574 </v>
   <v>      -0.33333333      -0.33333333       0.41444344 </v>
   <v>      -0.50000000       0.00000000       0.30036803 </v>
   <v>       0.00000000      -0.50000000       0.30036803 </v>
   <v>       0.00000000       0.00000000       0.30036803 </v>
   <v>       0.16666667      -0.33333333       0.41444344 </v>
   <v>      -0.33333333       0.16666667       0.41444344 </v>
   <v>       0.16666667       0.16666667       0.41444344 </v>
   <v>       0.00000000       0.00000000       0.47148115 </v>
   <v>       0.33333333       0.33333333      -0.47148115 </v>
   <v>      -0.16666667       0.33333333      -0.47148115 </v>
   <v>       0.33333333      -0.16666667      -0.47148115 </v>
   <v>      -0.16666667      -0.16666667      -0.47148115 </v>
   <v>      -0.33333333      -0.33333333      -0.41444344 </v>
   <v>      -0.50000000      -0.50000000      -0.35740574 </v>
   <v>      -0.50000000       0.00000000      -0.35740574 </v>
   <v>       0.00000000      -0.50000000      -0.35740574 </v>
   <v>       0.00000000       0.00000000      -0.35740574 </v>
   <v>       0.33333333       0.33333333      -0.30036803 </v>
  </varray>
 </structure>
 <varray name="primitive_index" >
  <v type="int" >        1 </v>
  <v type="int" >       17 </v>
  <v type="int" >       14 </v>
  <v type="int" >        2 </v>
  <v type="int" >        3 </v>
  <v type="int" >       13 </v>
  <v type="int" >        5 </v>
  <v type="int" >        6 </v>
  <v type="int" >        4 </v>
  <v type="int" >       18 </v>
  <v type="int" >       15 </v>
  <v type="int" >        8 </v>
  <v type="int" >        9 </v>
  <v type="int" >        7 </v>
  <v type="int" >       19 </v>
  <v type="int" >       10 </v>
  <v type="int" >       11 </v>
  <v type="int" >       12 </v>
  <v type="int" >       16 </v>
  <v type="int" >       20 </v>
 </varray>
 <kpoints>
  <generation param="Gamma">
   <v type="int" name="divisions">       5        5        1 </v>
   <v name="usershift">      0.00000000       0.00000000       0.00000000 </v>
   <v name="genvec1">      0.20000000      -0.00000000       0.00000000 </v>
   <v name="genvec2">      0.00000000       0.20000000       0.00000000 </v>
   <v name="genvec3">      0.00000000       0.00000000       1.00000000 </v>
   <v name="shift">      0.00000000       0.00000000       0.00000000 </v>
  </generation>
  <varray name="kpointlist" >
   <v>       0.00000000       0.00000000       0.00000000 </v>
   <v>       0.20000000       0.00000000       0.00000000 </v>
   <v>       0.40000000       0.00000000       0.00000000 </v>
   <v>       0.40000000       0.20000000       0.00000000 </v>
   <v>      -0.40000000       0.20000000       0.00000000 </v>
  </varray>
  <varray name="weights" >
   <v>       0.04000000 </v>
   <v>       0.24000000 </v>
   <v>       0.24000000 </v>
   <v>       0.24000000 </v>
   <v>       0.24000000 </v>
  </varray>
 </kpoints>
 <parameters>
  <separator name="general" >
   <i type="string" name="SYSTEM">unknown system</i>
   <i type="logical" name="LCOMPAT"> F  </i>
  </separator>
  <separator name="electronic" >
   <i type="string" name="PREC">normal</i>
   <i name="ENMAX">    500.00000000</i>
   <i name="ENAUG">    605.39200000</i>
   <i name="EDIFF">      0.00001000</i>
   <i type="int" name="IALGO">    68</i>
   <i type="int" name="IWAVPR">    11</i>
   <i type="int" name="NBANDS">    76</i>
   <i name="NELECT">    128.00000000</i>
   <i type="int" name="TURBO">     0</i>
   <i type="int" name="IRESTART">     0</i>
   <i type="int" name="NREBOOT">     0</i>
   <i type="int" name="NMIN">     0</i>
   <i name="EREF">      0.00000000</i>
   <separator name="electronic smearing" >
    <i type="int" name="ISMEAR">     0</i>
    <i name="SIGMA">      0.20000000</i>
    <i name="KSPACING">      0.50000000</i>
    <i type="logical" name="KGAMMA"> T  </i>
   </separator>
   <separator name="electronic projectors" >
    <i type="logical" name="LREAL"> T  </i>
    <v name="ROPT">     -0.00050000     -0.00050000     -0.00050000</v>
    <i type="int" name="LMAXPAW">  -100</i>
    <i type="int" name="LMAXMIX">     2</i>
    <i type="logical" name="NLSPLINE"> F  </i>
   </separator>
   <separator name="electronic startup" >
    <i type="int" name="ISTART">     0</i>
    <i type="int" name="ICHARG">     2</i>
    <i type="int" name="INIWAV">     1</i>
   </separator>
   <separator name="electronic spin" >
    <i type="int" name="ISPIN">     1</i>
    <i type="logical" name="LNONCOLLINEAR"> F  </i>
    <v name="MAGMOM">      1.00000000      1.00000000      1.00000000      1.00000000      1.00000000      1.00000000      1.00000000      1.00000000      1.00000000      1.00000000      1.00000000      1.00000000      1.00000000      1.00000000      1.00000000      1.00000000      1.00000000      1.00000000      1.00000000      1.00000000
</v>
    <i name="NUPDOWN">     -1.00000000</i>
    <i type="logical" name="LSORBIT"> F  </i>
    <v name="SAXIS">      0.00000000      0.00000000      1.00000000</v>
    <i type="logical" name="LSPIRAL"> F  </i>
    <v name="QSPIRAL">      0.00000000      0.00000000      0.00000000</v>
    <i type="logical" name="LZEROZ"> F  </i>
   </separator>
   <separator name="electronic exchange-correlation" >
    <i type="logical" name="LASPH"> F  </i>
    <i type="logical" name="LMETAGGA"> F  </i>
   </separator>
   <separator name="electronic convergence" >
    <i type="int" name="NELM">    60</i>
    <i type="int" name="NELMDL">    -5</i>
    <i type="int" name="NELMIN">     4</i>
    <i name="ENINI">    500.00000000</i>
    <separator name="electronic convergence detail" >
     <i type="logical" name="LDIAG"> T  </i>
     <i type="logical" name="LSUBROT"> F  </i>
     <i name="WEIMIN">      0.00100000</i>
     <i name="EBREAK">      0.00000003</i>
     <i name="DEPER">      0.30000000</i>
     <i type="int" name="NRMM">     4</i>
     <i name="TIME">      0.40000000</i>
    </separator>
   </separator>
   <separator name="electronic mixer" >
    <i name="AMIX">      0.40000000</i>
    <i name="BMIX">      1.00000000</i>
    <i name="AMIN">      0.10000000</i>
    <i name="AMIX_MAG">      1.60000000</i>
    <i name="BMIX_MAG">      1.00000000</i>
    <separator name="electronic mixer details" >
     <i type="int" name="IMIX">     4</i>
     <i type="logical" name="MIXFIRST"> F  </i>
     <i type="int" name="MAXMIX">    80</i>
     <i name="WC">    100.00000000</i>
     <i type="int" name="INIMIX">     1</i>
     <i type="int" name="MIXPRE">     1</i>
     <i type="int" name="MREMOVE">     5</i>
    </separator>
   </separator>
   <separator name="electronic dipolcorrection" >
    <i type="logical" name="LDIPOL"> F  </i>
    <i type="logical" name="LMONO"> F  </i>
    <i type="int" name="IDIPOL">     0</i>
    <i name="EPSILON">      1.00000000</i>
    <v name="DIPOL">   -100.00000000   -100.00000000   -100.00000000</v>
    <i name="EFIELD">      0.00000000</i>
   </separator>
  </separator>
  <separator name="grids" >
   <i type="int" name="NGX">    32</i>
   <i type="int" name="NGY">    32</i>
   <i type="int" name="NGZ">   112</i>
   <i type="int" name="NGXF">    64</i>
   <i type="int" name="NGYF">    64</i>
   <i type="int" name="NGZF">   224</i>
   <i type="logical" name="ADDGRID"> F  </i>
  </separator>
  <separator name="ionic" >
   <i type="int" name="NSW">   200</i>
   <i type="int" name="IBRION">     1</i>
   <i type="int" name="MDALGO">     0</i>
   <i type="int" name="ISIF">     2</i>
   <i name="PSTRESS">      0.00000000</i>
   <i name="EDIFFG">     -0.05000000</i>
   <i type="int" name="NFREE">     0</i>
   <i name="POTIM">      0.50000000</i>
   <i name="SMASS">     -3.00000000</i>
   <i name="SCALEE">      1.00000000</i>
  </separator>
  <separator name="ionic md" >
   <i name="TEBEG">      0.00010000</i>
   <i name="TEEND">      0.00010000</i>
   <i type="int" name="NBLOCK">     1</i>
   <i type="int" name="KBLOCK">   200</i>
   <i type="int" name="NPACO">   256</i>
   <i name="APACO">     16.00000000</i>
  </separator>
  <separator name="symmetry" >
   <i type="int" name="ISYM">     2</i>
   <i name="SYMPREC">      0.00001000</i>
  </separator>
  <separator name="dos" >
   <i type="int" name="LORBIT">     0</i>
   <v name="RWIGS">     -1.00000000     -1.00000000     -1.00000000</v>
   <i type="int" name="NEDOS">   301</i>
   <i name="EMIN">     10.00000000</i>
   <i name="EMAX">    -10.00000000</i>
   <i name="EFERMI">      0.00000000</i>
  </separator>
  <separator name="writing" >
   <i type="int" name="NWRITE">     2</i>
   <i type="logical" name="LWAVE"> F  </i>
   <i type="logical" name="LDOWNSAMPLE"> F  </i>
   <i type="logical" name="LCHARG"> T  </i>
   <i type="logical" name="LPARD"> F  </i>
   <i type="logical" name="LVTOT"> F  </i>
   <i type="logical" name="LVHAR"> F  </i>
   <i type="logical" name="LELF"> F  </i>
   <i type="logical" name="LOPTICS"> F  </i>
   <v name="STM">      0.00000000      0.00000000      0.00000000      0.00000000      0.00000000      0.00000000      0.00000000</v>
  </separator>
  <separator name="performance" >
   <i type="int" name="NPAR">     4</i>
   <i type="int" name="NSIM">     4</i>
   <i type="int" name="NBLK">    -1</i>
   <i type="logical" name="LPLANE"> T  </i>
   <i type="logical" name="LSCALAPACK"> T  </i>
   <i type="logical" name="LSCAAWARE"> F  </i>
   <i type="logical" name="LSCALU"> F  </i>
   <i type="logical" name="LASYNC"> F  </i>
   <i type="logical" name="LORBITALREAL"> F  </i>
  </separator>
  <separator name="miscellaneous" >
   <i type="int" name="IDIOT">     3</i>
   <i type="int" name="ISPECIAL">     0</i>
   <i type="logical" name="LMUSIC"> F  </i>
   <v name="POMASS">     16.00000000     87.62000000     47.88000000</v>
   <v name="DARWINR">      0.00000000      0.00000000      0.00000000</v>
   <v name="DARWINV">      1.00000000      1.00000000      1.00000000</v>
   <i type="logical" name="LCORR"> T  </i>
  </separator>
  <i type="logical" name="GGA_COMPAT"> T  </i>
  <i type="logical" name="LBERRY"> F  </i>
  <i type="int" name="ICORELEVEL">     0</i>
  <i type="logical" name="LDAU"> F  </i>
  <i type="int" name="I_CONSTRAINED_M">     0</i>
  <separator name="electronic exchange-correlation" >
   <i type="string" name="GGA">--</i>
   <i type="int" name="VOSKOWN">     0</i>
   <i type="logical" name="LHFCALC"> F  </i>
   <i type="string" name="PRECFOCK"></i>
   <i type="logical" name="LSYMGRAD"> F  </i>
   <i type="logical" name="LHFONE"> F  </i>
   <i type="logical" name="LRHFCALC"> F  </i>
   <i type="logical" name="LTHOMAS"> F  </i>
   <i type="logical" name="LMODELHF"> F  </i>
   <i name="ENCUT4O">     -1.00000000</i>
   <i type="int" name="EXXOEP">     0</i>
   <i type="int" name="FOURORBIT">     0</i>
   <i name="AEXX">      0.00000000</i>
   <i name="HFALPHA">      0.00000000</i>
   <i name="MCALPHA">      0.00000000</i>
   <i name="ALDAX">      1.00000000</i>
   <i name="AGGAX">      1.00000000</i>
   <i name="ALDAC">      1.00000000</i>
   <i name="AGGAC">      1.00000000</i>
   <i type="int" name="NKREDX">     1</i>
   <i type="int" name="NKREDY">     1</i>
   <i type="int" name="NKREDZ">     1</i>
   <i type="logical" name="SHIFTRED"> F  </i>
   <i type="logical" name="ODDONLY"> F  </i>
   <i type="logical" name="EVENONLY"> F  </i>
   <i type="int" name="LMAXFOCK">     0</i>
   <i type="int" name="NMAXFOCKAE">     0</i>
   <i type="logical" name="LFOCKAEDFT"> F  </i>
   <i name="HFSCREEN">      0.00000000</i>
   <i name="HFSCREENC">      0.00000000</i>
   <i type="int" name="NBANDSGWLOW">     0</i>
  </separator>
  <separator name="vdW DFT" >
   <i type="logical" name="LUSE_VDW"> F  </i>
   <i name="Zab_VDW">     -0.84910000</i>
   <i name="PARAM1">      0.12340000</i>
   <i name="PARAM2">      1.00000000</i>
   <i name="PARAM3">      0.00000000</i>
  </separator>
  <separator name="model GW" >
   <i type="int" name="MODEL_GW">     0</i>
   <i name="MODEL_EPS0">     16.16887730</i>
   <i name="MODEL_ALPHA">      1.00000000</i>
  </separator>
  <separator name="linear response parameters" >
   <i type="logical" name="LEPSILON"> F  </i>
   <i type="logical" name="LRPA"> F  </i>
   <i type="logical" name="LNABLA"> F  </i>
   <i type="logical" name="LVEL"> F  </i>
   <i type="int" name="KINTER">     0</i>
   <i name="CSHIFT">      0.10000000</i>
   <i name="OMEGAMAX">     -1.00000000</i>
   <i name="DEG_THRESHOLD">      0.00200000</i>
   <i name="RTIME">     -0.10000000</i>
   <i name="WPLASMAI">      0.00000000</i>
   <v name="DFIELD">      0.00000000      0.00000000      0.00000000</v>
   <v name="WPLASMA">      0.00000000      0.00000000      0.00000000      0.00000000      0.00000000      0.00000000      0.00000000      0.00000000      0.00000000</v>
  </separator>
  <separator name="orbital magnetization" >
   <i type="logical" name="NUCIND"> F  </i>
   <v name="MAGPOS">      0.00000000      0.00000000      0.00000000</v>
   <i type="logical" name="LNICSALL"> T  </i>
   <i type="logical" name="ORBITALMAG"> F  </i>
   <i type="logical" name="LMAGBLOCH"> F  </i>
   <i type="logical" name="LCHIMAG"> F  </i>
   <i type="logical" name="LGAUGE"> T  </i>
   <i type="int" name="MAGATOM">     0</i>
   <v name="MAGDIPOL">      0.00000000      0.00000000      0.00000000</v>
   <v name="AVECCONST">      0.00000000      0.00000000      0.00000000</v>
  </separator>
  <separator name="response functions" >
   <i type="logical" name="LADDER"> F  </i>
   <i type="logical" name="LRPAFORCE"> F  </i>
   <i type="logical" name="LFXC"> F  </i>
   <i type="logical" name="LHARTREE"> T  </i>
   <i type="int" name="IBSE">     0</i>
   <v type="int" name="KPOINT">    -1     0     0     0</v>
   <i type="logical" name="LTCTE"> F  </i>
   <i type="logical" name="LTETE"> F  </i>
   <i type="logical" name="LTRIPLET"> F  </i>
   <i type="logical" name="LFXCEPS"> F  </i>
   <i type="logical" name="LFXHEG"> F  </i>
   <i type="int" name="NATURALO">     2</i>
   <i type="logical" name="L2ORDER"> F  </i>
   <i type="logical" name="LMP2LT"> F  </i>
   <i type="logical" name="LUSEW"> F  </i>
   <i name="ENCUTGW">     -2.00000000</i>
   <i name="ENCUTGWSOFT">     -2.00000000</i>
   <i name="ENCUTLF">     -1.00000000</i>
   <i type="int" name="LMAXMP2">    -1</i>
   <i name="SCISSOR">      0.00000000</i>
   <i type="int" name="NOMEGA">     0</i>
   <i type="int" name="NOMEGAR">     0</i>
   <i type="int" name="NBANDSGW">    -1</i>
   <i type="int" name="NBANDSO">    -1</i>
   <i type="int" name="NBANDSV">    -1</i>
   <i type="int" name="NELM">     1</i>
   <i type="int" name="NELMHF">     1</i>
   <i type="int" name="DIM">     3</i>
   <i type="int" name="ANTIRES">     0</i>
   <i name="OMEGAMAX">    -30.00000000</i>
   <i name="OMEGAMIN">    -30.00000000</i>
   <i name="OMEGATL">   -200.00000000</i>
   <i type="int" name="OMEGAGRID">   140</i>
   <i name="CSHIFT">     -0.10000000</i>
   <i type="logical" name="SELFENERGY"> F  </i>
   <i type="logical" name="LSPECTRAL"> F  </i>
   <i type="logical" name="LSPECTRALGW"> F  </i>
   <i type="logical" name="LSINGLES"> F  </i>
   <i type="logical" name="LFERMIGW"> F  </i>
   <i type="logical" name="ODDONLYGW"> F  </i>
   <i type="logical" name="EVENONLYGW"> F  </i>
   <i type="int" name="NKREDLFX">     1</i>
   <i type="int" name="NKREDLFY">     1</i>
   <i type="int" name="NKREDLFZ">     1</i>
   <i type="int" name="MAXMEM">  2800</i>
   <i type="int" name="TELESCOPE">     0</i>
   <i type="int" name="TAUPAR">     1</i>
   <i type="int" name="OMEGAPAR">    -1</i>
   <i name="LAMBDA">      1.00000000</i>
  </separator>
  <separator name="External order field" >
   <i name="OFIELD_KAPPA">      0.00000000</i>
   <v name="OFIELD_K">      0.00000000      0.00000000      0.00000000</v>
   <i name="OFIELD_Q6_NEAR">      0.00000000</i>
   <i name="OFIELD_Q6_FAR">      0.00000000</i>
   <i name="OFIELD_A">      0.00000000</i>
  </separator>
 </parameters>
 <atominfo>
  <atoms>      20 </atoms>
  <types>       3 </types>
  <array name="atoms" >
   <dimension dim="1">ion</dimension>
   <field type="string">element</field>
   <field type="int">atomtype</field>
   <set>
    <rc><c>O </c><c>   1</c></rc>
    <rc><c>O </c><c>   1</c></rc>
    <rc><c>O </c><c>   1</c></rc>
    <rc><c>O </c><c>   1</c></rc>
    <rc><c>O </c><c>   1</c></rc>
    <rc><c>O </c><c>   1</c></rc>
    <rc><c>O </c><c>   1</c></rc>
    <rc><c>O </c><c>   1</c></rc>
    <rc><c>O </c><c>   1</c></rc>
    <rc><c>O </c><c>   1</c></rc>
    <rc><c>O </c><c>   1</c></rc>
    <rc><c>O </c><c>   1</c></rc>
    <rc><c>Sr</c><c>   2</c></rc>
    <rc><c>Sr</c><c>   2</c></rc>
    <rc><c>Sr</c><c>   2</c></rc>
    <rc><c>Sr</c><c>   2</c></rc>
    <rc><c>Ti</c><c>   3</c></rc>
    <rc><c>Ti</c><c>   3</c></rc>
    <rc><c>Ti</c><c>   3</c></rc>
    <rc><c>Ti</c><c>   3</c></rc>
   </set>
  </array>
  <array name="atomtypes" >
   <dimension dim="1">type</dimension>
   <field type="int">atomspertype</field>
   <field type="string">element</field>
   <field>mass</field>
   <field>valence</field>
   <field type="string">pseudopotential</field>
   <set>
    <rc><c>  12</c><c>O </c><c>     16.00000000</c><c>      6.00000000</c><c> PAW_PBE O 08Apr2002                    </c></rc>
    <rc><c>   4</c><c>Sr</c><c>     87.62000000</c><c>     10.00000000</c><c> PAW_PBE Sr_sv 07Sep2000                </c></rc>
    <rc><c>   4</c><c>Ti</c><c>     47.88000000</c><c>      4.00000000</c><c> PAW_PBE Ti 08Apr2002                   </c></rc>
   </set>
  </array>
 </atominfo>
 <structure name="initialpos" >
  <crystal>
   <varray name="basis" >
    <v>       5.58168362       0.00000000       0.00000000 </v>
    <v>       2.79084181       4.83387982       0.00000000 </v>
    <v>       0.00000000       0.00000000      19.97549479 </v>
   </varray>
   <i name="volume">    538.96257656 </i>
   <varray name="rec_basis" >
    <v>       0.17915741      -0.10343658       0.00000000 </v>
    <v>       0.00000000       0.20687316       0.00000000 </v>
    <v>       0.00000000       0.00000000       0.05006134 </v>
   </varray>
  </crystal>
  <varray name="positions" >
   <v>       0.50000000       0.50000000       0.30036803 </v>
   <v>       0.50000000       0.00000000       0.30036803 </v>
   <v>       0.00000000       0.50000000       0.30036803 </v>
   <v>       0.16666667       0.16666667       0.41444344 </v>
   <v>       0.16666667       0.66666667       0.41444344 </v>
   <v>       0.66666667       0.16666667       0.41444344 </v>
   <v>       0.83333333       0.83333333       0.52851885 </v>
   <v>       0.83333333       0.33333333       0.52851885 </v>
   <v>       0.33333333       0.83333333       0.52851885 </v>
   <v>       0.50000000       0.50000000       0.64259426 </v>
   <v>       0.50000000       0.00000000       0.64259426 </v>
   <v>       0.00000000       0.50000000       0.64259426 </v>
   <v>       0.00000000       0.00000000       0.30036803 </v>
   <v>       0.66666667       0.66666667       0.41444344 </v>
   <v>       0.33333333       0.33333333       0.52851885 </v>
   <v>       0.00000000       0.00000000       0.64259426 </v>
   <v>       0.33333333       0.33333333       0.35740574 </v>
   <v>       0.00000000       0.00000000       0.47148115 </v>
   <v>       0.66666667       0.66666667       0.58555656 </v>
   <v>       0.33333333       0.33333333       0.69963197 </v>
  </varray>
 </structure>
 <calculation>
  <scstep>
   <time name="dav">    0.70    0.72</time>
   <time name="total">    0.74    0.79</time>
   <energy>
    <i name="alphaZ">    327.81082936 </i>
    <i name="ewald">  20383.07636469 </i>
    <i name="hartreedc"> -28497.41391894 </i>
    <i name="XCdc">    323.21732455 </i>
    <i name="pawpsdc">   5334.45189010 </i>
    <i name="pawaedc">  -5139.13784255 </i>
    <i name="eentropy">     -0.15525306 </i>
    <i name="bandstr">   -118.07186266 </i>
    <i name="atom">   8937.26825017 </i>
    <i name="e_fr_energy">   1551.04578166 </i>
    <i name="e_wo_entrp">   1551.20103472 </i>
    <i name="e_0_energy">   1551.12340819 </i>
   </energy>
  </scstep>
  <scstep>
   <time name="dav">    0.83    0.84</time>
   <time name="total">    0.83    0.84</time>
   <energy>
    <i name="e_fr_energy">    170.39276537 </i>
    <i name="e_wo_entrp">    170.53523535 </i>
    <i name="e_0_energy">    170.46400036 </i>
   </energy>
  </scstep>
  <scstep>
   <time name="dav">    0.88    0.89</time>
   <time name="total">    0.88    0.89</time>
   <energy>
    <i name="e_fr_energy">   -178.29126930 </i>
    <i name="e_wo_entrp">   -178.29126930 </i>
    <i name="e_0_energy">   -178.29126930 </i>
   </energy>
  </scstep>
  <scstep>
   <time name="dav">    0.86    0.86</time>
   <time name="total">    0.86    0.86</time>
   <energy>
    <i name="e_fr_energy">   -200.02819675 </i>
    <i name="e_wo_entrp">   -200.02819675 </i>
    <i name="e_0_energy">   -200.02819675 </i>
   </energy>
  </scstep>
  <scstep>
   <time name="dav">    1.09    1.10</time>
   <time name="total">    1.13    1.14</time>
   <energy>
    <i name="e_fr_energy">   -201.27781030 </i>
    <i name="e_wo_entrp">   -201.27781030 </i>
    <i name="e_0_energy">   -201.27781030 </i>
   </energy>
  </scstep>
  <scstep>
   <time name="diag">    0.10    0.10</time>
   <time name="diis">    0.48    0.48</time>
   <time name="orth">    0.01    0.02</time>
   <time name="total">    0.67    0.68</time>
   <energy>
    <i name="e_fr_energy">   -181.94352011 </i>
    <i name="e_wo_entrp">   -181.71559661 </i>
    <i name="e_0_energy">   -181.82955836 </i>
   </energy>
  </scstep>
  <scstep>
   <time name="diag">    0.10    0.10</time>
   <time name="diis">    0.43    0.43</time>
   <time name="orth">    0.02    0.02</time>
   <time name="total">    0.63    0.63</time>
   <energy>
    <i name="e_fr_energy">   -167.42424157 </i>
    <i name="e_wo_entrp">   -167.39686177 </i>
    <i name="e_0_energy">   -167.41055167 </i>
   </energy>
  </scstep>
  <scstep>
   <time name="diag">    0.10    0.10</time>
   <time name="diis">    0.48    0.48</time>
   <time name="orth">    0.01    0.02</time>
   <time name="total">    0.67    0.68</time>
   <energy>
    <i name="e_fr_energy">   -159.02698990 </i>
    <i name="e_wo_entrp">   -159.02698990 </i>
    <i name="e_0_energy">   -159.02698990 </i>
   </energy>
  </scstep>
  <scstep>
   <time name="diag">    0.10    0.10</time>
   <time name="diis">    0.44    0.44</time>
   <time name="orth">    0.01    0.02</time>
   <time name="total">    0.63    0.64</time>
   <energy>
    <i name="e_fr_energy">   -152.26711965 </i>
    <i name="e_wo_entrp">   -151.92253458 </i>
    <i name="e_0_energy">   -152.09482711 </i>
   </energy>
  </scstep>
  <scstep>
   <time name="diag">    0.10    0.10</time>
   <time name="diis">    0.56    0.56</time>
   <time name="orth">    0.01    0.02</time>
   <time name="total">    0.75    0.77</time>
   <energy>
    <i name="e_fr_energy">   -150.49058903 </i>
    <i name="e_wo_entrp">   -150.13885960 </i>
    <i name="e_0_energy">   -150.31472432 </i>
   </energy>
  </scstep>
  <scstep>
   <time name="diag">    0.10    0.10</time>
   <time name="diis">    0.55    0.55</time>
   <time name="orth">    0.01    0.02</time>
   <time name="total">    0.74    0.75</time>
   <energy>
    <i name="e_fr_energy">   -150.74994039 </i>
    <i name="e_wo_entrp">   -150.32439038 </i>
    <i name="e_0_energy">   -150.53716539 </i>
   </energy>
  </scstep>
  <scstep>
   <time name="diag">    0.10    0.10</time>
   <time name="diis">    0.56    0.56</time>
   <time name="orth">    0.01    0.02</time>
   <time name="total">    0.75    0.76</time>
   <energy>
    <i name="e_fr_energy">   -154.09208104 </i>
    <i name="e_wo_entrp">   -153.77869473 </i>
    <i name="e_0_energy">   -153.93538788 </i>
   </energy>
  </scstep>
  <scstep>
   <time name="diag">    0.10    0.10</time>
   <time name="diis">    0.56    0.56</time>
   <time name="orth">    0.01    0.02</time>
   <time name="total">    0.75    0.76</time>
   <energy>
    <i name="e_fr_energy">   -154.00926660 </i>
    <i name="e_wo_entrp">   -153.70280751 </i>
    <i name="e_0_energy">   -153.85603705 </i>
   </energy>
  </scstep>
  <scstep>
   <time name="diag">    0.10    0.10</time>
   <time name="diis">    0.42    0.42</time>
   <time name="orth">    0.01    0.02</time>
   <time name="total">    0.61    0.63</time>
   <energy>
    <i name="e_fr_energy">   -150.13610025 </i>
    <i name="e_wo_entrp">   -149.72096889 </i>
    <i name="e_0_energy">   -149.92853457 </i>
   </energy>
  </scstep>
  <scstep>
   <time name="diag">    0.10    0.10</time>
   <time name="diis">    0.49    0.49</time>
   <time name="orth">    0.01    0.02</time>
   <time name="total">    0.69    0.69</time>
   <energy>
    <i name="e_fr_energy">   -148.79282454 </i>
    <i name="e_wo_entrp">   -148.47682104 </i>
    <i name="e_0_energy">   -148.63482279 </i>
   </energy>
  </scstep>
  <scstep>
   <time name="diag">    0.10    0.10</time>
   <time name="diis">    0.56    0.56</time>
   <time name="orth">    0.01    0.02</time>
   <time name="total">    0.76    0.76</time>
   <energy>
    <i name="e_fr_energy">   -148.34261166 </i>
    <i name="e_wo_entrp">   -148.02866816 </i>
    <i name="e_0_energy">   -148.18563991 </i>
   </energy>
  </scstep>
  <scstep>
   <time name="diag">    0.10    0.10</time>
   <time name="diis">    0.43    0.43</time>
   <time name="orth">    0.01    0.02</time>
   <time name="total">    0.63    0.63</time>
   <energy>
    <i name="e_fr_energy">   -148.64309865 </i>
    <i name="e_wo_entrp">   -148.33541819 </i>
    <i name="e_0_energy">   -148.48925842 </i>
   </energy>
  </scstep>
  <scstep>
   <time name="diag">    0.10    0.10</time>
   <time name="diis">    0.44    0.44</time>
   <time name="orth">    0.02    0.02</time>
   <time name="total">    0.63    0.64</time>
   <energy>
    <i name="e_fr_energy">   -148.01665159 </i>
    <i name="e_wo_entrp">   -147.74547274 </i>
    <i name="e_0_energy">   -147.88106217 </i>
   </energy>
  </scstep>
  <scstep>
   <time name="diag">    0.10    0.10</time>
   <time name="diis">    0.46    0.46</time>
   <time name="orth">    0.01    0.02</time>
   <time name="total">    0.65    0.66</time>
   <energy>
    <i name="e_fr_energy">   -147.95083058 </i>
    <i name="e_wo_entrp">   -147.60710320 </i>
    <i name="e_0_energy">   -147.77896689 </i>
   </energy>
  </scstep>
  <scstep>
   <time name="diag">    0.10    0.10</time>
   <time name="diis">    0.41    0.41</time>
   <time name="orth">    0.01    0.02</time>
   <time name="total">    0.61    0.62</time>
   <energy>
    <i name="e_fr_energy">   -147.95458204 </i>
    <i name="e_wo_entrp">   -147.60099524 </i>
    <i name="e_0_energy">   -147.77778864 </i>
   </energy>
  </scstep>
  <scstep>
   <time name="diag">    0.10    0.10</time>
   <time name="diis">    0.42    0.42</time>
   <time name="orth">    0.02    0.02</time>
   <time name="total">    0.62    0.62</time>
   <energy>
    <i name="e_fr_energy">   -147.91151527 </i>
    <i name="e_wo_entrp">   -147.60656410 </i>
    <i name="e_0_energy">   -147.75903969 </i>
   </energy>
  </scstep>
  <scstep>
   <time name="diag">    0.10    0.10</time>
   <time name="diis">    0.48    0.48</time>
   <time name="orth">    0.02    0.02</time>
   <time name="total">    0.68    0.69</time>
   <energy>
    <i name="e_fr_energy">   -147.90872262 </i>
    <i name="e_wo_entrp">   -147.59327288 </i>
    <i name="e_0_energy">   -147.75099775 </i>
   </energy>
  </scstep>
  <scstep>
   <time name="diag">    0.10    0.10</time>
   <time name="diis">    0.45    0.45</time>
   <time name="orth">    0.01    0.02</time>
   <time name="total">    0.64    0.65</time>
   <energy>
    <i name="e_fr_energy">   -147.91867418 </i>
    <i name="e_wo_entrp">   -147.56833094 </i>
    <i name="e_0_energy">   -147.74350256 </i>
   </energy>
  </scstep>
  <scstep>
   <time name="diag">    0.10    0.10</time>
   <time name="diis">    0.42    0.42</time>
   <time name="orth">    0.01    0.02</time>
   <time name="total">    0.62    0.63</time>
   <energy>
    <i name="e_fr_energy">   -147.90778242 </i>
    <i name="e_wo_entrp">   -147.60449463 </i>
    <i name="e_0_energy">   -147.75613853 </i>
   </energy>
  </scstep>
  <scstep>
   <time name="diag">    0.10    0.10</time>
   <time name="diis">    0.48    0.48</time>
   <time name="orth">    0.02    0.02</time>
   <time name="total">    0.68    0.68</time>
   <energy>
    <i name="e_fr_energy">   -147.90591797 </i>
    <i name="e_wo_entrp">   -147.60322260 </i>
    <i name="e_0_energy">   -147.75457028 </i>
   </energy>
  </scstep>
  <scstep>
   <time name="diag">    0.10    0.10</time>
   <time name="diis">    0.47    0.47</time>
   <time name="orth">    0.02    0.02</time>
   <time name="total">    0.67    0.68</time>
   <energy>
    <i name="e_fr_energy">   -147.90775005 </i>
    <i name="e_wo_entrp">   -147.61420791 </i>
    <i name="e_0_energy">   -147.76097898 </i>
   </energy>
  </scstep>
  <scstep>
   <time name="diag">    0.10    0.10</time>
   <time name="diis">    0.48    0.48</time>
   <time name="orth">    0.01    0.02</time>
   <time name="total">    0.68    0.68</time>
   <energy>
    <i name="e_fr_energy">   -147.90508684 </i>
    <i name="e_wo_entrp">   -147.60673843 </i>
    <i name="e_0_energy">   -147.75591264 </i>
   </energy>
  </scstep>
  <scstep>
   <time name="diag">    0.10    0.10</time>
   <time name="diis">    0.50    0.50</time>
   <time name="orth">    0.01    0.02</time>
   <time name="total">    0.69    0.71</time>
   <energy>
    <i name="e_fr_energy">   -147.90186804 </i>
    <i name="e_wo_entrp">   -147.58153597 </i>
    <i name="e_0_energy">   -147.74170201 </i>
   </energy>
  </scstep>
  <scstep>
   <time name="diag">    0.10    0.10</time>
   <time name="diis">    0.42    0.43</time>
   <time name="orth">    0.01    0.02</time>
   <time name="total">    0.62    0.63</time>
   <energy>
    <i name="e_fr_energy">   -147.90121328 </i>
    <i name="e_wo_entrp">   -147.58042186 </i>
    <i name="e_0_energy">   -147.74081757 </i>
   </energy>
  </scstep>
  <scstep>
   <time name="diag">    0.10    0.10</time>
   <time name="diis">    0.42    0.42</time>
   <time name="orth">    0.02    0.02</time>
   <time name="total">    0.62    0.65</time>
   <energy>
    <i name="e_fr_energy">   -147.90105505 </i>
    <i name="e_wo_entrp">   -147.58030578 </i>
    <i name="e_0_energy">   -147.74068042 </i>
   </energy>
  </scstep>
  <scstep>
   <time name="diag">    0.10    0.10</time>
   <time name="diis">    0.41    0.41</time>
   <time name="orth">    0.02    0.02</time>
   <time name="total">    0.61    0.61</time>
   <energy>
    <i name="e_fr_energy">   -147.90128231 </i>
    <i name="e_wo_entrp">   -147.57729790 </i>
    <i name="e_0_energy">   -147.73929011 </i>
   </energy>
  </scstep>
  <scstep>
   <time name="diag">    0.10    0.10</time>
   <time name="diis">    0.34    0.34</time>
   <time name="orth">    0.02    0.02</time>
   <time name="total">    0.54    0.55</time>
   <energy>
    <i name="e_fr_energy">   -147.90136081 </i>
    <i name="e_wo_entrp">   -147.58064276 </i>
    <i name="e_0_energy">   -147.74100179 </i>
   </energy>
  </scstep>
  <scstep>
   <time name="diag">    0.10    0.10</time>
   <time name="diis">    0.27    0.27</time>
   <time name="orth">    0.02    0.02</time>
   <time name="total">    0.48    0.48</time>
   <energy>
    <i name="e_fr_energy">   -147.90142713 </i>
    <i name="e_wo_entrp">   -147.58095530 </i>
    <i name="e_0_energy">   -147.74119121 </i>
   </energy>
  </scstep>
  <scstep>
   <time name="diag">    0.10    0.10</time>
   <time name="diis">    0.26    0.26</time>
   <time name="orth">    0.02    0.02</time>
   <time name="total">    0.46    0.47</time>
   <energy>
    <i name="e_fr_energy">   -147.90144550 </i>
    <i name="e_wo_entrp">   -147.58128229 </i>
    <i name="e_0_energy">   -147.74136389 </i>
   </energy>
  </scstep>
  <scstep>
   <time name="diag">    0.10    0.10</time>
   <time name="diis">    0.26    0.26</time>
   <time name="orth">    0.02    0.02</time>
   <time name="total">    0.41    0.42</time>
   <energy>
    <i name="alphaZ">    327.81082936 </i>
    <i name="ewald">  20383.07636469 </i>
    <i name="hartreedc"> -28911.56752612 </i>
    <i name="XCdc">    337.99271939 </i>
    <i name="pawpsdc">   6084.10821325 </i>
    <i name="pawaedc">  -5913.82934594 </i>
    <i name="eentropy">     -0.32104972 </i>
    <i name="bandstr">  -1392.43989068 </i>
    <i name="atom">   8937.26825017 </i>
    <i name="e_fr_energy">   -147.90143561 </i>
    <i name="e_wo_entrp">   -147.58038588 </i>
    <i name="e_0_energy">   -147.74091075 </i>
   </energy>
  </scstep>
  <structure>
   <crystal>
    <varray name="basis" >
     <v>       5.58168362       0.00000000       0.00000000 </v>
     <v>       2.79084181       4.83387982       0.00000000 </v>
     <v>       0.00000000       0.00000000      19.97549479 </v>
    </varray>
    <i name="volume">    538.96257656 </i>
    <varray name="rec_basis" >
     <v>       0.17915741      -0.10343658       0.00000000 </v>
     <v>       0.00000000       0.20687316       0.00000000 </v>
     <v>       0.00000000       0.00000000       0.05006134 </v>
    </varray>
   </crystal>
   <varray name="positions" >
    <v>       0.50000000       0.50000000       0.30036803 </v>
    <v>       0.50000000       0.00000000       0.30036803 </v>
    <v>       0.00000000       0.50000000       0.30036803 </v>
    <v>       0.16666667       0.16666667       0.41444344 </v>
    <v>       0.16666667       0.66666667       0.41444344 </v>
    <v>       0.66666667       0.16666667       0.41444344 </v>
    <v>       0.83333333       0.83333333       0.52851885 </v>
    <v>       0.83333333       0.33333333       0.52851885 </v>
    <v>       0.33333333       0.83333333       0.52851885 </v>
    <v>       0.50000000       0.50000000       0.64259426 </v>
    <v>       0.50000000       0.00000000       0.64259426 </v>
    <v>       0.00000000       0.50000000       0.64259426 </v>
    <v>       0.00000000       0.00000000       0.30036803 </v>
    <v>       0.66666667       0.66666667       0.41444344 </v>
    <v>       0.33333333       0.33333333       0.52851885 </v>
    <v>       0.00000000       0.00000000       0.64259426 </v>
    <v>       0.33333333       0.33333333       0.35740574 </v>
    <v>       0.00000000       0.00000000       0.47148115 </v>
    <v>       0.66666667       0.66666667       0.58555656 </v>
    <v>       0.33333333       0.33333333       0.69963197 </v>
   </varray>
  </structure>
  <varray name="forces" >
   <v>      -0.71134921      -0.41069766       0.72004026 </v>
   <v>       0.00000000       0.82139532       0.72004026 </v>
   <v>       0.71134921      -0.41069766       0.72004026 </v>
   <v>      -0.83690237      -0.48318581       1.35168771 </v>
   <v>       0.00000000       0.96637162       1.35168771 </v>
   <v>       0.83690237      -0.48318581       1.35168771 </v>
   <v>      -0.52342248      -0.30219811       1.34835247 </v>
   <v>       0.00000000       0.60439622       1.34835247 </v>
   <v>       0.52342248      -0.30219811       1.34835247 </v>
   <v>      -1.62482907      -0.93809550       2.47107561 </v>
   <v>       0.00000000       1.87619100       2.47107561 </v>
   <v>       1.62482907      -0.93809550       2.47107561 </v>
   <v>       0.00000000      -0.00000000      -0.24620023 </v>
   <v>       0.00000000      -0.00000000      -1.25017208 </v>
   <v>       0.00000000      -0.00000000      -0.94215080 </v>
   <v>       0.00000000      -0.00000000      -1.55250190 </v>
   <v>       0.00000000      -0.00000000      -3.31479968 </v>
   <v>       0.00000000      -0.00000000      -2.90930610 </v>
   <v>       0.00000000      -0.00000000      -2.19307228 </v>
   <v>       0.00000000      -0.00000000      -5.26526510 </v>
  </varray>
  <varray name="stress" >
   <v>     -14.52246408       0.00000000       0.00000000 </v>
   <v>       0.00000000     -14.52246408       0.00000000 </v>
   <v>       0.00000000       0.00000000     -23.49743930 </v>
  </varray>
  <energy>
   <i name="e_fr_energy">   -147.90143561 </i>
   <i name="e_wo_entrp">   -147.74091075 </i>
   <i name="e_0_energy">     -0.32104972 </i>
  </energy>
  <time name="totalsc">   25.23   25.54</time>
 </calculation>
 <calculation>
  <scstep>
   <time name="dav">    0.67    0.68</time>
   <time name="total">    0.75    0.80</time>
   <energy>
    <i name="alphaZ">    327.81082936 </i>
    <i name="ewald">  20438.96461928 </i>
    <i name="hartreedc"> -28939.73853264 </i>
    <i name="XCdc">    338.34162455 </i>
    <i name="pawpsdc">   6084.11173101 </i>
    <i name="pawaedc">  -5913.83308677 </i>
    <i name="eentropy">     -0.06607585 </i>
    <i name="bandstr">  -1420.34364997 </i>
    <i name="atom">   8937.26825017 </i>
    <i name="e_fr_energy">   -147.48429086 </i>
    <i name="e_wo_entrp">   -147.41821500 </i>
    <i name="e_0_energy">   -147.45125293 </i>
   </energy>
  </scstep>
  <scstep>
   <time name="diag">    0.10    0.10</time>
   <time name="diis">    0.41    0.42</time>
   <time name="orth">    0.02    0.02</time>
   <time name="total">    0.61    0.62</time>
   <energy>
    <i name="e_fr_energy">   -152.47640937 </i>
    <i name="e_wo_entrp">   -152.34320542 </i>
    <i name="e_0_energy">   -152.40980739 </i>
   </energy>
  </scstep>
  <scstep>
   <time name="diag">    0.10    0.10</time>
   <time name="diis">    0.48    0.48</time>
   <time name="orth">    0.01    0.02</time>
   <time name="total">    0.68    0.68</time>
   <energy>
    <i name="e_fr_energy">   -153.55635502 </i>
    <i name="e_wo_entrp">   -153.55603017 </i>
    <i name="e_0_energy">   -153.55619259 </i>
   </energy>
  </scstep>
  <scstep>
   <time name="diag">    0.10    0.10</time>
   <time name="diis">    0.42    0.42</time>
   <time name="orth">    0.01    0.02</time>
   <time name="total">    0.61    0.63</time>
   <energy>
    <i name="e_fr_energy">   -153.30967894 </i>
    <i name="e_wo_entrp">   -153.30967888 </i>
    <i name="e_0_energy">   -153.30967891 </i>
   </energy>
  </scstep>
  <scstep>
   <time name="diag">    0.10    0.10</time>
   <time name="diis">    0.41    0.41</time>
   <time name="orth">    0.02    0.02</time>
   <time name="total">    0.61    0.61</time>
   <energy>
    <i name="e_fr_energy">   -152.88565799 </i>
    <i name="e_wo_entrp">   -152.88565791 </i>
    <i name="e_0_energy">   -152.88565795 </i>
   </energy>
  </scstep>
  <scstep>
   <time name="diag">    0.10    0.10</time>
   <time name="diis">    0.44    0.44</time>
   <time name="orth">    0.02    0.02</time>
   <time name="total">    0.63    0.64</time>
   <energy>
    <i name="e_fr_energy">   -152.55529768 </i>
    <i name="e_wo_entrp">   -152.55529761 </i>
    <i name="e_0_energy">   -152.55529764 </i>
   </energy>
  </scstep>
  <scstep>
   <time name="diag">    0.10    0.10</time>
   <time name="diis">    0.44    0.44</time>
   <time name="orth">    0.01    0.02</time>
   <time name="total">    0.64    0.64</time>
   <energy>
    <i name="e_fr_energy">   -152.24125081 </i>
    <i name="e_wo_entrp">   -152.24125031 </i>
    <i name="e_0_energy">   -152.24125056 </i>
   </energy>
  </scstep>
  <scstep>
   <time name="diag">    0.10    0.10</time>
   <time name="diis">    0.46    0.46</time>
   <time name="orth">    0.01    0.02</time>
   <time name="total">    0.65    0.66</time>
   <energy>
    <i name="e_fr_energy">   -152.18987825 </i>
    <i name="e_wo_entrp">   -152.18987743 </i>
    <i name="e_0_energy">   -152.18987784 </i>
   </energy>
  </scstep>
  <scstep>
   <time name="diag">    0.10    0.10</time>
   <time name="diis">    0.50    0.50</time>
   <time name="orth">    0.02    0.02</time>
   <time name="total">    0.70    0.70</time>
   <energy>
    <i name="e_fr_energy">   -151.95376018 </i>
    <i name="e_wo_entrp">   -151.95374402 </i>
    <i name="e_0_energy">   -151.95375210 </i>
   </energy>
  </scstep>
  <scstep>
   <time name="diag">    0.10    0.10</time>
   <time name="diis">    0.48    0.48</time>
   <time name="orth">    0.01    0.02</time>
   <time name="total">    0.68    0.68</time>
   <energy>
    <i name="e_fr_energy">   -151.80238939 </i>
    <i name="e_wo_entrp">   -151.80229114 </i>
    <i name="e_0_energy">   -151.80234027 </i>
   </energy>
  </scstep>
  <scstep>
   <time name="diag">    0.10    0.10</time>
   <time name="diis">    0.53    0.53</time>
   <time name="orth">    0.01    0.02</time>
   <time name="total">    0.73    0.73</time>
   <energy>
    <i name="e_fr_energy">   -151.64832800 </i>
    <i name="e_wo_entrp">   -151.64781321 </i>
    <i name="e_0_energy">   -151.64807060 </i>
   </energy>
  </scstep>
  <scstep>
   <time name="diag">    0.10    0.10</time>
   <time name="diis">    0.46    0.46</time>
   <time name="orth">    0.01    0.02</time>
   <time name="total">    0.65    0.66</time>
   <energy>
    <i name="e_fr_energy">   -151.36385375 </i>
    <i name="e_wo_entrp">   -151.35762627 </i>
    <i name="e_0_energy">   -151.36074001 </i>
   </energy>
  </scstep>
  <scstep>
   <time name="diag">    0.10    0.10</time>
   <time name="diis">    0.46    0.46</time>
   <time name="orth">    0.02    0.02</time>
   <time name="total">    0.66    0.66</time>
   <energy>
    <i name="e_fr_energy">   -150.92084438 </i>
    <i name="e_wo_entrp">   -150.84629292 </i>
    <i name="e_0_energy">   -150.88356865 </i>
   </energy>
  </scstep>
  <scstep>
   <time name="diag">    0.10    0.10</time>
   <time name="diis">    0.58    0.58</time>
   <time name="orth">    0.01    0.02</time>
   <time name="total">    0.78    0.79</time>
   <energy>
    <i name="e_fr_energy">   -150.93047042 </i>
    <i name="e_wo_entrp">   -150.85811418 </i>
    <i name="e_0_energy">   -150.89429230 </i>
   </energy>
  </scstep>
  <scstep>
   <time name="diag">    0.10    0.10</time>
   <time name="diis">    0.56    0.56</time>
   <time name="orth">    0.01    0.02</time>
   <time name="total">    0.76    0.76</time>
   <energy>
    <i name="e_fr_energy">   -150.89151898 </i>
    <i name="e_wo_entrp">   -150.80857424 </i>
    <i name="e_0_energy">   -150.85004661 </i>
   </energy>
  </scstep>
  <scstep>
   <time name="diag">    0.10    0.10</time>
   <time name="diis">    0.53    0.53</time>
   <time name="orth">    0.01    0.02</time>
   <time name="total">    0.73    0.74</time>
   <energy>
    <i name="e_fr_energy">   -150.82144589 </i>
    <i name="e_wo_entrp">   -150.71477667 </i>
    <i name="e_0_energy">   -150.76811128 </i>
   </energy>
  </scstep>
  <scstep>
   <time name="diag">    0.10    0.10</time>
   <time name="diis">    0.52    0.52</time>
   <time name="orth">    0.01    0.02</time>
   <time name="total">    0.72    0.72</time>
   <energy>
    <i name="e_fr_energy">   -150.77623456 </i>
    <i name="e_wo_entrp">   -150.66187559 </i>
    <i name="e_0_energy">   -150.71905508 </i>
   </energy>
  </scstep>
  <scstep>
   <time name="diag">    0.10    0.10</time>
   <time name="diis">    0.46    0.46</time>
   <time name="orth">    0.02    0.02</time>
   <time name="total">    0.66    0.67</time>
   <energy>
    <i name="e_fr_energy">   -150.68870186 </i>
    <i name="e_wo_entrp">   -150.53636196 </i>
    <i name="e_0_energy">   -150.61253191 </i>
   </energy>
  </scstep>
  <scstep>
   <time name="diag">    0.10    0.10</time>
   <time name="diis">    0.51    0.51</time>
   <time name="orth">    0.02    0.02</time>
   <time name="total">    0.71    0.71</time>
   <energy>
    <i name="e_fr_energy">   -150.69105284 </i>
    <i name="e_wo_entrp">   -150.55579272 </i>
    <i name="e_0_energy">   -150.62342278 </i>
   </energy>
  </scstep>
  <scstep>
   <time name="diag">    0.10    0.10</time>
   <time name="diis">    0.46    0.46</time>
   <time name="orth">    0.02    0.02</time>
   <time name="total">    0.66    0.66</time>
   <energy>
    <i name="e_fr_energy">   -150.65769687 </i>
    <i name="e_wo_entrp">   -150.52586882 </i>
    <i name="e_0_energy">   -150.59178284 </i>
   </energy>
  </scstep>
  <scstep>
   <time name="diag">    0.10    0.10</time>
   <time name="diis">    0.44    0.44</time>
   <time name="orth">    0.02    0.02</time>
   <time name="total">    0.64    0.65</time>
   <energy>
    <i name="e_fr_energy">   -150.62850575 </i>
    <i name="e_wo_entrp">   -150.50606382 </i>
    <i name="e_0_energy">   -150.56728479 </i>
   </energy>
  </scstep>
  <scstep>
   <time name="diag">    0.10    0.10</time>
   <time name="diis">    0.50    0.50</time>
   <time name="orth">    0.01    0.02</time>
   <time name="total">    0.70    0.70</time>
   <energy>
    <i name="e_fr_energy">   -150.62597848 </i>
    <i name="e_wo_entrp">   -150.50979832 </i>
    <i name="e_0_energy">   -150.56788840 </i>
   </energy>
  </scstep>
  <scstep>
   <time name="diag">    0.10    0.10</time>
   <time name="diis">    0.50    0.50</time>
   <time name="orth">    0.01    0.02</time>
   <time name="total">    0.70    0.70</time>
   <energy>
    <i name="e_fr_energy">   -150.59349088 </i>
    <i name="e_wo_entrp">   -150.46379698 </i>
    <i name="e_0_energy">   -150.52864393 </i>
   </energy>
  </scstep>
  <scstep>
   <time name="diag">    0.10    0.10</time>
   <time name="diis">    0.50    0.50</time>
   <time name="orth">    0.02    0.02</time>
   <time name="total">    0.71    0.72</time>
   <energy>
    <i name="e_fr_energy">   -150.58175544 </i>
    <i name="e_wo_entrp">   -150.44804844 </i>
    <i name="e_0_energy">   -150.51490194 </i>
   </energy>
  </scstep>
  <scstep>
   <time name="diag">    0.10    0.10</time>
   <time name="diis">    0.47    0.47</time>
   <time name="orth">    0.01    0.02</time>
   <time name="total">    0.67    0.67</time>
   <energy>
    <i name="e_fr_energy">   -150.56907454 </i>
    <i name="e_wo_entrp">   -150.43420617 </i>
    <i name="e_0_energy">   -150.50164035 </i>
   </energy>
  </scstep>
  <scstep>
   <time name="diag">    0.10    0.10</time>
   <time name="diis">    0.46    0.46</time>
   <time name="orth">    0.02    0.02</time>
   <time name="total">    0.66    0.67</time>
   <energy>
    <i name="e_fr_energy">   -150.54808708 </i>
    <i name="e_wo_entrp">   -150.35473779 </i>
    <i name="e_0_energy">   -150.45141243 </i>
   </energy>
  </scstep>
  <scstep>
   <time name="diag">    0.10    0.10</time>
   <time name="diis">    0.55    0.55</time>
   <time name="orth">    0.02    0.02</time>
   <time name="total">    0.75    0.75</time>
   <energy>
    <i name="e_fr_energy">   -150.54942229 </i>
    <i name="e_wo_entrp">   -150.35463358 </i>
    <i name="e_0_energy">   -150.45202793 </i>
   </energy>
  </scstep>
  <scstep>
   <time name="diag">    0.10    0.10</time>
   <time name="diis">    0.47    0.47</time>
   <time name="orth">    0.02    0.02</time>
   <time name="total">    0.67    0.68</time>
   <energy>
    <i name="e_fr_energy">   -150.53789600 </i>
    <i name="e_wo_entrp">   -150.35208451 </i>
    <i name="e_0_energy">   -150.44499026 </i>
   </energy>
  </scstep>
  <scstep>
   <time name="diag">    0.10    0.10</time>
   <time name="diis">    0.47    0.47</time>
   <time name="orth">    0.01    0.02</time>
   <time name="total">    0.68    0.68</time>
   <energy>
    <i name="e_fr_energy">   -150.53339604 </i>
    <i name="e_wo_entrp">   -150.37740060 </i>
    <i name="e_0_energy">   -150.45539832 </i>
   </energy>
  </scstep>
  <scstep>
   <time name="diag">    0.10    0.10</time>
   <time name="diis">    0.43    0.43</time>
   <time name="orth">    0.01    0.02</time>
   <time name="total">    0.63    0.64</time>
   <energy>
    <i name="e_fr_energy">   -150.53222897 </i>
    <i name="e_wo_entrp">   -150.36495199 </i>
    <i name="e_0_energy">   -150.44859048 </i>
   </energy>
  </scstep>
  <scstep>
   <time name="diag">    0.10    0.10</time>
   <time name="diis">    0.45    0.45</time>
   <time name="orth">    0.01    0.02</time>
   <time name="total">    0.65    0.65</time>
   <energy>
    <i name="e_fr_energy">   -150.53151198 </i>
    <i name="e_wo_entrp">   -150.36834061 </i>
    <i name="e_0_energy">   -150.44992630 </i>
   </energy>
  </scstep>
  <scstep>
   <time name="diag">    0.10    0.10</time>
   <time name="diis">    0.45    0.45</time>
   <time name="orth">    0.01    0.02</time>
   <time name="total">    0.65    0.66</time>
   <energy>
    <i name="e_fr_energy">   -150.53080945 </i>
    <i name="e_wo_entrp">   -150.36217108 </i>
    <i name="e_0_energy">   -150.44649026 </i>
   </energy>
  </scstep>
  <scstep>
   <time name="diag">    0.10    0.10</time>
   <time name="diis">    0.47    0.47</time>
   <time name="orth">    0.02    0.02</time>
   <time name="total">    0.67    0.67</time>
   <energy>
    <i name="e_fr_energy">   -150.53065387 </i>
    <i name="e_wo_entrp">   -150.36400959 </i>
    <i name="e_0_energy">   -150.44733173 </i>
   </energy>
  </scstep>
  <scstep>
   <time name="diag">    0.10    0.10</time>
   <time name="diis">    0.44    0.44</time>
   <time name="orth">    0.01    0.02</time>
   <time name="total">    0.65    0.66</time>
   <energy>
    <i name="e_fr_energy">   -150.53066014 </i>
    <i name="e_wo_entrp">   -150.36315304 </i>
    <i name="e_0_energy">   -150.44690659 </i>
   </energy>
  </scstep>
  <scstep>
   <time name="diag">    0.10    0.10</time>
   <time name="diis">    0.33    0.33</time>
   <time name="orth">    0.02    0.02</time>
   <time name="total">    0.48    0.48</time>
   <energy>
    <i name="alphaZ">    327.81082936 </i>
    <i name="ewald">  20438.96461928 </i>
    <i name="hartreedc"> -28944.98772634 </i>
    <i name="XCdc">    339.47100180 </i>
    <i name="pawpsdc">   6263.43540720 </i>
    <i name="pawaedc">  -6094.44337200 </i>
    <i name="eentropy">     -0.16655641 </i>
    <i name="bandstr">  -1417.88311973 </i>
    <i name="atom">   8937.26825017 </i>
    <i name="e_fr_energy">   -150.53066666 </i>
    <i name="e_wo_entrp">   -150.36411025 </i>
    <i name="e_0_energy">   -150.44738846 </i>
   </energy>
  </scstep>
  <structure>
   <crystal>
    <varray name="basis" >
     <v>       5.58168362       0.00000000       0.00000000 </v>
     <v>       2.79084181       4.83387982       0.00000000 </v>
     <v>       0.00000000       0.00000000      19.97549479 </v>
    </varray>
    <i name="volume">    538.96257656 </i>
    <varray name="rec_basis" >
     <v>       0.17915741      -0.10343658       0.00000000 </v>
     <v>       0.00000000       0.20687316       0.00000000 </v>
     <v>       0.00000000       0.00000000       0.05006134 </v>
    </varray>
   </crystal>
   <varray name="positions" >
    <v>       0.49590119       0.49590119       0.30210699 </v>
    <v>       0.49590119       0.00819762       0.30210699 </v>
    <v>       0.00819762       0.49590119       0.30210699 </v>
    <v>       0.16184442       0.16184442       0.41770789 </v>
    <v>       0.16184442       0.67631116       0.41770789 </v>
    <v>       0.67631116       0.16184442       0.41770789 </v>
    <v>       0.83031736       0.83031736       0.53177525 </v>
    <v>       0.83031736       0.33936527       0.53177525 </v>
    <v>       0.33936527       0.83031736       0.53177525 </v>
    <v>       0.49063770       0.49063770       0.64856214 </v>
    <v>       0.49063770       0.01872459       0.64856214 </v>
    <v>       0.01872459       0.49063770       0.64856214 </v>
    <v>       0.00000000      -0.00000000       0.29977343 </v>
    <v>       0.66666667       0.66666667       0.41142416 </v>
    <v>       0.33333333       0.33333333       0.52624347 </v>
    <v>       0.00000000      -0.00000000       0.63884483 </v>
    <v>       0.33333333       0.33333333       0.34940019 </v>
    <v>       0.00000000      -0.00000000       0.46445491 </v>
    <v>       0.66666667       0.66666667       0.58026009 </v>
    <v>       0.33333333       0.33333333       0.68691587 </v>
   </varray>
  </structure>
  <varray name="forces" >
   <v>       0.37089594       0.21413687       0.44353044 </v>
   <v>      -0.00000000      -0.42827374       0.44353044 </v>
   <v>      -0.37089594       0.21413687       0.44353044 </v>
   <v>       0.73719109       0.42561748       0.54470270 </v>
   <v>       0.00000000      -0.85123495       0.54470270 </v>
   <v>      -0.73719109       0.42561748       0.54470270 </v>
   <v>       0.01903833       0.01099179       1.30123347 </v>
   <v>       0.00000000      -0.02198357       1.30123347 </v>
   <v>      -0.01903833       0.01099179       1.30123347 </v>
   <v>       3.54087377       2.04432442      -1.23604202 </v>
   <v>      -0.00000000      -4.08864884      -1.23604202 </v>
   <v>      -3.54087377       2.04432442      -1.23604202 </v>
   <v>      -0.00000000       0.00000000      -0.50402246 </v>
   <v>       0.00000000      -0.00000000      -1.81429964 </v>
   <v>      -0.00000000      -0.00000000      -1.60169276 </v>
   <v>      -0.00000000      -0.00000000      -1.04378410 </v>
   <v>      -0.00000000      -0.00000000      -1.56989285 </v>
   <v>       0.00000000       0.00000000      -0.59455616 </v>
   <v>      -0.00000000       0.00000000      -0.84329469 </v>
   <v>       0.00000000      -0.00000000       4.81126888 </v>
  </varray>
  <varray name="stress" >
   <v>      39.73905674       0.00000000       0.00000000 </v>
   <v>       0.00000000      39.73905674      -0.00000000 </v>
   <v>       0.00000000       0.00000000      19.75901281 </v>
  </varray>
  <energy>
   <i name="e_fr_energy">   -150.53066666 </i>
   <i name="e_wo_entrp">   -150.44738846 </i>
   <i name="e_0_energy">     -0.16655641 </i>
  </energy>
  <time name="totalsc">   24.42   24.65</time>
 </calculation>
 <calculation>
  <scstep>
   <time name="dav">    0.68    0.68</time>
   <time name="total">    0.76    0.76</time>
   <energy>
    <i name="alphaZ">    327.81082936 </i>
    <i name="ewald">  20429.88203503 </i>
    <i name="hartreedc"> -28945.19122554 </i>
    <i name="XCdc">    339.17067958 </i>
    <i name="pawpsdc">   6263.42667660 </i>
    <i name="pawaedc">  -6094.43297162 </i>
    <i name="eentropy">     -0.09849081 </i>
    <i name="bandstr">  -1408.63656084 </i>
    <i name="atom">   8937.26825017 </i>
    <i name="e_fr_energy">   -150.80077806 </i>
    <i name="e_wo_entrp">   -150.70228725 </i>
    <i name="e_0_energy">   -150.75153266 </i>
   </energy>
  </scstep>
  <scstep>
   <time name="diag">    0.10    0.10</time>
   <time name="diis">    0.45    0.45</time>
   <time name="orth">    0.02    0.02</time>
   <time name="total">    0.66    0.66</time>
   <energy>
    <i name="e_fr_energy">   -167.25521331 </i>
    <i name="e_wo_entrp">   -167.08294805 </i>
    <i name="e_0_energy">   -167.16908068 </i>
   </energy>
  </scstep>
  <scstep>
   <time name="diag">    0.10    0.10</time>
   <time name="diis">    0.52    0.52</time>
   <time name="orth">    0.02    0.02</time>
   <time name="total">    0.73    0.73</time>
   <energy>
    <i name="e_fr_energy">   -165.89824589 </i>
    <i name="e_wo_entrp">   -165.74796630 </i>
    <i name="e_0_energy">   -165.82310610 </i>
   </energy>
  </scstep>
  <scstep>
   <time name="diag">    0.10    0.10</time>
   <time name="diis">    0.54    0.54</time>
   <time name="orth">    0.02    0.02</time>
   <time name="total">    0.75    0.76</time>
   <energy>
    <i name="e_fr_energy">   -173.96141849 </i>
    <i name="e_wo_entrp">   -173.75574897 </i>
    <i name="e_0_energy">   -173.85858373 </i>
   </energy>
  </scstep>
  <scstep>
   <time name="diag">    0.10    0.10</time>
   <time name="diis">    0.57    0.57</time>
   <time name="orth">    0.01    0.02</time>
   <time name="total">    0.78    0.78</time>
   <energy>
    <i name="e_fr_energy">   -174.91262720 </i>
    <i name="e_wo_entrp">   -174.75161380 </i>
    <i name="e_0_energy">   -174.83212050 </i>
   </energy>
  </scstep>
  <scstep>
   <time name="diag">    0.10    0.10</time>
   <time name="diis">    0.66    0.66</time>
   <time name="orth">    0.01    0.02</time>
   <time name="total">    0.86    0.87</time>
   <energy>
    <i name="e_fr_energy">   -174.58490537 </i>
    <i name="e_wo_entrp">   -174.40293878 </i>
    <i name="e_0_energy">   -174.49392208 </i>
   </energy>
  </scstep>
  <scstep>
   <time name="diag">    0.10    0.10</time>
   <time name="diis">    0.48    0.48</time>
   <time name="orth">    0.02    0.02</time>
   <time name="total">    0.69    0.69</time>
   <energy>
    <i name="e_fr_energy">   -167.39219859 </i>
    <i name="e_wo_entrp">   -167.22705625 </i>
    <i name="e_0_energy">   -167.30962742 </i>
   </energy>
  </scstep>
  <scstep>
   <time name="diag">    0.10    0.10</time>
   <time name="diis">    0.46    0.46</time>
   <time name="orth">    0.02    0.02</time>
   <time name="total">    0.67    0.83</time>
   <energy>
    <i name="e_fr_energy">   -158.53070728 </i>
    <i name="e_wo_entrp">   -158.53070728 </i>
    <i name="e_0_energy">   -158.53070728 </i>
   </energy>
  </scstep>
  <scstep>
   <time name="diag">    0.10    0.10</time>
   <time name="diis">    0.50    0.50</time>
   <time name="orth">    0.02    0.02</time>
   <time name="total">    0.71    0.71</time>
   <energy>
    <i name="e_fr_energy">   -160.12983976 </i>
    <i name="e_wo_entrp">   -160.12983976 </i>
    <i name="e_0_energy">   -160.12983976 </i>
   </energy>
  </scstep>
  <scstep>
   <time name="diag">    0.10    0.10</time>
   <time name="diis">    0.48    0.48</time>
   <time name="orth">    0.02    0.02</time>
   <time name="total">    0.69    0.70</time>
   <energy>
    <i name="e_fr_energy">   -166.48526350 </i>
    <i name="e_wo_entrp">   -166.26043492 </i>
    <i name="e_0_energy">   -166.37284921 </i>
   </energy>
  </scstep>
  <scstep>
   <time name="diag">    0.10    0.10</time>
   <time name="diis">    0.46    0.46</time>
   <time name="orth">    0.02    0.02</time>
   <time name="total">    0.67    0.67</time>
   <energy>
    <i name="e_fr_energy">   -164.46446663 </i>
    <i name="e_wo_entrp">   -164.17627513 </i>
    <i name="e_0_energy">   -164.32037088 </i>
   </energy>
  </scstep>
  <scstep>
   <time name="diag">    0.10    0.10</time>
   <time name="diis">    0.48    0.48</time>
   <time name="orth">    0.02    0.02</time>
   <time name="total">    0.69    0.70</time>
   <energy>
    <i name="e_fr_energy">   -163.51549336 </i>
    <i name="e_wo_entrp">   -163.23539379 </i>
    <i name="e_0_energy">   -163.37544357 </i>
   </energy>
  </scstep>
  <scstep>
   <time name="diag">    0.10    0.10</time>
   <time name="diis">    0.44    0.44</time>
   <time name="orth">    0.02    0.02</time>
   <time name="total">    0.65    0.66</time>
   <energy>
    <i name="e_fr_energy">   -157.63845034 </i>
    <i name="e_wo_entrp">   -157.63845034 </i>
    <i name="e_0_energy">   -157.63845034 </i>
   </energy>
  </scstep>
  <scstep>
   <time name="diag">    0.10    0.10</time>
   <time name="diis">    0.49    0.49</time>
   <time name="orth">    0.01    0.02</time>
   <time name="total">    0.70    0.71</time>
   <energy>
    <i name="e_fr_energy">   -156.59419482 </i>
    <i name="e_wo_entrp">   -156.59419482 </i>
    <i name="e_0_energy">   -156.59419482 </i>
   </energy>
  </scstep>
  <scstep>
   <time name="diag">    0.10    0.10</time>
   <time name="diis">    0.57    0.57</time>
   <time name="orth">    0.02    0.02</time>
   <time name="total">    0.78    0.78</time>
   <energy>
    <i name="e_fr_energy">   -156.30355140 </i>
    <i name="e_wo_entrp">   -156.30355140 </i>
    <i name="e_0_energy">   -156.30355140 </i>
   </energy>
  </scstep>
  <scstep>
   <time name="diag">    0.10    0.10</time>
   <time name="diis">    0.52    0.52</time>
   <time name="orth">    0.02    0.02</time>
   <time name="total">    0.72    0.74</time>
   <energy>
    <i name="e_fr_energy">   -155.42734155 </i>
    <i name="e_wo_entrp">   -155.42734155 </i>
    <i name="e_0_energy">   -155.42734155 </i>
   </energy>
  </scstep>
  <scstep>
   <time name="diag">    0.10    0.10</time>
   <time name="diis">    0.48    0.48</time>
   <time name="orth">    0.01    0.02</time>
   <time name="total">    0.70    0.70</time>
   <energy>
    <i name="e_fr_energy">   -153.63817265 </i>
    <i name="e_wo_entrp">   -153.63817265 </i>
    <i name="e_0_energy">   -153.63817265 </i>
   </energy>
  </scstep>
  <scstep>
   <time name="diag">    0.10    0.10</time>
   <time name="diis">    0.55    0.55</time>
   <time name="orth">    0.02    0.02</time>
   <time name="total">    0.76    0.77</time>
   <energy>
    <i name="e_fr_energy">   -152.96497006 </i>
    <i name="e_wo_entrp">   -152.96497006 </i>
    <i name="e_0_energy">   -152.96497006 </i>
   </energy>
  </scstep>
  <scstep>
   <time name="diag">    0.10    0.10</time>
   <time name="diis">    0.55    0.55</time>
   <time name="orth">    0.01    0.02</time>
   <time name="total">    0.76    0.77</time>
   <energy>
    <i name="e_fr_energy">   -152.30605273 </i>
    <i name="e_wo_entrp">   -152.30604488 </i>
    <i name="e_0_energy">   -152.30604881 </i>
   </energy>
  </scstep>
  <scstep>
   <time name="diag">    0.10    0.10</time>
   <time name="diis">    0.54    0.54</time>
   <time name="orth">    0.01    0.02</time>
   <time name="total">    0.75    0.76</time>
   <energy>
    <i name="e_fr_energy">   -152.03434362 </i>
    <i name="e_wo_entrp">   -152.03420902 </i>
    <i name="e_0_energy">   -152.03427632 </i>
   </energy>
  </scstep>
  <scstep>
   <time name="diag">    0.10    0.10</time>
   <time name="diis">    0.52    0.52</time>
   <time name="orth">    0.02    0.02</time>
   <time name="total">    0.73    0.74</time>
   <energy>
    <i name="e_fr_energy">   -151.40663462 </i>
    <i name="e_wo_entrp">   -151.36984243 </i>
    <i name="e_0_energy">   -151.38823853 </i>
   </energy>
  </scstep>
  <scstep>
   <time name="diag">    0.10    0.10</time>
   <time name="diis">    0.55    0.55</time>
   <time name="orth">    0.01    0.02</time>
   <time name="total">    0.76    0.77</time>
   <energy>
    <i name="e_fr_energy">   -151.14738819 </i>
    <i name="e_wo_entrp">   -150.96320053 </i>
    <i name="e_0_energy">   -151.05529436 </i>
   </energy>
  </scstep>
  <scstep>
   <time name="diag">    0.10    0.10</time>
   <time name="diis">    0.44    0.44</time>
   <time name="orth">    0.02    0.02</time>
   <time name="total">    0.65    0.65</time>
   <energy>
    <i name="e_fr_energy">   -152.03341193 </i>
    <i name="e_wo_entrp">   -152.03329891 </i>
    <i name="e_0_energy">   -152.03335542 </i>
   </energy>
  </scstep>
  <scstep>
   <time name="diag">    0.10    0.10</time>
   <time name="diis">    0.47    0.47</time>
   <time name="orth">    0.02    0.02</time>
   <time name="total">    0.68    0.69</time>
   <energy>
    <i name="e_fr_energy">   -151.93380549 </i>
    <i name="e_wo_entrp">   -151.93341931 </i>
    <i name="e_0_energy">   -151.93361240 </i>
   </energy>
  </scstep>
  <scstep>
   <time name="diag">    0.10    0.10</time>
   <time name="diis">    0.43    0.43</time>
   <time name="orth">    0.01    0.02</time>
   <time name="total">    0.64    0.64</time>
   <energy>
    <i name="e_fr_energy">   -151.51375797 </i>
    <i name="e_wo_entrp">   -151.49258103 </i>
    <i name="e_0_energy">   -151.50316950 </i>
   </energy>
  </scstep>
  <scstep>
   <time name="diag">    0.10    0.10</time>
   <time name="diis">    0.49    0.49</time>
   <time name="orth">    0.01    0.02</time>
   <time name="total">    0.70    0.71</time>
   <energy>
    <i name="e_fr_energy">   -151.20201981 </i>
    <i name="e_wo_entrp">   -151.08869520 </i>
    <i name="e_0_energy">   -151.14535750 </i>
   </energy>
  </scstep>
  <scstep>
   <time name="diag">    0.10    0.10</time>
   <time name="diis">    0.42    0.42</time>
   <time name="orth">    0.01    0.02</time>
   <time name="total">    0.63    0.64</time>
   <energy>
    <i name="e_fr_energy">   -151.26570184 </i>
    <i name="e_wo_entrp">   -151.19186324 </i>
    <i name="e_0_energy">   -151.22878254 </i>
   </energy>
  </scstep>
  <scstep>
   <time name="diag">    0.10    0.10</time>
   <time name="diis">    0.49    0.49</time>
   <time name="orth">    0.02    0.02</time>
   <time name="total">    0.70    0.71</time>
   <energy>
    <i name="e_fr_energy">   -151.15846741 </i>
    <i name="e_wo_entrp">   -151.02418007 </i>
    <i name="e_0_energy">   -151.09132374 </i>
   </energy>
  </scstep>
  <scstep>
   <time name="diag">    0.10    0.10</time>
   <time name="diis">    0.53    0.53</time>
   <time name="orth">    0.02    0.02</time>
   <time name="total">    0.74    0.74</time>
   <energy>
    <i name="e_fr_energy">   -151.12800038 </i>
    <i name="e_wo_entrp">   -150.94849313 </i>
    <i name="e_0_energy">   -151.03824676 </i>
   </energy>
  </scstep>
  <scstep>
   <time name="diag">    0.10    0.10</time>
   <time name="diis">    0.53    0.53</time>
   <time name="orth">    0.02    0.02</time>
   <time name="total">    0.74    0.75</time>
   <energy>
    <i name="e_fr_energy">   -151.13435739 </i>
    <i name="e_wo_entrp">   -150.92377292 </i>
    <i name="e_0_energy">   -151.02906515 </i>
   </energy>
  </scstep>
  <scstep>
   <time name="diag">    0.10    0.10</time>
   <time name="diis">    0.56    0.56</time>
   <time name="orth">    0.01    0.02</time>
   <time name="total">    0.77    0.77</time>
   <energy>
    <i name="e_fr_energy">   -151.13586070 </i>
    <i name="e_wo_entrp">   -150.92347877 </i>
    <i name="e_0_energy">   -151.02966974 </i>
   </energy>
  </scstep>
  <scstep>
   <time name="diag">    0.10    0.10</time>
   <time name="diis">    0.49    0.49</time>
   <time name="orth">    0.02    0.02</time>
   <time name="total">    0.70    0.71</time>
   <energy>
    <i name="e_fr_energy">   -151.13405010 </i>
    <i name="e_wo_entrp">   -150.92402639 </i>
    <i name="e_0_energy">   -151.02903824 </i>
   </energy>
  </scstep>
  <scstep>
   <time name="diag">    0.10    0.10</time>
   <time name="diis">    0.46    0.46</time>
   <time name="orth">    0.01    0.02</time>
   <time name="total">    0.68    0.68</time>
   <energy>
    <i name="e_fr_energy">   -151.13373414 </i>
    <i name="e_wo_entrp">   -150.92175774 </i>
    <i name="e_0_energy">   -151.02774594 </i>
   </energy>
  </scstep>
  <scstep>
   <time name="diag">    0.10    0.10</time>
   <time name="diis">    0.42    0.42</time>
   <time name="orth">    0.02    0.02</time>
   <time name="total">    0.63    0.64</time>
   <energy>
    <i name="e_fr_energy">   -151.13473137 </i>
    <i name="e_wo_entrp">   -150.92187913 </i>
    <i name="e_0_energy">   -151.02830525 </i>
   </energy>
  </scstep>
  <scstep>
   <time name="diag">    0.10    0.10</time>
   <time name="diis">    0.41    0.41</time>
   <time name="orth">    0.02    0.02</time>
   <time name="total">    0.62    0.62</time>
   <energy>
    <i name="e_fr_energy">   -151.13222679 </i>
    <i name="e_wo_entrp">   -150.92333659 </i>
    <i name="e_0_energy">   -151.02778169 </i>
   </energy>
  </scstep>
  <scstep>
   <time name="diag">    0.10    0.10</time>
   <time name="diis">    0.40    0.40</time>
   <time name="orth">    0.02    0.02</time>
   <time name="total">    0.61    0.62</time>
   <energy>
    <i name="e_fr_energy">   -151.13301883 </i>
    <i name="e_wo_entrp">   -150.92225638 </i>
    <i name="e_0_energy">   -151.02763761 </i>
   </energy>
  </scstep>
  <scstep>
   <time name="diag">    0.10    0.10</time>
   <time name="diis">    0.38    0.38</time>
   <time name="orth">    0.02    0.02</time>
   <time name="total">    0.60    0.60</time>
   <energy>
    <i name="e_fr_energy">   -151.12868343 </i>
    <i name="e_wo_entrp">   -150.92689912 </i>
    <i name="e_0_energy">   -151.02779128 </i>
   </energy>
  </scstep>
  <scstep>
   <time name="diag">    0.10    0.10</time>
   <time name="diis">    0.42    0.42</time>
   <time name="orth">    0.02    0.02</time>
   <time name="total">    0.63    0.64</time>
   <energy>
    <i name="e_fr_energy">   -151.13737223 </i>
    <i name="e_wo_entrp">   -150.92142606 </i>
    <i name="e_0_energy">   -151.02939915 </i>
   </energy>
  </scstep>
  <scstep>
   <time name="diag">    0.10    0.10</time>
   <time name="diis">    0.44    0.44</time>
   <time name="orth">    0.02    0.02</time>
   <time name="total">    0.65    0.65</time>
   <energy>
    <i name="e_fr_energy">   -151.13937671 </i>
    <i name="e_wo_entrp">   -150.92194737 </i>
    <i name="e_0_energy">   -151.03066204 </i>
   </energy>
  </scstep>
  <scstep>
   <time name="diag">    0.10    0.10</time>
   <time name="diis">    0.35    0.35</time>
   <time name="orth">    0.01    0.02</time>
   <time name="total">    0.56    0.57</time>
   <energy>
    <i name="e_fr_energy">   -151.14231457 </i>
    <i name="e_wo_entrp">   -150.92229209 </i>
    <i name="e_0_energy">   -151.03230333 </i>
   </energy>
  </scstep>
  <scstep>
   <time name="diag">    0.10    0.10</time>
   <time name="diis">    0.44    0.44</time>
   <time name="orth">    0.01    0.02</time>
   <time name="total">    0.65    0.66</time>
   <energy>
    <i name="e_fr_energy">   -151.15513255 </i>
    <i name="e_wo_entrp">   -150.92649629 </i>
    <i name="e_0_energy">   -151.04081442 </i>
   </energy>
  </scstep>
  <scstep>
   <time name="diag">    0.10    0.10</time>
   <time name="diis">    0.39    0.39</time>
   <time name="orth">    0.02    0.02</time>
   <time name="total">    0.61    0.61</time>
   <energy>
    <i name="e_fr_energy">   -151.15855402 </i>
    <i name="e_wo_entrp">   -150.92857082 </i>
    <i name="e_0_energy">   -151.04356242 </i>
   </energy>
  </scstep>
  <scstep>
   <time name="diag">    0.10    0.10</time>
   <time name="diis">    0.42    0.42</time>
   <time name="orth">    0.01    0.02</time>
   <time name="total">    0.63    0.63</time>
   <energy>
    <i name="e_fr_energy">   -151.13425735 </i>
    <i name="e_wo_entrp">   -150.92481102 </i>
    <i name="e_0_energy">   -151.02953419 </i>
   </energy>
  </scstep>
  <scstep>
   <time name="diag">    0.10    0.10</time>
   <time name="diis">    0.43    0.43</time>
   <time name="orth">    0.02    0.02</time>
   <time name="total">    0.64    0.65</time>
   <energy>
    <i name="e_fr_energy">   -151.20025742 </i>
    <i name="e_wo_entrp">   -150.95738119 </i>
    <i name="e_0_energy">   -151.07881931 </i>
   </energy>
  </scstep>
  <scstep>
   <time name="diag">    0.10    0.10</time>
   <time name="diis">    0.46    0.46</time>
   <time name="orth">    0.02    0.02</time>
   <time name="total">    0.67    0.68</time>
   <energy>
    <i name="e_fr_energy">   -151.23689308 </i>
    <i name="e_wo_entrp">   -150.99272537 </i>
    <i name="e_0_energy">   -151.11480922 </i>
   </energy>
  </scstep>
  <scstep>
   <time name="diag">    0.10    0.10</time>
   <time name="diis">    0.50    0.50</time>
   <time name="orth">    0.02    0.02</time>
   <time name="total">    0.72    0.72</time>
   <energy>
    <i name="e_fr_energy">   -151.24212802 </i>
    <i name="e_wo_entrp">   -150.99814751 </i>
    <i name="e_0_energy">   -151.12013776 </i>
   </energy>
  </scstep>
  <scstep>
   <time name="diag">    0.10    0.10</time>
   <time name="diis">    0.45    0.45</time>
   <time name="orth">    0.02    0.02</time>
   <time name="total">    0.66    0.66</time>
   <energy>
    <i name="e_fr_energy">   -151.14159747 </i>
    <i name="e_wo_entrp">   -150.92186742 </i>
    <i name="e_0_energy">   -151.03173245 </i>
   </energy>
  </scstep>
  <scstep>
   <time name="diag">    0.10    0.10</time>
   <time name="diis">    0.41    0.41</time>
   <time name="orth">    0.01    0.02</time>
   <time name="total">    0.62    0.63</time>
   <energy>
    <i name="e_fr_energy">   -151.15127335 </i>
    <i name="e_wo_entrp">   -150.92196528 </i>
    <i name="e_0_energy">   -151.03661932 </i>
   </energy>
  </scstep>
  <scstep>
   <time name="diag">    0.10    0.10</time>
   <time name="diis">    0.44    0.44</time>
   <time name="orth">    0.02    0.02</time>
   <time name="total">    0.65    0.65</time>
   <energy>
    <i name="e_fr_energy">   -151.17838250 </i>
    <i name="e_wo_entrp">   -150.94015507 </i>
    <i name="e_0_energy">   -151.05926878 </i>
   </energy>
  </scstep>
  <scstep>
   <time name="diag">    0.10    0.10</time>
   <time name="diis">    0.41    0.41</time>
   <time name="orth">    0.02    0.02</time>
   <time name="total">    0.62    0.63</time>
   <energy>
    <i name="e_fr_energy">   -151.18603999 </i>
    <i name="e_wo_entrp">   -150.94655773 </i>
    <i name="e_0_energy">   -151.06629886 </i>
   </energy>
  </scstep>
  <scstep>
   <time name="diag">    0.10    0.10</time>
   <time name="diis">    0.38    0.38</time>
   <time name="orth">    0.01    0.02</time>
   <time name="total">    0.60    0.60</time>
   <energy>
    <i name="e_fr_energy">   -151.18941833 </i>
    <i name="e_wo_entrp">   -150.94947467 </i>
    <i name="e_0_energy">   -151.06944650 </i>
   </energy>
  </scstep>
  <scstep>
   <time name="diag">    0.10    0.10</time>
   <time name="diis">    0.43    0.43</time>
   <time name="orth">    0.02    0.02</time>
   <time name="total">    0.65    0.65</time>
   <energy>
    <i name="e_fr_energy">   -151.21613581 </i>
    <i name="e_wo_entrp">   -150.97398614 </i>
    <i name="e_0_energy">   -151.09506098 </i>
   </energy>
  </scstep>
  <scstep>
   <time name="diag">    0.10    0.10</time>
   <time name="diis">    0.45    0.45</time>
   <time name="orth">    0.02    0.02</time>
   <time name="total">    0.66    0.66</time>
   <energy>
    <i name="e_fr_energy">   -151.22228064 </i>
    <i name="e_wo_entrp">   -150.98020990 </i>
    <i name="e_0_energy">   -151.10124527 </i>
   </energy>
  </scstep>
  <scstep>
   <time name="diag">    0.10    0.10</time>
   <time name="diis">    0.35    0.35</time>
   <time name="orth">    0.01    0.02</time>
   <time name="total">    0.56    0.57</time>
   <energy>
    <i name="e_fr_energy">   -151.21464096 </i>
    <i name="e_wo_entrp">   -150.97283863 </i>
    <i name="e_0_energy">   -151.09373980 </i>
   </energy>
  </scstep>
  <scstep>
   <time name="diag">    0.10    0.10</time>
   <time name="diis">    0.27    0.27</time>
   <time name="orth">    0.01    0.02</time>
   <time name="total">    0.49    0.49</time>
   <energy>
    <i name="e_fr_energy">   -151.22154754 </i>
    <i name="e_wo_entrp">   -150.97949875 </i>
    <i name="e_0_energy">   -151.10052315 </i>
   </energy>
  </scstep>
  <scstep>
   <time name="diag">    0.10    0.10</time>
   <time name="diis">    0.36    0.36</time>
   <time name="orth">    0.02    0.02</time>
   <time name="total">    0.57    0.58</time>
   <energy>
    <i name="e_fr_energy">   -151.20412923 </i>
    <i name="e_wo_entrp">   -150.96293699 </i>
    <i name="e_0_energy">   -151.08353311 </i>
   </energy>
  </scstep>
  <scstep>
   <time name="diag">    0.10    0.10</time>
   <time name="diis">    0.35    0.35</time>
   <time name="orth">    0.02    0.02</time>
   <time name="total">    0.56    0.56</time>
   <energy>
    <i name="e_fr_energy">   -151.20337500 </i>
    <i name="e_wo_entrp">   -150.96225062 </i>
    <i name="e_0_energy">   -151.08281281 </i>
   </energy>
  </scstep>
  <scstep>
   <time name="diag">    0.10    0.10</time>
   <time name="diis">    0.44    0.44</time>
   <time name="orth">    0.02    0.02</time>
   <time name="total">    0.65    0.66</time>
   <energy>
    <i name="e_fr_energy">   -151.15812253 </i>
    <i name="e_wo_entrp">   -150.92787164 </i>
    <i name="e_0_energy">   -151.04299708 </i>
   </energy>
  </scstep>
  <scstep>
   <time name="diag">    0.10    0.10</time>
   <time name="diis">    0.46    0.46</time>
   <time name="orth">    0.02    0.02</time>
   <time name="total">    0.67    0.67</time>
   <energy>
    <i name="e_fr_energy">   -151.17355316 </i>
    <i name="e_wo_entrp">   -150.93764650 </i>
    <i name="e_0_energy">   -151.05559983 </i>
   </energy>
  </scstep>
  <scstep>
   <time name="diag">    0.10    0.10</time>
   <time name="diis">    0.48    0.48</time>
   <time name="orth">    0.01    0.02</time>
   <time name="total">    0.62    0.63</time>
   <energy>
    <i name="alphaZ">    327.81082936 </i>
    <i name="ewald">  20429.88203503 </i>
    <i name="hartreedc"> -28990.59871754 </i>
    <i name="XCdc">    339.15700159 </i>
    <i name="pawpsdc">   6197.57365957 </i>
    <i name="pawaedc">  -6027.94006583 </i>
    <i name="eentropy">     -0.22708805 </i>
    <i name="bandstr">  -1364.07630916 </i>
    <i name="atom">   8937.26825017 </i>
    <i name="e_fr_energy">   -151.15040484 </i>
    <i name="e_wo_entrp">   -150.92331679 </i>
    <i name="e_0_energy">   -151.03686082 </i>
   </energy>
  </scstep>
  <structure>
   <crystal>
    <varray name="basis" >
     <v>       5.58168362       0.00000000       0.00000000 </v>
     <v>       2.79084181       4.83387982       0.00000000 </v>
     <v>       0.00000000       0.00000000      19.97549479 </v>
    </varray>
    <i name="volume">    538.96257656 </i>
    <varray name="rec_basis" >
     <v>       0.17915741      -0.10343658       0.00000000 </v>
     <v>       0.00000000       0.20687316       0.00000000 </v>
     <v>       0.00000000       0.00000000       0.05006134 </v>
    </varray>
   </crystal>
   <varray name="positions" >
    <v>       0.49699389       0.49699389       0.30265468 </v>
    <v>       0.49699389       0.00601222       0.30265468 </v>
    <v>       0.00601222       0.49699389       0.30265468 </v>
    <v>       0.16401626       0.16401626       0.41838051 </v>
    <v>       0.16401626       0.67196747       0.41838051 </v>
    <v>       0.67196747       0.16401626       0.41838051 </v>
    <v>       0.83037345       0.83037345       0.53338205 </v>
    <v>       0.83037345       0.33925310       0.53338205 </v>
    <v>       0.33925310       0.83037345       0.53338205 </v>
    <v>       0.50106951       0.50106951       0.64703584 </v>
    <v>       0.50106951      -0.00213901       0.64703584 </v>
    <v>      -0.00213901       0.50106951       0.64703584 </v>
[...]
    <i name="e_wo_entrp">   -152.48907949 </i>
    <i name="e_0_energy">   -152.53587731 </i>
   </energy>
  </scstep>
  <structure>
   <crystal>
    <varray name="basis" >
     <v>       5.58168362       0.00000000       0.00000000 </v>
     <v>       2.79084181       4.83387982       0.00000000 </v>
     <v>       0.00000000       0.00000000      19.97549479 </v>
    </varray>
    <i name="volume">    538.96257656 </i>
    <varray name="rec_basis" >
     <v>       0.17915741      -0.10343658       0.00000000 </v>
     <v>       0.00000000       0.20687316       0.00000000 </v>
     <v>       0.00000000       0.00000000       0.05006134 </v>
    </varray>
   </crystal>
   <varray name="positions" >
    <v>       0.50037697       0.50037697       0.29827697 </v>
    <v>       0.50037697      -0.00075393       0.29827697 </v>
    <v>      -0.00075393       0.50037697       0.29827697 </v>
    <v>       0.16594597       0.16594597       0.41848720 </v>
    <v>       0.16594597       0.66810805       0.41848720 </v>
    <v>       0.66810805       0.16594597       0.41848720 </v>
    <v>       0.83461720       0.83461720       0.54035250 </v>
    <v>       0.83461720       0.33076559       0.54035250 </v>
    <v>       0.33076559       0.83461720       0.54035250 </v>
    <v>       0.50317178       0.50317178       0.66040191 </v>
    <v>       0.50317178      -0.00634355       0.66040191 </v>
    <v>      -0.00634355       0.50317178       0.66040191 </v>
    <v>       0.00000000      -0.00000000       0.29016071 </v>
    <v>       0.66666667       0.66666667       0.38962479 </v>
    <v>       0.33333333       0.33333333       0.51222329 </v>
    <v>       0.00000000      -0.00000000       0.63352324 </v>
    <v>       0.33333333       0.33333333       0.33919927 </v>
    <v>       0.00000000      -0.00000000       0.46274325 </v>
    <v>       0.66666667       0.66666667       0.58329837 </v>
    <v>       0.33333333       0.33333333       0.69444509 </v>
   </varray>
  </structure>
  <varray name="forces" >
   <v>       0.00439660       0.00253838      -0.03526059 </v>
   <v>      -0.00000000      -0.00507676      -0.03526059 </v>
   <v>      -0.00439660       0.00253838      -0.03526059 </v>
   <v>      -0.00288573      -0.00166608      -0.01553171 </v>
   <v>       0.00000000       0.00333215      -0.01553171 </v>
   <v>       0.00288573      -0.00166608      -0.01553171 </v>
   <v>      -0.00593706      -0.00342776       0.01573610 </v>
   <v>       0.00000000       0.00685552       0.01573610 </v>
   <v>       0.00593706      -0.00342776       0.01573610 </v>
   <v>       0.00913986       0.00527690       0.04489734 </v>
   <v>       0.00000000      -0.01055380       0.04489734 </v>
   <v>      -0.00913986       0.00527690       0.04489734 </v>
   <v>       0.00000000       0.00000000      -0.04258345 </v>
   <v>       0.00000000       0.00000000      -0.03232131 </v>
   <v>       0.00000000       0.00000000      -0.01111856 </v>
   <v>       0.00000000       0.00000000       0.01890613 </v>
   <v>       0.00000000       0.00000000      -0.03079152 </v>
   <v>       0.00000000       0.00000000       0.00277446 </v>
   <v>       0.00000000       0.00000000       0.02100411 </v>
   <v>       0.00000000       0.00000000       0.04460674 </v>
  </varray>
  <varray name="stress" >
   <v>      17.51992763       0.00000000       0.00000000 </v>
   <v>       0.00000000      17.51992763       0.00000000 </v>
   <v>       0.00000000       0.00000000       2.79950038 </v>
  </varray>
  <energy>
   <i name="e_fr_energy">   -152.58267513 </i>
   <i name="e_wo_entrp">   -152.53587731 </i>
   <i name="e_0_energy">     -0.09359564 </i>
  </energy>
  <time name="totalsc">    3.17    3.22</time>
  <eigenvalues>
   <array>
    <dimension dim="1">band</dimension>
    <dimension dim="2">kpoint</dimension>
    <dimension dim="3">spin</dimension>
    <field>eigene</field>
    <field>occ</field>
    <set>
     <set comment="spin 1">
      <set comment="kpoint 1">
       <r>  -34.9272    1.0000 </r>
       <r>  -34.3041    1.0000 </r>
       <r>  -34.1663    1.0000 </r>
       <r>  -33.0661    1.0000 </r>
       <r>  -19.1657    1.0000 </r>
       <r>  -18.8308    1.0000 </r>
       <r>  -18.5355    1.0000 </r>
       <r>  -18.5355    1.0000 </r>
       <r>  -18.1768    1.0000 </r>
       <r>  -18.1768    1.0000 </r>
       <r>  -18.1188    1.0000 </r>
       <r>  -17.4448    1.0000 </r>
       <r>  -17.4448    1.0000 </r>
       <r>  -16.8357    1.0000 </r>
       <r>  -16.8124    1.0000 </r>
       <r>  -16.8124    1.0000 </r>
       <r>  -16.6237    1.0000 </r>
       <r>  -16.5245    1.0000 </r>
       <r>  -16.3194    1.0000 </r>
       <r>  -16.3194    1.0000 </r>
       <r>  -16.1853    1.0000 </r>
       <r>  -16.1853    1.0000 </r>
       <r>  -16.0661    1.0000 </r>
       <r>  -16.0661    1.0000 </r>
       <r>  -15.8572    1.0000 </r>
       <r>  -14.8925    1.0000 </r>
       <r>  -14.8925    1.0000 </r>
       <r>  -14.6318    1.0000 </r>
       <r>   -6.1288    1.0000 </r>
       <r>   -5.4864    1.0000 </r>
       <r>   -5.4864    1.0000 </r>
       <r>   -5.4694    1.0000 </r>
       <r>   -5.2309    1.0000 </r>
       <r>   -5.2309    1.0000 </r>
       <r>   -4.9604    1.0000 </r>
       <r>   -4.6904    1.0000 </r>
       <r>   -4.6538    1.0000 </r>
       <r>   -4.6538    1.0000 </r>
       <r>   -4.5032    1.0000 </r>
       <r>   -4.5032    1.0000 </r>
       <r>   -4.2296    1.0000 </r>
       <r>   -3.9587    1.0000 </r>
       <r>   -3.9587    1.0000 </r>
       <r>   -3.7414    1.0000 </r>
       <r>   -3.7414    1.0000 </r>
       <r>   -3.6670    1.0000 </r>
       <r>   -3.6670    1.0000 </r>
       <r>   -3.5415    1.0000 </r>
       <r>   -3.0637    1.0000 </r>
       <r>   -2.6924    1.0000 </r>
       <r>   -2.6924    1.0000 </r>
       <r>   -2.5485    1.0000 </r>
       <r>   -2.5485    1.0000 </r>
       <r>   -2.4011    1.0000 </r>
       <r>   -2.2411    1.0000 </r>
       <r>   -2.0826    1.0000 </r>
       <r>   -2.0263    1.0000 </r>
       <r>   -2.0263    1.0000 </r>
       <r>   -1.5389    1.0000 </r>
       <r>   -1.5389    1.0000 </r>
       <r>   -1.5008    1.0000 </r>
       <r>   -0.8094    0.9654 </r>
       <r>   -0.8094    0.9653 </r>
       <r>   -0.6832    0.8223 </r>
       <r>   -0.4155    0.1664 </r>
       <r>    1.0295    0.0000 </r>
       <r>    1.0295    0.0000 </r>
       <r>    1.5632    0.0000 </r>
       <r>    1.7126    0.0000 </r>
       <r>    1.7126    0.0000 </r>
       <r>    1.7141    0.0000 </r>
       <r>    2.3704    0.0000 </r>
       <r>    2.3704    0.0000 </r>
       <r>    2.3824    0.0000 </r>
       <r>    2.5847    0.0000 </r>
       <r>    2.5847    0.0000 </r>
      </set>
      <set comment="kpoint 2">
       <r>  -34.9268    1.0000 </r>
       <r>  -34.3038    1.0000 </r>
       <r>  -34.1660    1.0000 </r>
       <r>  -33.0659    1.0000 </r>
       <r>  -19.1901    1.0000 </r>
       <r>  -18.8516    1.0000 </r>
       <r>  -18.5984    1.0000 </r>
       <r>  -18.5753    1.0000 </r>
       <r>  -18.1759    1.0000 </r>
       <r>  -18.1753    1.0000 </r>
       <r>  -18.0943    1.0000 </r>
       <r>  -17.4987    1.0000 </r>
       <r>  -17.4570    1.0000 </r>
       <r>  -16.9267    1.0000 </r>
       <r>  -16.7884    1.0000 </r>
       <r>  -16.7835    1.0000 </r>
       <r>  -16.6149    1.0000 </r>
       <r>  -16.5420    1.0000 </r>
       <r>  -16.4668    1.0000 </r>
       <r>  -16.3548    1.0000 </r>
       <r>  -16.0480    1.0000 </r>
       <r>  -16.0478    1.0000 </r>
       <r>  -16.0032    1.0000 </r>
       <r>  -15.9541    1.0000 </r>
       <r>  -15.8175    1.0000 </r>
       <r>  -14.8588    1.0000 </r>
       <r>  -14.8530    1.0000 </r>
       <r>  -14.5971    1.0000 </r>
       <r>   -6.0997    1.0000 </r>
       <r>   -5.6537    1.0000 </r>
       <r>   -5.5575    1.0000 </r>
       <r>   -5.5048    1.0000 </r>
       <r>   -5.3396    1.0000 </r>
       <r>   -5.1356    1.0000 </r>
       <r>   -4.8839    1.0000 </r>
       <r>   -4.7823    1.0000 </r>
       <r>   -4.6696    1.0000 </r>
       <r>   -4.6595    1.0000 </r>
       <r>   -4.4452    1.0000 </r>
       <r>   -4.3789    1.0000 </r>
       <r>   -4.2338    1.0000 </r>
       <r>   -3.9236    1.0000 </r>
       <r>   -3.9211    1.0000 </r>
       <r>   -3.7861    1.0000 </r>
       <r>   -3.7845    1.0000 </r>
       <r>   -3.6522    1.0000 </r>
       <r>   -3.6158    1.0000 </r>
       <r>   -3.4921    1.0000 </r>
       <r>   -3.2349    1.0000 </r>
       <r>   -2.7975    1.0000 </r>
       <r>   -2.7632    1.0000 </r>
       <r>   -2.6659    1.0000 </r>
       <r>   -2.5341    1.0000 </r>
       <r>   -2.4342    1.0000 </r>
       <r>   -2.4309    1.0000 </r>
       <r>   -2.2575    1.0000 </r>
       <r>   -2.0442    1.0000 </r>
       <r>   -2.0109    1.0000 </r>
       <r>   -1.8317    1.0000 </r>
       <r>   -1.4440    1.0000 </r>
       <r>   -1.3603    1.0000 </r>
       <r>   -0.9081    0.9940 </r>
       <r>   -0.8364    0.9777 </r>
       <r>   -0.6406    0.7333 </r>
       <r>   -0.5248    0.4225 </r>
       <r>    0.9583    0.0000 </r>
       <r>    1.1429    0.0000 </r>
       <r>    1.4603    0.0000 </r>
       <r>    1.6939    0.0000 </r>
       <r>    1.7553    0.0000 </r>
       <r>    1.7842    0.0000 </r>
       <r>    2.3603    0.0000 </r>
       <r>    2.3822    0.0000 </r>
       <r>    2.4941    0.0000 </r>
       <r>    2.5464    0.0000 </r>
       <r>    2.5503    0.0000 </r>
      </set>
      <set comment="kpoint 3">
       <r>  -34.9262    1.0000 </r>
       <r>  -34.3032    1.0000 </r>
       <r>  -34.1655    1.0000 </r>
       <r>  -33.0656    1.0000 </r>
       <r>  -19.2324    1.0000 </r>
       <r>  -18.8507    1.0000 </r>
       <r>  -18.7093    1.0000 </r>
       <r>  -18.6312    1.0000 </r>
       <r>  -18.1846    1.0000 </r>
       <r>  -18.1811    1.0000 </r>
       <r>  -18.0676    1.0000 </r>
       <r>  -17.5869    1.0000 </r>
       <r>  -17.4763    1.0000 </r>
       <r>  -17.0531    1.0000 </r>
       <r>  -16.7501    1.0000 </r>
       <r>  -16.7176    1.0000 </r>
       <r>  -16.6129    1.0000 </r>
       <r>  -16.5771    1.0000 </r>
       <r>  -16.5101    1.0000 </r>
       <r>  -16.3706    1.0000 </r>
       <r>  -15.9994    1.0000 </r>
       <r>  -15.9380    1.0000 </r>
       <r>  -15.8541    1.0000 </r>
       <r>  -15.8389    1.0000 </r>
       <r>  -15.7083    1.0000 </r>
       <r>  -14.8058    1.0000 </r>
       <r>  -14.7675    1.0000 </r>
       <r>  -14.5518    1.0000 </r>
       <r>   -6.0898    1.0000 </r>
       <r>   -5.8486    1.0000 </r>
       <r>   -5.7491    1.0000 </r>
       <r>   -5.5120    1.0000 </r>
       <r>   -5.3507    1.0000 </r>
       <r>   -5.1554    1.0000 </r>
       <r>   -4.9517    1.0000 </r>
       <r>   -4.7213    1.0000 </r>
       <r>   -4.7001    1.0000 </r>
       <r>   -4.5659    1.0000 </r>
       <r>   -4.3394    1.0000 </r>
       <r>   -4.2536    1.0000 </r>
       <r>   -4.1781    1.0000 </r>
       <r>   -4.0792    1.0000 </r>
       <r>   -3.9245    1.0000 </r>
       <r>   -3.8511    1.0000 </r>
       <r>   -3.7902    1.0000 </r>
       <r>   -3.4947    1.0000 </r>
       <r>   -3.4911    1.0000 </r>
       <r>   -3.3958    1.0000 </r>
       <r>   -3.3433    1.0000 </r>
       <r>   -3.0934    1.0000 </r>
       <r>   -3.0511    1.0000 </r>
       <r>   -2.8572    1.0000 </r>
       <r>   -2.6754    1.0000 </r>
       <r>   -2.6156    1.0000 </r>
       <r>   -2.5685    1.0000 </r>
       <r>   -2.3372    1.0000 </r>
       <r>   -2.0705    1.0000 </r>
       <r>   -1.9717    1.0000 </r>
       <r>   -1.9202    1.0000 </r>
       <r>   -1.5771    1.0000 </r>
       <r>   -1.2342    1.0000 </r>
       <r>   -1.0680    0.9999 </r>
       <r>   -0.9910    0.9990 </r>
       <r>   -0.7539    0.9228 </r>
       <r>   -0.2482    0.0157 </r>
       <r>    0.7941    0.0000 </r>
       <r>    1.2636    0.0000 </r>
       <r>    1.3040    0.0000 </r>
       <r>    1.7436    0.0000 </r>
       <r>    1.8174    0.0000 </r>
       <r>    1.9539    0.0000 </r>
       <r>    2.1164    0.0000 </r>
       <r>    2.4174    0.0000 </r>
       <r>    2.4265    0.0000 </r>
       <r>    2.5554    0.0000 </r>
       <r>    2.7032    0.0000 </r>
      </set>
      <set comment="kpoint 4">
       <r>  -34.9263    1.0000 </r>
       <r>  -34.3033    1.0000 </r>
       <r>  -34.1656    1.0000 </r>
       <r>  -33.0657    1.0000 </r>
       <r>  -19.2046    1.0000 </r>
       <r>  -18.8852    1.0000 </r>
       <r>  -18.7374    1.0000 </r>
       <r>  -18.5571    1.0000 </r>
       <r>  -18.2108    1.0000 </r>
       <r>  -18.1539    1.0000 </r>
       <r>  -18.0648    1.0000 </r>
       <r>  -17.6074    1.0000 </r>
       <r>  -17.4363    1.0000 </r>
       <r>  -17.0084    1.0000 </r>
       <r>  -16.7820    1.0000 </r>
       <r>  -16.6967    1.0000 </r>
       <r>  -16.6554    1.0000 </r>
       <r>  -16.6364    1.0000 </r>
       <r>  -16.5067    1.0000 </r>
       <r>  -16.2599    1.0000 </r>
       <r>  -16.0090    1.0000 </r>
       <r>  -15.9909    1.0000 </r>
       <r>  -15.8994    1.0000 </r>
       <r>  -15.8416    1.0000 </r>
       <r>  -15.7231    1.0000 </r>
       <r>  -14.8153    1.0000 </r>
       <r>  -14.7918    1.0000 </r>
       <r>  -14.5591    1.0000 </r>
       <r>   -6.0727    1.0000 </r>
       <r>   -5.8554    1.0000 </r>
       <r>   -5.6939    1.0000 </r>
       <r>   -5.5420    1.0000 </r>
       <r>   -5.2492    1.0000 </r>
       <r>   -5.1023    1.0000 </r>
       <r>   -5.0542    1.0000 </r>
       <r>   -4.7301    1.0000 </r>
       <r>   -4.6722    1.0000 </r>
       <r>   -4.5557    1.0000 </r>
       <r>   -4.4237    1.0000 </r>
       <r>   -4.3162    1.0000 </r>
       <r>   -4.2174    1.0000 </r>
       <r>   -4.0350    1.0000 </r>
       <r>   -3.9333    1.0000 </r>
       <r>   -3.8096    1.0000 </r>
       <r>   -3.7033    1.0000 </r>
       <r>   -3.6562    1.0000 </r>
       <r>   -3.4545    1.0000 </r>
       <r>   -3.4247    1.0000 </r>
       <r>   -3.3168    1.0000 </r>
       <r>   -3.0360    1.0000 </r>
       <r>   -2.8944    1.0000 </r>
       <r>   -2.8448    1.0000 </r>
       <r>   -2.6957    1.0000 </r>
       <r>   -2.5636    1.0000 </r>
       <r>   -2.4778    1.0000 </r>
       <r>   -2.3128    1.0000 </r>
       <r>   -2.1128    1.0000 </r>
       <r>   -2.0509    1.0000 </r>
       <r>   -1.9149    1.0000 </r>
       <r>   -1.4962    1.0000 </r>
       <r>   -1.2426    1.0000 </r>
       <r>   -1.0862    0.9999 </r>
       <r>   -0.8900    0.9915 </r>
       <r>   -0.7995    0.9597 </r>
       <r>   -0.3004    0.0373 </r>
       <r>    0.8849    0.0000 </r>
       <r>    1.1884    0.0000 </r>
       <r>    1.2871    0.0000 </r>
       <r>    1.6575    0.0000 </r>
       <r>    1.8074    0.0000 </r>
       <r>    1.9408    0.0000 </r>
       <r>    2.2866    0.0000 </r>
       <r>    2.4125    0.0000 </r>
       <r>    2.4830    0.0000 </r>
       <r>    2.5403    0.0000 </r>
       <r>    2.6208    0.0000 </r>
      </set>
      <set comment="kpoint 5">
       <r>  -34.9260    1.0000 </r>
       <r>  -34.3031    1.0000 </r>
       <r>  -34.1654    1.0000 </r>
       <r>  -33.0655    1.0000 </r>
       <r>  -19.1954    1.0000 </r>
       <r>  -18.8996    1.0000 </r>
       <r>  -18.8424    1.0000 </r>
       <r>  -18.5462    1.0000 </r>
       <r>  -18.2401    1.0000 </r>
       <r>  -18.1325    1.0000 </r>
       <r>  -18.0413    1.0000 </r>
       <r>  -17.6865    1.0000 </r>
       <r>  -17.4178    1.0000 </r>
       <r>  -17.0369    1.0000 </r>
       <r>  -16.7795    1.0000 </r>
       <r>  -16.7408    1.0000 </r>
       <r>  -16.6812    1.0000 </r>
       <r>  -16.6202    1.0000 </r>
       <r>  -16.4897    1.0000 </r>
       <r>  -16.2141    1.0000 </r>
       <r>  -15.9477    1.0000 </r>
       <r>  -15.9227    1.0000 </r>
       <r>  -15.9194    1.0000 </r>
       <r>  -15.8146    1.0000 </r>
       <r>  -15.6357    1.0000 </r>
       <r>  -14.7904    1.0000 </r>
       <r>  -14.7479    1.0000 </r>
       <r>  -14.5412    1.0000 </r>
       <r>   -6.0628    1.0000 </r>
       <r>   -5.9612    1.0000 </r>
       <r>   -5.7787    1.0000 </r>
       <r>   -5.5102    1.0000 </r>
       <r>   -5.2804    1.0000 </r>
       <r>   -5.2337    1.0000 </r>
       <r>   -4.8743    1.0000 </r>
       <r>   -4.8152    1.0000 </r>
       <r>   -4.6376    1.0000 </r>
       <r>   -4.5002    1.0000 </r>
       <r>   -4.3738    1.0000 </r>
       <r>   -4.3269    1.0000 </r>
       <r>   -4.2213    1.0000 </r>
       <r>   -4.1073    1.0000 </r>
       <r>   -3.9920    1.0000 </r>
       <r>   -3.7436    1.0000 </r>
       <r>   -3.7022    1.0000 </r>
       <r>   -3.5785    1.0000 </r>
       <r>   -3.4274    1.0000 </r>
       <r>   -3.3634    1.0000 </r>
       <r>   -3.3423    1.0000 </r>
       <r>   -3.1399    1.0000 </r>
       <r>   -2.9988    1.0000 </r>
       <r>   -2.8854    1.0000 </r>
       <r>   -2.8278    1.0000 </r>
       <r>   -2.6992    1.0000 </r>
       <r>   -2.5573    1.0000 </r>
       <r>   -2.3804    1.0000 </r>
       <r>   -2.1038    1.0000 </r>
       <r>   -1.9835    1.0000 </r>
       <r>   -1.9444    1.0000 </r>
       <r>   -1.5680    1.0000 </r>
       <r>   -1.3115    1.0000 </r>
       <r>   -1.1108    1.0000 </r>
       <r>   -0.9584    0.9980 </r>
       <r>   -0.8005    0.9603 </r>
       <r>   -0.1448    0.0020 </r>
       <r>    0.8086    0.0000 </r>
       <r>    1.1292    0.0000 </r>
       <r>    1.2314    0.0000 </r>
       <r>    1.6758    0.0000 </r>
       <r>    1.7719    0.0000 </r>
       <r>    2.1360    0.0000 </r>
       <r>    2.2504    0.0000 </r>
       <r>    2.3332    0.0000 </r>
       <r>    2.4660    0.0000 </r>
       <r>    2.5660    0.0000 </r>
       <r>    2.6840    0.0000 </r>
      </set>
     </set>
    </set>
   </array>
  </eigenvalues>
  <separator name="orbital magnetization" >
   <v name="MAGDIPOLOUT">      0.00000000      0.00000000      0.00000000</v>
  </separator>
 </calculation>
 <structure name="finalpos" >
  <crystal>
   <varray name="basis" >
    <v>       5.58168362       0.00000000       0.00000000 </v>
    <v>       2.79084181       4.83387982       0.00000000 </v>
    <v>       0.00000000       0.00000000      19.97549479 </v>
   </varray>
   <i name="volume">    538.96257656 </i>
   <varray name="rec_basis" >
    <v>       0.17915741      -0.10343658       0.00000000 </v>
    <v>       0.00000000       0.20687316       0.00000000 </v>
    <v>       0.00000000       0.00000000       0.05006134 </v>
   </varray>
  </crystal>
  <varray name="positions" >
   <v>       0.50037697       0.50037697       0.29827697 </v>
   <v>       0.50037697      -0.00075393       0.29827697 </v>
   <v>      -0.00075393       0.50037697       0.29827697 </v>
   <v>       0.16594597       0.16594597       0.41848720 </v>
   <v>       0.16594597       0.66810805       0.41848720 </v>
   <v>       0.66810805       0.16594597       0.41848720 </v>
   <v>       0.83461720       0.83461720       0.54035250 </v>
   <v>       0.83461720       0.33076559       0.54035250 </v>
   <v>       0.33076559       0.83461720       0.54035250 </v>
   <v>       0.50317178       0.50317178       0.66040191 </v>
   <v>       0.50317178      -0.00634355       0.66040191 </v>
   <v>      -0.00634355       0.50317178       0.66040191 </v>
   <v>       0.00000000      -0.00000000       0.29016071 </v>
   <v>       0.66666667       0.66666667       0.38962479 </v>
   <v>       0.33333333       0.33333333       0.51222329 </v>
   <v>       0.00000000      -0.00000000       0.63352324 </v>
   <v>       0.33333333       0.33333333       0.33919927 </v>
   <v>       0.00000000      -0.00000000       0.46274325 </v>
   <v>       0.66666667       0.66666667       0.58329837 </v>
   <v>       0.33333333       0.33333333       0.69444509 </v>
  </varray>
 </structure>
</modeling>
