unknown system                          
           1
     5.581684    0.000000    0.000000
     2.790842    4.833880    0.000000
     0.000000    0.000000   19.975495
   O    Sr   Ti
  12   4   4
Direct configuration=     1
   0.50000000  0.50000000  0.30036803
   0.50000000  0.00000000  0.30036803
   0.00000000  0.50000000  0.30036803
   0.16666667  0.16666667  0.41444344
   0.16666667  0.66666667  0.41444344
   0.66666667  0.16666667  0.41444344
   0.83333333  0.83333333  0.52851885
   0.83333333  0.33333333  0.52851885
   0.33333333  0.83333333  0.52851885
   0.50000000  0.50000000  0.64259426
   0.50000000  0.00000000  0.64259426
   0.00000000  0.50000000  0.64259426
   0.00000000  0.00000000  0.30036803
   0.66666667  0.66666667  0.41444344
   0.33333333  0.33333333  0.52851885
   0.00000000  0.00000000  0.64259426
   0.33333333  0.33333333  0.35740574
   0.00000000  0.00000000  0.47148115
   0.66666667  0.66666667  0.58555656
   0.33333333  0.33333333  0.69963197
Direct configuration=     2
   0.49590119  0.49590119  0.30210699
   0.49590119  0.00819762  0.30210699
   0.00819762  0.49590119  0.30210699
   0.16184442  0.16184442  0.41770789
   0.16184442  0.67631116  0.41770789
   0.67631116  0.16184442  0.41770789
   0.83031736  0.83031736  0.53177525
   0.83031736  0.33936527  0.53177525
   0.33936527  0.83031736  0.53177525
   0.49063770  0.49063770  0.64856214
   0.49063770  0.01872459  0.64856214
   0.01872459  0.49063770  0.64856214
   0.00000000 -0.00000000  0.29977343
   0.66666667  0.66666667  0.41142416
   0.33333333  0.33333333  0.52624347
   0.00000000 -0.00000000  0.63884483
   0.33333333  0.33333333  0.34940019
   0.00000000 -0.00000000  0.46445491
   0.66666667  0.66666667  0.58026009
   0.33333333  0.33333333  0.68691587
Direct configuration=     3
   0.49699389  0.49699389  0.30265468
   0.49699389  0.00601222  0.30265468
   0.00601222  0.49699389  0.30265468
   0.16401626  0.16401626  0.41838051
   0.16401626  0.67196747  0.41838051
   0.67196747  0.16401626  0.41838051
   0.83037345  0.83037345  0.53338205
   0.83037345  0.33925310  0.53338205
   0.33925310  0.83037345  0.53338205
   0.50106951  0.50106951  0.64703584
   0.50106951 -0.00213901  0.64703584
  -0.00213901  0.50106951  0.64703584
   0.00000000 -0.00000000  0.29915105
   0.66666667  0.66666667  0.40918381
   0.33333333  0.33333333  0.52426565
   0.00000000 -0.00000000  0.63755593
   0.33333333  0.33333333  0.34746164
   0.00000000 -0.00000000  0.46372073
   0.66666667  0.66666667  0.57921876
   0.33333333  0.33333333  0.69285698
Direct configuration=     4
   0.49988855  0.49988855  0.30247160
   0.49988855  0.00022289  0.30247160
   0.00022289  0.49988855  0.30247160
   0.16641969  0.16641969  0.41892585
   0.16641969  0.66716061  0.41892585
   0.66716061  0.16641969  0.41892585
   0.83306814  0.83306814  0.53438455
   0.83306814  0.33386373  0.53438455
   0.33386373  0.83306814  0.53438455
   0.49977910  0.49977910  0.64964309
   0.49977910  0.00044179  0.64964309
   0.00044179  0.49977910  0.64964309
   0.00000000 -0.00000000  0.29834740
   0.66666667  0.66666667  0.40689858
   0.33333333  0.33333333  0.52222040
   0.00000000 -0.00000000  0.63548687
   0.33333333  0.33333333  0.34714964
   0.00000000 -0.00000000  0.46359543
   0.66666667  0.66666667  0.57862343
   0.33333333  0.33333333  0.68917673
Direct configuration=     5
   0.49905476  0.49905476  0.30336012
   0.49905476  0.00189049  0.30336012
   0.00189049  0.49905476  0.30336012
   0.16633668  0.16633668  0.41934020
   0.16633668  0.66732664  0.41934020
   0.66732664  0.16633668  0.41934020
   0.83386131  0.83386131  0.53459941
   0.83386131  0.33227738  0.53459941
   0.33227738  0.83386131  0.53459941
   0.50003882  0.50003882  0.65001792
   0.50003882 -0.00007763  0.65001792
  -0.00007763  0.50003882  0.65001792
   0.00000000 -0.00000000  0.29816555
   0.66666667  0.66666667  0.40506357
   0.33333333  0.33333333  0.52133377
   0.00000000 -0.00000000  0.63458228
   0.33333333  0.33333333  0.34499504
   0.00000000 -0.00000000  0.46354338
   0.66666667  0.66666667  0.57922049
   0.33333333  0.33333333  0.68891675
Direct configuration=     6
   0.50170408  0.50170408  0.30348088
   0.50170408 -0.00340815  0.30348088
  -0.00340815  0.50170408  0.30348088
   0.16666680  0.16666680  0.42005012
   0.16666680  0.66666640  0.42005012
   0.66666640  0.16666680  0.42005012
   0.83399248  0.83399248  0.53593043
   0.83399248  0.33201503  0.53593043
   0.33201503  0.83399248  0.53593043
   0.50112263  0.50112263  0.65115626
   0.50112263 -0.00224526  0.65115626
  -0.00224526  0.50112263  0.65115626
   0.00000000 -0.00000000  0.29765392
   0.66666667  0.66666667  0.40178454
   0.33333333  0.33333333  0.51871096
   0.00000000 -0.00000000  0.63261384
   0.33333333  0.33333333  0.34460555
   0.00000000 -0.00000000  0.46300261
   0.66666667  0.66666667  0.57876279
   0.33333333  0.33333333  0.68878647
Direct configuration=     7
   0.50196135  0.50196135  0.30350530
   0.50196135 -0.00392271  0.30350530
  -0.00392271  0.50196135  0.30350530
   0.16781510  0.16781510  0.42026129
   0.16781510  0.66436980  0.42026129
   0.66436980  0.16781510  0.42026129
   0.83547077  0.83547077  0.53672264
   0.83547077  0.32905846  0.53672264
   0.32905846  0.83547077  0.53672264
   0.50023978  0.50023978  0.65289636
   0.50023978 -0.00047957  0.65289636
  -0.00047957  0.50023978  0.65289636
   0.00000000 -0.00000000  0.29663220
   0.66666667  0.66666667  0.39892415
   0.33333333  0.33333333  0.51642919
   0.00000000 -0.00000000  0.63125765
   0.33333333  0.33333333  0.34376092
   0.00000000 -0.00000000  0.46350499
   0.66666667  0.66666667  0.57941491
   0.33333333  0.33333333  0.68769294
Direct configuration=     8
   0.50231230  0.50231230  0.30334476
   0.50231230 -0.00462460  0.30334476
  -0.00462460  0.50231230  0.30334476
   0.16781438  0.16781438  0.42049209
   0.16781438  0.66437125  0.42049209
   0.66437125  0.16781438  0.42049209
   0.83541470  0.83541470  0.53746687
   0.83541470  0.32917060  0.53746687
   0.32917060  0.83541470  0.53746687
   0.50229408  0.50229408  0.65347666
   0.50229408 -0.00458816  0.65347666
  -0.00458816  0.50229408  0.65347666
   0.00000000 -0.00000000  0.29595818
   0.66666667  0.66666667  0.39697367
   0.33333333  0.33333333  0.51482614
   0.00000000 -0.00000000  0.63059565
   0.33333333  0.33333333  0.34345426
   0.00000000 -0.00000000  0.46325862
   0.66666667  0.66666667  0.57960199
   0.33333333  0.33333333  0.68876412
Direct configuration=     9
   0.50138618  0.50138618  0.30297798
   0.50138618 -0.00277236  0.30297798
  -0.00277236  0.50138618  0.30297798
   0.16686106  0.16686106  0.42030122
   0.16686106  0.66627788  0.42030122
   0.66627788  0.16686106  0.42030122
   0.83497706  0.83497706  0.53768461
   0.83497706  0.33004588  0.53768461
   0.33004588  0.83497706  0.53768461
   0.50239079  0.50239079  0.65434394
   0.50239079 -0.00478158  0.65434394
  -0.00478158  0.50239079  0.65434394
   0.00000000 -0.00000000  0.29537591
   0.66666667  0.66666667  0.39591941
   0.33333333  0.33333333  0.51431804
   0.00000000 -0.00000000  0.63083831
   0.33333333  0.33333333  0.34300072
   0.00000000 -0.00000000  0.46325853
   0.66666667  0.66666667  0.57998923
   0.33333333  0.33333333  0.68915037
Direct configuration=    10
   0.50136370  0.50136370  0.30264053
   0.50136370 -0.00272741  0.30264053
  -0.00272741  0.50136370  0.30264053
   0.16704794  0.16704794  0.42007211
   0.16704794  0.66590412  0.42007211
   0.66590412  0.16704794  0.42007211
   0.83514985  0.83514985  0.53777527
   0.83514985  0.32970030  0.53777527
   0.32970030  0.83514985  0.53777527
   0.50254591  0.50254591  0.65482536
   0.50254591 -0.00509182  0.65482536
  -0.00509182  0.50254591  0.65482536
   0.00000000 -0.00000000  0.29503549
   0.66666667  0.66666667  0.39525050
   0.33333333  0.33333333  0.51399303
   0.00000000 -0.00000000  0.63093864
   0.33333333  0.33333333  0.34291913
   0.00000000 -0.00000000  0.46359063
   0.66666667  0.66666667  0.58045898
   0.33333333  0.33333333  0.68964756
Direct configuration=    11
   0.50126802  0.50126802  0.30199121
   0.50126802 -0.00253603  0.30199121
  -0.00253603  0.50126802  0.30199121
   0.16654757  0.16654757  0.41990580
   0.16654757  0.66690486  0.41990580
   0.66690486  0.16654757  0.41990580
   0.83484104  0.83484104  0.53818295
   0.83484104  0.33031791  0.53818295
   0.33031791  0.83484104  0.53818295
   0.50256708  0.50256708  0.65573929
   0.50256708 -0.00513417  0.65573929
  -0.00513417  0.50256708  0.65573929
   0.00000000 -0.00000000  0.29443130
   0.66666667  0.66666667  0.39415401
   0.33333333  0.33333333  0.51341423
   0.00000000 -0.00000000  0.63122470
   0.33333333  0.33333333  0.34270727
   0.00000000 -0.00000000  0.46333211
   0.66666667  0.66666667  0.58079468
   0.33333333  0.33333333  0.69025774
Direct configuration=    12
   0.50096976  0.50096976  0.30187535
   0.50096976 -0.00193952  0.30187535
  -0.00193952  0.50096976  0.30187535
   0.16656019  0.16656019  0.41982040
   0.16656019  0.66687963  0.41982040
   0.66687963  0.16656019  0.41982040
   0.83486817  0.83486817  0.53829701
   0.83486817  0.33026365  0.53829701
   0.33026365  0.83486817  0.53829701
   0.50275078  0.50275078  0.65592774
   0.50275078 -0.00550156  0.65592774
  -0.00550156  0.50275078  0.65592774
   0.00000000 -0.00000000  0.29424002
   0.66666667  0.66666667  0.39392414
   0.33333333  0.33333333  0.51340508
   0.00000000 -0.00000000  0.63136704
   0.33333333  0.33333333  0.34219393
   0.00000000 -0.00000000  0.46333678
   0.66666667  0.66666667  0.58092000
   0.33333333  0.33333333  0.69062526
Direct configuration=    13
   0.50085802  0.50085802  0.30082617
   0.50085802 -0.00171604  0.30082617
  -0.00171604  0.50085802  0.30082617
   0.16630943  0.16630943  0.41940939
   0.16630943  0.66738114  0.41940939
   0.66738114  0.16630943  0.41940939
   0.83480872  0.83480872  0.53887129
   0.83480872  0.33038256  0.53887129
   0.33038256  0.83480872  0.53887129
   0.50267559  0.50267559  0.65730270
   0.50267559 -0.00535118  0.65730270
  -0.00535118  0.50267559  0.65730270
   0.00000000 -0.00000000  0.29333639
   0.66666667  0.66666667  0.39251859
   0.33333333  0.33333333  0.51286408
   0.00000000 -0.00000000  0.63186551
   0.33333333  0.33333333  0.34149202
   0.00000000 -0.00000000  0.46329245
   0.66666667  0.66666667  0.58153983
   0.33333333  0.33333333  0.69163624
Direct configuration=    14
   0.50064357  0.50064357  0.30071038
   0.50064357 -0.00128715  0.30071038
  -0.00128715  0.50064357  0.30071038
   0.16633120  0.16633120  0.41939906
   0.16633120  0.66733760  0.41939906
   0.66733760  0.16633120  0.41939906
   0.83482002  0.83482002  0.53890796
   0.83482002  0.33035995  0.53890796
   0.33035995  0.83482002  0.53890796
   0.50303029  0.50303029  0.65731324
   0.50303029 -0.00606058  0.65731324
  -0.00606058  0.50303029  0.65731324
   0.00000000 -0.00000000  0.29315695
   0.66666667  0.66666667  0.39239134
   0.33333333  0.33333333  0.51287270
   0.00000000 -0.00000000  0.63201670
   0.33333333  0.33333333  0.34129555
   0.00000000 -0.00000000  0.46324994
   0.66666667  0.66666667  0.58174666
   0.33333333  0.33333333  0.69205203
Direct configuration=    15
   0.50012418  0.50012418  0.29981980
   0.50012418 -0.00024837  0.29981980
  -0.00024837  0.50012418  0.29981980
   0.16609763  0.16609763  0.41908414
   0.16609763  0.66780473  0.41908414
   0.66780473  0.16609763  0.41908414
   0.83461746  0.83461746  0.53945372
   0.83461746  0.33076507  0.53945372
   0.33076507  0.83461746  0.53945372
   0.50273486  0.50273486  0.65855352
   0.50273486 -0.00546971  0.65855352
  -0.00546971  0.50273486  0.65855352
   0.00000000 -0.00000000  0.29215377
   0.66666667  0.66666667  0.39105867
   0.33333333  0.33333333  0.51246348
   0.00000000 -0.00000000  0.63257244
   0.33333333  0.33333333  0.34037533
   0.00000000 -0.00000000  0.46313516
   0.66666667  0.66666667  0.58231466
   0.33333333  0.33333333  0.69296668
Direct configuration=    16
   0.50075310  0.50075310  0.30017141
   0.50075310 -0.00150620  0.30017141
  -0.00150620  0.50075310  0.30017141
   0.16624638  0.16624638  0.41921101
   0.16624638  0.66750724  0.41921101
   0.66750724  0.16624638  0.41921101
   0.83473703  0.83473703  0.53921222
   0.83473703  0.33052593  0.53921222
   0.33052593  0.83473703  0.53921222
   0.50282530  0.50282530  0.65796968
   0.50282530 -0.00565061  0.65796968
  -0.00565061  0.50282530  0.65796968
   0.00000000 -0.00000000  0.29261212
   0.66666667  0.66666667  0.39173633
   0.33333333  0.33333333  0.51269295
   0.00000000 -0.00000000  0.63230642
   0.33333333  0.33333333  0.34104827
   0.00000000 -0.00000000  0.46318992
   0.66666667  0.66666667  0.58202628
   0.33333333  0.33333333  0.69246850
Direct configuration=    17
   0.50073445  0.50073445  0.29979138
   0.50073445 -0.00146890  0.29979138
  -0.00146890  0.50073445  0.29979138
   0.16614541  0.16614541  0.41901418
   0.16614541  0.66770918  0.41901418
   0.66770918  0.16614541  0.41901418
   0.83471285  0.83471285  0.53944958
   0.83471285  0.33057431  0.53944958
   0.33057431  0.83471285  0.53944958
   0.50287280  0.50287280  0.65850398
   0.50287280 -0.00574560  0.65850398
  -0.00574560  0.50287280  0.65850398
   0.00000000 -0.00000000  0.29208799
   0.66666667  0.66666667  0.39118723
   0.33333333  0.33333333  0.51257944
   0.00000000 -0.00000000  0.63259415
   0.33333333  0.33333333  0.34058829
   0.00000000 -0.00000000  0.46309441
   0.66666667  0.66666667  0.58237531
   0.33333333  0.33333333  0.69298961
Direct configuration=    18
   0.50058595  0.50058595  0.29922046
   0.50058595 -0.00117189  0.29922046
  -0.00117189  0.50058595  0.29922046
   0.16610223  0.16610223  0.41878162
   0.16610223  0.66779554  0.41878162
   0.66779554  0.16610223  0.41878162
   0.83454925  0.83454925  0.53985561
   0.83454925  0.33090149  0.53985561
   0.33090149  0.83454925  0.53985561
   0.50305300  0.50305300  0.65920475
   0.50305300 -0.00610600  0.65920475
  -0.00610600  0.50305300  0.65920475
   0.00000000 -0.00000000  0.29134229
   0.66666667  0.66666667  0.39051735
   0.33333333  0.33333333  0.51241490
   0.00000000 -0.00000000  0.63299201
   0.33333333  0.33333333  0.34008529
   0.00000000 -0.00000000  0.46294736
   0.66666667  0.66666667  0.58268559
   0.33333333  0.33333333  0.69360168
Direct configuration=    19
   0.50054166  0.50054166  0.29851340
   0.50054166 -0.00108332  0.29851340
  -0.00108332  0.50054166  0.29851340
   0.16600238  0.16600238  0.41853762
   0.16600238  0.66799524  0.41853762
   0.66799524  0.16600238  0.41853762
   0.83458836  0.83458836  0.54022763
   0.83458836  0.33082327  0.54022763
   0.33082327  0.83458836  0.54022763
   0.50313688  0.50313688  0.66011859
   0.50313688 -0.00627375  0.66011859
  -0.00627375  0.50313688  0.66011859
   0.00000000 -0.00000000  0.29041440
   0.66666667  0.66666667  0.38967707
   0.33333333  0.33333333  0.51222588
   0.00000000 -0.00000000  0.63348720
   0.33333333  0.33333333  0.33943000
   0.00000000 -0.00000000  0.46278916
   0.66666667  0.66666667  0.58325630
   0.33333333  0.33333333  0.69430206
Direct configuration=    20
   0.50041566  0.50041566  0.29846416
   0.50041566 -0.00083132  0.29846416
  -0.00083132  0.50041566  0.29846416
   0.16595964  0.16595964  0.41854045
   0.16595964  0.66808071  0.41854045
   0.66808071  0.16595964  0.41854045
   0.83456026  0.83456026  0.54026763
   0.83456026  0.33087948  0.54026763
   0.33087948  0.83456026  0.54026763
   0.50301869  0.50301869  0.66019855
   0.50301869 -0.00603737  0.66019855
  -0.00603737  0.50301869  0.66019855
   0.00000000 -0.00000000  0.29036480
   0.66666667  0.66666667  0.38976269
   0.33333333  0.33333333  0.51225159
   0.00000000 -0.00000000  0.63345744
   0.33333333  0.33333333  0.33933764
   0.00000000 -0.00000000  0.46278442
   0.66666667  0.66666667  0.58318169
   0.33333333  0.33333333  0.69422111
Direct configuration=    21
   0.50042899  0.50042899  0.29839479
   0.50042899 -0.00085798  0.29839479
  -0.00085798  0.50042899  0.29839479
   0.16594657  0.16594657  0.41853569
   0.16594657  0.66810687  0.41853569
   0.66810687  0.16594657  0.41853569
   0.83460480  0.83460480  0.54029058
   0.83460480  0.33079040  0.54029058
   0.33079040  0.83460480  0.54029058
   0.50314725  0.50314725  0.66023220
   0.50314725 -0.00629450  0.66023220
  -0.00629450  0.50314725  0.66023220
   0.00000000 -0.00000000  0.29030892
   0.66666667  0.66666667  0.38972807
   0.33333333  0.33333333  0.51224275
   0.00000000 -0.00000000  0.63347834
   0.33333333  0.33333333  0.33930690
   0.00000000 -0.00000000  0.46276676
   0.66666667  0.66666667  0.58323806
   0.33333333  0.33333333  0.69434417
Direct configuration=    22
   0.50036814  0.50036814  0.29831447
   0.50036814 -0.00073629  0.29831447
  -0.00073629  0.50036814  0.29831447
   0.16595784  0.16595784  0.41850063
   0.16595784  0.66808433  0.41850063
   0.66808433  0.16595784  0.41850063
   0.83464811  0.83464811  0.54033275
   0.83464811  0.33070377  0.54033275
   0.33070377  0.83464811  0.54033275
   0.50315487  0.50315487  0.66034759
   0.50315487 -0.00630974  0.66034759
  -0.00630974  0.50315487  0.66034759
   0.00000000 -0.00000000  0.29020566
   0.66666667  0.66666667  0.38965961
   0.33333333  0.33333333  0.51223450
   0.00000000 -0.00000000  0.63350548
   0.33333333  0.33333333  0.33922197
   0.00000000 -0.00000000  0.46276442
   0.66666667  0.66666667  0.58328990
   0.33333333  0.33333333  0.69440590
Direct configuration=    23
   0.50037697  0.50037697  0.29827697
   0.50037697 -0.00075393  0.29827697
  -0.00075393  0.50037697  0.29827697
   0.16594597  0.16594597  0.41848720
   0.16594597  0.66810805  0.41848720
   0.66810805  0.16594597  0.41848720
   0.83461720  0.83461720  0.54035250
   0.83461720  0.33076559  0.54035250
   0.33076559  0.83461720  0.54035250
   0.50317178  0.50317178  0.66040191
   0.50317178 -0.00634355  0.66040191
  -0.00634355  0.50317178  0.66040191
   0.00000000 -0.00000000  0.29016071
   0.66666667  0.66666667  0.38962479
   0.33333333  0.33333333  0.51222329
   0.00000000 -0.00000000  0.63352324
   0.33333333  0.33333333  0.33919927
   0.00000000 -0.00000000  0.46274325
   0.66666667  0.66666667  0.58329837
   0.33333333  0.33333333  0.69444509
