  20  20   0   0
  0.2336395E+02  0.5522883E-09  0.3905268E-09  0.2166505E-08  0.5000000E-15
  1.000000000000000E-004
  CAR 
 unknown system                          
      7.13571816    -38.67774225  301     -0.76634846      1.00000000
    -38.678  0.0000E+00  0.0000E+00
    -38.525  0.0000E+00  0.0000E+00
    -38.372  0.0000E+00  0.0000E+00
    -38.220  0.0000E+00  0.0000E+00
    -38.067  0.0000E+00  0.0000E+00
    -37.914  0.0000E+00  0.0000E+00
    -37.761  0.0000E+00  0.0000E+00
    -37.609  0.0000E+00  0.0000E+00
    -37.456  0.0000E+00  0.0000E+00
    -37.303  0.0000E+00  0.0000E+00
    -37.151  0.0000E+00  0.0000E+00
    -36.998  0.0000E+00  0.0000E+00
    -36.845  0.0000E+00  0.0000E+00
    -36.692  0.0000E+00  0.0000E+00
    -36.540  0.0000E+00  0.2000E+01
    -36.387  0.0000E+00  0.2000E+01
    -36.234  0.0000E+00  0.2000E+01
    -36.082  0.0000E+00  0.2000E+01
    -35.929  0.0000E+00  0.2000E+01
    -35.776  0.0000E+00  0.2000E+01
    -35.624  0.0000E+00  0.2000E+01
    -35.471  0.0000E+00  0.2000E+01
    -35.318  0.0000E+00  0.2000E+01
    -35.165  0.0000E+00  0.4000E+01
    -35.013  0.0000E+00  0.4000E+01
    -34.860  0.0000E+00  0.4000E+01
    -34.707  0.0000E+00  0.4000E+01
    -34.555  0.0000E+00  0.4000E+01
    -34.402  0.0000E+00  0.4000E+01
    -34.249  0.0000E+00  0.6000E+01
    -34.096  0.0000E+00  0.6000E+01
    -33.944  0.0000E+00  0.6000E+01
    -33.791  0.0000E+00  0.6000E+01
    -33.638  0.0000E+00  0.6000E+01
    -33.486  0.0000E+00  0.6000E+01
    -33.333  0.0000E+00  0.8000E+01
    -33.180  0.0000E+00  0.8000E+01
    -33.027  0.0000E+00  0.8000E+01
    -32.875  0.0000E+00  0.8000E+01
    -32.722  0.0000E+00  0.8000E+01
    -32.569  0.0000E+00  0.8000E+01
    -32.417  0.0000E+00  0.8000E+01
    -32.264  0.0000E+00  0.8000E+01
    -32.111  0.0000E+00  0.8000E+01
    -31.958  0.0000E+00  0.8000E+01
    -31.806  0.0000E+00  0.8000E+01
    -31.653  0.0000E+00  0.8000E+01
    -31.500  0.0000E+00  0.8000E+01
    -31.348  0.0000E+00  0.8000E+01
    -31.195  0.0000E+00  0.8000E+01
    -31.042  0.0000E+00  0.8000E+01
    -30.889  0.0000E+00  0.8000E+01
    -30.737  0.0000E+00  0.8000E+01
    -30.584  0.0000E+00  0.8000E+01
    -30.431  0.0000E+00  0.8000E+01
    -30.279  0.0000E+00  0.8000E+01
    -30.126  0.0000E+00  0.8000E+01
    -29.973  0.0000E+00  0.8000E+01
    -29.820  0.0000E+00  0.8000E+01
    -29.668  0.0000E+00  0.8000E+01
    -29.515  0.0000E+00  0.8000E+01
    -29.362  0.0000E+00  0.8000E+01
    -29.210  0.0000E+00  0.8000E+01
    -29.057  0.0000E+00  0.8000E+01
    -28.904  0.0000E+00  0.8000E+01
    -28.751  0.0000E+00  0.8000E+01
    -28.599  0.0000E+00  0.8000E+01
    -28.446  0.0000E+00  0.8000E+01
    -28.293  0.0000E+00  0.8000E+01
    -28.141  0.0000E+00  0.8000E+01
    -27.988  0.0000E+00  0.8000E+01
    -27.835  0.0000E+00  0.8000E+01
    -27.683  0.0000E+00  0.8000E+01
    -27.530  0.0000E+00  0.8000E+01
    -27.377  0.0000E+00  0.8000E+01
    -27.224  0.0000E+00  0.8000E+01
    -27.072  0.0000E+00  0.8000E+01
    -26.919  0.0000E+00  0.8000E+01
    -26.766  0.0000E+00  0.8000E+01
    -26.614  0.0000E+00  0.8000E+01
    -26.461  0.0000E+00  0.8000E+01
    -26.308  0.0000E+00  0.8000E+01
    -26.155  0.0000E+00  0.8000E+01
    -26.003  0.0000E+00  0.8000E+01
    -25.850  0.0000E+00  0.8000E+01
    -25.697  0.0000E+00  0.8000E+01
    -25.545  0.0000E+00  0.8000E+01
    -25.392  0.0000E+00  0.8000E+01
    -25.239  0.0000E+00  0.8000E+01
    -25.086  0.0000E+00  0.8000E+01
    -24.934  0.0000E+00  0.8000E+01
    -24.781  0.0000E+00  0.8000E+01
    -24.628  0.0000E+00  0.8000E+01
    -24.476  0.0000E+00  0.8000E+01
    -24.323  0.0000E+00  0.8000E+01
    -24.170  0.0000E+00  0.8000E+01
    -24.017  0.0000E+00  0.8000E+01
    -23.865  0.0000E+00  0.8000E+01
    -23.712  0.0000E+00  0.8000E+01
    -23.559  0.0000E+00  0.8000E+01
    -23.407  0.0000E+00  0.8000E+01
    -23.254  0.0000E+00  0.8000E+01
    -23.101  0.0000E+00  0.8000E+01
    -22.948  0.0000E+00  0.8000E+01
    -22.796  0.0000E+00  0.8000E+01
    -22.643  0.0000E+00  0.8000E+01
    -22.490  0.0000E+00  0.8000E+01
    -22.338  0.0000E+00  0.8000E+01
    -22.185  0.0000E+00  0.8000E+01
    -22.032  0.0000E+00  0.8000E+01
    -21.879  0.0000E+00  0.8000E+01
    -21.727  0.0000E+00  0.8000E+01
    -21.574  0.0000E+00  0.8000E+01
    -21.421  0.0000E+00  0.8000E+01
    -21.269  0.0000E+00  0.8000E+01
    -21.116  0.0000E+00  0.8000E+01
    -20.963  0.0000E+00  0.8000E+01
    -20.810  0.0000E+00  0.8000E+01
    -20.658  0.1441E+01  0.8010E+01
    -20.505  0.5284E+01  0.8502E+01
    -20.352  0.9662E+01  0.9400E+01
    -20.200  0.6037E+01  0.1025E+02
    -20.047  0.5561E+01  0.1110E+02
    -19.894  0.2429E+01  0.1171E+02
    -19.742  0.7066E+01  0.1236E+02
    -19.589  0.2970E+01  0.1393E+02
    -19.436  0.0000E+00  0.1400E+02
    -19.283  0.1613E+02  0.1480E+02
    -19.131  0.5481E+01  0.1637E+02
    -18.978  0.2603E+01  0.1791E+02
    -18.825  0.0000E+00  0.1800E+02
    -18.673  0.1262E+02  0.1919E+02
    -18.520  0.1825E+02  0.2184E+02
    -18.367  0.1730E+02  0.2521E+02
    -18.214  0.1923E+02  0.2762E+02
    -18.062  0.5670E+01  0.2992E+02
    -17.909  0.0000E+00  0.3000E+02
    -17.756  0.8843E+01  0.3122E+02
    -17.604  0.2308E+01  0.3194E+02
    -17.451  0.0000E+00  0.3200E+02
    -17.298  0.2198E+02  0.3239E+02
    -17.145  0.1699E+02  0.3637E+02
    -16.993  0.3047E+01  0.3995E+02
    -16.840  0.0000E+00  0.4000E+02
    -16.687  0.0000E+00  0.4000E+02
    -16.535  0.9249E+01  0.4131E+02
    -16.382  0.2456E+01  0.4216E+02
    -16.229  0.1085E+02  0.4489E+02
    -16.076  0.1270E+02  0.4815E+02
    -15.924  0.0000E+00  0.5000E+02
    -15.771  0.0000E+00  0.5000E+02
    -15.618  0.0000E+00  0.5000E+02
    -15.466  0.3264E+01  0.5014E+02
    -15.313  0.3735E+01  0.5244E+02
    -15.160  0.1024E+02  0.5421E+02
    -15.007  0.0000E+00  0.5600E+02
    -14.855  0.0000E+00  0.5600E+02
    -14.702  0.0000E+00  0.5600E+02
    -14.549  0.0000E+00  0.5600E+02
    -14.397  0.0000E+00  0.5600E+02
    -14.244  0.0000E+00  0.5600E+02
    -14.091  0.0000E+00  0.5600E+02
    -13.938  0.0000E+00  0.5600E+02
    -13.786  0.0000E+00  0.5600E+02
    -13.633  0.0000E+00  0.5600E+02
    -13.480  0.0000E+00  0.5600E+02
    -13.328  0.0000E+00  0.5600E+02
    -13.175  0.0000E+00  0.5600E+02
    -13.022  0.0000E+00  0.5600E+02
    -12.869  0.0000E+00  0.5600E+02
    -12.717  0.0000E+00  0.5600E+02
    -12.564  0.0000E+00  0.5600E+02
    -12.411  0.0000E+00  0.5600E+02
    -12.259  0.0000E+00  0.5600E+02
    -12.106  0.0000E+00  0.5600E+02
    -11.953  0.0000E+00  0.5600E+02
    -11.801  0.0000E+00  0.5600E+02
    -11.648  0.0000E+00  0.5600E+02
    -11.495  0.0000E+00  0.5600E+02
    -11.342  0.0000E+00  0.5600E+02
    -11.190  0.0000E+00  0.5600E+02
    -11.037  0.0000E+00  0.5600E+02
    -10.884  0.0000E+00  0.5600E+02
    -10.732  0.0000E+00  0.5600E+02
    -10.579  0.0000E+00  0.5600E+02
    -10.426  0.0000E+00  0.5600E+02
    -10.273  0.0000E+00  0.5600E+02
    -10.121  0.0000E+00  0.5600E+02
     -9.968  0.0000E+00  0.5600E+02
     -9.815  0.0000E+00  0.5600E+02
     -9.663  0.0000E+00  0.5600E+02
     -9.510  0.0000E+00  0.5600E+02
     -9.357  0.0000E+00  0.5600E+02
     -9.204  0.0000E+00  0.5600E+02
     -9.052  0.0000E+00  0.5600E+02
     -8.899  0.0000E+00  0.5600E+02
     -8.746  0.0000E+00  0.5600E+02
     -8.594  0.0000E+00  0.5600E+02
     -8.441  0.0000E+00  0.5600E+02
     -8.288  0.0000E+00  0.5600E+02
     -8.135  0.0000E+00  0.5600E+02
     -7.983  0.0000E+00  0.5600E+02
     -7.830  0.0000E+00  0.5600E+02
     -7.677  0.0000E+00  0.5600E+02
     -7.525  0.9670E+00  0.5635E+02
     -7.372  0.9664E+00  0.5650E+02
     -7.219  0.9659E+00  0.5665E+02
     -7.066  0.3761E+01  0.5694E+02
     -6.914  0.1181E+02  0.5854E+02
     -6.761  0.1221E+02  0.6003E+02
     -6.608  0.1113E+02  0.6253E+02
     -6.456  0.7381E+01  0.6415E+02
     -6.303  0.7371E+01  0.6525E+02
     -6.150  0.6266E+01  0.6616E+02
     -5.997  0.1064E+02  0.6746E+02
     -5.845  0.1667E+02  0.6929E+02
     -5.692  0.1159E+02  0.7128E+02
     -5.539  0.1695E+02  0.7333E+02
     -5.387  0.1292E+02  0.7533E+02
     -5.234  0.1448E+02  0.7741E+02
     -5.081  0.1344E+02  0.7990E+02
     -4.928  0.1426E+02  0.8210E+02
     -4.776  0.1533E+02  0.8409E+02
     -4.623  0.1528E+02  0.8658E+02
     -4.470  0.8532E+01  0.8807E+02
     -4.318  0.1317E+02  0.8966E+02
     -4.165  0.2184E+02  0.9184E+02
     -4.012  0.1130E+02  0.9470E+02
     -3.860  0.8925E+01  0.9633E+02
     -3.707  0.1040E+02  0.9875E+02
     -3.554  0.1128E+02  0.1004E+03
     -3.401  0.9527E+01  0.1022E+03
     -3.249  0.6055E+01  0.1034E+03
     -3.096  0.1117E+02  0.1046E+03
     -2.943  0.1111E+02  0.1063E+03
     -2.791  0.1514E+02  0.1095E+03
     -2.638  0.9107E+01  0.1111E+03
     -2.485  0.1539E+01  0.1119E+03
     -2.332  0.1227E+02  0.1126E+03
     -2.180  0.7268E+01  0.1140E+03
     -2.027  0.9403E+01  0.1157E+03
     -1.874  0.3486E+01  0.1177E+03
     -1.722  0.7917E+01  0.1183E+03
     -1.569  0.6080E+01  0.1193E+03
     -1.416  0.3269E+01  0.1200E+03
     -1.263  0.1348E+02  0.1212E+03
     -1.111  0.4300E+01  0.1228E+03
     -0.958  0.1638E+02  0.1248E+03
     -0.805  0.1655E+02  0.1273E+03
     -0.653  0.1125E+02  0.1306E+03
     -0.500  0.7815E+01  0.1318E+03
     -0.347  0.7959E+01  0.1331E+03
     -0.194  0.3986E+01  0.1340E+03
     -0.042  0.3149E+01  0.1346E+03
      0.111  0.7467E+01  0.1353E+03
      0.264  0.3017E+01  0.1360E+03
      0.416  0.8822E+01  0.1368E+03
      0.569  0.6247E+01  0.1380E+03
      0.722  0.7382E+01  0.1393E+03
      0.875  0.8698E+01  0.1404E+03
      1.027  0.7960E+01  0.1417E+03
      1.180  0.3314E+01  0.1424E+03
      1.333  0.6988E+01  0.1430E+03
      1.485  0.5704E+01  0.1445E+03
      1.638  0.4408E+01  0.1452E+03
      1.791  0.3523E+01  0.1458E+03
      1.944  0.2565E+01  0.1467E+03
      2.096  0.2325E+01  0.1471E+03
      2.249  0.1510E+01  0.1475E+03
      2.402  0.3939E+00  0.1479E+03
      2.554  0.3070E+00  0.1479E+03
      2.707  0.5227E+01  0.1483E+03
      2.860  0.3077E+01  0.1490E+03
      3.013  0.3051E+01  0.1494E+03
      3.165  0.1368E+02  0.1504E+03
      3.318  0.1586E+01  0.1509E+03
      3.471  0.3951E+01  0.1513E+03
      3.623  0.5362E+00  0.1515E+03
      3.776  0.5188E+00  0.1516E+03
      3.929  0.5013E+00  0.1517E+03
      4.081  0.4839E+00  0.1518E+03
      4.234  0.5800E+00  0.1518E+03
      4.387  0.4183E+00  0.1519E+03
      4.540  0.1707E+00  0.1520E+03
      4.692  0.1199E+00  0.1520E+03
      4.845  0.6918E-01  0.1520E+03
      4.998  0.1845E-01  0.1520E+03
      5.150  0.0000E+00  0.1520E+03
      5.303  0.0000E+00  0.1520E+03
      5.456  0.0000E+00  0.1520E+03
      5.609  0.0000E+00  0.1520E+03
      5.761  0.0000E+00  0.1520E+03
      5.914  0.0000E+00  0.1520E+03
      6.067  0.0000E+00  0.1520E+03
      6.219  0.0000E+00  0.1520E+03
      6.372  0.0000E+00  0.1520E+03
      6.525  0.0000E+00  0.1520E+03
      6.678  0.0000E+00  0.1520E+03
      6.830  0.0000E+00  0.1520E+03
      6.983  0.0000E+00  0.1520E+03
      7.136  0.0000E+00  0.1520E+03
