   20   20    1    1
  0.2336395E+02  0.5522883E-09  0.3905268E-09  0.2166505E-08  0.5000000E-15
  1.000000000000000E-004
  CAR 
 unknown system                          
    128     12     76
 
  0.0000000E+00  0.0000000E+00  0.0000000E+00  0.2857143E-01
    1      -36.595312   1.000000
    2      -35.262369   1.000000
    3      -34.300544   1.000000
    4      -33.413727   1.000000
    5      -20.502779   1.000000
    6      -20.031624   1.000000
    7      -19.843648   1.000000
    8      -19.350615   1.000000
    9      -19.039860   1.000000
   10      -18.673834   1.000000
   11      -18.594566   1.000000
   12      -18.534209   1.000000
   13      -18.519746   1.000000
   14      -18.342319   1.000000
   15      -18.086908   1.000000
   16      -17.822041   1.000000
   17      -17.305501   1.000000
   18      -17.281609   1.000000
   19      -17.128117   1.000000
   20      -17.046691   1.000000
   21      -16.515771   1.000000
   22      -16.339324   1.000000
   23      -16.287868   1.000000
   24      -16.154122   1.000000
   25      -16.085782   1.000000
   26      -15.433283   1.000000
   27      -15.165685   1.000000
   28      -15.114550   1.000000
   29       -7.104888   1.000000
   30       -6.794236   1.000000
   31       -6.630359   1.000000
   32       -6.005782   1.000000
   33       -5.885972   1.000000
   34       -5.533949   1.000000
   35       -5.440313   1.000000
   36       -5.294080   1.000000
   37       -5.143976   1.000000
   38       -5.061339   1.000000
   39       -4.995119   1.000000
   40       -4.855434   1.000000
   41       -4.765303   1.000000
   42       -4.578724   1.000000
   43       -4.243167   1.000000
   44       -4.119095   1.000000
   45       -4.076629   1.000000
   46       -3.989741   1.000000
   47       -3.803112   1.000000
   48       -3.763187   1.000000
   49       -3.539473   1.000000
   50       -3.247385   1.000000
   51       -3.012857   1.000000
   52       -2.920524   1.000000
   53       -2.907410   1.000000
   54       -2.693724   1.000000
   55       -2.662065   1.000000
   56       -2.387377   1.000000
   57       -2.292661   1.000000
   58       -1.948105   1.000000
   59       -1.911438   1.000000
   60       -1.368753   1.000000
   61       -1.341470   1.000000
   62       -1.086469   1.000000
   63       -1.076592   1.000000
   64       -1.042938   1.000000
   65       -0.870495   1.125049
   66       -0.780771   0.259246
   67       -0.754986   0.000000
   68       -0.512494   0.000000
   69        0.065721   0.000000
   70        0.291238   0.000000
   71        0.388649   0.000000
   72        0.651425   0.000000
   73        1.260719   0.000000
   74        1.402168   0.000000
   75        2.652427   0.000000
   76        4.107290   0.000000
 
  0.2000000E+00  0.0000000E+00  0.0000000E+00  0.5714286E-01
    1      -36.595012   1.000000
    2      -35.262037   1.000000
    3      -34.300217   1.000000
    4      -33.413462   1.000000
    5      -20.563506   1.000000
    6      -20.186995   1.000000
    7      -19.715809   1.000000
    8      -19.339218   1.000000
    9      -19.118985   1.000000
   10      -18.712260   1.000000
   11      -18.594902   1.000000
   12      -18.470783   1.000000
   13      -18.397410   1.000000
   14      -18.349430   1.000000
   15      -18.157548   1.000000
   16      -17.788458   1.000000
   17      -17.306135   1.000000
   18      -17.267246   1.000000
   19      -17.087869   1.000000
   20      -17.054677   1.000000
   21      -16.488165   1.000000
   22      -16.339999   1.000000
   23      -16.288387   1.000000
   24      -16.129804   1.000000
   25      -16.026107   1.000000
   26      -15.434201   1.000000
   27      -15.171472   1.000000
   28      -15.095667   1.000000
   29       -6.934978   1.000000
   30       -6.750900   1.000000
   31       -6.659644   1.000000
   32       -5.978471   1.000000
   33       -5.745302   1.000000
   34       -5.606133   1.000000
   35       -5.534880   1.000000
   36       -5.338039   1.000000
   37       -5.177150   1.000000
   38       -5.129214   1.000000
   39       -4.920940   1.000000
   40       -4.770089   1.000000
   41       -4.693374   1.000000
   42       -4.637427   1.000000
   43       -4.365313   1.000000
   44       -4.341685   1.000000
   45       -4.074474   1.000000
   46       -4.032468   1.000000
   47       -3.952250   1.000000
   48       -3.737033   1.000000
   49       -3.501753   1.000000
   50       -3.358694   1.000000
   51       -3.184813   1.000000
   52       -3.025114   1.000000
   53       -2.932947   1.000000
   54       -2.789072   1.000000
   55       -2.608632   1.000000
   56       -2.518131   1.000000
   57       -2.298555   1.000000
   58       -2.199153   1.000000
   59       -1.886202   1.000000
   60       -1.410316   1.000000
   61       -1.387250   1.000000
   62       -1.100902   1.000000
   63       -1.070704   1.000000
   64       -0.966815   1.000000
   65       -0.872533   1.084466
   66       -0.744655   0.057774
   67       -0.721411   0.000000
   68       -0.622935   0.000000
   69        0.084438   0.000000
   70        0.329530   0.000000
   71        0.366338   0.000000
   72        0.815974   0.000000
   73        1.300768   0.000000
   74        1.318090   0.000000
   75        2.643043   0.000000
   76        4.324935   0.000000
 
  0.4000000E+00  0.0000000E+00  0.0000000E+00  0.5714286E-01
    1      -36.594525   1.000000
    2      -35.261501   1.000000
    3      -34.299688   1.000000
    4      -33.413035   1.000000
    5      -20.665378   1.000000
    6      -20.298464   1.000000
    7      -19.666080   1.000000
    8      -19.296370   1.000000
    9      -19.225144   1.000000
   10      -18.724025   1.000000
   11      -18.595446   1.000000
   12      -18.383051   1.000000
   13      -18.347981   1.000000
   14      -18.289520   1.000000
   15      -18.223411   1.000000
   16      -17.765089   1.000000
   17      -17.307162   1.000000
   18      -17.253945   1.000000
   19      -17.059303   1.000000
   20      -17.021159   1.000000
   21      -16.418219   1.000000
   22      -16.341093   1.000000
   23      -16.308231   1.000000
   24      -16.057025   1.000000
   25      -15.980991   1.000000
   26      -15.435688   1.000000
   27      -15.172530   1.000000
   28      -15.058633   1.000000
   29       -6.823743   1.000000
   30       -6.705844   1.000000
   31       -6.299458   1.000000
   32       -5.918857   1.000000
   33       -5.818801   1.000000
   34       -5.666829   1.000000
   35       -5.609261   1.000000
   36       -5.489661   1.000000
   37       -5.307382   1.000000
   38       -5.105220   1.000000
   39       -4.799316   1.000000
   40       -4.778569   1.000000
   41       -4.684468   1.000000
   42       -4.634197   1.000000
   43       -4.566647   1.000000
   44       -4.498235   1.000000
   45       -4.125969   1.000000
   46       -4.108313   1.000000
   47       -3.893468   1.000000
   48       -3.886287   1.000000
   49       -3.670081   1.000000
   50       -3.512343   1.000000
   51       -3.345316   1.000000
   52       -3.104602   1.000000
   53       -3.064546   1.000000
   54       -3.003821   1.000000
   55       -2.759322   1.000000
   56       -2.503653   1.000000
   57       -2.359754   1.000000
   58       -2.312532   1.000000
   59       -1.743078   1.000000
   60       -1.546988   1.000000
   61       -1.457613   1.000000
   62       -1.196700   1.000000
   63       -1.057897   1.000000
   64       -1.025565   1.000000
   65       -0.853266   1.014048
   66       -0.814563   0.628576
   67       -0.743817   0.000000
   68       -0.402736   0.000000
   69        0.044060   0.000000
   70        0.318890   0.000000
   71        0.397971   0.000000
   72        0.993003   0.000000
   73        1.301180   0.000000
   74        1.808825   0.000000
   75        2.624669   0.000000
   76        2.713330   0.000000
 
  0.0000000E+00  0.1428571E+00  0.0000000E+00  0.5714286E-01
    1      -36.591884   1.000000
    2      -35.258458   1.000000
    3      -34.296642   1.000000
    4      -33.409884   1.000000
    5      -20.447980   1.000000
    6      -19.991777   1.000000
    7      -19.796560   1.000000
    8      -19.306858   1.000000
    9      -19.058563   1.000000
   10      -18.629189   1.000000
   11      -18.608075   1.000000
   12      -18.550098   1.000000
   13      -18.496976   1.000000
   14      -18.303221   1.000000
   15      -18.102388   1.000000
   16      -17.781173   1.000000
   17      -17.276881   1.000000
   18      -17.230030   1.000000
   19      -17.177319   1.000000
   20      -17.061443   1.000000
   21      -16.563068   1.000000
   22      -16.298360   1.000000
   23      -16.259876   1.000000
   24      -16.198213   1.000000
   25      -16.103245   1.000000
   26      -15.382519   1.000000
   27      -15.196835   1.000000
   28      -15.179398   1.000000
   29       -7.047074   1.000000
   30       -6.724111   1.000000
   31       -6.624651   1.000000
   32       -6.332291   1.000000
   33       -5.854648   1.000000
   34       -5.830748   1.000000
   35       -5.538026   1.000000
   36       -5.499201   1.000000
   37       -5.279717   1.000000
   38       -5.216453   1.000000
   39       -5.053164   1.000000
   40       -4.980359   1.000000
   41       -4.864747   1.000000
   42       -4.620087   1.000000
   43       -4.421407   1.000000
   44       -4.417581   1.000000
   45       -4.074930   1.000000
   46       -4.063793   1.000000
   47       -4.018156   1.000000
   48       -3.722508   1.000000
   49       -3.702467   1.000000
   50       -3.351051   1.000000
   51       -3.163995   1.000000
   52       -3.065631   1.000000
   53       -2.931848   1.000000
   54       -2.818616   1.000000
   55       -2.700086   1.000000
   56       -2.556467   1.000000
   57       -2.337007   1.000000
   58       -1.999825   1.000000
   59       -1.969069   1.000000
   60       -1.501585   1.000000
   61       -1.310591   1.000000
   62       -1.092301   1.000000
   63       -0.971815   1.000000
   64       -0.970365   1.033531
   65       -0.749508   0.280213
   66       -0.657274  -0.037825
   67       -0.519106   0.000000
   68       -0.469193   0.000000
   69        0.124525   0.000000
   70        0.489485   0.000000
   71        0.570531   0.000000
   72        0.681809   0.000000
   73        1.490734   0.000000
   74        1.660549   0.000000
   75        2.797313   0.000000
   76        4.444484   0.000000
 
  0.2000000E+00  0.1428571E+00  0.0000000E+00  0.1142857E+00
    1      -36.591615   1.000000
    2      -35.258166   1.000000
    3      -34.296354   1.000000
    4      -33.409656   1.000000
    5      -20.489378   1.000000
    6      -20.144177   1.000000
    7      -19.691913   1.000000
    8      -19.304789   1.000000
    9      -19.106668   1.000000
   10      -18.705141   1.000000
   11      -18.590518   1.000000
   12      -18.487490   1.000000
   13      -18.380222   1.000000
   14      -18.316323   1.000000
   15      -18.156042   1.000000
   16      -17.769581   1.000000
   17      -17.272586   1.000000
   18      -17.229429   1.000000
   19      -17.120350   1.000000
   20      -17.078133   1.000000
   21      -16.535088   1.000000
   22      -16.309490   1.000000
   23      -16.255668   1.000000
   24      -16.168127   1.000000
   25      -16.038725   1.000000
   26      -15.377604   1.000000
   27      -15.208972   1.000000
   28      -15.137693   1.000000
   29       -6.911271   1.000000
   30       -6.702927   1.000000
   31       -6.649487   1.000000
   32       -6.314268   1.000000
   33       -5.951690   1.000000
   34       -5.758061   1.000000
   35       -5.600183   1.000000
   36       -5.506238   1.000000
   37       -5.330598   1.000000
   38       -5.170160   1.000000
   39       -5.050681   1.000000
   40       -4.969374   1.000000
   41       -4.817590   1.000000
   42       -4.648693   1.000000
   43       -4.574628   1.000000
   44       -4.410697   1.000000
   45       -4.348013   1.000000
   46       -4.051580   1.000000
   47       -3.927858   1.000000
   48       -3.816675   1.000000
   49       -3.685757   1.000000
   50       -3.475138   1.000000
   51       -3.161761   1.000000
   52       -3.083868   1.000000
   53       -3.018729   1.000000
   54       -2.957078   1.000000
   55       -2.840625   1.000000
   56       -2.533908   1.000000
   57       -2.363051   1.000000
   58       -2.180992   1.000000
   59       -1.932854   1.000000
   60       -1.621594   1.000000
   61       -1.306138   1.000000
   62       -1.096393   1.000000
   63       -0.971845   1.000000
   64       -0.937512   1.015542
   65       -0.732444   0.324233
   66       -0.710670  -0.015973
   67       -0.532984   0.000000
   68       -0.421163   0.000000
   69        0.165831   0.000000
   70        0.520735   0.000000
   71        0.555982   0.000000
   72        0.837543   0.000000
   73        1.455565   0.000000
   74        1.459331   0.000000
   75        2.754563   0.000000
   76        2.803953   0.000000
 
  0.4000000E+00  0.1428571E+00  0.0000000E+00  0.1142857E+00
    1      -36.591182   1.000000
    2      -35.257693   1.000000
    3      -34.295889   1.000000
    4      -33.409287   1.000000
    5      -20.573622   1.000000
    6      -20.247251   1.000000
    7      -19.662752   1.000000
    8      -19.292285   1.000000
    9      -19.175525   1.000000
   10      -18.734207   1.000000
   11      -18.579981   1.000000
   12      -18.374811   1.000000
   13      -18.334019   1.000000
   14      -18.302226   1.000000
   15      -18.209044   1.000000
   16      -17.770267   1.000000
   17      -17.250380   1.000000
   18      -17.238590   1.000000
   19      -17.092452   1.000000
   20      -17.041846   1.000000
   21      -16.469969   1.000000
   22      -16.328672   1.000000
   23      -16.250940   1.000000
   24      -16.094387   1.000000
   25      -15.994501   1.000000
   26      -15.359942   1.000000
   27      -15.200168   1.000000
   28      -15.087879   1.000000
   29       -6.840638   1.000000
   30       -6.713170   1.000000
   31       -6.415745   1.000000
   32       -6.293984   1.000000
   33       -6.020962   1.000000
   34       -5.777973   1.000000
   35       -5.593797   1.000000
   36       -5.530165   1.000000
   37       -5.442041   1.000000
   38       -5.280368   1.000000
   39       -5.065659   1.000000
   40       -4.944453   1.000000
   41       -4.816040   1.000000
   42       -4.718247   1.000000
   43       -4.676403   1.000000
   44       -4.517409   1.000000
   45       -4.342128   1.000000
   46       -4.133226   1.000000
   47       -3.959256   1.000000
   48       -3.813503   1.000000
   49       -3.775501   1.000000
   50       -3.542825   1.000000
   51       -3.470694   1.000000
   52       -3.219755   1.000000
   53       -3.103700   1.000000
   54       -2.984442   1.000000
   55       -2.883535   1.000000
   56       -2.811632   1.000000
   57       -2.423469   1.000000
   58       -2.143299   1.000000
   59       -1.860087   1.000000
   60       -1.697611   1.000000
   61       -1.297808   1.000000
   62       -1.244357   1.000000
   63       -1.102720   1.000000
   64       -0.935584   1.000000
   65       -0.871636   1.063621
   66       -0.622965  -0.056472
   67       -0.372924   0.000000
   68       -0.336150   0.000000
   69        0.159909   0.000000
   70        0.529425   0.000000
   71        0.586214   0.000000
   72        0.999303   0.000000
   73        1.444075   0.000000
   74        1.484759   0.000000
   75        2.728265   0.000000
   76        2.812223   0.000000
 
  0.0000000E+00  0.2857143E+00  0.0000000E+00  0.5714286E-01
    1      -36.584165   1.000000
    2      -35.249650   1.000000
    3      -34.287853   1.000000
    4      -33.401230   1.000000
    5      -20.381127   1.000000
    6      -19.868792   1.000000
    7      -19.676703   1.000000
    8      -19.214243   1.000000
    9      -19.086523   1.000000
   10      -18.637343   1.000000
   11      -18.583568   1.000000
   12      -18.511176   1.000000
   13      -18.447084   1.000000
   14      -18.216116   1.000000
   15      -18.110809   1.000000
   16      -17.676830   1.000000
   17      -17.303021   1.000000
   18      -17.216740   1.000000
   19      -17.166752   1.000000
   20      -17.037249   1.000000
   21      -16.629605   1.000000
   22      -16.353509   1.000000
   23      -16.210769   1.000000
   24      -16.132139   1.000000
   25      -16.130951   1.000000
   26      -15.370400   1.000000
   27      -15.344584   1.000000
   28      -15.193939   1.000000
   29       -6.990856   1.000000
   30       -6.931818   1.000000
   31       -6.609523   1.000000
   32       -6.526566   1.000000
   33       -6.370348   1.000000
   34       -6.275184   1.000000
   35       -6.002356   1.000000
   36       -5.793121   1.000000
   37       -5.559038   1.000000
   38       -5.457179   1.000000
   39       -5.299838   1.000000
   40       -5.169516   1.000000
   41       -5.043834   1.000000
   42       -4.981811   1.000000
   43       -4.737674   1.000000
   44       -4.525826   1.000000
   45       -4.514730   1.000000
   46       -4.244233   1.000000
   47       -4.179621   1.000000
   48       -3.985040   1.000000
   49       -3.901818   1.000000
   50       -3.706396   1.000000
   51       -3.407603   1.000000
   52       -3.365596   1.000000
   53       -2.969273   1.000000
   54       -2.810512   1.000000
   55       -2.765205   1.000000
   56       -2.694422   1.000000
   57       -2.262633   1.000000
   58       -2.137601   1.000000
   59       -1.980831   1.000000
   60       -1.500045   1.000000
   61       -1.294480   1.000000
   62       -0.981482   1.000000
   63       -0.810211   1.032648
   64       -0.744159   0.424127
   65       -0.700696   0.000000
   66       -0.533774   0.000000
   67       -0.310566   0.000000
   68        0.179670   0.000000
   69        0.709560   0.000000
   70        0.915032   0.000000
   71        1.003737   0.000000
   72        1.869779   0.000000
   73        1.883302   0.000000
   74        3.093366   0.000000
   75        3.164179   0.000000
   76        5.053288   0.000000
 
  0.2000000E+00  0.2857143E+00  0.0000000E+00  0.1142857E+00
    1      -36.583970   1.000000
    2      -35.249447   1.000000
    3      -34.287654   1.000000
    4      -33.401083   1.000000
    5      -20.360245   1.000000
    6      -20.028269   1.000000
    7      -19.643673   1.000000
    8      -19.230621   1.000000
    9      -19.085536   1.000000
   10      -18.624654   1.000000
   11      -18.588260   1.000000
   12      -18.508543   1.000000
   13      -18.380004   1.000000
   14      -18.230597   1.000000
   15      -18.140057   1.000000
   16      -17.712449   1.000000
   17      -17.261424   1.000000
   18      -17.171841   1.000000
   19      -17.152770   1.000000
   20      -17.080833   1.000000
   21      -16.605560   1.000000
   22      -16.290570   1.000000
   23      -16.227824   1.000000
   24      -16.170019   1.000000
   25      -16.037030   1.000000
   26      -15.372694   1.000000
   27      -15.294737   1.000000
   28      -15.152795   1.000000
   29       -6.974521   1.000000
   30       -6.893594   1.000000
   31       -6.692380   1.000000
   32       -6.550981   1.000000
   33       -6.415852   1.000000
   34       -6.277631   1.000000
   35       -6.015109   1.000000
   36       -5.796818   1.000000
   37       -5.632914   1.000000
   38       -5.407981   1.000000
   39       -5.351988   1.000000
   40       -5.181015   1.000000
   41       -5.040064   1.000000
   42       -4.961399   1.000000
   43       -4.832948   1.000000
   44       -4.697480   1.000000
   45       -4.382985   1.000000
   46       -4.280193   1.000000
   47       -4.139803   1.000000
   48       -4.058552   1.000000
   49       -3.873127   1.000000
   50       -3.760569   1.000000
   51       -3.538457   1.000000
   52       -3.345669   1.000000
   53       -3.153510   1.000000
   54       -2.890003   1.000000
   55       -2.881129   1.000000
   56       -2.548562   1.000000
   57       -2.323783   1.000000
   58       -2.081221   1.000000
   59       -2.029170   1.000000
   60       -1.659339   1.000000
   61       -1.259310   1.000000
   62       -0.961758   1.000000
   63       -0.827703   1.033144
   64       -0.797991   0.897099
   65       -0.711595   0.015509
   66       -0.556811   0.000000
   67       -0.229016   0.000000
   68        0.191747   0.000000
   69        0.410465   0.000000
   70        0.874050   0.000000
   71        0.993685   0.000000
   72        1.018528   0.000000
   73        1.860523   0.000000
   74        1.871022   0.000000
   75        3.108864   0.000000
   76        3.133644   0.000000
 
  0.4000000E+00  0.2857143E+00  0.0000000E+00  0.1142857E+00
    1      -36.583652   1.000000
    2      -35.249116   1.000000
    3      -34.287330   1.000000
    4      -33.400843   1.000000
    5      -20.349152   1.000000
    6      -20.148798   1.000000
    7      -19.696936   1.000000
    8      -19.278112   1.000000
    9      -19.047525   1.000000
   10      -18.721812   1.000000
   11      -18.551768   1.000000
   12      -18.387156   1.000000
   13      -18.345768   1.000000
   14      -18.273803   1.000000
   15      -18.127362   1.000000
   16      -17.797932   1.000000
   17      -17.217890   1.000000
   18      -17.179182   1.000000
   19      -17.106195   1.000000
   20      -17.059814   1.000000
   21      -16.549890   1.000000
   22      -16.306751   1.000000
   23      -16.167158   1.000000
   24      -16.127981   1.000000
   25      -16.003905   1.000000
   26      -15.375820   1.000000
   27      -15.169987   1.000000
   28      -15.113597   1.000000
   29       -7.036696   1.000000
   30       -6.941820   1.000000
   31       -6.692459   1.000000
   32       -6.619915   1.000000
   33       -6.497243   1.000000
   34       -6.065587   1.000000
   35       -6.017062   1.000000
   36       -5.853085   1.000000
   37       -5.730141   1.000000
   38       -5.468069   1.000000
   39       -5.330566   1.000000
   40       -5.211590   1.000000
   41       -5.191056   1.000000
   42       -5.067011   1.000000
   43       -4.902249   1.000000
   44       -4.734391   1.000000
   45       -4.238915   1.000000
   46       -4.229790   1.000000
   47       -4.144369   1.000000
   48       -4.085348   1.000000
   49       -3.942298   1.000000
   50       -3.808722   1.000000
   51       -3.679796   1.000000
   52       -3.476513   1.000000
   53       -3.435146   1.000000
   54       -2.912358   1.000000
   55       -2.876359   1.000000
   56       -2.834657   1.000000
   57       -2.149582   1.000000
   58       -2.043783   1.000000
   59       -1.992924   1.000000
   60       -1.735669   1.000000
   61       -1.243194   1.000000
   62       -1.201173   1.000000
   63       -0.940614   1.008174
   64       -0.805750   0.990702
   65       -0.774535   0.480695
   66       -0.344920   0.000000
   67       -0.178993   0.000000
   68        0.252310   0.000000
   69        0.457613   0.000000
   70        1.002108   0.000000
   71        1.026641   0.000000
   72        1.053710   0.000000
   73        1.841093   0.000000
   74        1.887505   0.000000
   75        3.080919   0.000000
   76        3.115956   0.000000
 
  0.0000000E+00  0.4285714E+00  0.0000000E+00  0.5714286E-01
    1      -36.577957   1.000000
    2      -35.242563   1.000000
    3      -34.280782   1.000000
    4      -33.394266   1.000000
    5      -20.388968   1.000000
    6      -19.718932   1.000000
    7      -19.558364   1.000000
    8      -19.187239   1.000000
    9      -19.069719   1.000000
   10      -18.727776   1.000000
   11      -18.545579   1.000000
   12      -18.398020   1.000000
   13      -18.397082   1.000000
   14      -18.183543   1.000000
   15      -18.057176   1.000000
   16      -17.572239   1.000000
   17      -17.429135   1.000000
   18      -17.197158   1.000000
   19      -17.152750   1.000000
   20      -16.970180   1.000000
   21      -16.632729   1.000000
   22      -16.476950   1.000000
   23      -16.172983   1.000000
   24      -16.104403   1.000000
   25      -15.999507   1.000000
   26      -15.521686   1.000000
   27      -15.452720   1.000000
   28      -15.128150   1.000000
   29       -7.577793   1.000000
   30       -6.975506   1.000000
   31       -6.709297   1.000000
   32       -6.593786   1.000000
   33       -6.589993   1.000000
   34       -6.525906   1.000000
   35       -6.357479   1.000000
   36       -5.967579   1.000000
   37       -5.826960   1.000000
   38       -5.638662   1.000000
   39       -5.562245   1.000000
   40       -5.472836   1.000000
   41       -5.139281   1.000000
   42       -4.968271   1.000000
   43       -4.908680   1.000000
   44       -4.725080   1.000000
   45       -4.609054   1.000000
   46       -4.576995   1.000000
   47       -4.434142   1.000000
   48       -4.161168   1.000000
   49       -4.066605   1.000000
   50       -3.712242   1.000000
   51       -3.545889   1.000000
   52       -3.489414   1.000000
   53       -3.000290   1.000000
   54       -2.857201   1.000000
   55       -2.762524   1.000000
   56       -2.732019   1.000000
   57       -2.302051   1.000000
   58       -2.139800   1.000000
   59       -1.883925   1.000000
   60       -1.434370   1.000000
   61       -1.283200   1.000000
   62       -0.867494   1.000000
   63       -0.741959   0.146529
   64       -0.708635  -0.037497
   65       -0.550552   0.000000
   66       -0.420935   0.000000
   67       -0.190485   0.000000
   68        0.644211   0.000000
   69        0.712118   0.000000
   70        0.770980   0.000000
   71        1.395825   0.000000
   72        1.439475   0.000000
   73        1.816538   0.000000
   74        2.287041   0.000000
   75        3.199122   0.000000
   76        3.524139   0.000000
 
  0.2000000E+00  0.4285714E+00  0.0000000E+00  0.1142857E+00
    1      -36.577820   1.000000
    2      -35.242430   1.000000
    3      -34.280652   1.000000
    4      -33.394184   1.000000
    5      -20.327084   1.000000
    6      -19.860482   1.000000
    7      -19.628615   1.000000
    8      -19.152763   1.000000
    9      -19.099851   1.000000
   10      -18.573342   1.000000
   11      -18.510264   1.000000
   12      -18.497062   1.000000
   13      -18.417514   1.000000
   14      -18.160259   1.000000
   15      -18.124522   1.000000
   16      -17.656540   1.000000
   17      -17.298543   1.000000
   18      -17.213707   1.000000
   19      -17.104308   1.000000
   20      -17.035339   1.000000
   21      -16.615903   1.000000
   22      -16.345556   1.000000
   23      -16.212354   1.000000
   24      -16.096514   1.000000
   25      -16.012601   1.000000
   26      -15.454655   1.000000
   27      -15.388878   1.000000
   28      -15.089164   1.000000
   29       -7.588053   1.000000
   30       -6.943729   1.000000
   31       -6.794839   1.000000
   32       -6.753873   1.000000
   33       -6.627468   1.000000
   34       -6.575103   1.000000
   35       -6.270224   1.000000
   36       -5.981131   1.000000
   37       -5.846528   1.000000
   38       -5.770277   1.000000
   39       -5.533258   1.000000
   40       -5.438799   1.000000
   41       -5.156621   1.000000
   42       -5.108452   1.000000
   43       -4.955216   1.000000
   44       -4.813276   1.000000
   45       -4.654449   1.000000
   46       -4.410998   1.000000
   47       -4.296424   1.000000
   48       -4.185314   1.000000
   49       -4.126909   1.000000
   50       -3.761141   1.000000
   51       -3.666524   1.000000
   52       -3.496521   1.000000
   53       -3.198436   1.000000
   54       -2.873002   1.000000
   55       -2.804278   1.000000
   56       -2.630613   1.000000
   57       -2.302239   1.000000
   58       -2.047581   1.000000
   59       -1.918383   1.000000
   60       -1.627750   1.000000
   61       -1.218808   1.000000
   62       -0.848880   1.000000
   63       -0.753490   0.506020
   64       -0.733484   0.022075
   65       -0.706021  -0.003918
   66       -0.391362   0.000000
   67       -0.041689   0.000000
   68        0.666926   0.000000
   69        0.718392   0.000000
   70        0.906933   0.000000
   71        1.411894   0.000000
   72        1.430643   0.000000
   73        1.885760   0.000000
   74        2.259972   0.000000
   75        3.146265   0.000000
   76        3.484301   0.000000
 
  0.4000000E+00  0.4285714E+00  0.0000000E+00  0.1142857E+00
    1      -36.577599   1.000000
    2      -35.242216   1.000000
    3      -34.280445   1.000000
    4      -33.394051   1.000000
    5      -20.172844   1.000000
    6      -20.033500   1.000000
    7      -19.801801   1.000000
    8      -19.219417   1.000000
    9      -18.963411   1.000000
   10      -18.702750   1.000000
   11      -18.494675   1.000000
   12      -18.416586   1.000000
   13      -18.355897   1.000000
   14      -18.232135   1.000000
   15      -18.056201   1.000000
   16      -17.833518   1.000000
   17      -17.228998   1.000000
   18      -17.177242   1.000000
   19      -17.078846   1.000000
   20      -17.018592   1.000000
   21      -16.574007   1.000000
   22      -16.261900   1.000000
   23      -16.156102   1.000000
   24      -16.150629   1.000000
   25      -15.982822   1.000000
   26      -15.457383   1.000000
   27      -15.193435   1.000000
   28      -15.035797   1.000000
   29       -7.608694   1.000000
   30       -7.109112   1.000000
   31       -6.968157   1.000000
   32       -6.842260   1.000000
   33       -6.662881   1.000000
   34       -6.554863   1.000000
   35       -6.087521   1.000000
   36       -6.015669   1.000000
   37       -5.916082   1.000000
   38       -5.842385   1.000000
   39       -5.599772   1.000000
   40       -5.365125   1.000000
   41       -5.290998   1.000000
   42       -5.278869   1.000000
   43       -5.143785   1.000000
   44       -4.744903   1.000000