 vasp.5.4.4.18Apr17-6-g9f103f2a35 (build Jun 30 2017 11:15:00) complex          
  
 executed on    STALLO_VASP_5.4.4 date 2019.11.06  14:07:57
 running on    4 total cores
 distrk:  each k-point on    4 cores,    1 groups
 distr:  one band on NCORES_PER_BAND=   2 cores,    2 groups


--------------------------------------------------------------------------------------------------------


 INCAR:
 POTCAR:   PAW_PBE O 08Apr2002                    
 POTCAR:   PAW_PBE Sr_sv 07Sep2000                
 POTCAR:   PAW_PBE Ti 08Apr2002                   
 POTCAR:   PAW_PBE O 08Apr2002                    
   VRHFIN =O: s2p4                                                              
   LEXCH  = PE                                                                  
   EATOM  =   432.3788 eV,   31.7789 Ry                                         
                                                                                
   TITEL  = PAW_PBE O 08Apr2002                                                 
   LULTRA =        F    use ultrasoft PP ?                                      
   IUNSCR =        0    unscreen: 0-lin 1-nonlin 2-no                           
   RPACOR =     .000    partial core radius                                     
   POMASS =   16.000; ZVAL   =    6.000    mass and valenz                      
   RCORE  =    1.520    outmost cutoff radius                                   
   RWIGS  =    1.550; RWIGS  =     .820    wigner-seitz radius (au A)           
   ENMAX  =  400.000; ENMIN  =  300.000 eV                                      
   ICORE  =        2    local potential                                         
   LCOR   =        T    correct aug charges                                     
   LPAW   =        T    paw PP                                                  
   EAUG   =  605.392                                                            
   DEXC   =     .000                                                            
   RMAX   =    2.264    core radius for proj-oper                               
   RAUG   =    1.300    factor for augmentation sphere                          
   RDEP   =    1.550    radius for radial grids                                 
   QCUT   =   -5.520; QGAM   =   11.041    optimization parameters              
                                                                                
   Description                                                                  
     l     E      TYP  RCUT    TYP  RCUT                                        
     0   .000     23  1.200                                                     
     0  -.700     23  1.200                                                     
     1   .000     23  1.520                                                     
     1   .600     23  1.520                                                     
     2   .000      7  1.500                                                     
  local pseudopotential read in
  atomic valenz-charges read in
  non local Contribution for L=           0  read in
    real space projection operators read in
  non local Contribution for L=           0  read in
    real space projection operators read in
  non local Contribution for L=           1  read in
    real space projection operators read in
  non local Contribution for L=           1  read in
    real space projection operators read in
    PAW grid and wavefunctions read in
 
   number of l-projection  operators is LMAX  =           4
   number of lm-projection operators is LMMAX =           8
 
 POTCAR:   PAW_PBE Sr_sv 07Sep2000                
   VRHFIN =Sr: 4s4p5s                                                           
   LEXCH  = PE                                                                  
   EATOM  =   842.4562 eV,   61.9188 Ry                                         
                                                                                
   TITEL  = PAW_PBE Sr_sv 07Sep2000                                             
   LULTRA =        F    use ultrasoft PP ?                                      
   IUNSCR =        1    unscreen: 0-lin 1-nonlin 2-no                           
   RPACOR =    2.200    partial core radius                                     
   POMASS =   87.620; ZVAL   =   10.000    mass and valenz                      
   RCORE  =    2.500    outmost cutoff radius                                   
   RWIGS  =    4.040; RWIGS  =    2.138    wigner-seitz radius (au A)           
   ENMAX  =  229.282; ENMIN  =  171.961 eV                                      
   RCLOC  =    2.201    cutoff for local pot                                    
   LCOR   =        T    correct aug charges                                     
   LPAW   =        T    paw PP                                                  
   EAUG   =  366.804                                                            
   DEXC   =     .000                                                            
   RMAX   =    3.045    core radius for proj-oper                               
   RAUG   =    1.300    factor for augmentation sphere                          
   RDEP   =    2.562    radius for radial grids                                 
   QCUT   =   -4.105; QGAM   =    8.210    optimization parameters              
                                                                                
   Description                                                                  
     l     E      TYP  RCUT    TYP  RCUT                                        
     0   .000     23  2.480                                                     
     0   .000     23  2.480                                                     
     1   .000     23  2.500                                                     
     1   .000     23  2.500                                                     
     2   .000     23  2.500                                                     
     2   .000     23  2.500                                                     
  local pseudopotential read in
  partial core-charges read in
  atomic valenz-charges read in
  non local Contribution for L=           0  read in
    real space projection operators read in
  non local Contribution for L=           0  read in
    real space projection operators read in
  non local Contribution for L=           1  read in
    real space projection operators read in
  non local Contribution for L=           1  read in
    real space projection operators read in
  non local Contribution for L=           2  read in
    real space projection operators read in
  non local Contribution for L=           2  read in
    real space projection operators read in
    PAW grid and wavefunctions read in
 
   number of l-projection  operators is LMAX  =           6
   number of lm-projection operators is LMMAX =          18
 
 POTCAR:   PAW_PBE Ti 08Apr2002                   
   VRHFIN =Ti: d3 s1                                                            
   LEXCH  = PE                                                                  
   EATOM  =    94.7929 eV,    6.9671 Ry                                         
                                                                                
   TITEL  = PAW_PBE Ti 08Apr2002                                                
   LULTRA =        F    use ultrasoft PP ?                                      
   IUNSCR =        1    unscreen: 0-lin 1-nonlin 2-no                           
   RPACOR =    2.200    partial core radius                                     
   POMASS =   47.880; ZVAL   =    4.000    mass and valenz                      
   RCORE  =    2.800    outmost cutoff radius                                   
   RWIGS  =    2.500; RWIGS  =    1.323    wigner-seitz radius (au A)           
   ENMAX  =  178.330; ENMIN  =  133.747 eV                                      
   RCLOC  =    2.215    cutoff for local pot                                    
   LCOR   =        T    correct aug charges                                     
   LPAW   =        T    paw PP                                                  
   EAUG   =  328.883                                                            
   DEXC   =    -.043                                                            
   RMAX   =    3.453    core radius for proj-oper                               
   RAUG   =    1.300    factor for augmentation sphere                          
   RDEP   =    2.885    radius for radial grids                                 
   QCUT   =   -3.620; QGAM   =    7.241    optimization parameters              
                                                                                
   Description                                                                  
     l     E      TYP  RCUT    TYP  RCUT                                        
     2   .000     23  2.800                                                     
     2   .000     23  2.800                                                     
     0   .000     23  2.800                                                     
     0  1.500     23  2.800                                                     
     1  -.400     23  2.800                                                     
     3   .000      7   .000                                                     
  local pseudopotential read in
  partial core-charges read in
  atomic valenz-charges read in
  non local Contribution for L=           2  read in
    real space projection operators read in
  non local Contribution for L=           2  read in
    real space projection operators read in
  non local Contribution for L=           0  read in
    real space projection operators read in
  non local Contribution for L=           0  read in
    real space projection operators read in
  non local Contribution for L=           1  read in
    real space projection operators read in
    PAW grid and wavefunctions read in
 
   number of l-projection  operators is LMAX  =           5
   number of lm-projection operators is LMMAX =          15
 

 ----------------------------------------------------------------------------- 
|                                                                             |
|  ADVICE TO THIS USER RUNNING 'VASP/VAMP'   (HEAR YOUR MASTER'S VOICE ...):  |
|                                                                             |
|      You have a (more or less) 'large supercell' and for larger cells       |
|      it might be more efficient to use real space projection operators      |
|      So try LREAL= Auto  in the INCAR   file.                               |
|      Mind: If you want to do a very accurate calculations keep the          |
|      reciprocal projection scheme          (i.e. LREAL=.FALSE.)             |
|                                                                             |
 ----------------------------------------------------------------------------- 

 WARNING: PSMAXN for non-local potential too small
          PSMAXN should be >   14.0303017386150       NTYP=           3
 PAW_PBE O 08Apr2002                    :
 energy of atom  1       EATOM= -432.3788
 kinetic energy error for atom=    0.0059 (will be added to EATOM!!)
 PAW_PBE Sr_sv 07Sep2000                :
 energy of atom  2       EATOM= -842.4562
 kinetic energy error for atom=    0.0003 (will be added to EATOM!!)
 PAW_PBE Ti 08Apr2002                   :
 energy of atom  3       EATOM=  -94.7929
 kinetic energy error for atom=    0.0000 (will be added to EATOM!!)
 
 
 POSCAR:  O Sr Ti                                
  positions in direct lattice
  No initial velocities read in
 exchange correlation table for  LEXCH =        8
   RHO(1)=    0.500       N(1)  =     2000
   RHO(2)=  100.500       N(2)  =     4000
 


--------------------------------------------------------------------------------------------------------


 ion  position               nearest neighbor table
   1  0.500  0.000  0.277-  17 1.95  17 1.95  14 2.76  13 2.76  13 2.76
   2  0.250  0.500  0.341-  17 1.95  18 1.95  13 2.76  14 2.76  13 2.76  14 2.76
   3  0.750  0.500  0.341-  17 1.95  18 1.95  13 2.76  14 2.76  13 2.76  14 2.76
   4  0.000  0.000  0.404-  18 1.95  18 1.95  13 2.76  14 2.76  14 2.76  15 2.76
   5  0.750  0.500  0.468-  18 1.95  19 1.95  14 2.76  14 2.76  15 2.76  15 2.76
   6  0.250  0.500  0.468-  18 1.95  19 1.95  14 2.76  14 2.76  15 2.76  15 2.76
   7  0.500  0.000  0.532-  19 1.95  19 1.95  16 2.76  15 2.76  15 2.76  14 2.76
   8  0.250  0.500  0.596-  19 1.95  20 1.95  15 2.76  16 2.76  15 2.76  16 2.76
   9  0.750  0.500  0.596-  19 1.95  20 1.95  15 2.76  16 2.76  15 2.76  16 2.76
  10  0.000  0.000  0.659-  20 1.95  20 1.95  15 2.76  16 2.76  16 2.76
  11  0.750  0.500  0.723-  20 1.95  16 2.76  16 2.76
  12  0.250  0.500  0.723-  20 1.95  16 2.76  16 2.76
  13  0.000  0.000  0.277-   4 2.76   3 2.76   2 2.76   2 2.76   3 2.76   1 2.76   1 2.76  18 3.38
                            18 3.38  17 3.38  17 3.38  17 3.38  17 3.38  14 3.91  14 3.91
  14  0.500  0.000  0.404-   1 2.76   2 2.76   3 2.76   5 2.76   6 2.76   2 2.76   3 2.76   5 2.76
                             6 2.76   4 2.76   4 2.76   7 2.76  17 3.38  17 3.38  18 3.38  18 3.38
  15  0.000  0.000  0.532-  10 2.76   9 2.76   8 2.76   8 2.76   9 2.76   7 2.76   7 2.76   6 2.76
                             5 2.76   6 2.76   5 2.76   4 2.76  20 3.38  20 3.38  19 3.38  19 3.38
  16  0.500  0.000  0.659-   7 2.76   8 2.76   9 2.76  11 2.76  12 2.76   8 2.76   9 2.76  11 2.76
                            12 2.76  10 2.76  10 2.76  19 3.38  19 3.38  20 3.38  20 3.38  20 3.38
  17  0.500  0.500  0.277-   2 1.95   3 1.95   1 1.95   1 1.95  14 3.38  14 3.38  13 3.38  13 3.38
                            13 3.38  13 3.38
  18  0.000  0.500  0.404-   2 1.95   3 1.95   5 1.95   6 1.95   4 1.95   4 1.95  13 3.38  13 3.38
                            14 3.38  14 3.38  14 3.38  14 3.38  15 3.38  15 3.38
  19  0.500  0.500  0.532-   8 1.95   9 1.95   7 1.95   7 1.95   5 1.95   6 1.95  16 3.38  16 3.38
                            15 3.38  15 3.38  15 3.38  15 3.38  14 3.38  14 3.38
  20  0.000  0.500  0.659-   8 1.95   9 1.95  11 1.95  12 1.95  10 1.95  10 1.95  15 3.38  15 3.38
                            16 3.38  16 3.38  16 3.38  16 3.38
 
  LATTYP: Found a simple orthorhombic cell.
 ALAT       =     3.9052680000
 B/A-ratio  =     1.4142135624
 C/A-ratio  =     5.5476462046
  
  Lattice vectors:
  
 A1 = (   0.0000000000,  -3.9052680000,   0.0000000000)
 A2 = (  -5.5228829703,   0.0000000000,   0.0000000000)
 A3 = (   0.0000000000,   0.0000000000, -21.6650451980)


Analysis of symmetry for initial positions (statically):
=====================================================================
 Subroutine PRICEL returns:
 Original cell was already a primitive cell.
 

 Routine SETGRP: Setting up the symmetry group for a 
 simple orthorhombic supercell.


 Subroutine GETGRP returns: Found  4 space group operations
 (whereof  4 operations were pure point group operations)
 out of a pool of  8 trial point group operations.


The static configuration has the point symmetry C_2v.


Analysis of symmetry for dynamics (positions and initial velocities):
=====================================================================
 Subroutine PRICEL returns:
 Original cell was already a primitive cell.
 

 Routine SETGRP: Setting up the symmetry group for a 
 simple orthorhombic supercell.


 Subroutine GETGRP returns: Found  4 space group operations
 (whereof  4 operations were pure point group operations)
 out of a pool of  8 trial point group operations.


The dynamic configuration has the point symmetry C_2v.


 Subroutine INISYM returns: Found  4 space group operations
 (whereof  4 operations are pure point group operations),
 and found     1 'primitive' translations

 
 
 KPOINTS: k-density: 4.0                          

Automatic generation of k-mesh.
Space group operators:
 irot       det(A)        alpha          n_x          n_y          n_z        tau_x        tau_y        tau_z
    1     1.000000     0.000000     1.000000     0.000000     0.000000     0.000000     0.000000     0.000000
    2     1.000000   179.999999     0.000000     0.000000     1.000000     0.000000     0.000000     0.000000
    3    -1.000000   180.000000     1.000000     0.000000     0.000000     0.000000     0.000000     0.000000
    4    -1.000000   180.000000     0.000000     1.000000     0.000000     0.000000     0.000000     0.000000
 
 Subroutine IBZKPT returns following result:
 ===========================================
 
 Found     12 irreducible k-points:
 
 Following reciprocal coordinates:
            Coordinates               Weight
  0.000000  0.000000  0.000000      1.000000
  0.200000  0.000000  0.000000      2.000000
  0.400000  0.000000  0.000000      2.000000
  0.000000  0.142857  0.000000      2.000000
  0.200000  0.142857  0.000000      4.000000
  0.400000  0.142857  0.000000      4.000000
  0.000000  0.285714  0.000000      2.000000
  0.200000  0.285714  0.000000      4.000000
  0.400000  0.285714  0.000000      4.000000
  0.000000  0.428571  0.000000      2.000000
  0.200000  0.428571  0.000000      4.000000
  0.400000  0.428571  0.000000      4.000000
 
 Following cartesian coordinates:
            Coordinates               Weight
  0.000000  0.000000  0.000000      1.000000
  0.036213  0.000000  0.000000      2.000000
  0.072426  0.000000  0.000000      2.000000
  0.000000  0.036581  0.000000      2.000000
  0.036213  0.036581  0.000000      4.000000
  0.072426  0.036581  0.000000      4.000000
  0.000000  0.073161  0.000000      2.000000
  0.036213  0.073161  0.000000      4.000000
  0.072426  0.073161  0.000000      4.000000
  0.000000  0.109742  0.000000      2.000000
  0.036213  0.109742  0.000000      4.000000
  0.072426  0.109742  0.000000      4.000000
 
 TETIRR: Found     88 inequivalent tetrahedra from      210


--------------------------------------------------------------------------------------------------------




 Dimension of arrays:
   k-points           NKPTS =     12   k-points in BZ     NKDIM =     12   number of bands    NBANDS=     76
   number of dos      NEDOS =    301   number of ions     NIONS =     20
   non local maximal  LDIM  =      6   non local SUM 2l+1 LMDIM =     18
   total plane-waves  NPLWV = 168000
   max r-space proj   IRMAX =      1   max aug-charges    IRDMAX=  25027
   dimension x,y,z NGX =    40 NGY =   28 NGZ =  150
   dimension x,y,z NGXF=    80 NGYF=   56 NGZF=  300
   support grid    NGXF=    80 NGYF=   56 NGZF=  300
   ions per type =              12   4   4
   NGX,Y,Z   is equivalent  to a cutoff of  12.04, 11.92, 11.51 a.u.
   NGXF,Y,Z  is equivalent  to a cutoff of  24.08, 23.84, 23.02 a.u.

 SYSTEM =  unknown system                          
 POSCAR =   O Sr Ti                                

 Startparameter for this run:
   NWRITE =      2    write-flag & timer
   PREC   = normal    normal or accurate (medium, high low for compatibility)
   ISTART =      0    job   : 0-new  1-cont  2-samecut
   ICHARG =      2    charge: 1-file 2-atom 10-const
   ISPIN  =      1    spin polarized calculation?
   LNONCOLLINEAR =      F non collinear calculations
   LSORBIT =      F    spin-orbit coupling
   INIWAV =      1    electr: 0-lowe 1-rand  2-diag
   LASPH  =      F    aspherical Exc in radial PAW
   METAGGA=      F    non-selfconsistent MetaGGA calc.

 Electronic Relaxation 1
   ENCUT  =  750.0 eV  55.12 Ry    7.42 a.u.  12.33  8.72 48.38*2*pi/ulx,y,z
   ENINI  =  750.0     initial cutoff
   ENAUG  =  605.4 eV  augmentation charge cutoff
   NELM   =     60;   NELMIN=  4; NELMDL= -5     # of ELM steps 
   EDIFF  = 0.1E-04   stopping-criterion for ELM
   LREAL  =      F    real-space projection
   NLSPLINE    = F    spline interpolate recip. space projectors
   LCOMPAT=      F    compatible to vasp.4.4
   GGA_COMPAT  = T    GGA compatible to vasp.4.4-vasp.4.6
   LMAXPAW     = -100 max onsite density
   LMAXMIX     =    2 max onsite mixed and CHGCAR
   VOSKOWN=      0    Vosko Wilk Nusair interpolation
   ROPT   =    0.00000   0.00000   0.00000
 Ionic relaxation
   EDIFFG = 0.1E-03   stopping-criterion for IOM
   NSW    =      0    number of steps for IOM
   NBLOCK =      1;   KBLOCK =      1    inner block; outer block 
   IBRION =     -1    ionic relax: 0-MD 1-quasi-New 2-CG
   NFREE  =      0    steps in history (QN), initial steepest desc. (CG)
   ISIF   =      2    stress and relaxation
   IWAVPR =     10    prediction:  0-non 1-charg 2-wave 3-comb
   ISYM   =      2    0-nonsym 1-usesym 2-fastsym
   LCORR  =      T    Harris-Foulkes like correction to forces

   POTIM  = 0.5000    time-step for ionic-motion
   TEIN   =    0.0    initial temperature
   TEBEG  =    0.0;   TEEND  =   0.0 temperature during run
   SMASS  =  -3.00    Nose mass-parameter (am)
   estimated Nose-frequenzy (Omega)   =  0.10E-29 period in steps =****** mass=  -0.697E-27a.u.
   SCALEE = 1.0000    scale energy and forces
   NPACO  =    256;   APACO  = 16.0  distance and # of slots for P.C.
   PSTRESS=    0.0 pullay stress

  Mass of Ions in am
   POMASS =  16.00 87.62 47.88
  Ionic Valenz
   ZVAL   =   6.00 10.00  4.00
  Atomic Wigner-Seitz radii
   RWIGS  =  -1.00 -1.00 -1.00
  virtual crystal weights 
   VCA    =   1.00  1.00  1.00
   NELECT =     128.0000    total number of electrons
   NUPDOWN=      -1.0000    fix difference up-down

 DOS related values:
   EMIN   =  10.00;   EMAX   =-10.00  energy-range for DOS
   EFERMI =   0.00
   ISMEAR =    -5;   SIGMA  =   0.20  broadening in eV -4-tet -1-fermi 0-gaus

 Electronic relaxation 2 (details)
   IALGO  =     68    algorithm
   LDIAG  =      T    sub-space diagonalisation (order eigenvalues)
   LSUBROT=      F    optimize rotation matrix (better conditioning)
   TURBO    =      0    0=normal 1=particle mesh
   IRESTART =      0    0=no restart 2=restart with 2 vectors
   NREBOOT  =      0    no. of reboots
   NMIN     =      0    reboot dimension
   EREF     =   0.00    reference energy to select bands
   IMIX   =      4    mixing-type and parameters
     AMIX     =   0.40;   BMIX     =  1.00
     AMIX_MAG =   1.60;   BMIX_MAG =  1.00
     AMIN     =   0.10
     WC   =   100.;   INIMIX=   1;  MIXPRE=   1;  MAXMIX= -45

 Intra band minimization:
   WEIMIN = 0.0000     energy-eigenvalue tresh-hold
   EBREAK =  0.33E-07  absolut break condition
   DEPER  =   0.30     relativ break condition  

   TIME   =   0.40     timestep for ELM

  volume/ion in A,a.u.               =      23.36       157.67
  Fermi-wavevector in a.u.,A,eV,Ry     =   1.063211  2.009177 15.380261  1.130417
  Thomas-Fermi vector in A             =   2.198688
 
 Write flags
   LWAVE        =      F    write WAVECAR
   LDOWNSAMPLE  =      F    k-point downsampling of WAVECAR
   LCHARG       =      T    write CHGCAR
   LVTOT        =      F    write LOCPOT, total local potential
   LVHAR        =      F    write LOCPOT, Hartree potential only
   LELF         =      F    write electronic localiz. function (ELF)
   LORBIT       =      0    0 simple, 1 ext, 2 COOP (PROOUT), +10 PAW based schemes


 Dipole corrections
   LMONO  =      F    monopole corrections only (constant potential shift)
   LDIPOL =      F    correct potential (dipole corrections)
   IDIPOL =      0    1-x, 2-y, 3-z, 4-all directions 
   EPSILON=  1.0000000 bulk dielectric constant

 Exchange correlation treatment:
   GGA     =    --    GGA type
   LEXCH   =     8    internal setting for exchange type
   VOSKOWN=      0    Vosko Wilk Nusair interpolation
   LHFCALC =     F    Hartree Fock is set to
   LHFONE  =     F    Hartree Fock one center treatment
   AEXX    =    0.0000 exact exchange contribution

 Linear response parameters
   LEPSILON=     F    determine dielectric tensor
   LRPA    =     F    only Hartree local field effects (RPA)
   LNABLA  =     F    use nabla operator in PAW spheres
   LVEL    =     F    velocity operator in full k-point grid
   LINTERFAST=   F  fast interpolation
   KINTER  =     0    interpolate to denser k-point grid
   CSHIFT  =0.1000    complex shift for real part using Kramers Kronig
   OMEGAMAX=  -1.0    maximum frequency
   DEG_THRESHOLD= 0.2000000E-02 threshold for treating states as degnerate
   RTIME   =   -0.100 relaxation time in fs
  (WPLASMAI=    0.000 imaginary part of plasma frequency in eV, 0.658/RTIME)
   DFIELD  = 0.0000000 0.0000000 0.0000000 field for delta impulse in time
 
 Orbital magnetization related:
   ORBITALMAG=     F  switch on orbital magnetization
   LCHIMAG   =     F  perturbation theory with respect to B field
   DQ        =  0.001000  dq finite difference perturbation B field
   LLRAUG    =     F  two centre corrections for induced B field



--------------------------------------------------------------------------------------------------------


 Static calculation
 charge density and potential will be updated during run
 non-spin polarized calculation
 RMM-DIIS sequential band-by-band and
  variant of blocked Davidson during initial phase
 perform sub-space diagonalisation
    before iterative eigenvector-optimisation
 modified Broyden-mixing scheme, WC =      100.0
 initial mixing is a Kerker type mixing with AMIX =  0.4000 and BMIX =      1.0000
 Hartree-type preconditioning will be used
 using additional bands           12
 reciprocal scheme for non local part
 use partial core corrections
 calculate Harris-corrections to forces 
   (improved forces if not selfconsistent)
 use gradient corrections 
 use of overlap-Matrix (Vanderbilt PP)
 Fermi weights with tetrahedron method with Bloechl corrections


--------------------------------------------------------------------------------------------------------


  energy-cutoff  :      750.00
  volume of cell :      467.28
      direct lattice vectors                 reciprocal lattice vectors
     5.522882970  0.000000000  0.000000000     0.181064854  0.000000000  0.000000000
     0.000000000  3.905268000  0.000000000     0.000000000  0.256064373  0.000000000
     0.000000000  0.000000000 21.665045198     0.000000000  0.000000000  0.046157300

  length of vectors
     5.522882970  3.905268000 21.665045198     0.181064854  0.256064373  0.046157300


 
 k-points in units of 2pi/SCALE and weight: k-density: 4.0                          
   0.00000000  0.00000000  0.00000000       0.029
   0.03621297  0.00000000  0.00000000       0.057
   0.07242594  0.00000000  0.00000000       0.057
   0.00000000  0.03658062  0.00000000       0.057
   0.03621297  0.03658062  0.00000000       0.114
   0.07242594  0.03658062  0.00000000       0.114
   0.00000000  0.07316125  0.00000000       0.057
   0.03621297  0.07316125  0.00000000       0.114
   0.07242594  0.07316125  0.00000000       0.114
   0.00000000  0.10974187  0.00000000       0.057
   0.03621297  0.10974187  0.00000000       0.114
   0.07242594  0.10974187  0.00000000       0.114
 
 k-points in reciprocal lattice and weights: k-density: 4.0                          
   0.00000000  0.00000000  0.00000000       0.029
   0.20000000  0.00000000  0.00000000       0.057
   0.40000000  0.00000000  0.00000000       0.057
   0.00000000  0.14285714  0.00000000       0.057
   0.20000000  0.14285714  0.00000000       0.114
   0.40000000  0.14285714  0.00000000       0.114
   0.00000000  0.28571429  0.00000000       0.057
   0.20000000  0.28571429  0.00000000       0.114
   0.40000000  0.28571429  0.00000000       0.114
   0.00000000  0.42857143  0.00000000       0.057
   0.20000000  0.42857143  0.00000000       0.114
   0.40000000  0.42857143  0.00000000       0.114
 
 position of ions in fractional coordinates (direct lattice) 
   0.50000000  0.00000000  0.27694380
   0.25000000  0.50000000  0.34067414
   0.75000000  0.50000000  0.34067414
   0.00000000  0.00000000  0.40440449
   0.75000000  0.50000000  0.46813483
   0.25000000  0.50000000  0.46813483
   0.50000000  0.00000000  0.53186517
   0.25000000  0.50000000  0.59559551
   0.75000000  0.50000000  0.59559551
   0.00000000  0.00000000  0.65932586
   0.75000000  0.50000000  0.72305620
   0.25000000  0.50000000  0.72305620
   0.00000000  0.00000000  0.27694380
   0.50000000  0.00000000  0.40440449
   0.00000000  0.00000000  0.53186517
   0.50000000  0.00000000  0.65932586
   0.50000000  0.50000000  0.27694380
   0.00000000  0.50000000  0.40440449
   0.50000000  0.50000000  0.53186517
   0.00000000  0.50000000  0.65932586
 
 position of ions in cartesian coordinates  (Angst):
   2.76144149  0.00000000  6.00000000
   1.38072074  1.95263400  7.38072074
   4.14216223  1.95263400  7.38072074
   0.00000000  0.00000000  8.76144149
   4.14216223  1.95263400 10.14216223
   1.38072074  1.95263400 10.14216223
   2.76144149  0.00000000 11.52288297
   1.38072074  1.95263400 12.90360371
   4.14216223  1.95263400 12.90360371
   0.00000000  0.00000000 14.28432446
   4.14216223  1.95263400 15.66504520
   1.38072074  1.95263400 15.66504520
   0.00000000  0.00000000  6.00000000
   2.76144149  0.00000000  8.76144149
   0.00000000  0.00000000 11.52288297
   2.76144149  0.00000000 14.28432446
   2.76144149  1.95263400  6.00000000
   0.00000000  1.95263400  8.76144149
   2.76144149  1.95263400 11.52288297
   0.00000000  1.95263400 14.28432446
 


--------------------------------------------------------------------------------------------------------


 k-point  1 :   0.0000 0.0000 0.0000  plane waves:   21757
 k-point  2 :   0.2000 0.0000 0.0000  plane waves:   21813
 k-point  3 :   0.4000 0.0000 0.0000  plane waves:   21808
 k-point  4 :   0.0000 0.1429 0.0000  plane waves:   21799
 k-point  5 :   0.2000 0.1429 0.0000  plane waves:   21806
 k-point  6 :   0.4000 0.1429 0.0000  plane waves:   21792
 k-point  7 :   0.0000 0.2857 0.0000  plane waves:   21782
 k-point  8 :   0.2000 0.2857 0.0000  plane waves:   21763
 k-point  9 :   0.4000 0.2857 0.0000  plane waves:   21781
 k-point 10 :   0.0000 0.4286 0.0000  plane waves:   21844
 k-point 11 :   0.2000 0.4286 0.0000  plane waves:   21814
 k-point 12 :   0.4000 0.4286 0.0000  plane waves:   21781

 maximum and minimum number of plane-waves per node :     10948    10823

 maximum number of plane-waves:     21844
 maximum index in each direction: 
   IXMAX=   12   IYMAX=    8   IZMAX=   48
   IXMIN=  -12   IYMIN=   -9   IZMIN=  -48


 parallel 3D FFT for wavefunctions:
    minimum data exchange during FFTs selected (reduces bandwidth)
 parallel 3D FFT for charge:
    minimum data exchange during FFTs selected (reduces bandwidth)


 total amount of memory used by VASP MPI-rank0   209446. kBytes
=======================================================================

   base      :      30000. kBytes
   nonl-proj :      60015. kBytes
   fftplans  :      13909. kBytes
   grid      :      24980. kBytes
   one-center:        155. kBytes
   wavefun   :      80387. kBytes
 
     INWAV:  cpu time    0.0000: real time    0.0004
 Broyden mixing: mesh for mixing (old mesh)
   NGX = 25   NGY = 17   NGZ = 97
  (NGX  = 80   NGY  = 56   NGZ  =300)
  gives a total of  41225 points

 initial charge density was supplied:
 charge density of overlapping atoms calculated
 number of electron     128.0000000 magnetization 
 keeping initial charge density in first step


--------------------------------------------------------------------------------------------------------


 Maximum index for augmentation-charges         6073 (set IRDMAX)


--------------------------------------------------------------------------------------------------------


 First call to EWALD:  gamma=   0.228
 Maximum number of real-space cells 4x 5x 1
 Maximum number of reciprocal cells 2x 2x 7

    FEWALD:  cpu time    0.0020: real time    0.0018


--------------------------------------- Iteration      1(   1)  ---------------------------------------


    POTLOK:  cpu time    0.2250: real time    0.2917
    SETDIJ:  cpu time    0.0170: real time    0.0166
     EDDAV:  cpu time   12.9460: real time   12.9485
 BZINTS: Fermi energy: 15.399040;128.000000 electrons
         Band energy: 281.053276;  BLOECHL correction: -0.062474
       DOS:  cpu time    0.0090: real time    0.0093
    --------------------------------------------
      LOOP:  cpu time   13.1970: real time   13.2661

 eigenvalue-minimisations  :  1824
 total energy-change (2. order) : 0.1881686E+04  (-0.6718659E+04)
 number of electron     128.0000000 magnetization 
 augmentation part      128.0000000 magnetization 

 Free energy of the ion-electron system (eV)
  ---------------------------------------------------
  alpha Z        PSCENC =       378.09908315
  Ewald energy   TEWEN  =     22731.27163923
  -Hartree energ DENC   =    -30966.93774878
  -exchange      EXHF   =         0.00000000
  -V(xc)+E(xc)   XCENC  =       325.41602223
  PAW double counting   =      5334.45189010    -5139.13784255
  entropy T*S    EENTRO =         0.00000000
  eigenvalues    EBANDS =       281.05327647
  atomic energy  EATOM  =      8937.46944722
  Solvation  Ediel_sol  =         0.00000000
  ---------------------------------------------------
  free energy    TOTEN  =      1881.68576706 eV

  energy without entropy =     1881.68576706  energy(sigma->0) =     1881.68576706


--------------------------------------------------------------------------------------------------------




--------------------------------------- Iteration      1(   2)  ---------------------------------------


     EDDAV:  cpu time   14.5748: real time   14.5740
 BZINTS: Fermi energy:  4.142346;128.000000 electrons
         Band energy:***********;  BLOECHL correction: -0.106261
       DOS:  cpu time    0.0090: real time    0.0095
    --------------------------------------------
      LOOP:  cpu time   14.5838: real time   14.5835

 eigenvalue-minimisations  :  2124
 total energy-change (2. order) :-0.1605615E+04  (-0.1535536E+04)
 number of electron     128.0000000 magnetization 
 augmentation part      128.0000000 magnetization 

 Free energy of the ion-electron system (eV)
  ---------------------------------------------------
  alpha Z        PSCENC =       378.09908315
  Ewald energy   TEWEN  =     22731.27163923
  -Hartree energ DENC   =    -30966.93774878
  -exchange      EXHF   =         0.00000000
  -V(xc)+E(xc)   XCENC  =       325.41602223
  PAW double counting   =      5334.45189010    -5139.13784255
  entropy T*S    EENTRO =         0.00000000
  eigenvalues    EBANDS =     -1324.56134286
  atomic energy  EATOM  =      8937.46944722
  Solvation  Ediel_sol  =         0.00000000
  ---------------------------------------------------
  free energy    TOTEN  =       276.07114773 eV

  energy without entropy =      276.07114773  energy(sigma->0) =      276.07114773


--------------------------------------------------------------------------------------------------------




--------------------------------------- Iteration      1(   3)  ---------------------------------------


     EDDAV:  cpu time   16.6315: real time   16.6282
 BZINTS: Fermi energy: -2.816136;128.000000 electrons
         Band energy:***********;  BLOECHL correction:  0.000000
       DOS:  cpu time    0.0010: real time    0.0018
    --------------------------------------------
      LOOP:  cpu time   16.6325: real time   16.6301

 eigenvalue-minimisations  :  2492
 total energy-change (2. order) :-0.4343638E+03  (-0.4205462E+03)
 number of electron     128.0000000 magnetization 
 augmentation part      128.0000000 magnetization 

 Free energy of the ion-electron system (eV)
  ---------------------------------------------------
  alpha Z        PSCENC =       378.09908315
  Ewald energy   TEWEN  =     22731.27163923
  -Hartree energ DENC   =    -30966.93774878
  -exchange      EXHF   =         0.00000000
  -V(xc)+E(xc)   XCENC  =       325.41602223
  PAW double counting   =      5334.45189010    -5139.13784255
  entropy T*S    EENTRO =         0.00000000
  eigenvalues    EBANDS =     -1758.92510534
  atomic energy  EATOM  =      8937.46944722
  Solvation  Ediel_sol  =         0.00000000
  ---------------------------------------------------
  free energy    TOTEN  =      -158.29261474 eV

  energy without entropy =     -158.29261474  energy(sigma->0) =     -158.29261474


--------------------------------------------------------------------------------------------------------




--------------------------------------- Iteration      1(   4)  ---------------------------------------


     EDDAV:  cpu time   16.1505: real time   16.1501
 BZINTS: Fermi energy: -4.416689;128.000000 electrons
         Band energy:***********;  BLOECHL correction:  0.000000
       DOS:  cpu time    0.0020: real time    0.0015
    --------------------------------------------
      LOOP:  cpu time   16.1525: real time   16.1516

 eigenvalue-minimisations  :  2400
 total energy-change (2. order) :-0.3861018E+02  (-0.3846521E+02)
 number of electron     128.0000000 magnetization 
 augmentation part      128.0000000 magnetization 

 Free energy of the ion-electron system (eV)
  ---------------------------------------------------
  alpha Z        PSCENC =       378.09908315
  Ewald energy   TEWEN  =     22731.27163923
  -Hartree energ DENC   =    -30966.93774878
  -exchange      EXHF   =         0.00000000
  -V(xc)+E(xc)   XCENC  =       325.41602223
  PAW double counting   =      5334.45189010    -5139.13784255
  entropy T*S    EENTRO =         0.00000000
  eigenvalues    EBANDS =     -1797.53528372
  atomic energy  EATOM  =      8937.46944722
  Solvation  Ediel_sol  =         0.00000000
  ---------------------------------------------------
  free energy    TOTEN  =      -196.90279313 eV

  energy without entropy =     -196.90279313  energy(sigma->0) =     -196.90279313


--------------------------------------------------------------------------------------------------------




--------------------------------------- Iteration      1(   5)  ---------------------------------------


     EDDAV:  cpu time   18.7092: real time   18.7060
 BZINTS: Fermi energy: -4.444774;128.000000 electrons
         Band energy:***********;  BLOECHL correction:  0.000000
       DOS:  cpu time    0.0020: real time    0.0015
    CHARGE:  cpu time    0.4919: real time    0.4923
    MIXING:  cpu time    0.0060: real time    0.0059
    --------------------------------------------
      LOOP:  cpu time   19.2091: real time   19.2058

 eigenvalue-minimisations  :  2888
 total energy-change (2. order) :-0.1831770E+01  (-0.1830784E+01)
 number of electron     128.0000059 magnetization 
 augmentation part       13.9080131 magnetization 

 Broyden mixing:
  rms(total) = 0.37617E+01    rms(broyden)= 0.37616E+01
  rms(prec ) = 0.42703E+01
  weight for this iteration     100.00

 Free energy of the ion-electron system (eV)
  ---------------------------------------------------
  alpha Z        PSCENC =       378.09908315
  Ewald energy   TEWEN  =     22731.27163923
  -Hartree energ DENC   =    -30966.93774878
  -exchange      EXHF   =         0.00000000
  -V(xc)+E(xc)   XCENC  =       325.41602223
  PAW double counting   =      5334.45189010    -5139.13784255
  entropy T*S    EENTRO =         0.00000000
  eigenvalues    EBANDS =     -1799.36705405
  atomic energy  EATOM  =      8937.46944722
  Solvation  Ediel_sol  =         0.00000000
  ---------------------------------------------------
  free energy    TOTEN  =      -198.73456345 eV

  energy without entropy =     -198.73456345  energy(sigma->0) =     -198.73456345


--------------------------------------------------------------------------------------------------------




--------------------------------------- Iteration      1(   6)  ---------------------------------------


    POTLOK:  cpu time    0.2190: real time    0.2222
    SETDIJ:  cpu time    0.0150: real time    0.0152
    EDDIAG:  cpu time    1.4488: real time    1.4483
  RMM-DIIS:  cpu time   12.5231: real time   12.5195
    ORTHCH:  cpu time    0.2790: real time    0.2790
 BZINTS: Fermi energy: -1.008922;128.000000 electrons
         Band energy:***********;  BLOECHL correction: -0.114864
       DOS:  cpu time    0.0100: real time    0.0102
    CHARGE:  cpu time    0.5009: real time    0.5007
    MIXING:  cpu time    0.0060: real time    0.0059
    --------------------------------------------
      LOOP:  cpu time   15.0017: real time   15.0011

 eigenvalue-minimisations  :  2454
 total energy-change (2. order) :-0.7016186E+01  (-0.3950182E+02)
 number of electron     128.0000037 magnetization 
 augmentation part       17.5450077 magnetization 

 Broyden mixing:
  rms(total) = 0.52480E+01    rms(broyden)= 0.52479E+01
  rms(prec ) = 0.81678E+01
  weight for this iteration     100.00

 eigenvalues of (default mixing * dielectric matrix)
  average eigenvalue GAMMA=   0.4084
  0.4084

 Free energy of the ion-electron system (eV)
  ---------------------------------------------------
  alpha Z        PSCENC =       378.09908315
  Ewald energy   TEWEN  =     22731.27163923
  -Hartree energ DENC   =    -31254.11455397
  -exchange      EXHF   =         0.00000000
  -V(xc)+E(xc)   XCENC  =       345.56516665
  PAW double counting   =      5949.44995288    -5767.94302083
  entropy T*S    EENTRO =         0.00000000
  eigenvalues    EBANDS =     -1525.54846398
  atomic energy  EATOM  =      8937.46944722
  Solvation  Ediel_sol  =         0.00000000
  ---------------------------------------------------
  free energy    TOTEN  =      -205.75074966 eV

  energy without entropy =     -205.75074966  energy(sigma->0) =     -205.75074966


--------------------------------------------------------------------------------------------------------




--------------------------------------- Iteration      1(   7)  ---------------------------------------


    POTLOK:  cpu time    0.2120: real time    0.2150
    SETDIJ:  cpu time    0.0150: real time    0.0152
    EDDIAG:  cpu time    1.4278: real time    1.4273
  RMM-DIIS:  cpu time   11.1563: real time   11.1529
    ORTHCH:  cpu time    0.2780: real time    0.2780
 BZINTS: Fermi energy: -1.033979;128.000000 electrons
         Band energy:***********;  BLOECHL correction: -0.226195
       DOS:  cpu time    0.0100: real time    0.0099
    CHARGE:  cpu time    0.5019: real time    0.5016
    MIXING:  cpu time    0.0060: real time    0.0061
    --------------------------------------------
      LOOP:  cpu time   13.6069: real time   13.6059

 eigenvalue-minimisations  :  2196
 total energy-change (2. order) : 0.3311527E+02  (-0.9791169E+01)
 number of electron     128.0000044 magnetization 
 augmentation part       14.3648221 magnetization 

 Broyden mixing:
  rms(total) = 0.21415E+01    rms(broyden)= 0.21413E+01
  rms(prec ) = 0.33299E+01
  weight for this iteration     100.00

 eigenvalues of (default mixing * dielectric matrix)
  average eigenvalue GAMMA=   0.4359
  0.6390  0.2328

 Free energy of the ion-electron system (eV)
  ---------------------------------------------------
  alpha Z        PSCENC =       378.09908315
  Ewald energy   TEWEN  =     22731.27163923
  -Hartree energ DENC   =    -31267.73354007
  -exchange      EXHF   =         0.00000000
  -V(xc)+E(xc)   XCENC  =       340.57203354
  PAW double counting   =      5909.03758334    -5730.55607733
  entropy T*S    EENTRO =         0.00000000
  eigenvalues    EBANDS =     -1470.79565224
  atomic energy  EATOM  =      8937.46944722
  Solvation  Ediel_sol  =         0.00000000
  ---------------------------------------------------
  free energy    TOTEN  =      -172.63548317 eV

  energy without entropy =     -172.63548317  energy(sigma->0) =     -172.63548317


--------------------------------------------------------------------------------------------------------




--------------------------------------- Iteration      1(   8)  ---------------------------------------


    POTLOK:  cpu time    0.2100: real time    0.2154
    SETDIJ:  cpu time    0.0150: real time    0.0151
    EDDIAG:  cpu time    1.4378: real time    1.4374
  RMM-DIIS:  cpu time   10.4414: real time   10.4382
    ORTHCH:  cpu time    0.2780: real time    0.2782
 BZINTS: Fermi energy: -1.926109;128.000000 electrons
         Band energy:***********;  BLOECHL correction:  0.000000
       DOS:  cpu time    0.0010: real time    0.0016
    CHARGE:  cpu time    0.4889: real time    0.4888
    MIXING:  cpu time    0.0070: real time    0.0069
    --------------------------------------------
      LOOP:  cpu time   12.8790: real time   12.8815

 eigenvalue-minimisations  :  2050
 total energy-change (2. order) : 0.1191523E+02  (-0.2300445E+01)
 number of electron     128.0000049 magnetization 
 augmentation part       12.9906204 magnetization 

 Broyden mixing:
  rms(total) = 0.15261E+01    rms(broyden)= 0.15261E+01
  rms(prec ) = 0.20176E+01
  weight for this iteration     100.00

 eigenvalues of (default mixing * dielectric matrix)
  average eigenvalue GAMMA=   0.4486
  0.7568  0.2946  0.2946

 Free energy of the ion-electron system (eV)
  ---------------------------------------------------
  alpha Z        PSCENC =       378.09908315
  Ewald energy   TEWEN  =     22731.27163923
  -Hartree energ DENC   =    -31259.53605771
  -exchange      EXHF   =         0.00000000
  -V(xc)+E(xc)   XCENC  =       338.26507969
  PAW double counting   =      5933.60052671    -5758.23722852
  entropy T*S    EENTRO =         0.00000000
  eigenvalues    EBANDS =     -1461.65273875
  atomic energy  EATOM  =      8937.46944722
  Solvation  Ediel_sol  =         0.00000000
  ---------------------------------------------------
  free energy    TOTEN  =      -160.72024898 eV

  energy without entropy =     -160.72024898  energy(sigma->0) =     -160.72024898


--------------------------------------------------------------------------------------------------------




--------------------------------------- Iteration      1(   9)  ---------------------------------------


    POTLOK:  cpu time    0.2110: real time    0.2154
    SETDIJ:  cpu time    0.0160: real time    0.0151
    EDDIAG:  cpu time    1.4348: real time    1.4345
  RMM-DIIS:  cpu time   12.0182: real time   12.0146
    ORTHCH:  cpu time    0.2780: real time    0.2779
 BZINTS: Fermi energy: -1.684236;128.000000 electrons
         Band energy:***********;  BLOECHL correction:  0.000000
       DOS:  cpu time    0.0010: real time    0.0018
    CHARGE:  cpu time    0.4879: real time    0.4872
    MIXING:  cpu time    0.0060: real time    0.0066
    --------------------------------------------
      LOOP:  cpu time   14.4528: real time   14.4530

 eigenvalue-minimisations  :  2379
 total energy-change (2. order) : 0.4432587E+01  (-0.2131145E+00)
 number of electron     128.0000049 magnetization 
 augmentation part       13.0816209 magnetization 

 Broyden mixing:
  rms(total) = 0.12566E+01    rms(broyden)= 0.12566E+01
  rms(prec ) = 0.17653E+01
  weight for this iteration     100.00

 eigenvalues of (default mixing * dielectric matrix)
  average eigenvalue GAMMA=   0.9030
  1.8287  1.0217  0.2578  0.5039

 Free energy of the ion-electron system (eV)
  ---------------------------------------------------
  alpha Z        PSCENC =       378.09908315
  Ewald energy   TEWEN  =     22731.27163923
  -Hartree energ DENC   =    -31284.70871646
  -exchange      EXHF   =         0.00000000
  -V(xc)+E(xc)   XCENC  =       339.28631102
  PAW double counting   =      5991.53553527    -5817.53496540
  entropy T*S    EENTRO =         0.00000000
  eigenvalues    EBANDS =     -1431.70599641
  atomic energy  EATOM  =      8937.46944722
  Solvation  Ediel_sol  =         0.00000000
  ---------------------------------------------------
  free energy    TOTEN  =      -156.28766239 eV

  energy without entropy =     -156.28766239  energy(sigma->0) =     -156.28766239


--------------------------------------------------------------------------------------------------------




--------------------------------------- Iteration      1(  10)  ---------------------------------------


    POTLOK:  cpu time    0.2110: real time    0.2144
    SETDIJ:  cpu time    0.0150: real time    0.0151
    EDDIAG:  cpu time    1.4368: real time    1.4363
  RMM-DIIS:  cpu time   11.1573: real time   11.1540
    ORTHCH:  cpu time    0.2770: real time    0.2771
 BZINTS: Fermi energy: -0.684574;128.000000 electrons
         Band energy:***********;  BLOECHL correction: -0.060924
       DOS:  cpu time    0.0100: real time    0.0096
    CHARGE:  cpu time    0.5029: real time    0.5033
    MIXING:  cpu time    0.0070: real time    0.0069
    --------------------------------------------
      LOOP:  cpu time   13.6169: real time   13.6167

 eigenvalue-minimisations  :  2194
 total energy-change (2. order) :-0.8266497E+00  (-0.3809566E+01)
 number of electron     128.0000041 magnetization 
 augmentation part       15.2176909 magnetization 

 Broyden mixing:
  rms(total) = 0.30055E+01    rms(broyden)= 0.30054E+01
  rms(prec ) = 0.42299E+01
  weight for this iteration     100.00

 eigenvalues of (default mixing * dielectric matrix)
  average eigenvalue GAMMA=   0.7245
  1.8141  1.0276  0.5075  0.2574  0.0161

 Free energy of the ion-electron system (eV)
  ---------------------------------------------------
  alpha Z        PSCENC =       378.09908315
  Ewald energy   TEWEN  =     22731.27163923
  -Hartree energ DENC   =    -31351.66996064
  -exchange      EXHF   =         0.00000000
  -V(xc)+E(xc)   XCENC  =       342.49374061
  PAW double counting   =      6158.83630527    -5988.07577251
  entropy T*S    EENTRO =         0.00000000
  eigenvalues    EBANDS =     -1365.53879443
  atomic energy  EATOM  =      8937.46944722
  Solvation  Ediel_sol  =         0.00000000
  ---------------------------------------------------
  free energy    TOTEN  =      -157.11431212 eV

  energy without entropy =     -157.11431212  energy(sigma->0) =     -157.11431212


--------------------------------------------------------------------------------------------------------




--------------------------------------- Iteration      1(  11)  ---------------------------------------


    POTLOK:  cpu time    0.2090: real time    0.2125
    SETDIJ:  cpu time    0.0150: real time    0.0152
    EDDIAG:  cpu time    1.4398: real time    1.4386
  RMM-DIIS:  cpu time   14.3508: real time   14.3457
    ORTHCH:  cpu time    0.2760: real time    0.2774
 BZINTS: Fermi energy: -0.620504;128.000000 electrons
         Band energy:***********;  BLOECHL correction: -0.050784
       DOS:  cpu time    0.0100: real time    0.0098
    CHARGE:  cpu time    0.5029: real time    0.5023
    MIXING:  cpu time    0.0080: real time    0.0072
    --------------------------------------------
      LOOP:  cpu time   16.8114: real time   16.8087

 eigenvalue-minimisations  :  2841
 total energy-change (2. order) : 0.1280071E+01  (-0.3242808E+00)
 number of electron     128.0000040 magnetization 
 augmentation part       15.2211063 magnetization 

 Broyden mixing:
  rms(total) = 0.29305E+01    rms(broyden)= 0.29305E+01
  rms(prec ) = 0.40640E+01
  weight for this iteration     100.00

 eigenvalues of (default mixing * dielectric matrix)
  average eigenvalue GAMMA=   0.6528
  1.9453  0.9801  0.5115  0.2582  0.1335  0.0881

 Free energy of the ion-electron system (eV)
  ---------------------------------------------------
  alpha Z        PSCENC =       378.09908315
  Ewald energy   TEWEN  =     22731.27163923
  -Hartree energ DENC   =    -31349.49532511
  -exchange      EXHF   =         0.00000000
  -V(xc)+E(xc)   XCENC  =       342.42195665
  PAW double counting   =      6157.84226723    -5987.11661705
  entropy T*S    EENTRO =         0.00000000
  eigenvalues    EBANDS =     -1366.32669206
  atomic energy  EATOM  =      8937.46944722
  Solvation  Ediel_sol  =         0.00000000
  ---------------------------------------------------
  free energy    TOTEN  =      -155.83424075 eV

  energy without entropy =     -155.83424075  energy(sigma->0) =     -155.83424075


--------------------------------------------------------------------------------------------------------




--------------------------------------- Iteration      1(  12)  ---------------------------------------


    POTLOK:  cpu time    0.2090: real time    0.2115
    SETDIJ:  cpu time    0.0150: real time    0.0152
    EDDIAG:  cpu time    1.4378: real time    1.4376
  RMM-DIIS:  cpu time   14.0189: real time   14.0145
    ORTHCH:  cpu time    0.2780: real time    0.2771
 BZINTS: Fermi energy: -0.654587;128.000000 electrons
         Band energy:***********;  BLOECHL correction: -0.053072
       DOS:  cpu time    0.0090: real time    0.0095
    CHARGE:  cpu time    0.5089: real time    0.5089
    MIXING:  cpu time    0.0080: real time    0.0079
    --------------------------------------------
      LOOP:  cpu time   16.4845: real time   16.4822

 eigenvalue-minimisations  :  2760
 total energy-change (2. order) :-0.2319535E+01  (-0.1384727E+00)
 number of electron     128.0000040 magnetization 
 augmentation part       15.5847022 magnetization 

 Broyden mixing:
  rms(total) = 0.32726E+01    rms(broyden)= 0.32726E+01
  rms(prec ) = 0.45152E+01
  weight for this iteration     100.00

 eigenvalues of (default mixing * dielectric matrix)
  average eigenvalue GAMMA=   0.5729
  1.9536  0.9769  0.5127  0.2584  0.1119  0.0985  0.0985

 Free energy of the ion-electron system (eV)
  ---------------------------------------------------
  alpha Z        PSCENC =       378.09908315
  Ewald energy   TEWEN  =     22731.27163923
  -Hartree energ DENC   =    -31361.14661575
  -exchange      EXHF   =         0.00000000
  -V(xc)+E(xc)   XCENC  =       342.83303528
  PAW double counting   =      6170.87447936    -6000.37115537
  entropy T*S    EENTRO =         0.00000000
  eigenvalues    EBANDS =     -1357.18368890
  atomic energy  EATOM  =      8937.46944722
  Solvation  Ediel_sol  =         0.00000000
  ---------------------------------------------------
  free energy    TOTEN  =      -158.15377578 eV

  energy without entropy =     -158.15377578  energy(sigma->0) =     -158.15377578


--------------------------------------------------------------------------------------------------------




--------------------------------------- Iteration      1(  13)  ---------------------------------------


    POTLOK:  cpu time    0.2160: real time    0.2178
    SETDIJ:  cpu time    0.0150: real time    0.0154
    EDDIAG:  cpu time    1.4638: real time    1.4644
  RMM-DIIS:  cpu time   15.6176: real time   15.6130
    ORTHCH:  cpu time    0.2760: real time    0.2760
 BZINTS: Fermi energy: -0.674515;128.000000 electrons
         Band energy:***********;  BLOECHL correction: -0.051031
       DOS:  cpu time    0.0100: real time    0.0095
    CHARGE:  cpu time    0.5019: real time    0.5021
    MIXING:  cpu time    0.0080: real time    0.0078
    --------------------------------------------
      LOOP:  cpu time   18.1082: real time   18.1061

 eigenvalue-minimisations  :  3135
 total energy-change (2. order) :-0.2717220E+00  (-0.3108565E-01)
 number of electron     128.0000040 magnetization 
 augmentation part       15.6593698 magnetization 

 Broyden mixing:
  rms(total) = 0.33361E+01    rms(broyden)= 0.33361E+01
  rms(prec ) = 0.46240E+01
  weight for this iteration     100.00

 eigenvalues of (default mixing * dielectric matrix)
  average eigenvalue GAMMA=   0.5963
  1.9200  0.9969  0.5186  0.3622  0.3622  0.2581  0.1760  0.1760

 Free energy of the ion-electron system (eV)
  ---------------------------------------------------
  alpha Z        PSCENC =       378.09908315
  Ewald energy   TEWEN  =     22731.27163923
  -Hartree energ DENC   =    -31359.15258004
  -exchange      EXHF   =         0.00000000
  -V(xc)+E(xc)   XCENC  =       342.79530623
  PAW double counting   =      6170.94130824    -6000.41006554
  entropy T*S    EENTRO =         0.00000000
  eigenvalues    EBANDS =     -1359.43963628
  atomic energy  EATOM  =      8937.46944722
  Solvation  Ediel_sol  =         0.00000000
  ---------------------------------------------------
  free energy    TOTEN  =      -158.42549780 eV

  energy without entropy =     -158.42549780  energy(sigma->0) =     -158.42549780


--------------------------------------------------------------------------------------------------------




--------------------------------------- Iteration      1(  14)  ---------------------------------------


    POTLOK:  cpu time    0.2080: real time    0.2114
    SETDIJ:  cpu time    0.0150: real time    0.0151
    EDDIAG:  cpu time    1.4338: real time    1.4339
  RMM-DIIS:  cpu time   12.7911: real time   12.7860
    ORTHCH:  cpu time    0.2760: real time    0.2766
 BZINTS: Fermi energy: -0.682512;128.000000 electrons
         Band energy:***********;  BLOECHL correction: -0.056976
       DOS:  cpu time    0.0090: real time    0.0095
    CHARGE:  cpu time    0.5029: real time    0.5027
    MIXING:  cpu time    0.0080: real time    0.0082
    --------------------------------------------
      LOOP:  cpu time   15.2437: real time   15.2436

 eigenvalue-minimisations  :  2500
 total energy-change (2. order) : 0.1330364E+01  (-0.1868679E-01)
 number of electron     128.0000040 magnetization 
 augmentation part       15.5719035 magnetization 

 Broyden mixing:
  rms(total) = 0.32251E+01    rms(broyden)= 0.32251E+01
  rms(prec ) = 0.44577E+01
  weight for this iteration     100.00

 eigenvalues of (default mixing * dielectric matrix)
  average eigenvalue GAMMA=   0.6384
  1.9121  0.9731  0.6952  0.6952  0.5166  0.2428  0.2428  0.2575  0.2106

 Free energy of the ion-electron system (eV)
  ---------------------------------------------------
  alpha Z        PSCENC =       378.09908315
  Ewald energy   TEWEN  =     22731.27163923
  -Hartree energ DENC   =    -31346.29985211
  -exchange      EXHF   =         0.00000000
  -V(xc)+E(xc)   XCENC  =       342.52137668
  PAW double counting   =      6163.31776262    -5992.55886571
  entropy T*S    EENTRO =         0.00000000
  eigenvalues    EBANDS =     -1370.91572489
  atomic energy  EATOM  =      8937.46944722
  Solvation  Ediel_sol  =         0.00000000
  ---------------------------------------------------
  free energy    TOTEN  =      -157.09513382 eV

  energy without entropy =     -157.09513382  energy(sigma->0) =     -157.09513382


--------------------------------------------------------------------------------------------------------




--------------------------------------- Iteration      1(  15)  ---------------------------------------


    POTLOK:  cpu time    0.2090: real time    0.2102
    SETDIJ:  cpu time    0.0150: real time    0.0151
    EDDIAG:  cpu time    1.4338: real time    1.4332
  RMM-DIIS:  cpu time   10.7684: real time   10.7651
    ORTHCH:  cpu time    0.2770: real time    0.2773
 BZINTS: Fermi energy: -0.669268;128.000000 electrons
         Band energy:***********;  BLOECHL correction: -0.047275
       DOS:  cpu time    0.0100: real time    0.0095
    CHARGE:  cpu time    0.5029: real time    0.5032
    MIXING:  cpu time    0.0090: real time    0.0087
    --------------------------------------------
      LOOP:  cpu time   13.2250: real time   13.2223

 eigenvalue-minimisations  :  2148
 total energy-change (2. order) : 0.3419466E+01  (-0.2166441E+00)
 number of electron     128.0000042 magnetization 
 augmentation part       15.2037791 magnetization 

 Broyden mixing:
  rms(total) = 0.27835E+01    rms(broyden)= 0.27835E+01
  rms(prec ) = 0.39545E+01
  weight for this iteration     100.00

 eigenvalues of (default mixing * dielectric matrix)
  average eigenvalue GAMMA=   0.6702
  1.8769  0.9516  0.9516  0.9957  0.5189  0.3388  0.3388  0.2579  0.2360  0.2360

 Free energy of the ion-electron system (eV)
  ---------------------------------------------------
  alpha Z        PSCENC =       378.09908315
  Ewald energy   TEWEN  =     22731.27163923
  -Hartree energ DENC   =    -31311.74977656
  -exchange      EXHF   =         0.00000000
  -V(xc)+E(xc)   XCENC  =       341.64749326
  PAW double counting   =      6149.71685016    -5978.44813689
  entropy T*S    EENTRO =         0.00000000
  eigenvalues    EBANDS =     -1401.68226702
  atomic energy  EATOM  =      8937.46944722
  Solvation  Ediel_sol  =         0.00000000
  ---------------------------------------------------
  free energy    TOTEN  =      -153.67566745 eV

  energy without entropy =     -153.67566745  energy(sigma->0) =     -153.67566745


--------------------------------------------------------------------------------------------------------




--------------------------------------- Iteration      1(  16)  ---------------------------------------


    POTLOK:  cpu time    0.2140: real time    0.2181
    SETDIJ:  cpu time    0.0150: real time    0.0152
    EDDIAG:  cpu time    1.4608: real time    1.4599
  RMM-DIIS:  cpu time   11.1033: real time   11.1006
    ORTHCH:  cpu time    0.2760: real time    0.2752
 BZINTS: Fermi energy: -0.744757;128.000000 electrons
         Band energy:***********;  BLOECHL correction:  0.000000
       DOS:  cpu time    0.0020: real time    0.0025
    CHARGE:  cpu time    0.4779: real time    0.4782
    MIXING:  cpu time    0.0090: real time    0.0089
    --------------------------------------------
      LOOP:  cpu time   13.5579: real time   13.5586

 eigenvalue-minimisations  :  2184
 total energy-change (2. order) : 0.3789893E+01  (-0.8310806E+00)
 number of electron     128.0000048 magnetization 
 augmentation part       13.4396595 magnetization 

 Broyden mixing:
  rms(total) = 0.88775E+00    rms(broyden)= 0.88756E+00
  rms(prec ) = 0.99496E+00
  weight for this iteration     100.00

 eigenvalues of (default mixing * dielectric matrix)
  average eigenvalue GAMMA=   0.6165
  1.8788  0.9475  0.9475  1.0054  0.5169  0.3440  0.3440  0.2577  0.2339  0.2339
  0.0724

 Free energy of the ion-electron system (eV)
  ---------------------------------------------------
  alpha Z        PSCENC =       378.09908315
  Ewald energy   TEWEN  =     22731.27163923
  -Hartree energ DENC   =    -31256.08478136
  -exchange      EXHF   =         0.00000000
  -V(xc)+E(xc)   XCENC  =       340.08389061
  PAW double counting   =      6126.40345599    -5954.35742532
  entropy T*S    EENTRO =         0.00000000
  eigenvalues    EBANDS =     -1452.77108357
  atomic energy  EATOM  =      8937.46944722
  Solvation  Ediel_sol  =         0.00000000
  ---------------------------------------------------
  free energy    TOTEN  =      -149.88577406 eV

  energy without entropy =     -149.88577406  energy(sigma->0) =     -149.88577406


--------------------------------------------------------------------------------------------------------




--------------------------------------- Iteration      1(  17)  ---------------------------------------


    POTLOK:  cpu time    0.2090: real time    0.2116
    SETDIJ:  cpu time    0.0150: real time    0.0149
    EDDIAG:  cpu time    1.4108: real time    1.4117
  RMM-DIIS:  cpu time   12.9060: real time   12.9024
    ORTHCH:  cpu time    0.2790: real time    0.2787
 BZINTS: Fermi energy: -0.766699;128.000000 electrons
         Band energy:***********;  BLOECHL correction: -0.008629
       DOS:  cpu time    0.0090: real time    0.0096
    CHARGE:  cpu time    0.4959: real time    0.4960
    MIXING:  cpu time    0.0100: real time    0.0095
    --------------------------------------------
      LOOP:  cpu time   15.3347: real time   15.3344

 eigenvalue-minimisations  :  2583
 total energy-change (2. order) : 0.1836654E+00  (-0.9270610E-01)
 number of electron     128.0000047 magnetization 
 augmentation part       13.4981847 magnetization 

 Broyden mixing:
  rms(total) = 0.79814E+00    rms(broyden)= 0.79814E+00
  rms(prec ) = 0.92285E+00
  weight for this iteration     100.00

 eigenvalues of (default mixing * dielectric matrix)
  average eigenvalue GAMMA=   0.6316
  1.9036  0.9356  0.9356  0.9686  0.4692  0.4692  0.5244  0.3117  0.3117  0.2587
  0.2457  0.2457

 Free energy of the ion-electron system (eV)
  ---------------------------------------------------
  alpha Z        PSCENC =       378.09908315
  Ewald energy   TEWEN  =     22731.27163923
  -Hartree energ DENC   =    -31259.39561949
  -exchange      EXHF   =         0.00000000
  -V(xc)+E(xc)   XCENC  =       340.12476266
  PAW double counting   =      6126.37516761    -5954.38106708
  entropy T*S    EENTRO =         0.00000000
  eigenvalues    EBANDS =     -1449.26552193
  atomic energy  EATOM  =      8937.46944722
  Solvation  Ediel_sol  =         0.00000000
  ---------------------------------------------------
  free energy    TOTEN  =      -149.70210862 eV

  energy without entropy =     -149.70210862  energy(sigma->0) =     -149.70210862


--------------------------------------------------------------------------------------------------------




--------------------------------------- Iteration      1(  18)  ---------------------------------------


    POTLOK:  cpu time    0.2110: real time    0.2238
    SETDIJ:  cpu time    0.0150: real time    0.0152
    EDDIAG:  cpu time    1.4478: real time    1.4468
  RMM-DIIS:  cpu time   10.9003: real time   10.8972
    ORTHCH:  cpu time    0.2780: real time    0.2782
 BZINTS: Fermi energy: -0.736433;128.000000 electrons
         Band energy:***********;  BLOECHL correction: -0.012218
       DOS:  cpu time    0.0090: real time    0.0092
    CHARGE:  cpu time    0.4939: real time    0.4943
    MIXING:  cpu time    0.0100: real time    0.0099
    --------------------------------------------
      LOOP:  cpu time   13.3650: real time   13.3747

 eigenvalue-minimisations  :  2158
 total energy-change (2. order) : 0.1639659E+00  (-0.1585952E-01)
 number of electron     128.0000046 magnetization 
 augmentation part       13.6349848 magnetization 

 Broyden mixing:
  rms(total) = 0.76364E+00    rms(broyden)= 0.76363E+00
  rms(prec ) = 0.94595E+00
  weight for this iteration     100.00

 eigenvalues of (default mixing * dielectric matrix)
  average eigenvalue GAMMA=   0.6776
  1.9438  0.8937  0.8937  0.8764  0.8764  0.9584  0.4837  0.3891  0.3891  0.3146
  0.2615  0.2642  0.2642

 Free energy of the ion-electron system (eV)
  ---------------------------------------------------
  alpha Z        PSCENC =       378.09908315
  Ewald energy   TEWEN  =     22731.27163923
  -Hartree energ DENC   =    -31269.65131533
  -exchange      EXHF   =         0.00000000
  -V(xc)+E(xc)   XCENC  =       340.37588664
  PAW double counting   =      6135.12692739    -5963.35552951
  entropy T*S    EENTRO =         0.00000000
  eigenvalues    EBANDS =     -1438.87428156
  atomic energy  EATOM  =      8937.46944722
  Solvation  Ediel_sol  =         0.00000000
  ---------------------------------------------------
  free energy    TOTEN  =      -149.53814277 eV

  energy without entropy =     -149.53814277  energy(sigma->0) =     -149.53814277


--------------------------------------------------------------------------------------------------------




--------------------------------------- Iteration      1(  19)  ---------------------------------------


    POTLOK:  cpu time    0.2150: real time    0.2189
    SETDIJ:  cpu time    0.0150: real time    0.0152
    EDDIAG:  cpu time    1.4348: real time    1.4345
  RMM-DIIS:  cpu time   10.9563: real time   10.9528
    ORTHCH:  cpu time    0.2780: real time    0.2779
 BZINTS: Fermi energy: -0.821236;128.000000 electrons
         Band energy:***********;  BLOECHL correction: -0.013648
       DOS:  cpu time    0.0090: real time    0.0092
    CHARGE:  cpu time    0.4959: real time    0.4959
    MIXING:  cpu time    0.0100: real time    0.0103
    --------------------------------------------
      LOOP:  cpu time   13.4140: real time   13.4146

 eigenvalue-minimisations  :  2153
 total energy-change (2. order) :-0.1704469E+00  (-0.2879590E+00)
 number of electron     128.0000048 magnetization 
 augmentation part       13.3632177 magnetization 

 Broyden mixing:
  rms(total) = 0.72629E+00    rms(broyden)= 0.72627E+00
  rms(prec ) = 0.89198E+00
  weight for this iteration     100.00

 eigenvalues of (default mixing * dielectric matrix)
  average eigenvalue GAMMA=   0.6945
  1.9919  0.9975  0.9975  0.9809  0.9809  0.8653  0.5675  0.4250  0.4250  0.3499
  0.3499  0.2602  0.2656  0.2656

 Free energy of the ion-electron system (eV)
  ---------------------------------------------------
  alpha Z        PSCENC =       378.09908315
  Ewald energy   TEWEN  =     22731.27163923
  -Hartree energ DENC   =    -31234.00310264
  -exchange      EXHF   =         0.00000000
  -V(xc)+E(xc)   XCENC  =       339.34294013
  PAW double counting   =      6127.45635419    -5955.26888453
  entropy T*S    EENTRO =         0.00000000
  eigenvalues    EBANDS =     -1474.07606645
  atomic energy  EATOM  =      8937.46944722
  Solvation  Ediel_sol  =         0.00000000
  ---------------------------------------------------
  free energy    TOTEN  =      -149.70858970 eV

  energy without entropy =     -149.70858970  energy(sigma->0) =     -149.70858970


--------------------------------------------------------------------------------------------------------




--------------------------------------- Iteration      1(  20)  ---------------------------------------


    POTLOK:  cpu time    0.2130: real time    0.2151
    SETDIJ:  cpu time    0.0150: real time    0.0151
    EDDIAG:  cpu time    1.4328: real time    1.4326
  RMM-DIIS:  cpu time   10.8234: real time   10.8196
    ORTHCH:  cpu time    0.2780: real time    0.2780
 BZINTS: Fermi energy: -0.813017;128.000000 electrons
         Band energy:***********;  BLOECHL correction: -0.010333
       DOS:  cpu time    0.0090: real time    0.0092
    CHARGE:  cpu time    0.4949: real time    0.4944
    MIXING:  cpu time    0.0110: real time    0.0108
    --------------------------------------------
      LOOP:  cpu time   13.2770: real time   13.2747

 eigenvalue-minimisations  :  2150
 total energy-change (2. order) : 0.5272221E+00  (-0.5867912E-01)
 number of electron     128.0000048 magnetization 
 augmentation part       13.4054928 magnetization 

 Broyden mixing:
  rms(total) = 0.55551E+00    rms(broyden)= 0.55551E+00
  rms(prec ) = 0.59868E+00
  weight for this iteration     100.00

 eigenvalues of (default mixing * dielectric matrix)
  average eigenvalue GAMMA=   0.6835
  2.1015  1.0261  1.0261  1.0713  1.0713  0.7871  0.4440  0.4440  0.5043  0.3571
  0.3571  0.2609  0.2609  0.2786  0.2617

 Free energy of the ion-electron system (eV)
  ---------------------------------------------------
  alpha Z        PSCENC =       378.09908315
  Ewald energy   TEWEN  =     22731.27163923
  -Hartree energ DENC   =    -31255.37912391
  -exchange      EXHF   =         0.00000000
  -V(xc)+E(xc)   XCENC  =       339.70066078
  PAW double counting   =      6145.45998953    -5974.00054287
  entropy T*S    EENTRO =         0.00000000
  eigenvalues    EBANDS =     -1451.80252076
  atomic energy  EATOM  =      8937.46944722
  Solvation  Ediel_sol  =         0.00000000
  ---------------------------------------------------
  free energy    TOTEN  =      -149.18136764 eV

  energy without entropy =     -149.18136764  energy(sigma->0) =     -149.18136764


--------------------------------------------------------------------------------------------------------




--------------------------------------- Iteration      1(  21)  ---------------------------------------


    POTLOK:  cpu time    0.2130: real time    0.2182
    SETDIJ:  cpu time    0.0150: real time    0.0152
    EDDIAG:  cpu time    1.4358: real time    1.4357
  RMM-DIIS:  cpu time   11.9732: real time   11.9696
    ORTHCH:  cpu time    0.2790: real time    0.2782
 BZINTS: Fermi energy: -0.829729;128.000000 electrons
         Band energy:***********;  BLOECHL correction: -0.017521
       DOS:  cpu time    0.0090: real time    0.0097
    CHARGE:  cpu time    0.4989: real time    0.4991
    MIXING:  cpu time    0.0120: real time    0.0113
    --------------------------------------------
      LOOP:  cpu time   14.4358: real time   14.4370

 eigenvalue-minimisations  :  2385
 total energy-change (2. order) : 0.1035443E+00  (-0.1944915E-01)
 number of electron     128.0000048 magnetization 
 augmentation part       13.3990381 magnetization 

 Broyden mixing:
  rms(total) = 0.47516E+00    rms(broyden)= 0.47516E+00
  rms(prec ) = 0.54519E+00
  weight for this iteration     100.00

 eigenvalues of (default mixing * dielectric matrix)
  average eigenvalue GAMMA=   0.7126
  2.2663  1.0742  1.0742  1.1788  1.1788  0.7960  0.5018  0.5018  0.4011  0.4011
  0.4641  0.3870  0.3870  0.2643  0.2643  0.2604

 Free energy of the ion-electron system (eV)
  ---------------------------------------------------
  alpha Z        PSCENC =       378.09908315
  Ewald energy   TEWEN  =     22731.27163923
  -Hartree energ DENC   =    -31261.45503546
  -exchange      EXHF   =         0.00000000
  -V(xc)+E(xc)   XCENC  =       339.78862716
  PAW double counting   =      6151.58575234    -5980.34946222
  entropy T*S    EENTRO =         0.00000000
  eigenvalues    EBANDS =     -1445.48787480
  atomic energy  EATOM  =      8937.46944722
  Solvation  Ediel_sol  =         0.00000000
  ---------------------------------------------------
  free energy    TOTEN  =      -149.07782339 eV

  energy without entropy =     -149.07782339  energy(sigma->0) =     -149.07782339


--------------------------------------------------------------------------------------------------------




--------------------------------------- Iteration      1(  22)  ---------------------------------------


    POTLOK:  cpu time    0.2130: real time    0.2190
    SETDIJ:  cpu time    0.0150: real time    0.0151
    EDDIAG:  cpu time    1.4368: real time    1.4364
  RMM-DIIS:  cpu time   11.3013: real time   11.2979
    ORTHCH:  cpu time    0.2940: real time    0.2941
 BZINTS: Fermi energy: -0.828125;128.000000 electrons
         Band energy:***********;  BLOECHL correction: -0.013495
       DOS:  cpu time    0.0100: real time    0.0101
    CHARGE:  cpu time    0.5209: real time    0.5201
    MIXING:  cpu time    0.0120: real time    0.0122
    --------------------------------------------
      LOOP:  cpu time   13.8029: real time   13.8050

 eigenvalue-minimisations  :  2238
 total energy-change (2. order) : 0.1913820E+00  (-0.1974511E-01)
 number of electron     128.0000047 magnetization 
 augmentation part       13.5506792 magnetization 

 Broyden mixing:
  rms(total) = 0.26741E+00    rms(broyden)= 0.26740E+00
  rms(prec ) = 0.30845E+00
  weight for this iteration     100.00

 eigenvalues of (default mixing * dielectric matrix)
  average eigenvalue GAMMA=   0.7026
  2.2294  1.0949  1.0949  1.1709  1.1709  0.8449  0.5648  0.5648  0.5548  0.4153
  0.4153  0.3851  0.3851  0.2640  0.2640  0.2605  0.2641

 Free energy of the ion-electron system (eV)
  ---------------------------------------------------
  alpha Z        PSCENC =       378.09908315
  Ewald energy   TEWEN  =     22731.27163923
  -Hartree energ DENC   =    -31273.39300874
  -exchange      EXHF   =         0.00000000
  -V(xc)+E(xc)   XCENC  =       340.02988763
  PAW double counting   =      6159.26140257    -5988.29967278
  entropy T*S    EENTRO =         0.00000000
  eigenvalues    EBANDS =     -1433.32521968
  atomic energy  EATOM  =      8937.46944722
  Solvation  Ediel_sol  =         0.00000000
  ---------------------------------------------------
  free energy    TOTEN  =      -148.88644141 eV

  energy without entropy =     -148.88644141  energy(sigma->0) =     -148.88644141


--------------------------------------------------------------------------------------------------------




--------------------------------------- Iteration      1(  23)  ---------------------------------------


    POTLOK:  cpu time    0.2190: real time    0.2223
    SETDIJ:  cpu time    0.0160: real time    0.0156
    EDDIAG:  cpu time    1.4578: real time    1.4574
  RMM-DIIS:  cpu time   11.4263: real time   11.4226
    ORTHCH:  cpu time    0.2780: real time    0.2784
 BZINTS: Fermi energy: -0.829297;128.000000 electrons
         Band energy:***********;  BLOECHL correction: -0.016935
       DOS:  cpu time    0.0090: real time    0.0093
    CHARGE:  cpu time    0.5039: real time    0.5033
    MIXING:  cpu time    0.0120: real time    0.0123
    --------------------------------------------
      LOOP:  cpu time   13.9219: real time   13.9214

 eigenvalue-minimisations  :  2223
 total energy-change (2. order) : 0.6585258E-01  (-0.1421685E-01)
 number of electron     128.0000047 magnetization 
 augmentation part       13.5978656 magnetization 

 Broyden mixing:
  rms(total) = 0.17358E+00    rms(broyden)= 0.17358E+00
  rms(prec ) = 0.20630E+00
  weight for this iteration     100.00

 eigenvalues of (default mixing * dielectric matrix)
  average eigenvalue GAMMA=   0.7444
  2.4100  1.1129  1.1129  1.1192  1.1192  0.9493  0.9493  0.5995  0.5995  0.6468
  0.4151  0.4151  0.4301  0.4301  0.2638  0.2638  0.2604  0.3030

 Free energy of the ion-electron system (eV)
  ---------------------------------------------------
  alpha Z        PSCENC =       378.09908315
  Ewald energy   TEWEN  =     22731.27163923
  -Hartree energ DENC   =    -31278.65158485
  -exchange      EXHF   =         0.00000000
  -V(xc)+E(xc)   XCENC  =       340.15491803
  PAW double counting   =      6159.06336569    -5988.16472828
  entropy T*S    EENTRO =         0.00000000
  eigenvalues    EBANDS =     -1428.06272902
  atomic energy  EATOM  =      8937.46944722
  Solvation  Ediel_sol  =         0.00000000
  ---------------------------------------------------
  free energy    TOTEN  =      -148.82058883 eV

  energy without entropy =     -148.82058883  energy(sigma->0) =     -148.82058883


--------------------------------------------------------------------------------------------------------




--------------------------------------- Iteration      1(  24)  ---------------------------------------


    POTLOK:  cpu time    0.2140: real time    0.2156
    SETDIJ:  cpu time    0.0150: real time    0.0151
    EDDIAG:  cpu time    1.4878: real time    1.4871
  RMM-DIIS:  cpu time   11.5642: real time   11.5608
    ORTHCH:  cpu time    0.2790: real time    0.2784
 BZINTS: Fermi energy: -0.844039;128.000000 electrons
         Band energy:***********;  BLOECHL correction: -0.018469
       DOS:  cpu time    0.0090: real time    0.0100
    CHARGE:  cpu time    0.5009: real time    0.5007
    MIXING:  cpu time    0.0130: real time    0.0129
    --------------------------------------------
      LOOP:  cpu time   14.0829: real time   14.0806

 eigenvalue-minimisations  :  2294
 total energy-change (2. order) : 0.1974813E-01  (-0.5172487E-02)
 number of electron     128.0000047 magnetization 
 augmentation part       13.6143875 magnetization 

 Broyden mixing:
  rms(total) = 0.13749E+00    rms(broyden)= 0.13749E+00
  rms(prec ) = 0.14672E+00
  weight for this iteration     100.00

 eigenvalues of (default mixing * dielectric matrix)
  average eigenvalue GAMMA=   0.7981
  2.4322  1.5912  1.5912  1.0786  1.0786  0.9827  0.9827  0.9434  0.5644  0.5644
  0.5968  0.4154  0.4154  0.4190  0.4190  0.2638  0.2638  0.2604  0.3009

 Free energy of the ion-electron system (eV)
  ---------------------------------------------------
  alpha Z        PSCENC =       378.09908315
  Ewald energy   TEWEN  =     22731.27163923
  -Hartree energ DENC   =    -31277.64502141
  -exchange      EXHF   =         0.00000000
  -V(xc)+E(xc)   XCENC  =       340.10140405
  PAW double counting   =      6158.25638832    -5987.38078003
  entropy T*S    EENTRO =         0.00000000
  eigenvalues    EBANDS =     -1428.97300122
  atomic energy  EATOM  =      8937.46944722
  Solvation  Ediel_sol  =         0.00000000
  ---------------------------------------------------
  free energy    TOTEN  =      -148.80084070 eV

[...]
     43      -4.9022      2.00000
     44      -4.7344      2.00000
     45      -4.2389      2.00000
     46      -4.2298      2.00000
     47      -4.1444      2.00000
     48      -4.0853      2.00000
     49      -3.9423      2.00000
     50      -3.8087      2.00000
     51      -3.6798      2.00000
     52      -3.4765      2.00000
     53      -3.4351      2.00000
     54      -2.9124      2.00000
     55      -2.8764      2.00000
     56      -2.8347      2.00000
     57      -2.1496      2.00000
     58      -2.0438      2.00000
     59      -1.9929      2.00000
     60      -1.7357      2.00000
     61      -1.2432      2.00000
     62      -1.2012      2.00000
     63      -0.9406      2.01635
     64      -0.8057      1.98140
     65      -0.7745      0.96139
     66      -0.3449      0.00000
     67      -0.1790      0.00000
     68       0.2523      0.00000
     69       0.4576      0.00000
     70       1.0021      0.00000
     71       1.0266      0.00000
     72       1.0537      0.00000
     73       1.8411      0.00000
     74       1.8875      0.00000
     75       3.0809      0.00000
     76       3.1160      0.00000

 k-point    10 :       0.0000    0.4286    0.0000
  band No.  band energies     occupation 
      1     -36.5780      2.00000
      2     -35.2426      2.00000
      3     -34.2808      2.00000
      4     -33.3943      2.00000
      5     -20.3890      2.00000
      6     -19.7189      2.00000
      7     -19.5584      2.00000
      8     -19.1872      2.00000
      9     -19.0697      2.00000
     10     -18.7278      2.00000
     11     -18.5456      2.00000
     12     -18.3980      2.00000
     13     -18.3971      2.00000
     14     -18.1835      2.00000
     15     -18.0572      2.00000
     16     -17.5722      2.00000
     17     -17.4291      2.00000
     18     -17.1972      2.00000
     19     -17.1528      2.00000
     20     -16.9702      2.00000
     21     -16.6327      2.00000
     22     -16.4769      2.00000
     23     -16.1730      2.00000
     24     -16.1044      2.00000
     25     -15.9995      2.00000
     26     -15.5217      2.00000
     27     -15.4527      2.00000
     28     -15.1282      2.00000
     29      -7.5778      2.00000
     30      -6.9755      2.00000
     31      -6.7093      2.00000
     32      -6.5938      2.00000
     33      -6.5900      2.00000
     34      -6.5259      2.00000
     35      -6.3575      2.00000
     36      -5.9676      2.00000
     37      -5.8270      2.00000
     38      -5.6387      2.00000
     39      -5.5622      2.00000
     40      -5.4728      2.00000
     41      -5.1393      2.00000
     42      -4.9683      2.00000
     43      -4.9087      2.00000
     44      -4.7251      2.00000
     45      -4.6091      2.00000
     46      -4.5770      2.00000
     47      -4.4341      2.00000
     48      -4.1612      2.00000
     49      -4.0666      2.00000
     50      -3.7122      2.00000
     51      -3.5459      2.00000
     52      -3.4894      2.00000
     53      -3.0003      2.00000
     54      -2.8572      2.00000
     55      -2.7625      2.00000
     56      -2.7320      2.00000
     57      -2.3021      2.00000
     58      -2.1398      2.00000
     59      -1.8839      2.00000
     60      -1.4344      2.00000
     61      -1.2832      2.00000
     62      -0.8675      2.00000
     63      -0.7420      0.29306
     64      -0.7086     -0.07499
     65      -0.5506      0.00000
     66      -0.4209      0.00000
     67      -0.1905      0.00000
     68       0.6442      0.00000
     69       0.7121      0.00000
     70       0.7710      0.00000
     71       1.3958      0.00000
     72       1.4395      0.00000
     73       1.8165      0.00000
     74       2.2870      0.00000
     75       3.1991      0.00000
     76       3.5241      0.00000

 k-point    11 :       0.2000    0.4286    0.0000
  band No.  band energies     occupation 
      1     -36.5778      2.00000
      2     -35.2424      2.00000
      3     -34.2807      2.00000
      4     -33.3942      2.00000
      5     -20.3271      2.00000
      6     -19.8605      2.00000
      7     -19.6286      2.00000
      8     -19.1528      2.00000
      9     -19.0999      2.00000
     10     -18.5733      2.00000
     11     -18.5103      2.00000
     12     -18.4971      2.00000
     13     -18.4175      2.00000
     14     -18.1603      2.00000
     15     -18.1245      2.00000
     16     -17.6565      2.00000
     17     -17.2985      2.00000
     18     -17.2137      2.00000
     19     -17.1043      2.00000
     20     -17.0353      2.00000
     21     -16.6159      2.00000
     22     -16.3456      2.00000
     23     -16.2124      2.00000
     24     -16.0965      2.00000
     25     -16.0126      2.00000
     26     -15.4547      2.00000
     27     -15.3889      2.00000
     28     -15.0892      2.00000
     29      -7.5881      2.00000
     30      -6.9437      2.00000
     31      -6.7948      2.00000
     32      -6.7539      2.00000
     33      -6.6275      2.00000
     34      -6.5751      2.00000
     35      -6.2702      2.00000
     36      -5.9811      2.00000
     37      -5.8465      2.00000
     38      -5.7703      2.00000
     39      -5.5333      2.00000
     40      -5.4388      2.00000
     41      -5.1566      2.00000
     42      -5.1085      2.00000
     43      -4.9552      2.00000
     44      -4.8133      2.00000
     45      -4.6544      2.00000
     46      -4.4110      2.00000
     47      -4.2964      2.00000
     48      -4.1853      2.00000
     49      -4.1269      2.00000
     50      -3.7611      2.00000
     51      -3.6665      2.00000
     52      -3.4965      2.00000
     53      -3.1984      2.00000
     54      -2.8730      2.00000
     55      -2.8043      2.00000
     56      -2.6306      2.00000
     57      -2.3022      2.00000
     58      -2.0476      2.00000
     59      -1.9184      2.00000
     60      -1.6278      2.00000
     61      -1.2188      2.00000
     62      -0.8489      2.00000
     63      -0.7535      1.01204
     64      -0.7335      0.04415
     65      -0.7060     -0.00784
     66      -0.3914      0.00000
     67      -0.0417      0.00000
     68       0.6669      0.00000
     69       0.7184      0.00000
     70       0.9069      0.00000
     71       1.4119      0.00000
     72       1.4306      0.00000
     73       1.8858      0.00000
     74       2.2600      0.00000
     75       3.1463      0.00000
     76       3.4843      0.00000

 k-point    12 :       0.4000    0.4286    0.0000
  band No.  band energies     occupation 
      1     -36.5776      2.00000
      2     -35.2422      2.00000
      3     -34.2804      2.00000
      4     -33.3941      2.00000
      5     -20.1728      2.00000
      6     -20.0335      2.00000
      7     -19.8018      2.00000
      8     -19.2194      2.00000
      9     -18.9634      2.00000
     10     -18.7028      2.00000
     11     -18.4947      2.00000
     12     -18.4166      2.00000
     13     -18.3559      2.00000
     14     -18.2321      2.00000
     15     -18.0562      2.00000
     16     -17.8335      2.00000
     17     -17.2290      2.00000
     18     -17.1772      2.00000
     19     -17.0788      2.00000
     20     -17.0186      2.00000
     21     -16.5740      2.00000
     22     -16.2619      2.00000
     23     -16.1561      2.00000
     24     -16.1506      2.00000
     25     -15.9828      2.00000
     26     -15.4574      2.00000
     27     -15.1934      2.00000
     28     -15.0358      2.00000
     29      -7.6087      2.00000
     30      -7.1091      2.00000
     31      -6.9682      2.00000
     32      -6.8423      2.00000
     33      -6.6629      2.00000
     34      -6.5549      2.00000
     35      -6.0875      2.00000
     36      -6.0157      2.00000
     37      -5.9161      2.00000
     38      -5.8424      2.00000
     39      -5.5998      2.00000
     40      -5.3651      2.00000
     41      -5.2910      2.00000
     42      -5.2789      2.00000
     43      -5.1438      2.00000
     44      -4.7449      2.00000
     45      -4.6867      2.00000
     46      -4.2952      2.00000
     47      -4.1974      2.00000
     48      -4.1371      2.00000
     49      -4.0465      2.00000
     50      -3.8509      2.00000
     51      -3.7592      2.00000
     52      -3.6627      2.00000
     53      -3.5620      2.00000
     54      -2.8326      2.00000
     55      -2.8194      2.00000
     56      -2.7494      2.00000
     57      -2.0835      2.00000
     58      -1.9907      2.00000
     59      -1.8902      2.00000
     60      -1.7276      2.00000
     61      -1.2193      2.00000
     62      -1.1534      2.00000
     63      -0.8890      2.08761
     64      -0.7352      0.12386
     65      -0.6486     -0.09111
     66      -0.2646      0.00000
     67       0.0762      0.00000
     68       0.7262      0.00000
     69       1.0847      0.00000
     70       1.3438      0.00000
     71       1.4157      0.00000
     72       1.9219      0.00000
     73       2.2285      0.00000
     74       2.2506      0.00000
     75       3.1802      0.00000
     76       3.4458      0.00000


--------------------------------------------------------------------------------------------------------


 soft charge-density along one line, spin component           1
         0         1         2         3         4         5         6         7         8         9
 total charge-density along one line
 
 pseudopotential strength for first ion, spin component:           1
 13.304  -0.447  -0.000   0.001  -0.000   0.000   0.000   0.000
 -0.447   0.104   0.000  -0.000   0.000  -0.000   0.000  -0.000
 -0.000   0.000  -9.834  -0.000  -0.000   0.122   0.000   0.000
  0.001  -0.000  -0.000  -9.791   0.000   0.000   0.115  -0.000
 -0.000   0.000  -0.000   0.000  -9.799   0.000  -0.000   0.117
  0.000  -0.000   0.122   0.000   0.000   0.180  -0.000  -0.000
  0.000   0.000   0.000   0.115  -0.000  -0.000   0.182   0.000
  0.000  -0.000   0.000  -0.000   0.117  -0.000   0.000   0.181
 total augmentation occupancy for first ion, spin component:           1
  1.866   0.127   0.000   0.018   0.000   0.000   0.002   0.000
  0.127   0.013   0.000  -0.005   0.000   0.000   0.001   0.000
  0.000   0.000   1.579   0.000   0.000   0.159   0.000   0.000
  0.018  -0.005   0.000   1.526   0.000   0.000   0.122   0.000
  0.000   0.000   0.000   0.000   1.513   0.000   0.000   0.130
  0.000   0.000   0.159   0.000   0.000   0.018   0.000   0.000
  0.002   0.001   0.000   0.122   0.000   0.000   0.011   0.000
  0.000   0.000   0.000   0.000   0.130   0.000   0.000   0.013


------------------------ aborting loop because EDIFF is reached ----------------------------------------


    CHARGE:  cpu time    0.5249: real time    0.5256
    FORLOC:  cpu time    0.0450: real time    0.0443
    FORNL :  cpu time    5.2022: real time    5.2002
    STRESS:  cpu time   11.5382: real time   11.5373
    FORCOR:  cpu time    0.2460: real time    0.2462
    FORHAR:  cpu time    0.0840: real time    0.0837
    MIXING:  cpu time    0.0260: real time    0.0267
    OFIELD:  cpu time    0.0000: real time    0.0000

  FORCE on cell =-STRESS in cart. coord.  units (eV):
  Direction    XX          YY          ZZ          XY          YZ          ZX
  --------------------------------------------------------------------------------------
  Alpha Z   378.09908   378.09908   378.09908
  Ewald   27809.53423 27749.52952-32827.80614    -0.00000    -0.00000    -0.00000
  Hartree 30090.71258 30019.34909-28824.62339    -0.00000    -0.00000    -0.00000
  E(xc)    -577.33039  -577.41777  -577.16137     0.00000     0.00000    -0.00000
  Local  -59556.00362-59436.27537 59985.21014    -0.00000     0.00000     0.00000
  n-local  -475.49117  -477.48461  -478.43704     0.74718    -0.00004     0.00003
  augment   113.92528   115.40779   114.45865    -0.00000    -0.00000     0.00000
  Kinetic  2219.82132  2237.09036  2232.44459    -1.32385     0.00006    -0.00001
  Fock        0.00000     0.00000     0.00000     0.00000     0.00000     0.00000
  -------------------------------------------------------------------------------------
  Total       3.26731     8.29810     2.18452     0.00000     0.00000     0.00000
  in kB      11.20276    28.45201     7.49016     0.00000     0.00000     0.00000
  external pressure =       15.71 kB  Pullay stress =        0.00 kB


 VOLUME and BASIS-vectors are now :
 -----------------------------------------------------------------------------
  energy-cutoff  :      750.00
  volume of cell :      467.28
      direct lattice vectors                 reciprocal lattice vectors
     5.522882970  0.000000000  0.000000000     0.181064854  0.000000000  0.000000000
     0.000000000  3.905268000  0.000000000     0.000000000  0.256064373  0.000000000
     0.000000000  0.000000000 21.665045198     0.000000000  0.000000000  0.046157300

  length of vectors
     5.522882970  3.905268000 21.665045198     0.181064854  0.256064373  0.046157300


 FORCES acting on ions
    electron-ion (+dipol)            ewald-force                    non-local-force                 convergence-correction
 -----------------------------------------------------------------------------------------------
   0.114E-12 -.235E-12 0.128E+04   -.677E-14 0.936E-15 -.128E+04   0.000E+00 0.000E+00 -.182E+01   -.516E-16 0.114E-12 0.258E+00
   0.445E+00 0.699E-12 0.947E+03   -.132E+00 -.110E-13 -.946E+03   0.635E+00 -.347E-17 -.444E+01   -.246E+00 0.357E-13 0.942E+00
   -.445E+00 0.786E-12 0.947E+03   0.132E+00 -.115E-13 -.946E+03   -.635E+00 0.347E-17 -.444E+01   0.246E+00 -.358E-13 0.942E+00
   -.612E-14 0.139E-12 0.543E+03   -.628E-14 -.372E-14 -.542E+03   0.000E+00 0.000E+00 -.263E+01   0.231E-13 -.716E-13 0.945E+00
   0.203E+00 0.128E-11 0.148E+03   0.246E-13 -.106E-13 -.148E+03   0.381E+00 0.867E-18 -.268E+01   -.322E-01 0.133E-12 0.105E+01
   -.203E+00 0.477E-12 0.148E+03   -.125E-12 -.112E-13 -.148E+03   -.381E+00 -.867E-18 -.268E+01   0.322E-01 0.137E-12 0.105E+01
   0.134E-12 0.182E-14 -.246E+03   -.187E-14 -.940E-15 0.247E+03   0.000E+00 0.000E+00 -.199E+01   -.141E-12 -.760E-13 0.100E+01
   -.344E+00 0.655E-12 -.640E+03   0.132E+00 -.870E-15 0.641E+03   0.105E+01 0.694E-17 -.262E+01   -.358E-01 0.745E-13 0.914E+00
   0.344E+00 0.286E-12 -.640E+03   -.132E+00 0.195E-17 0.641E+03   -.105E+01 -.694E-17 -.262E+01   0.358E-01 0.106E-12 0.914E+00
   -.187E-14 0.517E-12 -.104E+04   -.158E-13 -.726E-14 0.105E+04   0.000E+00 0.000E+00 -.576E+01   -.655E-13 -.267E-13 0.624E+00
   0.204E+02 -.291E-13 -.134E+04   -.268E+02 0.747E-16 0.136E+04   0.654E+01 0.000E+00 -.167E+02   0.582E-01 -.300E-13 -.132E+00
   -.204E+02 0.360E-12 -.134E+04   0.268E+02 -.841E-15 0.136E+04   -.654E+01 0.000E+00 -.167E+02   -.582E-01 -.825E-13 -.132E+00
   0.339E-14 -.368E-12 0.213E+04   0.588E-13 0.130E-13 -.212E+04   0.000E+00 0.000E+00 -.230E+01   0.650E-13 0.783E-13 0.381E+00
   0.634E-13 0.486E-13 0.904E+03   0.105E-12 0.220E-13 -.904E+03   0.000E+00 0.000E+00 -.159E+01   0.234E-12 -.107E-12 0.167E+01
   0.845E-14 0.146E-13 -.411E+03   0.102E-12 0.196E-13 0.411E+03   0.000E+00 0.000E+00 -.136E+01   -.261E-13 -.291E-12 0.174E+01
   0.625E-13 0.123E-12 -.173E+04   -.674E-14 -.509E-14 0.174E+04   0.000E+00 0.000E+00 -.115E+01   -.144E-12 -.124E-12 0.932E+00
   -.890E-14 -.241E-13 0.900E+03   -.162E-13 0.219E-14 -.895E+03   0.000E+00 0.000E+00 -.264E+01   -.364E-13 -.250E-13 0.168E+00
   0.576E-15 -.289E-13 0.364E+03   -.108E-13 0.545E-15 -.362E+03   0.000E+00 0.000E+00 0.491E+00   -.323E-13 0.358E-13 0.627E+00
   -.112E-13 -.425E-13 -.164E+03   -.935E-14 0.336E-14 0.164E+03   0.000E+00 0.000E+00 0.729E+00   -.955E-14 0.302E-13 0.665E+00
   -.286E-14 0.106E-12 -.683E+03   -.243E-13 0.323E-14 0.685E+03   0.000E+00 0.000E+00 0.113E+01   0.571E-13 0.532E-14 0.421E+00
 -----------------------------------------------------------------------------------------------
   0.150E-11 0.477E-11 0.567E+02   -.390E-13 0.210E-14 -.182E-11   0.888E-15 0.000E+00 -.717E+02   -.177E-12 -.120E-12 0.150E+02
 
 
 POSITION                                       TOTAL-FORCE (eV/Angst)
 -----------------------------------------------------------------------------------
      2.76144      0.00000      6.00000         0.000000      0.000000     -1.518054
      1.38072      1.95263      7.38072         0.701441      0.000000     -2.069101
      4.14216      1.95263      7.38072        -0.701441      0.000000     -2.069101
      0.00000      0.00000      8.76144         0.000000      0.000000     -0.753220
      4.14216      1.95263     10.14216         0.552563      0.000000     -1.261053
      1.38072      1.95263     10.14216        -0.552563      0.000000     -1.261053
      2.76144      0.00000     11.52288         0.000000      0.000000     -0.586399
      1.38072      1.95263     12.90360         0.802475      0.000000     -1.442131
      4.14216      1.95263     12.90360        -0.802475      0.000000     -1.442131
      0.00000      0.00000     14.28432         0.000000      0.000000     -1.105122
      4.14216      1.95263     15.66505         0.190247      0.000000     -0.963858
      1.38072      1.95263     15.66505        -0.190247     -0.000000     -0.963858
      0.00000      0.00000      6.00000         0.000000      0.000000      1.004533
      2.76144      0.00000      8.76144         0.000000      0.000000      0.952636
      0.00000      0.00000     11.52288         0.000000      0.000000      0.733373
      2.76144      0.00000     14.28432         0.000000      0.000000      1.564936
      2.76144      1.95263      6.00000         0.000000      0.000000      2.260941
      0.00000      1.95263      8.76144         0.000000      0.000000      2.583305
      2.76144      1.95263     11.52288         0.000000      0.000000      2.338509
      0.00000      1.95263     14.28432         0.000000      0.000000      3.996850
 -----------------------------------------------------------------------------------
    total drift:                                0.000000      0.000000     -0.072913


--------------------------------------------------------------------------------------------------------



  FREE ENERGIE OF THE ION-ELECTRON SYSTEM (eV)
  ---------------------------------------------------
  free  energy   TOTEN  =      -148.78152685 eV

  energy  without entropy=     -148.78152685  energy(sigma->0) =     -148.78152685
 


--------------------------------------------------------------------------------------------------------


    POTLOK:  cpu time    0.2450: real time    0.2443


--------------------------------------------------------------------------------------------------------


     LOOP+:  cpu time  605.8469: real time  606.2322
    4ORBIT:  cpu time    0.0000: real time    0.0000
 BZINTS: Fermi energy: -0.766348;128.000000 electrons
         Band energy:***********;  BLOECHL correction: -0.020604

 total amount of memory used by VASP MPI-rank0   209446. kBytes
=======================================================================

   base      :      30000. kBytes
   nonl-proj :      60015. kBytes
   fftplans  :      13909. kBytes
   grid      :      24980. kBytes
   one-center:        155. kBytes
   wavefun   :      80387. kBytes
 
  
  
 General timing and accounting informations for this job:
 ========================================================
  
                  Total CPU time used (sec):      610.663
                            User time (sec):      599.999
                          System time (sec):       10.664
                         Elapsed time (sec):      611.336
  
                   Maximum memory used (kb):      231436.
                   Average memory used (kb):           0.
  
                          Minor page faults:       277518
                          Major page faults:          104
                 Voluntary context switches:         4021
