Starting job 28514176 ("jobname") on c14-6 at Wed Nov 6 14:07:56 CET 2019
 running on    4 total cores
 distrk:  each k-point on    4 cores,    1 groups
 distr:  one band on    2 cores,    2 groups
 using from now: INCAR     
 vasp.5.4.4.18Apr17-6-g9f103f2a35 (build Jun 30 2017 11:15:00) complex          
  
 POSCAR found type information on POSCAR  O  Sr Ti
 POSCAR found :  3 types and      20 ions
 scaLAPACK will be used

 ----------------------------------------------------------------------------- 
|                                                                             |
|  ADVICE TO THIS USER RUNNING 'VASP/VAMP'   (HEAR YOUR MASTER'S VOICE ...):  |
|                                                                             |
|      You have a (more or less) 'large supercell' and for larger cells       |
|      it might be more efficient to use real space projection operators      |
|      So try LREAL= Auto  in the INCAR   file.                               |
|      Mind: If you want to do a very accurate calculations keep the          |
|      reciprocal projection scheme          (i.e. LREAL=.FALSE.)             |
|                                                                             |
 ----------------------------------------------------------------------------- 

 WARNING: PSMAXN for non-local potential too small
 LDA part: xc-table for Pade appr. of Perdew
 POSCAR, INCAR and KPOINTS ok, starting setup
 FFT: planning ...
 WAVECAR not read
 entering main loop
       N       E                     dE             d eps       ncg     rms          rms(c)
DAV:   1     0.188168576706E+04    0.18817E+04   -0.67187E+04  1824   0.201E+03
DAV:   2     0.276071147732E+03   -0.16056E+04   -0.15355E+04  2124   0.442E+02
DAV:   3    -0.158292614741E+03   -0.43436E+03   -0.42055E+03  2492   0.216E+02
DAV:   4    -0.196902793129E+03   -0.38610E+02   -0.38465E+02  2400   0.704E+01
DAV:   5    -0.198734563452E+03   -0.18318E+01   -0.18308E+01  2888   0.167E+01    0.376E+01
RMM:   6    -0.205750749664E+03   -0.70162E+01   -0.39502E+02  2454   0.588E+01    0.525E+01
RMM:   7    -0.172635483173E+03    0.33115E+02   -0.97912E+01  2196   0.318E+01    0.214E+01
RMM:   8    -0.160720248976E+03    0.11915E+02   -0.23004E+01  2050   0.167E+01    0.153E+01
RMM:   9    -0.156287662387E+03    0.44326E+01   -0.21311E+00  2379   0.562E+00    0.126E+01
RMM:  10    -0.157114312119E+03   -0.82665E+00   -0.38096E+01  2194   0.163E+01    0.301E+01
RMM:  11    -0.155834240750E+03    0.12801E+01   -0.32428E+00  2841   0.368E+00    0.293E+01
RMM:  12    -0.158153775784E+03   -0.23195E+01   -0.13847E+00  2760   0.263E+00    0.327E+01
RMM:  13    -0.158425497800E+03   -0.27172E+00   -0.31086E-01  3135   0.896E-01    0.334E+01
RMM:  14    -0.157095133818E+03    0.13304E+01   -0.18687E-01  2500   0.109E+00    0.323E+01
RMM:  15    -0.153675667455E+03    0.34195E+01   -0.21664E+00  2148   0.393E+00    0.278E+01
RMM:  16    -0.149885774062E+03    0.37899E+01   -0.83108E+00  2184   0.794E+00    0.888E+00
RMM:  17    -0.149702108624E+03    0.18367E+00   -0.92706E-01  2583   0.234E+00    0.798E+00
RMM:  18    -0.149538142768E+03    0.16397E+00   -0.15860E-01  2158   0.112E+00    0.764E+00
RMM:  19    -0.149708589702E+03   -0.17045E+00   -0.28796E+00  2153   0.485E+00    0.726E+00
RMM:  20    -0.149181367640E+03    0.52722E+00   -0.58679E-01  2150   0.240E+00    0.556E+00
RMM:  21    -0.149077823386E+03    0.10354E+00   -0.19449E-01  2385   0.112E+00    0.475E+00
RMM:  22    -0.148886441414E+03    0.19138E+00   -0.19745E-01  2238   0.117E+00    0.267E+00
RMM:  23    -0.148820588829E+03    0.65853E-01   -0.14217E-01  2223   0.111E+00    0.174E+00
RMM:  24    -0.148800840700E+03    0.19748E-01   -0.51725E-02  2294   0.580E-01    0.137E+00
RMM:  25    -0.148849513701E+03   -0.48673E-01   -0.23336E-01  2131   0.139E+00    0.352E+00
RMM:  26    -0.148815611392E+03    0.33902E-01   -0.18051E-02  2520   0.371E-01    0.217E+00
RMM:  27    -0.148796486615E+03    0.19125E-01   -0.10164E-02  2072   0.308E-01    0.170E+00
RMM:  28    -0.148782269049E+03    0.14218E-01   -0.98788E-03  2245   0.249E-01    0.634E-01
RMM:  29    -0.148779827369E+03    0.24417E-02   -0.46769E-03  2173   0.209E-01    0.328E-01
RMM:  30    -0.148780336933E+03   -0.50956E-03   -0.58186E-04  2352   0.581E-02    0.275E-01
RMM:  31    -0.148779817015E+03    0.51992E-03   -0.15185E-03  2116   0.105E-01    0.318E-01
RMM:  32    -0.148780340260E+03   -0.52325E-03   -0.13868E-03  2277   0.906E-02    0.308E-01
RMM:  33    -0.148781290382E+03   -0.95012E-03   -0.21361E-03  2090   0.135E-01    0.819E-01
RMM:  34    -0.148780351029E+03    0.93935E-03   -0.34773E-04  2094   0.460E-02    0.541E-01
RMM:  35    -0.148780877501E+03   -0.52647E-03   -0.60691E-04  1922   0.780E-02    0.469E-01
RMM:  36    -0.148780708652E+03    0.16885E-03   -0.42343E-04  2056   0.552E-02    0.213E-01
RMM:  37    -0.148780920536E+03   -0.21188E-03   -0.30228E-04  2006   0.477E-02    0.833E-02
RMM:  38    -0.148780979529E+03   -0.58993E-04   -0.59735E-05  1512   0.227E-02    0.746E-02
RMM:  39    -0.148781218768E+03   -0.23924E-03   -0.19088E-04  1789   0.415E-02    0.124E-01
RMM:  40    -0.148781297304E+03   -0.78536E-04   -0.10141E-04  1749   0.249E-02    0.140E-01
RMM:  41    -0.148781526320E+03   -0.22902E-03   -0.56366E-05  1556   0.203E-02    0.201E-01
RMM:  42    -0.148781526846E+03   -0.52521E-06   -0.85784E-06  1209   0.110E-02
   1 F= -.14878153E+03 E0= -.14878153E+03  d E =0.000000E+00

Currently Loaded Modulefiles:
  1) intel/2017.4         2) perf-reports/7.0.6

Job script resource usage:
       JobID  MaxVMSize     MaxRSS 
------------ ---------- ---------- 
28514176.ba+    499228K      6059K 

Job step resource usage:
       JobID    JobName  AllocCPUS  MaxVMSize     MaxRSS    Elapsed ExitCode 
------------ ---------- ---------- ---------- ---------- ---------- -------- 
28514176        jobname          4                         00:10:15      0:0 
28514176.0    pmi_proxy          1   2094640K    853247K   00:10:12      0:0 

Job 28514176 ("jobname") completed on c14-6 at Wed Nov 6 14:18:09 CET 2019
