<?xml version="1.0" encoding="ISO-8859-1"?>
<modeling>
 <generator>
  <i name="program" type="string">vasp </i>
  <i name="version" type="string">5.4.4.18Apr17-6-g9f103f2a35  </i>
  <i name="subversion" type="string">(build Jun 30 2017 11:15:00) complex            parallel </i>
  <i name="platform" type="string">STALLO_VASP_5.4.4 </i>
  <i name="date" type="string">2019 11 06 </i>
  <i name="time" type="string">14:07:57 </i>
 </generator>
 <incar>
  <i type="string" name="PREC">normal    ! low/normal/accurate</i>
  <i type="string" name="ALGO"> Fast      ! Algorithm for electronic re</i>
  <i type="int" name="ISPIN">     1</i>
  <i type="int" name="NELMIN">     4</i>
  <i name="EDIFF">      0.00001000</i>
  <i type="int" name="NSW">     0</i>
  <i name="ENCUT">    750.00000000</i>
  <i type="logical" name="LREAL"> F  </i>
  <i type="int" name="ISMEAR">    -5</i>
  <i name="SIGMA">      0.20000000</i>
  <i type="logical" name="LWAVE"> F  </i>
  <v type="int" name="KPOINT_BSE">    -1     0     0     0</v>
 </incar>
 <structure name="primitive_cell" >
  <crystal>
   <varray name="basis" >
    <v>       5.52288297       0.00000000       0.00000000 </v>
    <v>       0.00000000       3.90526800       0.00000000 </v>
    <v>       0.00000000       0.00000000      21.66504520 </v>
   </varray>
   <i name="volume">    467.27902047 </i>
   <varray name="rec_basis" >
    <v>       0.18106485       0.00000000       0.00000000 </v>
    <v>       0.00000000       0.25606437       0.00000000 </v>
    <v>       0.00000000       0.00000000       0.04615730 </v>
   </varray>
  </crystal>
  <varray name="positions" >
   <v>      -0.50000000       0.00000000       0.27694380 </v>
   <v>      -0.50000000      -0.50000000       0.27694380 </v>
   <v>      -0.50000000       0.00000000       0.40440449 </v>
   <v>       0.25000000      -0.50000000       0.34067414 </v>
   <v>      -0.25000000      -0.50000000       0.34067414 </v>
   <v>       0.00000000       0.00000000       0.27694380 </v>
   <v>       0.00000000       0.00000000       0.40440449 </v>
   <v>       0.00000000      -0.50000000       0.40440449 </v>
   <v>      -0.25000000      -0.50000000       0.46813483 </v>
   <v>       0.25000000      -0.50000000       0.46813483 </v>
   <v>      -0.50000000       0.00000000      -0.46813483 </v>
   <v>      -0.50000000      -0.50000000      -0.46813483 </v>
   <v>       0.00000000       0.00000000      -0.46813483 </v>
   <v>       0.25000000      -0.50000000      -0.40440449 </v>
   <v>      -0.25000000      -0.50000000      -0.40440449 </v>
   <v>      -0.50000000       0.00000000      -0.34067414 </v>
   <v>       0.00000000       0.00000000      -0.34067414 </v>
   <v>       0.00000000      -0.50000000      -0.34067414 </v>
   <v>      -0.25000000      -0.50000000      -0.27694380 </v>
   <v>       0.25000000      -0.50000000      -0.27694380 </v>
  </varray>
 </structure>
 <varray name="primitive_index" >
  <v type="int" >        1 </v>
  <v type="int" >       17 </v>
  <v type="int" >       14 </v>
  <v type="int" >        2 </v>
  <v type="int" >        3 </v>
  <v type="int" >       13 </v>
  <v type="int" >        4 </v>
  <v type="int" >       18 </v>
  <v type="int" >        5 </v>
  <v type="int" >        6 </v>
  <v type="int" >        7 </v>
  <v type="int" >       19 </v>
  <v type="int" >       15 </v>
  <v type="int" >        8 </v>
  <v type="int" >        9 </v>
  <v type="int" >       16 </v>
  <v type="int" >       10 </v>
  <v type="int" >       20 </v>
  <v type="int" >       11 </v>
  <v type="int" >       12 </v>
 </varray>
 <kpoints>
  <generation param="Gamma">
   <v type="int" name="divisions">       5        7        1 </v>
   <v name="usershift">      0.00000000       0.00000000       0.00000000 </v>
   <v name="genvec1">      0.20000000       0.00000000       0.00000000 </v>
   <v name="genvec2">      0.00000000       0.14285714       0.00000000 </v>
   <v name="genvec3">      0.00000000       0.00000000       1.00000000 </v>
   <v name="shift">      0.00000000       0.00000000       0.00000000 </v>
  </generation>
  <varray name="kpointlist" >
   <v>       0.00000000       0.00000000       0.00000000 </v>
   <v>       0.20000000       0.00000000       0.00000000 </v>
   <v>       0.40000000       0.00000000       0.00000000 </v>
   <v>       0.00000000       0.14285714       0.00000000 </v>
   <v>       0.20000000       0.14285714       0.00000000 </v>
   <v>       0.40000000       0.14285714       0.00000000 </v>
   <v>       0.00000000       0.28571429       0.00000000 </v>
   <v>       0.20000000       0.28571429       0.00000000 </v>
   <v>       0.40000000       0.28571429       0.00000000 </v>
   <v>       0.00000000       0.42857143       0.00000000 </v>
   <v>       0.20000000       0.42857143       0.00000000 </v>
   <v>       0.40000000       0.42857143       0.00000000 </v>
  </varray>
  <varray name="weights" >
   <v>       0.02857143 </v>
   <v>       0.05714286 </v>
   <v>       0.05714286 </v>
   <v>       0.05714286 </v>
   <v>       0.11428571 </v>
   <v>       0.11428571 </v>
   <v>       0.05714286 </v>
   <v>       0.11428571 </v>
   <v>       0.11428571 </v>
   <v>       0.05714286 </v>
   <v>       0.11428571 </v>
   <v>       0.11428571 </v>
  </varray>
  <varray name="tetrahedronlist"  type="int" >
   <v type="int" >        2        1        1        2        5 </v>
   <v type="int" >        2        1        1        4        5 </v>
   <v type="int" >        2        1        4        4        5 </v>
   <v type="int" >        2        1        2        2        5 </v>
   <v type="int" >        2        1        2        5        5 </v>
   <v type="int" >        2        1        4        5        5 </v>
   <v type="int" >        2        2        2        3        6 </v>
   <v type="int" >        2        2        2        5        6 </v>
   <v type="int" >        2        2        5        5        6 </v>
   <v type="int" >        2        2        3        3        6 </v>
   <v type="int" >        2        2        3        6        6 </v>
   <v type="int" >        2        2        5        6        6 </v>
   <v type="int" >        4        3        3        3        6 </v>
   <v type="int" >        4        3        3        6        6 </v>
   <v type="int" >        4        3        6        6        6 </v>
   <v type="int" >        2        2        3        3        5 </v>
   <v type="int" >        2        3        3        5        6 </v>
   <v type="int" >        2        3        5        6        6 </v>
   <v type="int" >        2        2        2        3        5 </v>
   <v type="int" >        2        2        3        5        5 </v>
   <v type="int" >        2        3        5        5        6 </v>
   <v type="int" >        2        1        2        2        4 </v>
   <v type="int" >        2        2        2        4        5 </v>
   <v type="int" >        2        2        4        5        5 </v>
   <v type="int" >        2        1        1        2        4 </v>
   <v type="int" >        2        1        2        4        4 </v>
   <v type="int" >        2        2        4        4        5 </v>
   <v type="int" >        2        4        4        5        8 </v>
   <v type="int" >        2        4        4        7        8 </v>
   <v type="int" >        2        4        7        7        8 </v>
   <v type="int" >        2        4        5        5        8 </v>
   <v type="int" >        2        4        5        8        8 </v>
   <v type="int" >        2        4        7        8        8 </v>
   <v type="int" >        2        5        5        6        9 </v>
   <v type="int" >        2        5        5        8        9 </v>
   <v type="int" >        2        5        8        8        9 </v>
   <v type="int" >        2        5        6        6        9 </v>
   <v type="int" >        2        5        6        9        9 </v>
   <v type="int" >        2        5        8        9        9 </v>
   <v type="int" >        4        6        6        6        9 </v>
   <v type="int" >        4        6        6        9        9 </v>
   <v type="int" >        4        6        9        9        9 </v>
   <v type="int" >        2        5        6        6        8 </v>
   <v type="int" >        2        6        6        8        9 </v>
   <v type="int" >        2        6        8        9        9 </v>
   <v type="int" >        2        5        5        6        8 </v>
   <v type="int" >        2        5        6        8        8 </v>
   <v type="int" >        2        6        8        8        9 </v>
   <v type="int" >        2        4        5        5        7 </v>
   <v type="int" >        2        5        5        7        8 </v>
   <v type="int" >        2        5        7        8        8 </v>
   <v type="int" >        2        4        4        5        7 </v>
   <v type="int" >        2        4        5        7        7 </v>
   <v type="int" >        2        5        7        7        8 </v>
   <v type="int" >        2        7        7        8       11 </v>
   <v type="int" >        2        7        7       10       11 </v>
   <v type="int" >        2        7       10       10       11 </v>
   <v type="int" >        2        7        8        8       11 </v>
   <v type="int" >        2        7        8       11       11 </v>
   <v type="int" >        2        7       10       11       11 </v>
   <v type="int" >        2        8        8        9       12 </v>
   <v type="int" >        2        8        8       11       12 </v>
   <v type="int" >        2        8       11       11       12 </v>
   <v type="int" >        2        8        9        9       12 </v>
   <v type="int" >        2        8        9       12       12 </v>
   <v type="int" >        2        8       11       12       12 </v>
   <v type="int" >        4        9        9        9       12 </v>
   <v type="int" >        4        9        9       12       12 </v>
   <v type="int" >        4        9       12       12       12 </v>
   <v type="int" >        2        8        9        9       11 </v>
   <v type="int" >        2        9        9       11       12 </v>
   <v type="int" >        2        9       11       12       12 </v>
   <v type="int" >        2        8        8        9       11 </v>
   <v type="int" >        2        8        9       11       11 </v>
   <v type="int" >        2        9       11       11       12 </v>
   <v type="int" >        2        7        8        8       10 </v>
   <v type="int" >        2        8        8       10       11 </v>
   <v type="int" >        2        8       10       11       11 </v>
   <v type="int" >        2        7        7        8       10 </v>
   <v type="int" >        2        7        8       10       10 </v>
   <v type="int" >        2        8       10       10       11 </v>
   <v type="int" >        4       10       10       11       11 </v>
   <v type="int" >        4       10       10       10       11 </v>
   <v type="int" >        4       10       11       11       11 </v>
   <v type="int" >        4       11       11       12       12 </v>
   <v type="int" >        4       11       11       11       12 </v>
   <v type="int" >        4       11       12       12       12 </v>
   <v type="int" >        6       12       12       12       12 </v>
  </varray>
  <i name="volumeweight">      0.00476190 </i>
 </kpoints>
 <parameters>
  <separator name="general" >
   <i type="string" name="SYSTEM">unknown system</i>
   <i type="logical" name="LCOMPAT"> F  </i>
  </separator>
  <separator name="electronic" >
   <i type="string" name="PREC">normal</i>
   <i name="ENMAX">    750.00000000</i>
   <i name="ENAUG">    605.39200000</i>
   <i name="EDIFF">      0.00001000</i>
   <i type="int" name="IALGO">    68</i>
   <i type="int" name="IWAVPR">    10</i>
   <i type="int" name="NBANDS">    76</i>
   <i name="NELECT">    128.00000000</i>
   <i type="int" name="TURBO">     0</i>
   <i type="int" name="IRESTART">     0</i>
   <i type="int" name="NREBOOT">     0</i>
   <i type="int" name="NMIN">     0</i>
   <i name="EREF">      0.00000000</i>
   <separator name="electronic smearing" >
    <i type="int" name="ISMEAR">    -5</i>
    <i name="SIGMA">      0.20000000</i>
    <i name="KSPACING">      0.50000000</i>
    <i type="logical" name="KGAMMA"> T  </i>
   </separator>
   <separator name="electronic projectors" >
    <i type="logical" name="LREAL"> F  </i>
    <v name="ROPT">      0.00000000      0.00000000      0.00000000</v>
    <i type="int" name="LMAXPAW">  -100</i>
    <i type="int" name="LMAXMIX">     2</i>
    <i type="logical" name="NLSPLINE"> F  </i>
   </separator>
   <separator name="electronic startup" >
    <i type="int" name="ISTART">     0</i>
    <i type="int" name="ICHARG">     2</i>
    <i type="int" name="INIWAV">     1</i>
   </separator>
   <separator name="electronic spin" >
    <i type="int" name="ISPIN">     1</i>
    <i type="logical" name="LNONCOLLINEAR"> F  </i>
    <v name="MAGMOM">      1.00000000      1.00000000      1.00000000      1.00000000      1.00000000      1.00000000      1.00000000      1.00000000      1.00000000      1.00000000      1.00000000      1.00000000      1.00000000      1.00000000      1.00000000      1.00000000      1.00000000      1.00000000      1.00000000      1.00000000
</v>
    <i name="NUPDOWN">     -1.00000000</i>
    <i type="logical" name="LSORBIT"> F  </i>
    <v name="SAXIS">      0.00000000      0.00000000      1.00000000</v>
    <i type="logical" name="LSPIRAL"> F  </i>
    <v name="QSPIRAL">      0.00000000      0.00000000      0.00000000</v>
    <i type="logical" name="LZEROZ"> F  </i>
   </separator>
   <separator name="electronic exchange-correlation" >
    <i type="logical" name="LASPH"> F  </i>
    <i type="logical" name="LMETAGGA"> F  </i>
   </separator>
   <separator name="electronic convergence" >
    <i type="int" name="NELM">    60</i>
    <i type="int" name="NELMDL">    -5</i>
    <i type="int" name="NELMIN">     4</i>
    <i name="ENINI">    750.00000000</i>
    <separator name="electronic convergence detail" >
     <i type="logical" name="LDIAG"> T  </i>
     <i type="logical" name="LSUBROT"> F  </i>
     <i name="WEIMIN">      0.00000000</i>
     <i name="EBREAK">      0.00000003</i>
     <i name="DEPER">      0.30000000</i>
     <i type="int" name="NRMM">     4</i>
     <i name="TIME">      0.40000000</i>
    </separator>
   </separator>
   <separator name="electronic mixer" >
    <i name="AMIX">      0.40000000</i>
    <i name="BMIX">      1.00000000</i>
    <i name="AMIN">      0.10000000</i>
    <i name="AMIX_MAG">      1.60000000</i>
    <i name="BMIX_MAG">      1.00000000</i>
    <separator name="electronic mixer details" >
     <i type="int" name="IMIX">     4</i>
     <i type="logical" name="MIXFIRST"> F  </i>
     <i type="int" name="MAXMIX">   -45</i>
     <i name="WC">    100.00000000</i>
     <i type="int" name="INIMIX">     1</i>
     <i type="int" name="MIXPRE">     1</i>
     <i type="int" name="MREMOVE">     5</i>
    </separator>
   </separator>
   <separator name="electronic dipolcorrection" >
    <i type="logical" name="LDIPOL"> F  </i>
    <i type="logical" name="LMONO"> F  </i>
    <i type="int" name="IDIPOL">     0</i>
    <i name="EPSILON">      1.00000000</i>
    <v name="DIPOL">   -100.00000000   -100.00000000   -100.00000000</v>
    <i name="EFIELD">      0.00000000</i>
   </separator>
  </separator>
  <separator name="grids" >
   <i type="int" name="NGX">    40</i>
   <i type="int" name="NGY">    28</i>
   <i type="int" name="NGZ">   150</i>
   <i type="int" name="NGXF">    80</i>
   <i type="int" name="NGYF">    56</i>
   <i type="int" name="NGZF">   300</i>
   <i type="logical" name="ADDGRID"> F  </i>
  </separator>
  <separator name="ionic" >
   <i type="int" name="NSW">     0</i>
   <i type="int" name="IBRION">    -1</i>
   <i type="int" name="MDALGO">     0</i>
   <i type="int" name="ISIF">     2</i>
   <i name="PSTRESS">      0.00000000</i>
   <i name="EDIFFG">      0.00010000</i>
   <i type="int" name="NFREE">     0</i>
   <i name="POTIM">      0.50000000</i>
   <i name="SMASS">     -3.00000000</i>
   <i name="SCALEE">      1.00000000</i>
  </separator>
  <separator name="ionic md" >
   <i name="TEBEG">      0.00010000</i>
   <i name="TEEND">      0.00010000</i>
   <i type="int" name="NBLOCK">     1</i>
   <i type="int" name="KBLOCK">     1</i>
   <i type="int" name="NPACO">   256</i>
   <i name="APACO">     16.00000000</i>
  </separator>
  <separator name="symmetry" >
   <i type="int" name="ISYM">     2</i>
   <i name="SYMPREC">      0.00001000</i>
  </separator>
  <separator name="dos" >
   <i type="int" name="LORBIT">     0</i>
   <v name="RWIGS">     -1.00000000     -1.00000000     -1.00000000</v>
   <i type="int" name="NEDOS">   301</i>
   <i name="EMIN">     10.00000000</i>
   <i name="EMAX">    -10.00000000</i>
   <i name="EFERMI">      0.00000000</i>
  </separator>
  <separator name="writing" >
   <i type="int" name="NWRITE">     2</i>
   <i type="logical" name="LWAVE"> F  </i>
   <i type="logical" name="LDOWNSAMPLE"> F  </i>
   <i type="logical" name="LCHARG"> T  </i>
   <i type="logical" name="LPARD"> F  </i>
   <i type="logical" name="LVTOT"> F  </i>
   <i type="logical" name="LVHAR"> F  </i>
   <i type="logical" name="LELF"> F  </i>
   <i type="logical" name="LOPTICS"> F  </i>
   <v name="STM">      0.00000000      0.00000000      0.00000000      0.00000000      0.00000000      0.00000000      0.00000000</v>
  </separator>
  <separator name="performance" >
   <i type="int" name="NPAR">     2</i>
   <i type="int" name="NSIM">     4</i>
   <i type="int" name="NBLK">    -1</i>
   <i type="logical" name="LPLANE"> T  </i>
   <i type="logical" name="LSCALAPACK"> T  </i>
   <i type="logical" name="LSCAAWARE"> F  </i>
   <i type="logical" name="LSCALU"> F  </i>
   <i type="logical" name="LASYNC"> F  </i>
   <i type="logical" name="LORBITALREAL"> F  </i>
  </separator>
  <separator name="miscellaneous" >
   <i type="int" name="IDIOT">     3</i>
   <i type="int" name="ISPECIAL">     0</i>
   <i type="logical" name="LMUSIC"> F  </i>
   <v name="POMASS">     16.00000000     87.62000000     47.88000000</v>
   <v name="DARWINR">      0.00000000      0.00000000      0.00000000</v>
   <v name="DARWINV">      1.00000000      1.00000000      1.00000000</v>
   <i type="logical" name="LCORR"> T  </i>
  </separator>
  <i type="logical" name="GGA_COMPAT"> T  </i>
  <i type="logical" name="LBERRY"> F  </i>
  <i type="int" name="ICORELEVEL">     0</i>
  <i type="logical" name="LDAU"> F  </i>
  <i type="int" name="I_CONSTRAINED_M">     0</i>
  <separator name="electronic exchange-correlation" >
   <i type="string" name="GGA">--</i>
   <i type="int" name="VOSKOWN">     0</i>
   <i type="logical" name="LHFCALC"> F  </i>
   <i type="string" name="PRECFOCK"></i>
   <i type="logical" name="LSYMGRAD"> F  </i>
   <i type="logical" name="LHFONE"> F  </i>
   <i type="logical" name="LRHFCALC"> F  </i>
   <i type="logical" name="LTHOMAS"> F  </i>
   <i type="logical" name="LMODELHF"> F  </i>
   <i name="ENCUT4O">     -1.00000000</i>
   <i type="int" name="EXXOEP">     0</i>
   <i type="int" name="FOURORBIT">     0</i>
   <i name="AEXX">      0.00000000</i>
   <i name="HFALPHA">      0.00000000</i>
   <i name="MCALPHA">      0.00000000</i>
   <i name="ALDAX">      1.00000000</i>
   <i name="AGGAX">      1.00000000</i>
   <i name="ALDAC">      1.00000000</i>
   <i name="AGGAC">      1.00000000</i>
   <i type="int" name="NKREDX">     1</i>
   <i type="int" name="NKREDY">     1</i>
   <i type="int" name="NKREDZ">     1</i>
   <i type="logical" name="SHIFTRED"> F  </i>
   <i type="logical" name="ODDONLY"> F  </i>
   <i type="logical" name="EVENONLY"> F  </i>
   <i type="int" name="LMAXFOCK">     0</i>
   <i type="int" name="NMAXFOCKAE">     0</i>
   <i type="logical" name="LFOCKAEDFT"> F  </i>
   <i name="HFSCREEN">      0.00000000</i>
   <i name="HFSCREENC">      0.00000000</i>
   <i type="int" name="NBANDSGWLOW">     0</i>
  </separator>
  <separator name="vdW DFT" >
   <i type="logical" name="LUSE_VDW"> F  </i>
   <i name="Zab_VDW">     -0.84910000</i>
   <i name="PARAM1">      0.12340000</i>
   <i name="PARAM2">      1.00000000</i>
   <i name="PARAM3">      0.00000000</i>
  </separator>
  <separator name="model GW" >
   <i type="int" name="MODEL_GW">     0</i>
   <i name="MODEL_EPS0">     14.01837061</i>
   <i name="MODEL_ALPHA">      1.00000000</i>
  </separator>
  <separator name="linear response parameters" >
   <i type="logical" name="LEPSILON"> F  </i>
   <i type="logical" name="LRPA"> F  </i>
   <i type="logical" name="LNABLA"> F  </i>
   <i type="logical" name="LVEL"> F  </i>
   <i type="int" name="KINTER">     0</i>
   <i name="CSHIFT">      0.10000000</i>
   <i name="OMEGAMAX">     -1.00000000</i>
   <i name="DEG_THRESHOLD">      0.00200000</i>
   <i name="RTIME">     -0.10000000</i>
   <i name="WPLASMAI">      0.00000000</i>
   <v name="DFIELD">      0.00000000      0.00000000      0.00000000</v>
   <v name="WPLASMA">      0.00000000      0.00000000      0.00000000      0.00000000      0.00000000      0.00000000      0.00000000      0.00000000      0.00000000</v>
  </separator>
  <separator name="orbital magnetization" >
   <i type="logical" name="NUCIND"> F  </i>
   <v name="MAGPOS">      0.00000000      0.00000000      0.00000000</v>
   <i type="logical" name="LNICSALL"> T  </i>
   <i type="logical" name="ORBITALMAG"> F  </i>
   <i type="logical" name="LMAGBLOCH"> F  </i>
   <i type="logical" name="LCHIMAG"> F  </i>
   <i type="logical" name="LGAUGE"> T  </i>
   <i type="int" name="MAGATOM">     0</i>
   <v name="MAGDIPOL">      0.00000000      0.00000000      0.00000000</v>
   <v name="AVECCONST">      0.00000000      0.00000000      0.00000000</v>
  </separator>
  <separator name="response functions" >
   <i type="logical" name="LADDER"> F  </i>
   <i type="logical" name="LRPAFORCE"> F  </i>
   <i type="logical" name="LFXC"> F  </i>
   <i type="logical" name="LHARTREE"> T  </i>
   <i type="int" name="IBSE">     0</i>
   <v type="int" name="KPOINT">    -1     0     0     0</v>
   <i type="logical" name="LTCTE"> F  </i>
   <i type="logical" name="LTETE"> F  </i>
   <i type="logical" name="LTRIPLET"> F  </i>
   <i type="logical" name="LFXCEPS"> F  </i>
   <i type="logical" name="LFXHEG"> F  </i>
   <i type="int" name="NATURALO">     2</i>
   <i type="logical" name="L2ORDER"> F  </i>
   <i type="logical" name="LMP2LT"> F  </i>
   <i type="logical" name="LUSEW"> F  </i>
   <i name="ENCUTGW">     -2.00000000</i>
   <i name="ENCUTGWSOFT">     -2.00000000</i>
   <i name="ENCUTLF">     -1.00000000</i>
   <i type="int" name="LMAXMP2">    -1</i>
   <i name="SCISSOR">      0.00000000</i>
   <i type="int" name="NOMEGA">     0</i>
   <i type="int" name="NOMEGAR">     0</i>
   <i type="int" name="NBANDSGW">    -1</i>
   <i type="int" name="NBANDSO">    -1</i>
   <i type="int" name="NBANDSV">    -1</i>
   <i type="int" name="NELM">     1</i>
   <i type="int" name="NELMHF">     1</i>
   <i type="int" name="DIM">     3</i>
   <i type="int" name="ANTIRES">     0</i>
   <i name="OMEGAMAX">    -30.00000000</i>
   <i name="OMEGAMIN">    -30.00000000</i>
   <i name="OMEGATL">   -200.00000000</i>
   <i type="int" name="OMEGAGRID">   140</i>
   <i name="CSHIFT">     -0.10000000</i>
   <i type="logical" name="SELFENERGY"> F  </i>
   <i type="logical" name="LSPECTRAL"> F  </i>
   <i type="logical" name="LSPECTRALGW"> F  </i>
   <i type="logical" name="LSINGLES"> F  </i>
   <i type="logical" name="LFERMIGW"> F  </i>
   <i type="logical" name="ODDONLYGW"> F  </i>
   <i type="logical" name="EVENONLYGW"> F  </i>
   <i type="int" name="NKREDLFX">     1</i>
   <i type="int" name="NKREDLFY">     1</i>
   <i type="int" name="NKREDLFZ">     1</i>
   <i type="int" name="MAXMEM">  2800</i>
   <i type="int" name="TELESCOPE">     0</i>
   <i type="int" name="TAUPAR">     1</i>
   <i type="int" name="OMEGAPAR">    -1</i>
   <i name="LAMBDA">      1.00000000</i>
  </separator>
  <separator name="External order field" >
   <i name="OFIELD_KAPPA">      0.00000000</i>
   <v name="OFIELD_K">      0.00000000      0.00000000      0.00000000</v>
   <i name="OFIELD_Q6_NEAR">      0.00000000</i>
   <i name="OFIELD_Q6_FAR">      0.00000000</i>
   <i name="OFIELD_A">      0.00000000</i>
  </separator>
 </parameters>
 <atominfo>
  <atoms>      20 </atoms>
  <types>       3 </types>
  <array name="atoms" >
   <dimension dim="1">ion</dimension>
   <field type="string">element</field>
   <field type="int">atomtype</field>
   <set>
    <rc><c>O </c><c>   1</c></rc>
    <rc><c>O </c><c>   1</c></rc>
    <rc><c>O </c><c>   1</c></rc>
    <rc><c>O </c><c>   1</c></rc>
    <rc><c>O </c><c>   1</c></rc>
    <rc><c>O </c><c>   1</c></rc>
    <rc><c>O </c><c>   1</c></rc>
    <rc><c>O </c><c>   1</c></rc>
    <rc><c>O </c><c>   1</c></rc>
    <rc><c>O </c><c>   1</c></rc>
    <rc><c>O </c><c>   1</c></rc>
    <rc><c>O </c><c>   1</c></rc>
    <rc><c>Sr</c><c>   2</c></rc>
    <rc><c>Sr</c><c>   2</c></rc>
    <rc><c>Sr</c><c>   2</c></rc>
    <rc><c>Sr</c><c>   2</c></rc>
    <rc><c>Ti</c><c>   3</c></rc>
    <rc><c>Ti</c><c>   3</c></rc>
    <rc><c>Ti</c><c>   3</c></rc>
    <rc><c>Ti</c><c>   3</c></rc>
   </set>
  </array>
  <array name="atomtypes" >
   <dimension dim="1">type</dimension>
   <field type="int">atomspertype</field>
   <field type="string">element</field>
   <field>mass</field>
   <field>valence</field>
   <field type="string">pseudopotential</field>
   <set>
    <rc><c>  12</c><c>O </c><c>     16.00000000</c><c>      6.00000000</c><c> PAW_PBE O 08Apr2002                    </c></rc>
    <rc><c>   4</c><c>Sr</c><c>     87.62000000</c><c>     10.00000000</c><c> PAW_PBE Sr_sv 07Sep2000                </c></rc>
    <rc><c>   4</c><c>Ti</c><c>     47.88000000</c><c>      4.00000000</c><c> PAW_PBE Ti 08Apr2002                   </c></rc>
   </set>
  </array>
 </atominfo>
 <structure name="initialpos" >
  <crystal>
   <varray name="basis" >
    <v>       5.52288297       0.00000000       0.00000000 </v>
    <v>       0.00000000       3.90526800       0.00000000 </v>
    <v>       0.00000000       0.00000000      21.66504520 </v>
   </varray>
   <i name="volume">    467.27902047 </i>
   <varray name="rec_basis" >
    <v>       0.18106485       0.00000000       0.00000000 </v>
    <v>       0.00000000       0.25606437       0.00000000 </v>
    <v>       0.00000000       0.00000000       0.04615730 </v>
   </varray>
  </crystal>
  <varray name="positions" >
   <v>       0.50000000       0.00000000       0.27694380 </v>
   <v>       0.25000000       0.50000000       0.34067414 </v>
   <v>       0.75000000       0.50000000       0.34067414 </v>
   <v>       0.00000000       0.00000000       0.40440449 </v>
   <v>       0.75000000       0.50000000       0.46813483 </v>
   <v>       0.25000000       0.50000000       0.46813483 </v>
   <v>       0.50000000       0.00000000       0.53186517 </v>
   <v>       0.25000000       0.50000000       0.59559551 </v>
   <v>       0.75000000       0.50000000       0.59559551 </v>
   <v>       0.00000000       0.00000000       0.65932586 </v>
   <v>       0.75000000       0.50000000       0.72305620 </v>
   <v>       0.25000000       0.50000000       0.72305620 </v>
   <v>       0.00000000       0.00000000       0.27694380 </v>
   <v>       0.50000000       0.00000000       0.40440449 </v>
   <v>       0.00000000       0.00000000       0.53186517 </v>
   <v>       0.50000000       0.00000000       0.65932586 </v>
   <v>       0.50000000       0.50000000       0.27694380 </v>
   <v>       0.00000000       0.50000000       0.40440449 </v>
   <v>       0.50000000       0.50000000       0.53186517 </v>
   <v>       0.00000000       0.50000000       0.65932586 </v>
  </varray>
 </structure>
 <calculation>
  <scstep>
   <time name="dav">   12.95   12.95</time>
   <time name="total">   13.20   13.27</time>
   <energy>
    <i name="alphaZ">    378.09908315 </i>
    <i name="ewald">  22731.27163923 </i>
    <i name="hartreedc"> -30966.93774878 </i>
    <i name="XCdc">    325.41602223 </i>
    <i name="pawpsdc">   5334.45189010 </i>
    <i name="pawaedc">  -5139.13784255 </i>
    <i name="eentropy">      0.00000000 </i>
    <i name="bandstr">    281.05327647 </i>
    <i name="atom">   8937.46944722 </i>
    <i name="e_fr_energy">   1881.68576706 </i>
    <i name="e_wo_entrp">   1881.68576706 </i>
    <i name="e_0_energy">   1881.68576706 </i>
   </energy>
  </scstep>
  <scstep>
   <time name="dav">   14.57   14.57</time>
   <time name="total">   14.58   14.58</time>
   <energy>
    <i name="e_fr_energy">    276.07114773 </i>
    <i name="e_wo_entrp">    276.07114773 </i>
    <i name="e_0_energy">    276.07114773 </i>
   </energy>
  </scstep>
  <scstep>
   <time name="dav">   16.63   16.63</time>
   <time name="total">   16.63   16.63</time>
   <energy>
    <i name="e_fr_energy">   -158.29261474 </i>
    <i name="e_wo_entrp">   -158.29261474 </i>
    <i name="e_0_energy">   -158.29261474 </i>
   </energy>
  </scstep>
  <scstep>
   <time name="dav">   16.15   16.15</time>
   <time name="total">   16.15   16.15</time>
   <energy>
    <i name="e_fr_energy">   -196.90279313 </i>
    <i name="e_wo_entrp">   -196.90279313 </i>
    <i name="e_0_energy">   -196.90279313 </i>
   </energy>
  </scstep>
  <scstep>
   <time name="dav">   18.71   18.71</time>
   <time name="total">   19.21   19.21</time>
   <energy>
    <i name="e_fr_energy">   -198.73456345 </i>
    <i name="e_wo_entrp">   -198.73456345 </i>
    <i name="e_0_energy">   -198.73456345 </i>
   </energy>
  </scstep>
  <scstep>
   <time name="diag">    1.45    1.45</time>
   <time name="diis">   12.52   12.52</time>
   <time name="orth">    0.28    0.28</time>
   <time name="total">   15.00   15.00</time>
   <energy>
    <i name="e_fr_energy">   -205.75074966 </i>
    <i name="e_wo_entrp">   -205.75074966 </i>
    <i name="e_0_energy">   -205.75074966 </i>
   </energy>
  </scstep>
  <scstep>
   <time name="diag">    1.43    1.43</time>
   <time name="diis">   11.16   11.15</time>
   <time name="orth">    0.28    0.28</time>
   <time name="total">   13.61   13.61</time>
   <energy>
    <i name="e_fr_energy">   -172.63548317 </i>
    <i name="e_wo_entrp">   -172.63548317 </i>
    <i name="e_0_energy">   -172.63548317 </i>
   </energy>
  </scstep>
  <scstep>
   <time name="diag">    1.44    1.44</time>
   <time name="diis">   10.44   10.44</time>
   <time name="orth">    0.28    0.28</time>
   <time name="total">   12.88   12.88</time>
   <energy>
    <i name="e_fr_energy">   -160.72024898 </i>
    <i name="e_wo_entrp">   -160.72024898 </i>
    <i name="e_0_energy">   -160.72024898 </i>
   </energy>
  </scstep>
  <scstep>
   <time name="diag">    1.43    1.43</time>
   <time name="diis">   12.02   12.01</time>
   <time name="orth">    0.28    0.28</time>
   <time name="total">   14.45   14.45</time>
   <energy>
    <i name="e_fr_energy">   -156.28766239 </i>
    <i name="e_wo_entrp">   -156.28766239 </i>
    <i name="e_0_energy">   -156.28766239 </i>
   </energy>
  </scstep>
  <scstep>
   <time name="diag">    1.44    1.44</time>
   <time name="diis">   11.16   11.15</time>
   <time name="orth">    0.28    0.28</time>
   <time name="total">   13.62   13.62</time>
   <energy>
    <i name="e_fr_energy">   -157.11431212 </i>
    <i name="e_wo_entrp">   -157.11431212 </i>
    <i name="e_0_energy">   -157.11431212 </i>
   </energy>
  </scstep>
  <scstep>
   <time name="diag">    1.44    1.44</time>
   <time name="diis">   14.35   14.35</time>
   <time name="orth">    0.28    0.28</time>
   <time name="total">   16.81   16.81</time>
   <energy>
    <i name="e_fr_energy">   -155.83424075 </i>
    <i name="e_wo_entrp">   -155.83424075 </i>
    <i name="e_0_energy">   -155.83424075 </i>
   </energy>
  </scstep>
  <scstep>
   <time name="diag">    1.44    1.44</time>
   <time name="diis">   14.02   14.01</time>
   <time name="orth">    0.28    0.28</time>
   <time name="total">   16.48   16.48</time>
   <energy>
    <i name="e_fr_energy">   -158.15377578 </i>
    <i name="e_wo_entrp">   -158.15377578 </i>
    <i name="e_0_energy">   -158.15377578 </i>
   </energy>
  </scstep>
  <scstep>
   <time name="diag">    1.46    1.46</time>
   <time name="diis">   15.62   15.61</time>
   <time name="orth">    0.28    0.28</time>
   <time name="total">   18.11   18.11</time>
   <energy>
    <i name="e_fr_energy">   -158.42549780 </i>
    <i name="e_wo_entrp">   -158.42549780 </i>
    <i name="e_0_energy">   -158.42549780 </i>
   </energy>
  </scstep>
  <scstep>
   <time name="diag">    1.43    1.43</time>
   <time name="diis">   12.79   12.79</time>
   <time name="orth">    0.28    0.28</time>
   <time name="total">   15.24   15.24</time>
   <energy>
    <i name="e_fr_energy">   -157.09513382 </i>
    <i name="e_wo_entrp">   -157.09513382 </i>
    <i name="e_0_energy">   -157.09513382 </i>
   </energy>
  </scstep>
  <scstep>
   <time name="diag">    1.43    1.43</time>
   <time name="diis">   10.77   10.77</time>
   <time name="orth">    0.28    0.28</time>
   <time name="total">   13.22   13.22</time>
   <energy>
    <i name="e_fr_energy">   -153.67566745 </i>
    <i name="e_wo_entrp">   -153.67566745 </i>
    <i name="e_0_energy">   -153.67566745 </i>
   </energy>
  </scstep>
  <scstep>
   <time name="diag">    1.46    1.46</time>
   <time name="diis">   11.10   11.10</time>
   <time name="orth">    0.28    0.28</time>
   <time name="total">   13.56   13.56</time>
   <energy>
    <i name="e_fr_energy">   -149.88577406 </i>
    <i name="e_wo_entrp">   -149.88577406 </i>
    <i name="e_0_energy">   -149.88577406 </i>
   </energy>
  </scstep>
  <scstep>
   <time name="diag">    1.41    1.41</time>
   <time name="diis">   12.91   12.90</time>
   <time name="orth">    0.28    0.28</time>
   <time name="total">   15.33   15.33</time>
   <energy>
    <i name="e_fr_energy">   -149.70210862 </i>
    <i name="e_wo_entrp">   -149.70210862 </i>
    <i name="e_0_energy">   -149.70210862 </i>
   </energy>
  </scstep>
  <scstep>
   <time name="diag">    1.45    1.45</time>
   <time name="diis">   10.90   10.90</time>
   <time name="orth">    0.28    0.28</time>
   <time name="total">   13.36   13.37</time>
   <energy>
    <i name="e_fr_energy">   -149.53814277 </i>
    <i name="e_wo_entrp">   -149.53814277 </i>
    <i name="e_0_energy">   -149.53814277 </i>
   </energy>
  </scstep>
  <scstep>
   <time name="diag">    1.43    1.43</time>
   <time name="diis">   10.96   10.95</time>
   <time name="orth">    0.28    0.28</time>
   <time name="total">   13.41   13.41</time>
   <energy>
    <i name="e_fr_energy">   -149.70858970 </i>
    <i name="e_wo_entrp">   -149.70858970 </i>
    <i name="e_0_energy">   -149.70858970 </i>
   </energy>
  </scstep>
  <scstep>
   <time name="diag">    1.43    1.43</time>
   <time name="diis">   10.82   10.82</time>
   <time name="orth">    0.28    0.28</time>
   <time name="total">   13.28   13.27</time>
   <energy>
    <i name="e_fr_energy">   -149.18136764 </i>
    <i name="e_wo_entrp">   -149.18136764 </i>
    <i name="e_0_energy">   -149.18136764 </i>
   </energy>
  </scstep>
  <scstep>
   <time name="diag">    1.44    1.44</time>
   <time name="diis">   11.97   11.97</time>
   <time name="orth">    0.28    0.28</time>
   <time name="total">   14.44   14.44</time>
   <energy>
    <i name="e_fr_energy">   -149.07782339 </i>
    <i name="e_wo_entrp">   -149.07782339 </i>
    <i name="e_0_energy">   -149.07782339 </i>
   </energy>
  </scstep>
  <scstep>
   <time name="diag">    1.44    1.44</time>
   <time name="diis">   11.30   11.30</time>
   <time name="orth">    0.29    0.29</time>
   <time name="total">   13.80   13.80</time>
   <energy>
    <i name="e_fr_energy">   -148.88644141 </i>
    <i name="e_wo_entrp">   -148.88644141 </i>
    <i name="e_0_energy">   -148.88644141 </i>
   </energy>
  </scstep>
  <scstep>
   <time name="diag">    1.46    1.46</time>
   <time name="diis">   11.43   11.42</time>
   <time name="orth">    0.28    0.28</time>
   <time name="total">   13.92   13.92</time>
   <energy>
    <i name="e_fr_energy">   -148.82058883 </i>
    <i name="e_wo_entrp">   -148.82058883 </i>
    <i name="e_0_energy">   -148.82058883 </i>
   </energy>
  </scstep>
  <scstep>
   <time name="diag">    1.49    1.49</time>
   <time name="diis">   11.56   11.56</time>
   <time name="orth">    0.28    0.28</time>
   <time name="total">   14.08   14.08</time>
   <energy>
    <i name="e_fr_energy">   -148.80084070 </i>
    <i name="e_wo_entrp">   -148.80084070 </i>
    <i name="e_0_energy">   -148.80084070 </i>
   </energy>
  </scstep>
  <scstep>
   <time name="diag">    1.45    1.46</time>
   <time name="diis">   10.83   10.83</time>
   <time name="orth">    0.28    0.28</time>
   <time name="total">   13.33   13.32</time>
   <energy>
    <i name="e_fr_energy">   -148.84951370 </i>
    <i name="e_wo_entrp">   -148.84951370 </i>
    <i name="e_0_energy">   -148.84951370 </i>
   </energy>
  </scstep>
  <scstep>
   <time name="diag">    1.44    1.45</time>
   <time name="diis">   12.83   12.82</time>
   <time name="orth">    0.28    0.28</time>
   <time name="total">   15.31   15.31</time>
   <energy>
    <i name="e_fr_energy">   -148.81561139 </i>
    <i name="e_wo_entrp">   -148.81561139 </i>
    <i name="e_0_energy">   -148.81561139 </i>
   </energy>
  </scstep>
  <scstep>
   <time name="diag">    1.44    1.44</time>
   <time name="diis">   10.91   10.90</time>
   <time name="orth">    0.29    0.29</time>
   <time name="total">   13.42   13.42</time>
   <energy>
    <i name="e_fr_energy">   -148.79648662 </i>
    <i name="e_wo_entrp">   -148.79648662 </i>
    <i name="e_0_energy">   -148.79648662 </i>
   </energy>
  </scstep>
  <scstep>
   <time name="diag">    1.50    1.50</time>
   <time name="diis">   11.67   11.67</time>
   <time name="orth">    0.29    0.29</time>
   <time name="total">   14.24   14.24</time>
   <energy>
    <i name="e_fr_energy">   -148.78226905 </i>
    <i name="e_wo_entrp">   -148.78226905 </i>
    <i name="e_0_energy">   -148.78226905 </i>
   </energy>
  </scstep>
  <scstep>
   <time name="diag">    1.50    1.50</time>
   <time name="diis">   11.32   11.31</time>
   <time name="orth">    0.29    0.29</time>
   <time name="total">   13.89   13.89</time>
   <energy>
    <i name="e_fr_energy">   -148.77982737 </i>
    <i name="e_wo_entrp">   -148.77982737 </i>
    <i name="e_0_energy">   -148.77982737 </i>
   </energy>
  </scstep>
  <scstep>
   <time name="diag">    1.50    1.50</time>
   <time name="diis">   12.05   12.04</time>
   <time name="orth">    0.28    0.28</time>
   <time name="total">   14.59   14.59</time>
   <energy>
    <i name="e_fr_energy">   -148.78033693 </i>
    <i name="e_wo_entrp">   -148.78033693 </i>
    <i name="e_0_energy">   -148.78033693 </i>
   </energy>
  </scstep>
  <scstep>
   <time name="diag">    1.45    1.44</time>
   <time name="diis">   10.84   10.83</time>
   <time name="orth">    0.28    0.28</time>
   <time name="total">   13.32   13.32</time>
   <energy>
    <i name="e_fr_energy">   -148.77981701 </i>
    <i name="e_wo_entrp">   -148.77981701 </i>
    <i name="e_0_energy">   -148.77981701 </i>
   </energy>
  </scstep>
  <scstep>
   <time name="diag">    1.45    1.45</time>
   <time name="diis">   11.65   11.64</time>
   <time name="orth">    0.29    0.29</time>
   <time name="total">   14.17   14.16</time>
   <energy>
    <i name="e_fr_energy">   -148.78034026 </i>
    <i name="e_wo_entrp">   -148.78034026 </i>
    <i name="e_0_energy">   -148.78034026 </i>
   </energy>
  </scstep>
  <scstep>
   <time name="diag">    1.50    1.50</time>
   <time name="diis">   10.93   10.93</time>
   <time name="orth">    0.28    0.28</time>
   <time name="total">   13.48   13.48</time>
   <energy>
    <i name="e_fr_energy">   -148.78129038 </i>
    <i name="e_wo_entrp">   -148.78129038 </i>
    <i name="e_0_energy">   -148.78129038 </i>
   </energy>
  </scstep>
  <scstep>
   <time name="diag">    1.45    1.45</time>
   <time name="diis">   10.83   10.83</time>
   <time name="orth">    0.29    0.29</time>
   <time name="total">   13.35   13.35</time>
   <energy>
    <i name="e_fr_energy">   -148.78035103 </i>
    <i name="e_wo_entrp">   -148.78035103 </i>
    <i name="e_0_energy">   -148.78035103 </i>
   </energy>
  </scstep>
  <scstep>
   <time name="diag">    1.46    1.45</time>
   <time name="diis">    9.78    9.78</time>
   <time name="orth">    0.29    0.29</time>
   <time name="total">   12.32   12.31</time>
   <energy>
    <i name="e_fr_energy">   -148.78087750 </i>
    <i name="e_wo_entrp">   -148.78087750 </i>
    <i name="e_0_energy">   -148.78087750 </i>
   </energy>
  </scstep>
  <scstep>
   <time name="diag">    1.50    1.49</time>
   <time name="diis">   10.73   10.73</time>
   <time name="orth">    0.29    0.29</time>
   <time name="total">   13.31   13.32</time>
   <energy>
    <i name="e_fr_energy">   -148.78070865 </i>
    <i name="e_wo_entrp">   -148.78070865 </i>
    <i name="e_0_energy">   -148.78070865 </i>
   </energy>
  </scstep>
  <scstep>
   <time name="diag">    1.50    1.50</time>
   <time name="diis">   10.61   10.61</time>
   <time name="orth">    0.29    0.29</time>
   <time name="total">   13.19   13.19</time>
   <energy>
    <i name="e_fr_energy">   -148.78092054 </i>
    <i name="e_wo_entrp">   -148.78092054 </i>
    <i name="e_0_energy">   -148.78092054 </i>
   </energy>
  </scstep>
  <scstep>
   <time name="diag">    1.50    1.50</time>
   <time name="diis">    8.18    8.18</time>
   <time name="orth">    0.29    0.29</time>
   <time name="total">   10.76   10.76</time>
   <energy>
    <i name="e_fr_energy">   -148.78097953 </i>
    <i name="e_wo_entrp">   -148.78097953 </i>
    <i name="e_0_energy">   -148.78097953 </i>
   </energy>
  </scstep>
  <scstep>
   <time name="diag">    1.50    1.50</time>
   <time name="diis">    9.51    9.50</time>
   <time name="orth">    0.29    0.29</time>
   <time name="total">   12.08   12.08</time>
   <energy>
    <i name="e_fr_energy">   -148.78121877 </i>
    <i name="e_wo_entrp">   -148.78121877 </i>
    <i name="e_0_energy">   -148.78121877 </i>
   </energy>
  </scstep>
  <scstep>
   <time name="diag">    1.45    1.45</time>
   <time name="diis">    9.22    9.22</time>
   <time name="orth">    0.29    0.29</time>
   <time name="total">   11.76   11.75</time>
   <energy>
    <i name="e_fr_energy">   -148.78129730 </i>
    <i name="e_wo_entrp">   -148.78129730 </i>
    <i name="e_0_energy">   -148.78129730 </i>
   </energy>
  </scstep>
  <scstep>
   <time name="diag">    1.49    1.49</time>
   <time name="diis">    8.35    8.35</time>
   <time name="orth">    0.29    0.29</time>
   <time name="total">   10.93   10.93</time>
   <energy>
    <i name="e_fr_energy">   -148.78152632 </i>
    <i name="e_wo_entrp">   -148.78152632 </i>
    <i name="e_0_energy">   -148.78152632 </i>
   </energy>
  </scstep>
  <scstep>
   <time name="diag">    1.50    1.50</time>
   <time name="diis">    6.65    6.65</time>
   <time name="orth">    0.29    0.29</time>
   <time name="total">    8.69    8.70</time>
   <energy>
    <i name="alphaZ">    378.09908315 </i>
    <i name="ewald">  22731.27163923 </i>
    <i name="hartreedc"> -31289.95770653 </i>
    <i name="XCdc">    340.20104370 </i>
    <i name="pawpsdc">   6159.56138265 </i>
    <i name="pawaedc">  -5988.98020995 </i>
    <i name="eentropy">      0.00000000 </i>
    <i name="bandstr">  -1416.44620630 </i>
    <i name="atom">   8937.46944722 </i>
    <i name="e_fr_energy">   -148.78152685 </i>
    <i name="e_wo_entrp">   -148.78152685 </i>
    <i name="e_0_energy">   -148.78152685 </i>
   </energy>
  </scstep>
  <structure>
   <crystal>
    <varray name="basis" >
     <v>       5.52288297       0.00000000       0.00000000 </v>
     <v>       0.00000000       3.90526800       0.00000000 </v>
     <v>       0.00000000       0.00000000      21.66504520 </v>
    </varray>
    <i name="volume">    467.27902047 </i>
    <varray name="rec_basis" >
     <v>       0.18106485       0.00000000       0.00000000 </v>
     <v>       0.00000000       0.25606437       0.00000000 </v>
     <v>       0.00000000       0.00000000       0.04615730 </v>
    </varray>
   </crystal>
   <varray name="positions" >
    <v>       0.50000000       0.00000000       0.27694380 </v>
    <v>       0.25000000       0.50000000       0.34067414 </v>
    <v>       0.75000000       0.50000000       0.34067414 </v>
    <v>       0.00000000       0.00000000       0.40440449 </v>
    <v>       0.75000000       0.50000000       0.46813483 </v>
    <v>       0.25000000       0.50000000       0.46813483 </v>
    <v>       0.50000000       0.00000000       0.53186517 </v>
    <v>       0.25000000       0.50000000       0.59559551 </v>
    <v>       0.75000000       0.50000000       0.59559551 </v>
    <v>       0.00000000       0.00000000       0.65932586 </v>
    <v>       0.75000000       0.50000000       0.72305620 </v>
    <v>       0.25000000       0.50000000       0.72305620 </v>
    <v>       0.00000000       0.00000000       0.27694380 </v>
    <v>       0.50000000       0.00000000       0.40440449 </v>
    <v>       0.00000000       0.00000000       0.53186517 </v>
    <v>       0.50000000       0.00000000       0.65932586 </v>
    <v>       0.50000000       0.50000000       0.27694380 </v>
    <v>       0.00000000       0.50000000       0.40440449 </v>
    <v>       0.50000000       0.50000000       0.53186517 </v>
    <v>       0.00000000       0.50000000       0.65932586 </v>
   </varray>
  </structure>
  <varray name="forces" >
   <v>       0.00000000       0.00000000      -1.51805436 </v>
   <v>       0.70144061       0.00000000      -2.06910143 </v>
   <v>      -0.70144061       0.00000000      -2.06910143 </v>
   <v>       0.00000000       0.00000000      -0.75322017 </v>
   <v>       0.55256338       0.00000000      -1.26105347 </v>
   <v>      -0.55256338       0.00000000      -1.26105347 </v>
   <v>       0.00000000       0.00000000      -0.58639950 </v>
   <v>       0.80247460       0.00000000      -1.44213054 </v>
   <v>      -0.80247460       0.00000000      -1.44213054 </v>
   <v>       0.00000000       0.00000000      -1.10512202 </v>
   <v>       0.19024652       0.00000000      -0.96385771 </v>
   <v>      -0.19024652      -0.00000000      -0.96385771 </v>
   <v>       0.00000000       0.00000000       1.00453299 </v>
   <v>       0.00000000       0.00000000       0.95263592 </v>
   <v>       0.00000000       0.00000000       0.73337272 </v>
   <v>       0.00000000       0.00000000       1.56493588 </v>
   <v>       0.00000000       0.00000000       2.26094075 </v>
   <v>       0.00000000       0.00000000       2.58330467 </v>
   <v>       0.00000000       0.00000000       2.33850902 </v>
   <v>       0.00000000       0.00000000       3.99685039 </v>
  </varray>
  <varray name="stress" >
   <v>      11.20276269       0.00000000       0.00000000 </v>
   <v>       0.00000000      28.45201123       0.00000000 </v>
   <v>       0.00000000       0.00000000       7.49015805 </v>
  </varray>
  <energy>
   <i name="e_fr_energy">   -148.78152685 </i>
   <i name="e_wo_entrp">   -148.78152685 </i>
   <i name="e_0_energy">      0.00000000 </i>
  </energy>
  <time name="totalsc">  605.85  606.23</time>
  <eigenvalues>
   <array>
    <dimension dim="1">band</dimension>
    <dimension dim="2">kpoint</dimension>
    <dimension dim="3">spin</dimension>
    <field>eigene</field>
    <field>occ</field>
    <set>
     <set comment="spin 1">
      <set comment="kpoint 1">
       <r>  -36.5953    1.0000 </r>
       <r>  -35.2624    1.0000 </r>
       <r>  -34.3005    1.0000 </r>
       <r>  -33.4137    1.0000 </r>
       <r>  -20.5028    1.0000 </r>
       <r>  -20.0316    1.0000 </r>
       <r>  -19.8436    1.0000 </r>
       <r>  -19.3506    1.0000 </r>
       <r>  -19.0399    1.0000 </r>
       <r>  -18.6738    1.0000 </r>
       <r>  -18.5946    1.0000 </r>
       <r>  -18.5342    1.0000 </r>
       <r>  -18.5197    1.0000 </r>
       <r>  -18.3423    1.0000 </r>
       <r>  -18.0869    1.0000 </r>
       <r>  -17.8220    1.0000 </r>
       <r>  -17.3055    1.0000 </r>
       <r>  -17.2816    1.0000 </r>
       <r>  -17.1281    1.0000 </r>
       <r>  -17.0467    1.0000 </r>
       <r>  -16.5158    1.0000 </r>
       <r>  -16.3393    1.0000 </r>
       <r>  -16.2879    1.0000 </r>
       <r>  -16.1541    1.0000 </r>
       <r>  -16.0858    1.0000 </r>
       <r>  -15.4333    1.0000 </r>
       <r>  -15.1657    1.0000 </r>
       <r>  -15.1145    1.0000 </r>
       <r>   -7.1049    1.0000 </r>
       <r>   -6.7942    1.0000 </r>
       <r>   -6.6304    1.0000 </r>
       <r>   -6.0058    1.0000 </r>
       <r>   -5.8860    1.0000 </r>
       <r>   -5.5339    1.0000 </r>
       <r>   -5.4403    1.0000 </r>
       <r>   -5.2941    1.0000 </r>
       <r>   -5.1440    1.0000 </r>
       <r>   -5.0613    1.0000 </r>
       <r>   -4.9951    1.0000 </r>
       <r>   -4.8554    1.0000 </r>
       <r>   -4.7653    1.0000 </r>
       <r>   -4.5787    1.0000 </r>
       <r>   -4.2432    1.0000 </r>
       <r>   -4.1191    1.0000 </r>
       <r>   -4.0766    1.0000 </r>
       <r>   -3.9897    1.0000 </r>
       <r>   -3.8031    1.0000 </r>
       <r>   -3.7632    1.0000 </r>
       <r>   -3.5395    1.0000 </r>
       <r>   -3.2474    1.0000 </r>
       <r>   -3.0129    1.0000 </r>
       <r>   -2.9205    1.0000 </r>
       <r>   -2.9074    1.0000 </r>
       <r>   -2.6937    1.0000 </r>
       <r>   -2.6621    1.0000 </r>
       <r>   -2.3874    1.0000 </r>
       <r>   -2.2927    1.0000 </r>
       <r>   -1.9481    1.0000 </r>
       <r>   -1.9114    1.0000 </r>
       <r>   -1.3688    1.0000 </r>
       <r>   -1.3415    1.0000 </r>
       <r>   -1.0865    1.0000 </r>
       <r>   -1.0766    1.0000 </r>
       <r>   -1.0429    1.0000 </r>
       <r>   -0.8705    1.1250 </r>
       <r>   -0.7808    0.2592 </r>
       <r>   -0.7550    0.0000 </r>
       <r>   -0.5125    0.0000 </r>
       <r>    0.0657    0.0000 </r>
       <r>    0.2912    0.0000 </r>
       <r>    0.3886    0.0000 </r>
       <r>    0.6514    0.0000 </r>
       <r>    1.2607    0.0000 </r>
       <r>    1.4022    0.0000 </r>
       <r>    2.6524    0.0000 </r>
       <r>    4.1073    0.0000 </r>
      </set>
      <set comment="kpoint 2">
       <r>  -36.5950    1.0000 </r>
       <r>  -35.2620    1.0000 </r>
       <r>  -34.3002    1.0000 </r>
       <r>  -33.4135    1.0000 </r>
       <r>  -20.5635    1.0000 </r>
       <r>  -20.1870    1.0000 </r>
       <r>  -19.7158    1.0000 </r>
       <r>  -19.3392    1.0000 </r>
       <r>  -19.1190    1.0000 </r>
       <r>  -18.7123    1.0000 </r>
       <r>  -18.5949    1.0000 </r>
       <r>  -18.4708    1.0000 </r>
       <r>  -18.3974    1.0000 </r>
       <r>  -18.3494    1.0000 </r>
       <r>  -18.1575    1.0000 </r>
       <r>  -17.7885    1.0000 </r>
       <r>  -17.3061    1.0000 </r>
       <r>  -17.2672    1.0000 </r>
       <r>  -17.0879    1.0000 </r>
       <r>  -17.0547    1.0000 </r>
       <r>  -16.4882    1.0000 </r>
       <r>  -16.3400    1.0000 </r>
       <r>  -16.2884    1.0000 </r>
       <r>  -16.1298    1.0000 </r>
       <r>  -16.0261    1.0000 </r>
       <r>  -15.4342    1.0000 </r>
       <r>  -15.1715    1.0000 </r>
       <r>  -15.0957    1.0000 </r>
       <r>   -6.9350    1.0000 </r>
       <r>   -6.7509    1.0000 </r>
       <r>   -6.6596    1.0000 </r>
       <r>   -5.9785    1.0000 </r>
       <r>   -5.7453    1.0000 </r>
       <r>   -5.6061    1.0000 </r>
       <r>   -5.5349    1.0000 </r>
       <r>   -5.3380    1.0000 </r>
       <r>   -5.1772    1.0000 </r>
       <r>   -5.1292    1.0000 </r>
       <r>   -4.9209    1.0000 </r>
       <r>   -4.7701    1.0000 </r>
       <r>   -4.6934    1.0000 </r>
       <r>   -4.6374    1.0000 </r>
       <r>   -4.3653    1.0000 </r>
       <r>   -4.3417    1.0000 </r>
       <r>   -4.0745    1.0000 </r>
       <r>   -4.0325    1.0000 </r>
       <r>   -3.9523    1.0000 </r>
       <r>   -3.7370    1.0000 </r>
       <r>   -3.5018    1.0000 </r>
       <r>   -3.3587    1.0000 </r>
       <r>   -3.1848    1.0000 </r>
       <r>   -3.0251    1.0000 </r>
       <r>   -2.9329    1.0000 </r>
       <r>   -2.7891    1.0000 </r>
       <r>   -2.6086    1.0000 </r>
       <r>   -2.5181    1.0000 </r>
       <r>   -2.2986    1.0000 </r>
       <r>   -2.1992    1.0000 </r>
       <r>   -1.8862    1.0000 </r>
       <r>   -1.4103    1.0000 </r>
       <r>   -1.3873    1.0000 </r>
       <r>   -1.1009    1.0000 </r>
       <r>   -1.0707    1.0000 </r>
       <r>   -0.9668    1.0000 </r>
       <r>   -0.8725    1.0845 </r>
       <r>   -0.7447    0.0578 </r>
       <r>   -0.7214    0.0000 </r>
       <r>   -0.6229    0.0000 </r>
       <r>    0.0844    0.0000 </r>
       <r>    0.3295    0.0000 </r>
       <r>    0.3663    0.0000 </r>
       <r>    0.8160    0.0000 </r>
       <r>    1.3008    0.0000 </r>
       <r>    1.3181    0.0000 </r>
       <r>    2.6430    0.0000 </r>
       <r>    4.3249    0.0000 </r>
      </set>
      <set comment="kpoint 3">
       <r>  -36.5945    1.0000 </r>
       <r>  -35.2615    1.0000 </r>
       <r>  -34.2997    1.0000 </r>
       <r>  -33.4130    1.0000 </r>
       <r>  -20.6654    1.0000 </r>
       <r>  -20.2985    1.0000 </r>
       <r>  -19.6661    1.0000 </r>
       <r>  -19.2964    1.0000 </r>
       <r>  -19.2251    1.0000 </r>
       <r>  -18.7240    1.0000 </r>
       <r>  -18.5954    1.0000 </r>
       <r>  -18.3831    1.0000 </r>
       <r>  -18.3480    1.0000 </r>
       <r>  -18.2895    1.0000 </r>
       <r>  -18.2234    1.0000 </r>
       <r>  -17.7651    1.0000 </r>
       <r>  -17.3072    1.0000 </r>
       <r>  -17.2539    1.0000 </r>
       <r>  -17.0593    1.0000 </r>
       <r>  -17.0212    1.0000 </r>
       <r>  -16.4182    1.0000 </r>
       <r>  -16.3411    1.0000 </r>
       <r>  -16.3082    1.0000 </r>
       <r>  -16.0570    1.0000 </r>
       <r>  -15.9810    1.0000 </r>
       <r>  -15.4357    1.0000 </r>
       <r>  -15.1725    1.0000 </r>
       <r>  -15.0586    1.0000 </r>
       <r>   -6.8237    1.0000 </r>
       <r>   -6.7058    1.0000 </r>
       <r>   -6.2995    1.0000 </r>
       <r>   -5.9189    1.0000 </r>
       <r>   -5.8188    1.0000 </r>
       <r>   -5.6668    1.0000 </r>
       <r>   -5.6093    1.0000 </r>
       <r>   -5.4897    1.0000 </r>
       <r>   -5.3074    1.0000 </r>
       <r>   -5.1052    1.0000 </r>
       <r>   -4.7993    1.0000 </r>
       <r>   -4.7786    1.0000 </r>
       <r>   -4.6845    1.0000 </r>
       <r>   -4.6342    1.0000 </r>
       <r>   -4.5666    1.0000 </r>
       <r>   -4.4982    1.0000 </r>
       <r>   -4.1260    1.0000 </r>
       <r>   -4.1083    1.0000 </r>
       <r>   -3.8935    1.0000 </r>
       <r>   -3.8863    1.0000 </r>
       <r>   -3.6701    1.0000 </r>
       <r>   -3.5123    1.0000 </r>
       <r>   -3.3453    1.0000 </r>
       <r>   -3.1046    1.0000 </r>
       <r>   -3.0645    1.0000 </r>
       <r>   -3.0038    1.0000 </r>
       <r>   -2.7593    1.0000 </r>
       <r>   -2.5037    1.0000 </r>
       <r>   -2.3598    1.0000 </r>
       <r>   -2.3125    1.0000 </r>
       <r>   -1.7431    1.0000 </r>
       <r>   -1.5470    1.0000 </r>
       <r>   -1.4576    1.0000 </r>
       <r>   -1.1967    1.0000 </r>
       <r>   -1.0579    1.0000 </r>
       <r>   -1.0256    1.0000 </r>
       <r>   -0.8533    1.0140 </r>
       <r>   -0.8146    0.6286 </r>
       <r>   -0.7438    0.0000 </r>
       <r>   -0.4027    0.0000 </r>
       <r>    0.0441    0.0000 </r>
       <r>    0.3189    0.0000 </r>
       <r>    0.3980    0.0000 </r>
       <r>    0.9930    0.0000 </r>
       <r>    1.3012    0.0000 </r>
       <r>    1.8088    0.0000 </r>
       <r>    2.6247    0.0000 </r>
       <r>    2.7133    0.0000 </r>
      </set>
      <set comment="kpoint 4">
       <r>  -36.5919    1.0000 </r>
       <r>  -35.2585    1.0000 </r>
       <r>  -34.2966    1.0000 </r>
       <r>  -33.4099    1.0000 </r>
       <r>  -20.4480    1.0000 </r>
       <r>  -19.9918    1.0000 </r>
       <r>  -19.7966    1.0000 </r>
       <r>  -19.3069    1.0000 </r>
       <r>  -19.0586    1.0000 </r>
       <r>  -18.6292    1.0000 </r>
       <r>  -18.6081    1.0000 </r>
       <r>  -18.5501    1.0000 </r>
       <r>  -18.4970    1.0000 </r>
       <r>  -18.3032    1.0000 </r>
       <r>  -18.1024    1.0000 </r>
       <r>  -17.7812    1.0000 </r>
       <r>  -17.2769    1.0000 </r>
       <r>  -17.2300    1.0000 </r>
       <r>  -17.1773    1.0000 </r>
       <r>  -17.0614    1.0000 </r>
       <r>  -16.5631    1.0000 </r>
       <r>  -16.2984    1.0000 </r>
       <r>  -16.2599    1.0000 </r>
       <r>  -16.1982    1.0000 </r>
       <r>  -16.1032    1.0000 </r>
       <r>  -15.3825    1.0000 </r>
       <r>  -15.1968    1.0000 </r>
       <r>  -15.1794    1.0000 </r>
       <r>   -7.0471    1.0000 </r>
       <r>   -6.7241    1.0000 </r>
       <r>   -6.6247    1.0000 </r>
       <r>   -6.3323    1.0000 </r>
       <r>   -5.8546    1.0000 </r>
       <r>   -5.8307    1.0000 </r>
       <r>   -5.5380    1.0000 </r>
       <r>   -5.4992    1.0000 </r>
       <r>   -5.2797    1.0000 </r>
       <r>   -5.2165    1.0000 </r>
       <r>   -5.0532    1.0000 </r>
       <r>   -4.9804    1.0000 </r>
       <r>   -4.8647    1.0000 </r>
       <r>   -4.6201    1.0000 </r>
       <r>   -4.4214    1.0000 </r>
       <r>   -4.4176    1.0000 </r>
       <r>   -4.0749    1.0000 </r>
       <r>   -4.0638    1.0000 </r>
       <r>   -4.0182    1.0000 </r>
       <r>   -3.7225    1.0000 </r>
       <r>   -3.7025    1.0000 </r>
       <r>   -3.3511    1.0000 </r>
       <r>   -3.1640    1.0000 </r>
       <r>   -3.0656    1.0000 </r>
       <r>   -2.9318    1.0000 </r>
       <r>   -2.8186    1.0000 </r>
       <r>   -2.7001    1.0000 </r>
       <r>   -2.5565    1.0000 </r>
       <r>   -2.3370    1.0000 </r>
       <r>   -1.9998    1.0000 </r>
       <r>   -1.9691    1.0000 </r>
       <r>   -1.5016    1.0000 </r>
       <r>   -1.3106    1.0000 </r>
       <r>   -1.0923    1.0000 </r>
       <r>   -0.9718    1.0000 </r>
       <r>   -0.9704    1.0335 </r>
       <r>   -0.7495    0.2802 </r>
       <r>   -0.6573   -0.0378 </r>
       <r>   -0.5191    0.0000 </r>
       <r>   -0.4692    0.0000 </r>
       <r>    0.1245    0.0000 </r>
       <r>    0.4895    0.0000 </r>
       <r>    0.5705    0.0000 </r>
       <r>    0.6818    0.0000 </r>
       <r>    1.4907    0.0000 </r>
       <r>    1.6605    0.0000 </r>
       <r>    2.7973    0.0000 </r>
       <r>    4.4445    0.0000 </r>
      </set>
      <set comment="kpoint 5">
       <r>  -36.5916    1.0000 </r>
       <r>  -35.2582    1.0000 </r>
       <r>  -34.2964    1.0000 </r>
       <r>  -33.4097    1.0000 </r>
       <r>  -20.4894    1.0000 </r>
       <r>  -20.1442    1.0000 </r>
       <r>  -19.6919    1.0000 </r>
       <r>  -19.3048    1.0000 </r>
       <r>  -19.1067    1.0000 </r>
       <r>  -18.7051    1.0000 </r>
       <r>  -18.5905    1.0000 </r>
       <r>  -18.4875    1.0000 </r>
       <r>  -18.3802    1.0000 </r>
       <r>  -18.3163    1.0000 </r>
       <r>  -18.1560    1.0000 </r>
       <r>  -17.7696    1.0000 </r>
       <r>  -17.2726    1.0000 </r>
       <r>  -17.2294    1.0000 </r>
       <r>  -17.1203    1.0000 </r>
       <r>  -17.0781    1.0000 </r>
       <r>  -16.5351    1.0000 </r>
       <r>  -16.3095    1.0000 </r>
       <r>  -16.2557    1.0000 </r>
       <r>  -16.1681    1.0000 </r>
       <r>  -16.0387    1.0000 </r>
       <r>  -15.3776    1.0000 </r>
       <r>  -15.2090    1.0000 </r>
       <r>  -15.1377    1.0000 </r>
       <r>   -6.9113    1.0000 </r>
       <r>   -6.7029    1.0000 </r>
       <r>   -6.6495    1.0000 </r>
       <r>   -6.3143    1.0000 </r>
       <r>   -5.9517    1.0000 </r>
       <r>   -5.7581    1.0000 </r>
       <r>   -5.6002    1.0000 </r>
       <r>   -5.5062    1.0000 </r>
       <r>   -5.3306    1.0000 </r>
       <r>   -5.1702    1.0000 </r>
       <r>   -5.0507    1.0000 </r>
       <r>   -4.9694    1.0000 </r>
       <r>   -4.8176    1.0000 </r>
       <r>   -4.6487    1.0000 </r>
       <r>   -4.5746    1.0000 </r>
       <r>   -4.4107    1.0000 </r>
       <r>   -4.3480    1.0000 </r>
       <r>   -4.0516    1.0000 </r>
       <r>   -3.9279    1.0000 </r>
       <r>   -3.8167    1.0000 </r>
       <r>   -3.6858    1.0000 </r>
       <r>   -3.4751    1.0000 </r>
       <r>   -3.1618    1.0000 </r>
       <r>   -3.0839    1.0000 </r>
       <r>   -3.0187    1.0000 </r>
       <r>   -2.9571    1.0000 </r>
       <r>   -2.8406    1.0000 </r>
       <r>   -2.5339    1.0000 </r>
       <r>   -2.3631    1.0000 </r>
       <r>   -2.1810    1.0000 </r>
       <r>   -1.9329    1.0000 </r>
       <r>   -1.6216    1.0000 </r>
       <r>   -1.3061    1.0000 </r>
       <r>   -1.0964    1.0000 </r>
       <r>   -0.9718    1.0000 </r>
       <r>   -0.9375    1.0155 </r>
       <r>   -0.7324    0.3242 </r>
       <r>   -0.7107   -0.0160 </r>
       <r>   -0.5330    0.0000 </r>
       <r>   -0.4212    0.0000 </r>
       <r>    0.1658    0.0000 </r>
       <r>    0.5207    0.0000 </r>
       <r>    0.5560    0.0000 </r>
       <r>    0.8375    0.0000 </r>
       <r>    1.4556    0.0000 </r>
       <r>    1.4593    0.0000 </r>
       <r>    2.7546    0.0000 </r>
       <r>    2.8040    0.0000 </r>
      </set>
      <set comment="kpoint 6">
       <r>  -36.5912    1.0000 </r>
       <r>  -35.2577    1.0000 </r>
       <r>  -34.2959    1.0000 </r>
       <r>  -33.4093    1.0000 </r>
       <r>  -20.5736    1.0000 </r>
       <r>  -20.2473    1.0000 </r>
       <r>  -19.6628    1.0000 </r>
       <r>  -19.2923    1.0000 </r>
       <r>  -19.1755    1.0000 </r>
       <r>  -18.7342    1.0000 </r>
       <r>  -18.5800    1.0000 </r>
       <r>  -18.3748    1.0000 </r>
       <r>  -18.3340    1.0000 </r>
       <r>  -18.3022    1.0000 </r>
       <r>  -18.2090    1.0000 </r>
       <r>  -17.7703    1.0000 </r>
       <r>  -17.2504    1.0000 </r>
       <r>  -17.2386    1.0000 </r>
       <r>  -17.0925    1.0000 </r>
       <r>  -17.0418    1.0000 </r>
       <r>  -16.4700    1.0000 </r>
       <r>  -16.3287    1.0000 </r>
       <r>  -16.2509    1.0000 </r>
       <r>  -16.0944    1.0000 </r>
       <r>  -15.9945    1.0000 </r>
       <r>  -15.3599    1.0000 </r>
       <r>  -15.2002    1.0000 </r>
       <r>  -15.0879    1.0000 </r>
       <r>   -6.8406    1.0000 </r>
       <r>   -6.7132    1.0000 </r>
       <r>   -6.4157    1.0000 </r>
       <r>   -6.2940    1.0000 </r>
       <r>   -6.0210    1.0000 </r>
       <r>   -5.7780    1.0000 </r>
       <r>   -5.5938    1.0000 </r>
       <r>   -5.5302    1.0000 </r>
       <r>   -5.4420    1.0000 </r>
       <r>   -5.2804    1.0000 </r>
       <r>   -5.0657    1.0000 </r>
       <r>   -4.9445    1.0000 </r>
       <r>   -4.8160    1.0000 </r>
       <r>   -4.7182    1.0000 </r>
       <r>   -4.6764    1.0000 </r>
       <r>   -4.5174    1.0000 </r>
       <r>   -4.3421    1.0000 </r>
       <r>   -4.1332    1.0000 </r>
       <r>   -3.9593    1.0000 </r>
       <r>   -3.8135    1.0000 </r>
       <r>   -3.7755    1.0000 </r>
       <r>   -3.5428    1.0000 </r>
       <r>   -3.4707    1.0000 </r>
       <r>   -3.2198    1.0000 </r>
       <r>   -3.1037    1.0000 </r>
       <r>   -2.9844    1.0000 </r>
       <r>   -2.8835    1.0000 </r>
       <r>   -2.8116    1.0000 </r>
       <r>   -2.4235    1.0000 </r>
       <r>   -2.1433    1.0000 </r>
       <r>   -1.8601    1.0000 </r>
       <r>   -1.6976    1.0000 </r>
       <r>   -1.2978    1.0000 </r>
       <r>   -1.2444    1.0000 </r>
       <r>   -1.1027    1.0000 </r>
       <r>   -0.9356    1.0000 </r>
       <r>   -0.8716    1.0636 </r>
       <r>   -0.6230   -0.0565 </r>
       <r>   -0.3729    0.0000 </r>
       <r>   -0.3362    0.0000 </r>
       <r>    0.1599    0.0000 </r>
       <r>    0.5294    0.0000 </r>
       <r>    0.5862    0.0000 </r>
       <r>    0.9993    0.0000 </r>
       <r>    1.4441    0.0000 </r>
       <r>    1.4848    0.0000 </r>
       <r>    2.7283    0.0000 </r>
       <r>    2.8122    0.0000 </r>
      </set>
      <set comment="kpoint 7">
       <r>  -36.5842    1.0000 </r>
       <r>  -35.2497    1.0000 </r>
       <r>  -34.2879    1.0000 </r>
       <r>  -33.4012    1.0000 </r>
       <r>  -20.3811    1.0000 </r>
       <r>  -19.8688    1.0000 </r>
       <r>  -19.6767    1.0000 </r>
       <r>  -19.2142    1.0000 </r>
       <r>  -19.0865    1.0000 </r>
       <r>  -18.6373    1.0000 </r>
       <r>  -18.5836    1.0000 </r>
       <r>  -18.5112    1.0000 </r>
       <r>  -18.4471    1.0000 </r>
       <r>  -18.2161    1.0000 </r>
       <r>  -18.1108    1.0000 </r>
       <r>  -17.6768    1.0000 </r>
       <r>  -17.3030    1.0000 </r>
       <r>  -17.2167    1.0000 </r>
       <r>  -17.1668    1.0000 </r>
       <r>  -17.0372    1.0000 </r>
       <r>  -16.6296    1.0000 </r>
       <r>  -16.3535    1.0000 </r>
       <r>  -16.2108    1.0000 </r>
       <r>  -16.1321    1.0000 </r>
       <r>  -16.1310    1.0000 </r>
       <r>  -15.3704    1.0000 </r>
       <r>  -15.3446    1.0000 </r>
       <r>  -15.1939    1.0000 </r>
       <r>   -6.9909    1.0000 </r>
       <r>   -6.9318    1.0000 </r>
       <r>   -6.6095    1.0000 </r>
       <r>   -6.5266    1.0000 </r>
       <r>   -6.3703    1.0000 </r>
       <r>   -6.2752    1.0000 </r>
       <r>   -6.0024    1.0000 </r>
       <r>   -5.7931    1.0000 </r>
       <r>   -5.5590    1.0000 </r>
       <r>   -5.4572    1.0000 </r>
       <r>   -5.2998    1.0000 </r>
       <r>   -5.1695    1.0000 </r>
       <r>   -5.0438    1.0000 </r>
       <r>   -4.9818    1.0000 </r>
       <r>   -4.7377    1.0000 </r>
       <r>   -4.5258    1.0000 </r>
       <r>   -4.5147    1.0000 </r>
       <r>   -4.2442    1.0000 </r>
       <r>   -4.1796    1.0000 </r>
       <r>   -3.9850    1.0000 </r>
       <r>   -3.9018    1.0000 </r>
       <r>   -3.7064    1.0000 </r>
       <r>   -3.4076    1.0000 </r>
       <r>   -3.3656    1.0000 </r>
       <r>   -2.9693    1.0000 </r>
       <r>   -2.8105    1.0000 </r>
       <r>   -2.7652    1.0000 </r>
       <r>   -2.6944    1.0000 </r>
       <r>   -2.2626    1.0000 </r>
       <r>   -2.1376    1.0000 </r>
       <r>   -1.9808    1.0000 </r>
       <r>   -1.5000    1.0000 </r>
       <r>   -1.2945    1.0000 </r>
       <r>   -0.9815    1.0000 </r>
       <r>   -0.8102    1.0326 </r>
       <r>   -0.7442    0.4241 </r>
       <r>   -0.7007    0.0000 </r>
       <r>   -0.5338    0.0000 </r>
       <r>   -0.3106    0.0000 </r>
       <r>    0.1797    0.0000 </r>
       <r>    0.7096    0.0000 </r>
       <r>    0.9150    0.0000 </r>
       <r>    1.0037    0.0000 </r>
       <r>    1.8698    0.0000 </r>
       <r>    1.8833    0.0000 </r>
       <r>    3.0934    0.0000 </r>
       <r>    3.1642    0.0000 </r>
       <r>    5.0533    0.0000 </r>
      </set>
      <set comment="kpoint 8">
       <r>  -36.5840    1.0000 </r>
       <r>  -35.2494    1.0000 </r>
       <r>  -34.2877    1.0000 </r>
       <r>  -33.4011    1.0000 </r>
       <r>  -20.3602    1.0000 </r>
       <r>  -20.0283    1.0000 </r>
       <r>  -19.6437    1.0000 </r>
       <r>  -19.2306    1.0000 </r>
       <r>  -19.0855    1.0000 </r>
       <r>  -18.6247    1.0000 </r>
       <r>  -18.5883    1.0000 </r>
       <r>  -18.5085    1.0000 </r>
       <r>  -18.3800    1.0000 </r>
       <r>  -18.2306    1.0000 </r>
       <r>  -18.1401    1.0000 </r>
       <r>  -17.7124    1.0000 </r>
       <r>  -17.2614    1.0000 </r>
       <r>  -17.1718    1.0000 </r>
       <r>  -17.1528    1.0000 </r>
       <r>  -17.0808    1.0000 </r>
       <r>  -16.6056    1.0000 </r>
       <r>  -16.2906    1.0000 </r>
       <r>  -16.2278    1.0000 </r>
       <r>  -16.1700    1.0000 </r>
       <r>  -16.0370    1.0000 </r>
       <r>  -15.3727    1.0000 </r>
       <r>  -15.2947    1.0000 </r>
       <r>  -15.1528    1.0000 </r>
       <r>   -6.9745    1.0000 </r>
       <r>   -6.8936    1.0000 </r>
       <r>   -6.6924    1.0000 </r>
       <r>   -6.5510    1.0000 </r>
       <r>   -6.4159    1.0000 </r>
       <r>   -6.2776    1.0000 </r>
       <r>   -6.0151    1.0000 </r>
       <r>   -5.7968    1.0000 </r>
       <r>   -5.6329    1.0000 </r>
       <r>   -5.4080    1.0000 </r>
       <r>   -5.3520    1.0000 </r>
       <r>   -5.1810    1.0000 </r>
       <r>   -5.0401    1.0000 </r>
       <r>   -4.9614    1.0000 </r>
       <r>   -4.8329    1.0000 </r>
       <r>   -4.6975    1.0000 </r>
       <r>   -4.3830    1.0000 </r>
       <r>   -4.2802    1.0000 </r>
       <r>   -4.1398    1.0000 </r>
       <r>   -4.0586    1.0000 </r>
       <r>   -3.8731    1.0000 </r>
       <r>   -3.7606    1.0000 </r>
       <r>   -3.5385    1.0000 </r>
       <r>   -3.3457    1.0000 </r>
       <r>   -3.1535    1.0000 </r>
       <r>   -2.8900    1.0000 </r>
       <r>   -2.8811    1.0000 </r>
       <r>   -2.5486    1.0000 </r>
       <r>   -2.3238    1.0000 </r>
       <r>   -2.0812    1.0000 </r>
       <r>   -2.0292    1.0000 </r>
       <r>   -1.6593    1.0000 </r>
       <r>   -1.2593    1.0000 </r>
       <r>   -0.9618    1.0000 </r>
       <r>   -0.8277    1.0331 </r>
       <r>   -0.7980    0.8971 </r>
       <r>   -0.7116    0.0155 </r>
       <r>   -0.5568    0.0000 </r>
       <r>   -0.2290    0.0000 </r>
       <r>    0.1917    0.0000 </r>
       <r>    0.4105    0.0000 </r>
       <r>    0.8740    0.0000 </r>
       <r>    0.9937    0.0000 </r>
       <r>    1.0185    0.0000 </r>
       <r>    1.8605    0.0000 </r>
       <r>    1.8710    0.0000 </r>
       <r>    3.1089    0.0000 </r>
       <r>    3.1336    0.0000 </r>
      </set>
      <set comment="kpoint 9">
       <r>  -36.5837    1.0000 </r>
       <r>  -35.2491    1.0000 </r>
       <r>  -34.2873    1.0000 </r>
       <r>  -33.4008    1.0000 </r>
       <r>  -20.3492    1.0000 </r>
       <r>  -20.1488    1.0000 </r>
       <r>  -19.6969    1.0000 </r>
       <r>  -19.2781    1.0000 </r>
       <r>  -19.0475    1.0000 </r>
       <r>  -18.7218    1.0000 </r>
       <r>  -18.5518    1.0000 </r>
       <r>  -18.3872    1.0000 </r>
       <r>  -18.3458    1.0000 </r>
       <r>  -18.2738    1.0000 </r>
       <r>  -18.1274    1.0000 </r>
       <r>  -17.7979    1.0000 </r>
       <r>  -17.2179    1.0000 </r>
       <r>  -17.1792    1.0000 </r>
       <r>  -17.1062    1.0000 </r>
       <r>  -17.0598    1.0000 </r>
       <r>  -16.5499    1.0000 </r>
       <r>  -16.3068    1.0000 </r>
       <r>  -16.1672    1.0000 </r>
       <r>  -16.1280    1.0000 </r>
       <r>  -16.0039    1.0000 </r>
       <r>  -15.3758    1.0000 </r>
       <r>  -15.1700    1.0000 </r>
       <r>  -15.1136    1.0000 </r>
       <r>   -7.0367    1.0000 </r>
       <r>   -6.9418    1.0000 </r>
       <r>   -6.6925    1.0000 </r>
       <r>   -6.6199    1.0000 </r>
       <r>   -6.4972    1.0000 </r>
       <r>   -6.0656    1.0000 </r>
       <r>   -6.0171    1.0000 </r>
       <r>   -5.8531    1.0000 </r>
       <r>   -5.7301    1.0000 </r>
       <r>   -5.4681    1.0000 </r>
       <r>   -5.3306    1.0000 </r>
       <r>   -5.2116    1.0000 </r>
       <r>   -5.1911    1.0000 </r>
       <r>   -5.0670    1.0000 </r>
       <r>   -4.9022    1.0000 </r>
       <r>   -4.7344    1.0000 </r>
       <r>   -4.2389    1.0000 </r>
       <r>   -4.2298    1.0000 </r>
       <r>   -4.1444    1.0000 </r>
       <r>   -4.0853    1.0000 </r>
       <r>   -3.9423    1.0000 </r>
       <r>   -3.8087    1.0000 </r>
       <r>   -3.6798    1.0000 </r>
       <r>   -3.4765    1.0000 </r>
       <r>   -3.4351    1.0000 </r>
       <r>   -2.9124    1.0000 </r>
       <r>   -2.8764    1.0000 </r>
       <r>   -2.8347    1.0000 </r>
       <r>   -2.1496    1.0000 </r>
       <r>   -2.0438    1.0000 </r>
       <r>   -1.9929    1.0000 </r>
       <r>   -1.7357    1.0000 </r>
       <r>   -1.2432    1.0000 </r>
       <r>   -1.2012    1.0000 </r>
       <r>   -0.9406    1.0082 </r>
       <r>   -0.8057    0.9907 </r>
       <r>   -0.7745    0.4807 </r>
       <r>   -0.3449    0.0000 </r>
       <r>   -0.1790    0.0000 </r>
       <r>    0.2523    0.0000 </r>
       <r>    0.4576    0.0000 </r>
       <r>    1.0021    0.0000 </r>
       <r>    1.0266    0.0000 </r>
       <r>    1.0537    0.0000 </r>
       <r>    1.8411    0.0000 </r>
       <r>    1.8875    0.0000 </r>
       <r>    3.0809    0.0000 </r>
       <r>    3.1160    0.0000 </r>
      </set>
      <set comment="kpoint 10">
       <r>  -36.5780    1.0000 </r>
       <r>  -35.2426    1.0000 </r>
       <r>  -34.2808    1.0000 </r>
       <r>  -33.3943    1.0000 </r>
       <r>  -20.3890    1.0000 </r>
       <r>  -19.7189    1.0000 </r>
       <r>  -19.5584    1.0000 </r>
       <r>  -19.1872    1.0000 </r>
       <r>  -19.0697    1.0000 </r>
       <r>  -18.7278    1.0000 </r>
       <r>  -18.5456    1.0000 </r>
       <r>  -18.3980    1.0000 </r>
       <r>  -18.3971    1.0000 </r>
       <r>  -18.1835    1.0000 </r>
       <r>  -18.0572    1.0000 </r>
       <r>  -17.5722    1.0000 </r>
       <r>  -17.4291    1.0000 </r>
       <r>  -17.1972    1.0000 </r>
       <r>  -17.1528    1.0000 </r>
       <r>  -16.9702    1.0000 </r>
       <r>  -16.6327    1.0000 </r>
       <r>  -16.4769    1.0000 </r>
       <r>  -16.1730    1.0000 </r>
       <r>  -16.1044    1.0000 </r>
       <r>  -15.9995    1.0000 </r>
       <r>  -15.5217    1.0000 </r>
       <r>  -15.4527    1.0000 </r>
       <r>  -15.1282    1.0000 </r>
       <r>   -7.5778    1.0000 </r>
       <r>   -6.9755    1.0000 </r>
       <r>   -6.7093    1.0000 </r>
       <r>   -6.5938    1.0000 </r>
       <r>   -6.5900    1.0000 </r>
       <r>   -6.5259    1.0000 </r>
       <r>   -6.3575    1.0000 </r>
       <r>   -5.9676    1.0000 </r>
       <r>   -5.8270    1.0000 </r>
       <r>   -5.6387    1.0000 </r>
       <r>   -5.5622    1.0000 </r>
       <r>   -5.4728    1.0000 </r>
       <r>   -5.1393    1.0000 </r>
       <r>   -4.9683    1.0000 </r>
       <r>   -4.9087    1.0000 </r>
       <r>   -4.7251    1.0000 </r>
       <r>   -4.6091    1.0000 </r>
       <r>   -4.5770    1.0000 </r>
       <r>   -4.4341    1.0000 </r>
       <r>   -4.1612    1.0000 </r>
       <r>   -4.0666    1.0000 </r>
       <r>   -3.7122    1.0000 </r>
       <r>   -3.5459    1.0000 </r>
       <r>   -3.4894    1.0000 </r>
       <r>   -3.0003    1.0000 </r>
       <r>   -2.8572    1.0000 </r>
       <r>   -2.7625    1.0000 </r>
       <r>   -2.7320    1.0000 </r>
       <r>   -2.3021    1.0000 </r>
       <r>   -2.1398    1.0000 </r>
       <r>   -1.8839    1.0000 </r>
       <r>   -1.4344    1.0000 </r>
       <r>   -1.2832    1.0000 </r>
       <r>   -0.8675    1.0000 </r>
       <r>   -0.7420    0.1465 </r>
       <r>   -0.7086   -0.0375 </r>
       <r>   -0.5506    0.0000 </r>
       <r>   -0.4209    0.0000 </r>
       <r>   -0.1905    0.0000 </r>
       <r>    0.6442    0.0000 </r>
       <r>    0.7121    0.0000 </r>
       <r>    0.7710    0.0000 </r>
       <r>    1.3958    0.0000 </r>
       <r>    1.4395    0.0000 </r>
       <r>    1.8165    0.0000 </r>
       <r>    2.2870    0.0000 </r>
       <r>    3.1991    0.0000 </r>
       <r>    3.5241    0.0000 </r>
      </set>
      <set comment="kpoint 11">
       <r>  -36.5778    1.0000 </r>
       <r>  -35.2424    1.0000 </r>
       <r>  -34.2807    1.0000 </r>
       <r>  -33.3942    1.0000 </r>
       <r>  -20.3271    1.0000 </r>
       <r>  -19.8605    1.0000 </r>
       <r>  -19.6286    1.0000 </r>
       <r>  -19.1528    1.0000 </r>
       <r>  -19.0999    1.0000 </r>
       <r>  -18.5733    1.0000 </r>
       <r>  -18.5103    1.0000 </r>
       <r>  -18.4971    1.0000 </r>
       <r>  -18.4175    1.0000 </r>
       <r>  -18.1603    1.0000 </r>
       <r>  -18.1245    1.0000 </r>
       <r>  -17.6565    1.0000 </r>
       <r>  -17.2985    1.0000 </r>
       <r>  -17.2137    1.0000 </r>
       <r>  -17.1043    1.0000 </r>
       <r>  -17.0353    1.0000 </r>
       <r>  -16.6159    1.0000 </r>
       <r>  -16.3456    1.0000 </r>
       <r>  -16.2124    1.0000 </r>
       <r>  -16.0965    1.0000 </r>
       <r>  -16.0126    1.0000 </r>
       <r>  -15.4547    1.0000 </r>
       <r>  -15.3889    1.0000 </r>
       <r>  -15.0892    1.0000 </r>
       <r>   -7.5881    1.0000 </r>
       <r>   -6.9437    1.0000 </r>
       <r>   -6.7948    1.0000 </r>
       <r>   -6.7539    1.0000 </r>
       <r>   -6.6275    1.0000 </r>
       <r>   -6.5751    1.0000 </r>
       <r>   -6.2702    1.0000 </r>
       <r>   -5.9811    1.0000 </r>
       <r>   -5.8465    1.0000 </r>
       <r>   -5.7703    1.0000 </r>
       <r>   -5.5333    1.0000 </r>
       <r>   -5.4388    1.0000 </r>
       <r>   -5.1566    1.0000 </r>
       <r>   -5.1085    1.0000 </r>
       <r>   -4.9552    1.0000 </r>
       <r>   -4.8133    1.0000 </r>
       <r>   -4.6544    1.0000 </r>
       <r>   -4.4110    1.0000 </r>
       <r>   -4.2964    1.0000 </r>
       <r>   -4.1853    1.0000 </r>
       <r>   -4.1269    1.0000 </r>
       <r>   -3.7611    1.0000 </r>
       <r>   -3.6665    1.0000 </r>
       <r>   -3.4965    1.0000 </r>
       <r>   -3.1984    1.0000 </r>
       <r>   -2.8730    1.0000 </r>
       <r>   -2.8043    1.0000 </r>
       <r>   -2.6306    1.0000 </r>
       <r>   -2.3022    1.0000 </r>
       <r>   -2.0476    1.0000 </r>
       <r>   -1.9184    1.0000 </r>
       <r>   -1.6278    1.0000 </r>
       <r>   -1.2188    1.0000 </r>
       <r>   -0.8489    1.0000 </r>
       <r>   -0.7535    0.5060 </r>
       <r>   -0.7335    0.0221 </r>
       <r>   -0.7060   -0.0039 </r>
       <r>   -0.3914    0.0000 </r>
       <r>   -0.0417    0.0000 </r>
       <r>    0.6669    0.0000 </r>
       <r>    0.7184    0.0000 </r>
       <r>    0.9069    0.0000 </r>
       <r>    1.4119    0.0000 </r>
       <r>    1.4306    0.0000 </r>
       <r>    1.8858    0.0000 </r>
       <r>    2.2600    0.0000 </r>
       <r>    3.1463    0.0000 </r>
       <r>    3.4843    0.0000 </r>
      </set>
      <set comment="kpoint 12">
       <r>  -36.5776    1.0000 </r>
       <r>  -35.2422    1.0000 </r>
       <r>  -34.2804    1.0000 </r>
       <r>  -33.3941    1.0000 </r>
       <r>  -20.1728    1.0000 </r>
       <r>  -20.0335    1.0000 </r>
       <r>  -19.8018    1.0000 </r>
       <r>  -19.2194    1.0000 </r>
       <r>  -18.9634    1.0000 </r>
       <r>  -18.7028    1.0000 </r>
       <r>  -18.4947    1.0000 </r>
       <r>  -18.4166    1.0000 </r>
       <r>  -18.3559    1.0000 </r>
       <r>  -18.2321    1.0000 </r>
       <r>  -18.0562    1.0000 </r>
       <r>  -17.8335    1.0000 </r>
       <r>  -17.2290    1.0000 </r>
       <r>  -17.1772    1.0000 </r>
       <r>  -17.0788    1.0000 </r>
       <r>  -17.0186    1.0000 </r>
       <r>  -16.5740    1.0000 </r>
       <r>  -16.2619    1.0000 </r>
       <r>  -16.1561    1.0000 </r>
       <r>  -16.1506    1.0000 </r>
       <r>  -15.9828    1.0000 </r>
       <r>  -15.4574    1.0000 </r>
       <r>  -15.1934    1.0000 </r>
       <r>  -15.0358    1.0000 </r>
       <r>   -7.6087    1.0000 </r>
       <r>   -7.1091    1.0000 </r>
       <r>   -6.9682    1.0000 </r>
       <r>   -6.8423    1.0000 </r>
       <r>   -6.6629    1.0000 </r>
       <r>   -6.5549    1.0000 </r>
       <r>   -6.0875    1.0000 </r>
       <r>   -6.0157    1.0000 </r>
       <r>   -5.9161    1.0000 </r>
       <r>   -5.8424    1.0000 </r>
       <r>   -5.5998    1.0000 </r>
       <r>   -5.3651    1.0000 </r>
       <r>   -5.2910    1.0000 </r>
       <r>   -5.2789    1.0000 </r>
       <r>   -5.1438    1.0000 </r>
       <r>   -4.7449    1.0000 </r>
       <r>   -4.6867    1.0000 </r>
       <r>   -4.2952    1.0000 </r>
       <r>   -4.1974    1.0000 </r>
       <r>   -4.1371    1.0000 </r>
       <r>   -4.0465    1.0000 </r>
       <r>   -3.8509    1.0000 </r>
       <r>   -3.7592    1.0000 </r>
       <r>   -3.6627    1.0000 </r>
       <r>   -3.5620    1.0000 </r>
       <r>   -2.8326    1.0000 </r>
       <r>   -2.8194    1.0000 </r>
       <r>   -2.7494    1.0000 </r>
       <r>   -2.0835    1.0000 </r>
       <r>   -1.9907    1.0000 </r>
       <r>   -1.8902    1.0000 </r>
       <r>   -1.7276    1.0000 </r>
       <r>   -1.2193    1.0000 </r>
       <r>   -1.1534    1.0000 </r>
       <r>   -0.8890    1.0438 </r>
       <r>   -0.7352    0.0619 </r>
       <r>   -0.6486   -0.0456 </r>
       <r>   -0.2646    0.0000 </r>
       <r>    0.0762    0.0000 </r>
       <r>    0.7262    0.0000 </r>
       <r>    1.0847    0.0000 </r>
       <r>    1.3438    0.0000 </r>
       <r>    1.4157    0.0000 </r>
       <r>    1.9219    0.0000 </r>
       <r>    2.2285    0.0000 </r>
       <r>    2.2506    0.0000 </r>
       <r>    3.1802    0.0000 </r>
       <r>    3.4458    0.0000 </r>
      </set>
     </set>
    </set>
   </array>
  </eigenvalues>
  <separator name="orbital magnetization" >
   <v name="MAGDIPOLOUT">      0.00000000      0.00000000      0.00000000</v>
  </separator>
  <dos>
   <i name="efermi">     -0.76634846 </i>
   <total>
    <array>
     <dimension dim="1">gridpoints</dimension>
     <dimension dim="2">spin</dimension>
     <field>energy</field>
     <field>total</field>
     <field>integrated</field>
     <set>
      <set comment="spin 1">
       <r>   -38.6777     0.0000     0.0000 </r>
       <r>   -38.5250     0.0000     0.0000 </r>
       <r>   -38.3723     0.0000     0.0000 </r>
       <r>   -38.2196     0.0000     0.0000 </r>
       <r>   -38.0669     0.0000     0.0000 </r>
       <r>   -37.9142     0.0000     0.0000 </r>
       <r>   -37.7615     0.0000     0.0000 </r>
       <r>   -37.6088     0.0000     0.0000 </r>
       <r>   -37.4560     0.0000     0.0000 </r>
       <r>   -37.3033     0.0000     0.0000 </r>
       <r>   -37.1506     0.0000     0.0000 </r>
       <r>   -36.9979     0.0000     0.0000 </r>
       <r>   -36.8452     0.0000     0.0000 </r>
       <r>   -36.6925     0.0000     0.0000 </r>
       <r>   -36.5398     0.0000     2.0000 </r>
       <r>   -36.3871     0.0000     2.0000 </r>
       <r>   -36.2344     0.0000     2.0000 </r>
       <r>   -36.0816     0.0000     2.0000 </r>
       <r>   -35.9289     0.0000     2.0000 </r>
       <r>   -35.7762     0.0000     2.0000 </r>
       <r>   -35.6235     0.0000     2.0000 </r>
       <r>   -35.4708     0.0000     2.0000 </r>
       <r>   -35.3181     0.0000     2.0000 </r>
       <r>   -35.1654     0.0000     4.0000 </r>
       <r>   -35.0127     0.0000     4.0000 </r>
       <r>   -34.8600     0.0000     4.0000 </r>
       <r>   -34.7072     0.0000     4.0000 </r>
       <r>   -34.5545     0.0000     4.0000 </r>
       <r>   -34.4018     0.0000     4.0000 </r>
       <r>   -34.2491     0.0000     6.0000 </r>
       <r>   -34.0964     0.0000     6.0000 </r>
       <r>   -33.9437     0.0000     6.0000 </r>
       <r>   -33.7910     0.0000     6.0000 </r>
       <r>   -33.6383     0.0000     6.0000 </r>
       <r>   -33.4856     0.0000     6.0000 </r>
       <r>   -33.3328     0.0000     8.0000 </r>
       <r>   -33.1801     0.0000     8.0000 </r>
       <r>   -33.0274     0.0000     8.0000 </r>
       <r>   -32.8747     0.0000     8.0000 </r>
       <r>   -32.7220     0.0000     8.0000 </r>
       <r>   -32.5693     0.0000     8.0000 </r>
       <r>   -32.4166     0.0000     8.0000 </r>
       <r>   -32.2639     0.0000     8.0000 </r>
       <r>   -32.1111     0.0000     8.0000 </r>
       <r>   -31.9584     0.0000     8.0000 </r>
       <r>   -31.8057     0.0000     8.0000 </r>
       <r>   -31.6530     0.0000     8.0000 </r>
       <r>   -31.5003     0.0000     8.0000 </r>
       <r>   -31.3476     0.0000     8.0000 </r>
       <r>   -31.1949     0.0000     8.0000 </r>
       <r>   -31.0422     0.0000     8.0000 </r>
       <r>   -30.8895     0.0000     8.0000 </r>
       <r>   -30.7367     0.0000     8.0000 </r>
       <r>   -30.5840     0.0000     8.0000 </r>
       <r>   -30.4313     0.0000     8.0000 </r>
       <r>   -30.2786     0.0000     8.0000 </r>
       <r>   -30.1259     0.0000     8.0000 </r>
       <r>   -29.9732     0.0000     8.0000 </r>
       <r>   -29.8205     0.0000     8.0000 </r>
       <r>   -29.6678     0.0000     8.0000 </r>
       <r>   -29.5151     0.0000     8.0000 </r>
       <r>   -29.3623     0.0000     8.0000 </r>
       <r>   -29.2096     0.0000     8.0000 </r>
       <r>   -29.0569     0.0000     8.0000 </r>
       <r>   -28.9042     0.0000     8.0000 </r>
       <r>   -28.7515     0.0000     8.0000 </r>
       <r>   -28.5988     0.0000     8.0000 </r>
       <r>   -28.4461     0.0000     8.0000 </r>
       <r>   -28.2934     0.0000     8.0000 </r>
       <r>   -28.1406     0.0000     8.0000 </r>
       <r>   -27.9879     0.0000     8.0000 </r>
       <r>   -27.8352     0.0000     8.0000 </r>
       <r>   -27.6825     0.0000     8.0000 </r>
       <r>   -27.5298     0.0000     8.0000 </r>
       <r>   -27.3771     0.0000     8.0000 </r>
       <r>   -27.2244     0.0000     8.0000 </r>
       <r>   -27.0717     0.0000     8.0000 </r>
       <r>   -26.9190     0.0000     8.0000 </r>
       <r>   -26.7662     0.0000     8.0000 </r>
       <r>   -26.6135     0.0000     8.0000 </r>
       <r>   -26.4608     0.0000     8.0000 </r>
       <r>   -26.3081     0.0000     8.0000 </r>
       <r>   -26.1554     0.0000     8.0000 </r>
       <r>   -26.0027     0.0000     8.0000 </r>
       <r>   -25.8500     0.0000     8.0000 </r>
       <r>   -25.6973     0.0000     8.0000 </r>
       <r>   -25.5446     0.0000     8.0000 </r>
       <r>   -25.3918     0.0000     8.0000 </r>
       <r>   -25.2391     0.0000     8.0000 </r>
       <r>   -25.0864     0.0000     8.0000 </r>
       <r>   -24.9337     0.0000     8.0000 </r>
       <r>   -24.7810     0.0000     8.0000 </r>
       <r>   -24.6283     0.0000     8.0000 </r>
       <r>   -24.4756     0.0000     8.0000 </r>
       <r>   -24.3229     0.0000     8.0000 </r>
       <r>   -24.1701     0.0000     8.0000 </r>
       <r>   -24.0174     0.0000     8.0000 </r>
       <r>   -23.8647     0.0000     8.0000 </r>
       <r>   -23.7120     0.0000     8.0000 </r>
       <r>   -23.5593     0.0000     8.0000 </r>
       <r>   -23.4066     0.0000     8.0000 </r>
       <r>   -23.2539     0.0000     8.0000 </r>
       <r>   -23.1012     0.0000     8.0000 </r>
       <r>   -22.9485     0.0000     8.0000 </r>
       <r>   -22.7957     0.0000     8.0000 </r>
       <r>   -22.6430     0.0000     8.0000 </r>
       <r>   -22.4903     0.0000     8.0000 </r>
       <r>   -22.3376     0.0000     8.0000 </r>
       <r>   -22.1849     0.0000     8.0000 </r>
       <r>   -22.0322     0.0000     8.0000 </r>
       <r>   -21.8795     0.0000     8.0000 </r>
       <r>   -21.7268     0.0000     8.0000 </r>
       <r>   -21.5741     0.0000     8.0000 </r>
       <r>   -21.4213     0.0000     8.0000 </r>
       <r>   -21.2686     0.0000     8.0000 </r>
       <r>   -21.1159     0.0000     8.0000 </r>
       <r>   -20.9632     0.0000     8.0000 </r>
       <r>   -20.8105     0.0000     8.0000 </r>
       <r>   -20.6578     1.4406     8.0102 </r>
       <r>   -20.5051     5.2838     8.5022 </r>
       <r>   -20.3524     9.6623     9.3997 </r>
       <r>   -20.1996     6.0373    10.2507 </r>
       <r>   -20.0469     5.5614    11.0978 </r>
       <r>   -19.8942     2.4288    11.7051 </r>
       <r>   -19.7415     7.0658    12.3604 </r>
       <r>   -19.5888     2.9702    13.9300 </r>
       <r>   -19.4361     0.0000    14.0000 </r>
       <r>   -19.2834    16.1275    14.7990 </r>
       <r>   -19.1307     5.4809    16.3750 </r>
       <r>   -18.9780     2.6027    17.9080 </r>
       <r>   -18.8252     0.0000    18.0000 </r>
       <r>   -18.6725    12.6241    19.1893 </r>
       <r>   -18.5198    18.2535    21.8362 </r>
       <r>   -18.3671    17.2985    25.2148 </r>
       <r>   -18.2144    19.2294    27.6197 </r>
       <r>   -18.0617     5.6700    29.9155 </r>
       <r>   -17.9090     0.0000    30.0000 </r>
       <r>   -17.7563     8.8429    31.2188 </r>
       <r>   -17.6036     2.3083    31.9426 </r>
       <r>   -17.4508     0.0000    32.0000 </r>
       <r>   -17.2981    21.9754    32.3946 </r>
       <r>   -17.1454    16.9863    36.3658 </r>
       <r>   -16.9927     3.0469    39.9459 </r>
       <r>   -16.8400     0.0000    40.0000 </r>
       <r>   -16.6873     0.0000    40.0000 </r>
       <r>   -16.5346     9.2491    41.3117 </r>
       <r>   -16.3819     2.4560    42.1581 </r>
       <r>   -16.2291    10.8478    44.8879 </r>
       <r>   -16.0764    12.6989    48.1465 </r>
       <r>   -15.9237     0.0000    50.0000 </r>
       <r>   -15.7710     0.0000    50.0000 </r>
       <r>   -15.6183     0.0000    50.0000 </r>
       <r>   -15.4656     3.2635    50.1394 </r>
       <r>   -15.3129     3.7347    52.4405 </r>
       <r>   -15.1602    10.2416    54.2128 </r>
       <r>   -15.0075     0.0000    56.0000 </r>
       <r>   -14.8547     0.0000    56.0000 </r>
       <r>   -14.7020     0.0000    56.0000 </r>
       <r>   -14.5493     0.0000    56.0000 </r>
       <r>   -14.3966     0.0000    56.0000 </r>
       <r>   -14.2439     0.0000    56.0000 </r>
       <r>   -14.0912     0.0000    56.0000 </r>
       <r>   -13.9385     0.0000    56.0000 </r>
       <r>   -13.7858     0.0000    56.0000 </r>
       <r>   -13.6331     0.0000    56.0000 </r>
       <r>   -13.4803     0.0000    56.0000 </r>
       <r>   -13.3276     0.0000    56.0000 </r>
       <r>   -13.1749     0.0000    56.0000 </r>
       <r>   -13.0222     0.0000    56.0000 </r>
       <r>   -12.8695     0.0000    56.0000 </r>
       <r>   -12.7168     0.0000    56.0000 </r>
       <r>   -12.5641     0.0000    56.0000 </r>
       <r>   -12.4114     0.0000    56.0000 </r>
       <r>   -12.2586     0.0000    56.0000 </r>
       <r>   -12.1059     0.0000    56.0000 </r>
       <r>   -11.9532     0.0000    56.0000 </r>
       <r>   -11.8005     0.0000    56.0000 </r>
       <r>   -11.6478     0.0000    56.0000 </r>
       <r>   -11.4951     0.0000    56.0000 </r>
       <r>   -11.3424     0.0000    56.0000 </r>
       <r>   -11.1897     0.0000    56.0000 </r>
       <r>   -11.0370     0.0000    56.0000 </r>
       <r>   -10.8842     0.0000    56.0000 </r>
       <r>   -10.7315     0.0000    56.0000 </r>
       <r>   -10.5788     0.0000    56.0000 </r>
       <r>   -10.4261     0.0000    56.0000 </r>
       <r>   -10.2734     0.0000    56.0000 </r>
       <r>   -10.1207     0.0000    56.0000 </r>
       <r>    -9.9680     0.0000    56.0000 </r>
       <r>    -9.8153     0.0000    56.0000 </r>
       <r>    -9.6626     0.0000    56.0000 </r>
       <r>    -9.5098     0.0000    56.0000 </r>
       <r>    -9.3571     0.0000    56.0000 </r>
       <r>    -9.2044     0.0000    56.0000 </r>
       <r>    -9.0517     0.0000    56.0000 </r>
       <r>    -8.8990     0.0000    56.0000 </r>
       <r>    -8.7463     0.0000    56.0000 </r>
       <r>    -8.5936     0.0000    56.0000 </r>
       <r>    -8.4409     0.0000    56.0000 </r>
       <r>    -8.2881     0.0000    56.0000 </r>
       <r>    -8.1354     0.0000    56.0000 </r>
       <r>    -7.9827     0.0000    56.0000 </r>
       <r>    -7.8300     0.0000    56.0000 </r>
       <r>    -7.6773     0.0000    56.0000 </r>
       <r>    -7.5246     0.9670    56.3532 </r>
       <r>    -7.3719     0.9664    56.5009 </r>
       <r>    -7.2192     0.9659    56.6484 </r>
       <r>    -7.0665     3.7609    56.9399 </r>
       <r>    -6.9137    11.8091    58.5427 </r>
       <r>    -6.7610    12.2056    60.0328 </r>
       <r>    -6.6083    11.1310    62.5337 </r>
       <r>    -6.4556     7.3813    64.1486 </r>
       <r>    -6.3029     7.3707    65.2479 </r>
       <r>    -6.1502     6.2664    66.1622 </r>
       <r>    -5.9975    10.6383    67.4622 </r>
       <r>    -5.8448    16.6717    69.2878 </r>
       <r>    -5.6921    11.5863    71.2783 </r>
       <r>    -5.5393    16.9482    73.3262 </r>
       <r>    -5.3866    12.9190    75.3269 </r>
       <r>    -5.2339    14.4765    77.4113 </r>
       <r>    -5.0812    13.4376    79.9047 </r>
       <r>    -4.9285    14.2573    82.1006 </r>
       <r>    -4.7758    15.3298    84.0909 </r>
       <r>    -4.6231    15.2757    86.5840 </r>
       <r>    -4.4704     8.5324    88.0711 </r>
       <r>    -4.3176    13.1671    89.6567 </r>
       <r>    -4.1649    21.8376    91.8370 </r>
       <r>    -4.0122    11.3015    94.7007 </r>
       <r>    -3.8595     8.9251    96.3346 </r>
       <r>    -3.7068    10.4047    98.7541 </r>
       <r>    -3.5541    11.2813   100.3745 </r>
       <r>    -3.4014     9.5273   102.1804 </r>
       <r>    -3.2487     6.0552   103.3721 </r>
       <r>    -3.0960    11.1710   104.6145 </r>
       <r>    -2.9432    11.1085   106.2635 </r>
       <r>    -2.7905    15.1392   109.4995 </r>
       <r>    -2.6378     9.1071   111.0978 </r>
       <r>    -2.4851     1.5389   111.9248 </r>
       <r>    -2.3324    12.2735   112.6072 </r>
       <r>    -2.1797     7.2680   113.9638 </r>
       <r>    -2.0270     9.4031   115.6735 </r>
       <r>    -1.8743     3.4862   117.7307 </r>
       <r>    -1.7216     7.9168   118.2555 </r>
       <r>    -1.5688     6.0803   119.3389 </r>
       <r>    -1.4161     3.2692   120.0129 </r>
       <r>    -1.2634    13.4751   121.2051 </r>
       <r>    -1.1107     4.3001   122.8165 </r>
       <r>    -0.9580    16.3825   124.8206 </r>
       <r>    -0.8053    16.5450   127.2589 </r>
       <r>    -0.6526    11.2479   130.5899 </r>
       <r>    -0.4999     7.8148   131.7971 </r>
       <r>    -0.3471     7.9592   133.1259 </r>
       <r>    -0.1944     3.9857   134.0250 </r>
       <r>    -0.0417     3.1489   134.6198 </r>
       <r>     0.1110     7.4668   135.3390 </r>
       <r>     0.2637     3.0169   135.9720 </r>
       <r>     0.4164     8.8218   136.8094 </r>
       <r>     0.5691     6.2468   138.0433 </r>
       <r>     0.7218     7.3823   139.3207 </r>
       <r>     0.8745     8.6981   140.4028 </r>
       <r>     1.0273     7.9604   141.6724 </r>
       <r>     1.1800     3.3136   142.3584 </r>
       <r>     1.3327     6.9882   142.9875 </r>
       <r>     1.4854     5.7039   144.4766 </r>
       <r>     1.6381     4.4080   145.2418 </r>
       <r>     1.7908     3.5227   145.8438 </r>
       <r>     1.9435     2.5647   146.7489 </r>
       <r>     2.0962     2.3254   147.1222 </r>
       <r>     2.2489     1.5101   147.5039 </r>
       <r>     2.4017     0.3939   147.8638 </r>
       <r>     2.5544     0.3070   147.9173 </r>
       <r>     2.7071     5.2273   148.3117 </r>
       <r>     2.8598     3.0774   148.9736 </r>
       <r>     3.0125     3.0513   149.4416 </r>
       <r>     3.1652    13.6840   150.3908 </r>
       <r>     3.3179     1.5862   150.8989 </r>
       <r>     3.4706     3.9515   151.2716 </r>
       <r>     3.6234     0.5362   151.5182 </r>
       <r>     3.7761     0.5188   151.5987 </r>
       <r>     3.9288     0.5013   151.6766 </r>
       <r>     4.0815     0.4839   151.7518 </r>
       <r>     4.2342     0.5800   151.8316 </r>
       <r>     4.3869     0.4183   151.9206 </r>
       <r>     4.5396     0.1707   151.9562 </r>
       <r>     4.6923     0.1199   151.9784 </r>
       <r>     4.8450     0.0692   151.9928 </r>
       <r>     4.9978     0.0184   151.9995 </r>
       <r>     5.1505     0.0000   152.0000 </r>
       <r>     5.3032     0.0000   152.0000 </r>
       <r>     5.4559     0.0000   152.0000 </r>
       <r>     5.6086     0.0000   152.0000 </r>
       <r>     5.7613     0.0000   152.0000 </r>
       <r>     5.9140     0.0000   152.0000 </r>
       <r>     6.0667     0.0000   152.0000 </r>
       <r>     6.2194     0.0000   152.0000 </r>
       <r>     6.3722     0.0000   152.0000 </r>
       <r>     6.5249     0.0000   152.0000 </r>
       <r>     6.6776     0.0000   152.0000 </r>
       <r>     6.8303     0.0000   152.0000 </r>
       <r>     6.9830     0.0000   152.0000 </r>
       <r>     7.1357     0.0000   152.0000 </r>
      </set>
     </set>
    </array>
   </total>
  </dos>
 </calculation>
 <structure name="finalpos" >
  <crystal>
   <varray name="basis" >
    <v>       5.52288297       0.00000000       0.00000000 </v>
    <v>       0.00000000       3.90526800       0.00000000 </v>
    <v>       0.00000000       0.00000000      21.66504520 </v>
   </varray>
   <i name="volume">    467.27902047 </i>
   <varray name="rec_basis" >
    <v>       0.18106485       0.00000000       0.00000000 </v>
    <v>       0.00000000       0.25606437       0.00000000 </v>
    <v>       0.00000000       0.00000000       0.04615730 </v>
   </varray>
  </crystal>
  <varray name="positions" >
   <v>       0.50000000       0.00000000       0.27694380 </v>
   <v>       0.25000000       0.50000000       0.34067414 </v>
   <v>       0.75000000       0.50000000       0.34067414 </v>
   <v>       0.00000000       0.00000000       0.40440449 </v>
   <v>       0.75000000       0.50000000       0.46813483 </v>
   <v>       0.25000000       0.50000000       0.46813483 </v>
   <v>       0.50000000       0.00000000       0.53186517 </v>
   <v>       0.25000000       0.50000000       0.59559551 </v>
   <v>       0.75000000       0.50000000       0.59559551 </v>
   <v>       0.00000000       0.00000000       0.65932586 </v>
   <v>       0.75000000       0.50000000       0.72305620 </v>
   <v>       0.25000000       0.50000000       0.72305620 </v>
   <v>       0.00000000       0.00000000       0.27694380 </v>
   <v>       0.50000000       0.00000000       0.40440449 </v>
   <v>       0.00000000       0.00000000       0.53186517 </v>
   <v>       0.50000000       0.00000000       0.65932586 </v>
   <v>       0.50000000       0.50000000       0.27694380 </v>
   <v>       0.00000000       0.50000000       0.40440449 </v>
   <v>       0.50000000       0.50000000       0.53186517 </v>
   <v>       0.00000000       0.50000000       0.65932586 </v>
  </varray>
 </structure>
</modeling>
