unknown system                          
   1.00000000000000     
     3.905268    0.000000    0.000000
     0.000000    3.905268    0.000000
     0.000000    0.000000    3.905268
   Sr   Ti   O 
     1     1     3
Direct
  0.000000  0.000000  0.000000
  0.500000  0.500000  0.500000
  0.500000  0.500000  0.000000
  0.500000  0.000000  0.500000
  0.000000  0.500000  0.500000
 
   48   48   48
  193.25      193.28      192.87      190.76      185.40      175.54      160.70      141.36      118.90      95.289    
  72.652      52.766      36.709      24.739      16.423      10.933      7.4208      5.2403      3.9098      3.1052    
  2.6234      2.3414      2.1845      2.1071      2.0840      2.1071      2.1845      2.3414      2.6234      3.1052    
  3.9098      5.2403      7.4208      10.933      16.423      24.739      36.709      52.766      72.652      95.289    
  118.90      141.36      160.70      175.54      185.40      190.76      192.87      193.28      193.28      193.22    
  192.58      190.15      184.44      174.29      159.26      139.85      117.44      93.995      71.589      51.958    
  36.141      24.369      16.199      10.805      7.3559      5.2141      3.9070      3.1164      2.6432      2.3664    
  2.2125      2.1368      2.1142      2.1368      2.2125      2.3664      2.6432      3.1164      3.9070      5.2141    
  7.3559      10.805      16.199      24.369      36.141      51.958      71.589      93.995      117.44      139.85    
  159.26      174.29      184.44      190.15      192.58      193.22      192.87      192.58      191.30      187.98    
  181.34      170.40      154.86      135.31      113.12      90.183      68.475      49.602      34.492      23.299    
  15.553      10.442      7.1731      5.1439      3.9054      3.1566      2.7091      2.4483      2.3041      2.2335    
  2.2125      2.2335      2.3041      2.4483      2.7091      3.1566      3.9054      5.1439      7.1731      10.442    
  15.553      23.299      34.492      49.602      68.475      90.183      113.12      135.31      154.86      170.40    
  181.34      187.98      191.30      192.58      190.76      190.15      187.98      183.44      175.52      163.54    
  147.40      127.79      106.08      84.066      63.534      45.901      31.922      21.645      14.563      9.8895    
  6.9044      5.0522      3.9223      3.2407      2.8356      2.6017      2.4741      2.4125      2.3944      2.4125    
  2.4741      2.6017      2.8356      3.2407      3.9223      5.0522      6.9044      9.8895      14.563      21.645    
  31.922      45.901      63.534      84.066      106.08      127.79      147.40      163.54      175.52      183.44    
  187.98      190.15      185.40      184.44      181.34      175.52      166.33      153.37      136.82      117.46    
  96.650      76.016      57.134      41.170      28.677      19.579      13.339      9.2211      6.5966      4.9706    
  3.9815      3.3884      3.0403      2.8435      2.7392      2.6905      2.6765      2.6905      2.7392      2.8435    
  3.0403      3.3884      3.9815      4.9706      6.5966      9.2211      13.339      19.579      28.677      41.170    
  57.134      76.016      96.650      117.46      136.82      153.37      166.33      175.52      181.34      184.44    
  175.54      174.29      170.40      163.54      153.37      139.85      123.34      104.73      85.325      66.565    
  49.762      35.813      25.057      17.306      12.010      8.5209      6.3057      4.9394      4.1150      3.6289    
  3.3521      3.2033      3.1301      3.0990      3.0906      3.0990      3.1301      3.2033      3.3521      3.6289    
  4.1150      4.9394      6.3057      8.5209      12.010      17.306      25.057      35.813      49.762      66.565    
  85.325      104.73      123.34      139.85      153.37      163.54      170.40      174.29      160.70      159.26    
  154.86      147.40      136.82      123.34      107.51      90.270      72.813      56.373      41.981      30.265    
  21.373      15.030      10.709      7.8768      6.0934      5.0075      4.3684      4.0090      3.8218      3.7366    
  3.7064      3.7002      3.7001      3.7002      3.7064      3.7366      3.8218      4.0090      4.3684      5.0075    
  6.0934      7.8768      10.709      15.030      21.373      30.265      41.981      56.373      72.813      90.270    
  107.51      123.34      136.82      147.40      154.86      159.26      141.36      139.85      135.31      127.79    
  117.46      104.73      90.270      74.995      59.959      46.162      34.361      24.944      17.906      12.929    
  9.5551      7.3724      6.0249      5.2344      4.8028      4.5960      4.5241      4.5255      4.5566      4.5871    
  4.5993      4.5871      4.5566      4.5255      4.5241      4.5960      4.8028      5.2344      6.0249      7.3724    
  9.5551      12.929      17.906      24.944      34.361      46.162      59.959      74.995      90.270      104.73    
  117.46      127.79      135.31      139.85      118.90      117.44      113.12      106.08      96.650      85.325    
  72.813      59.959      47.641      36.617      27.399      20.184      14.867      11.137      8.6485      7.0842    
  6.1692      5.6911      5.4967      5.4781      5.5579      5.6787      5.7968      5.8807      5.9108      5.8807    
  5.7968      5.6787      5.5579      5.4781      5.4967      5.6911      6.1692      7.0842      8.6485      11.137    
  14.867      20.184      27.399      36.617      47.641      59.959      72.813      85.325      96.650      106.08    
  113.12      117.44      95.289      93.995      90.183      84.066      76.016      66.565      56.373      46.162    
  36.617      28.274      21.447      16.199      12.381      9.7515      8.0649      7.0825      6.6014      6.4637    
  6.5504      6.7711      7.0543      7.3412      7.5836      7.7446      7.8010      7.7446      7.5836      7.3412    
  7.0543      6.7711      6.5504      6.4637      6.6014      7.0825      8.0649      9.7515      12.381      16.199    
  21.447      28.274      36.617      46.162      56.373      66.565      76.016      84.066      90.183      93.995    
  72.652      71.589      68.475      63.534      57.134      49.762      41.981      34.361      27.399      21.447    
  16.674      13.068      10.504      8.8274      7.8601      7.4336      7.4041      7.6546      8.0889      8.6250    
  9.1889      9.7129      10.137      10.413      10.508      10.413      10.137      9.7129      9.1889      8.6250    
  8.0889      7.6546      7.4041      7.4336      7.8601      8.8274      10.504      13.068      16.674      21.447    
  27.399      34.361      41.981      49.762      57.134      63.534      68.475      71.589      52.766      51.958    
  49.602      45.901      41.170      35.813      30.265      24.944      20.184      16.199      13.068      10.772    
  9.2460      8.3856      8.0742      8.2010      8.6667      9.3830      10.267      11.235      12.201      13.077    
  13.779      14.233      14.390      14.233      13.779      13.077      12.201      11.235      10.267      9.3830    
  8.6667      8.2010      8.0742      8.3856      9.2460      10.772      13.068      16.199      20.184      24.944    
  30.265      35.813      41.170      45.901      49.602      51.958      36.709      36.141      34.492      31.922    
  28.677      25.057      21.373      17.906      14.867      12.381      10.504      9.2460      8.5716      8.4237    
  8.7373      9.4467      10.487      11.792      13.284      14.872      16.443      17.871      19.019      19.765    
  20.024      19.765      19.019      17.871      16.443      14.872      13.284      11.792      10.487      9.4467    
  8.7373      8.4237      8.5716      9.2460      10.504      12.381      14.867      17.906      21.373      25.057    
  28.677      31.922      34.492      36.141      24.739      24.369      23.299      21.645      19.579      17.306    
  15.030      12.929      11.137      9.7515      8.8274      8.3856      8.4237      8.9267      9.8724      11.235    
  12.983      15.071      17.430      19.953      22.480      24.806      26.700      27.943      28.376      27.943    
  26.700      24.806      22.480      19.953      17.430      15.071      12.983      11.235      9.8724      8.9267    
  8.4237      8.3856      8.8274      9.7515      11.137      12.929      15.030      17.306      19.579      21.645    
  23.299      24.369      16.423      16.199      15.553      14.563      13.339      12.010      10.709      9.5551    
  8.6485      8.0649      7.8601      8.0742      8.7373      9.8724      11.500      13.639      16.304      19.486    
  23.133      27.111      31.179      34.991      38.137      40.220      40.949      40.220      38.137      34.991    
  31.179      27.111      23.133      19.486      16.304      13.639      11.500      9.8724      8.7373      8.0742    
  7.8601      8.0649      8.6485      9.5551      10.709      12.010      13.339      14.563      15.553      16.199    
  10.933      10.805      10.442      9.8895      9.2211      8.5209      7.8768      7.3724      7.0842      7.0825    
  7.4336      8.2010      9.4467      11.235      13.639      16.745      20.642      25.391      30.973      37.212    
  43.726      49.924      55.092      58.534      59.743      58.534      55.092      49.924      43.726      37.212    
  30.973      25.391      20.642      16.745      13.639      11.235      9.4467      8.2010      7.4336      7.0825    
  7.0842      7.3724      7.8768      8.5209      9.2211      9.8895      10.442      10.805      7.4208      7.3559    
  7.1731      6.9044      6.5966      6.3057      6.0934      6.0249      6.1692      6.6014      7.4041      8.6667    
  10.487      12.983      16.304      20.642      26.213      33.195      41.620      51.241      61.434      71.238    
  79.579      85.254      87.273      85.254      79.579      71.238      61.434      51.241      41.620      33.195    
  26.213      20.642      16.304      12.983      10.487      8.6667      7.4041      6.6014      6.1692      6.0249    
  6.0934      6.3057      6.5966      6.9044      7.1731      7.3559      5.2403      5.2141      5.1439      5.0522    
  4.9706      4.9394      5.0075      5.2344      5.6911      6.4637      7.6546      9.3830      11.792      15.071    
  19.486      25.391      33.195      43.245      55.637      69.989      85.653      101.45      115.29      124.83    
  128.24      124.83      115.29      101.45      85.653      69.989      55.637      43.245      33.195      25.391    
  19.486      15.071      11.792      9.3830      7.6546      6.4637      5.6911      5.2344      5.0075      4.9394    
  4.9706      5.0522      5.1439      5.2141      3.9098      3.9070      3.9054      3.9223      3.9815      4.1150    
  4.3684      4.8028      5.4967      6.5504      8.0889      10.267      13.284      17.430      23.133      30.973    
  41.620      55.637      73.186      94.409      118.68      143.55      165.31      180.20      185.50      180.20    
  165.31      143.55      118.68      94.409      73.186      55.637      41.620      30.973      23.133      17.430    
  13.284      10.267      8.0889      6.5504      5.4967      4.8028      4.3684      4.1150      3.9815      3.9223    
  3.9054      3.9070      3.1052      3.1164      3.1566      3.2407      3.3884      3.6289      4.0090      4.5960    
  5.4781      6.7711      8.6250      11.235      14.872      19.953      27.111      37.212      51.241      69.989    
  94.409      125.28      160.88      196.92      227.86      248.65      255.95      248.65      227.86      196.92    
  160.88      125.28      94.409      69.989      51.241      37.212      27.111      19.953      14.872      11.235    
  8.6250      6.7711      5.4781      4.5960      4.0090      3.6289      3.3884      3.2407      3.1566      3.1164    
  2.6234      2.6432      2.7091      2.8356      3.0403      3.3521      3.8218      4.5241      5.5579      7.0543    
  9.1889      12.201      16.443      22.480      31.179      43.726      61.434      85.653      118.68      160.88    
  208.86      256.15      295.54      321.30      330.21      321.30      295.54      256.15      208.86      160.88    
  118.68      85.653      61.434      43.726      31.179      22.480      16.443      12.201      9.1889      7.0543    
  5.5579      4.5241      3.8218      3.3521      3.0403      2.8356      2.7091      2.6432      2.3414      2.3664    
  2.4483      2.6017      2.8435      3.2033      3.7366      4.5255      5.6787      7.3412      9.7129      13.077    
  17.871      24.806      34.991      49.924      71.238      101.45      143.55      196.92      256.15      312.63    
  357.93      386.55      396.25      386.55      357.93      312.63      256.15      196.92      143.55      101.45    
  71.238      49.924      34.991      24.806      17.871      13.077      9.7129      7.3412      5.6787      4.5255    
  3.7366      3.2033      2.8435      2.6017      2.4483      2.3664      2.1845      2.2125      2.3041      2.4741    
  2.7392      3.1301      3.7064      4.5566      5.7968      7.5836      10.137      13.779      19.019      26.700    
  38.137      55.092      79.579      115.29      165.31      227.86      295.54      357.93      406.03      435.29    
  444.95      435.29      406.03      357.93      295.54      227.86      165.31      115.29      79.579      55.092    
  38.137      26.700      19.019      13.779      10.137      7.5836      5.7968      4.5566      3.7064      3.1301    
  2.7392      2.4741      2.3041      2.2125      2.1071      2.1368      2.2335      2.4125      2.6905      3.0990    
  3.7002      4.5871      5.8807      7.7446      10.413      14.233      19.765      27.943      40.220      58.534    
  85.254      124.83      180.20      248.65      321.30      386.55      435.29      463.96      473.21      463.96    
  435.29      386.55      321.30      248.65      180.20      124.83      85.254      58.534      40.220      27.943    
  19.765      14.233      10.413      7.7446      5.8807      4.5871      3.7002      3.0990      2.6905      2.4125    
  2.2335      2.1368      2.0840      2.1142      2.2125      2.3944      2.6765      3.0906      3.7001      4.5993    
  5.9108      7.8010      10.508      14.390      20.024      28.376      40.949      59.743      87.273      128.24    
  185.50      255.95      330.21      396.25      444.95      473.21      482.24      473.21      444.95      396.25    
  330.21      255.95      185.50      128.24      87.273      59.743      40.949      28.376      20.024      14.390    
  10.508      7.8010      5.9108      4.5993      3.7001      3.0906      2.6765      2.3944      2.2125      2.1142    
  2.1071      2.1368      2.2335      2.4125      2.6905      3.0990      3.7002      4.5871      5.8807      7.7446    
  10.413      14.233      19.765      27.943      40.220      58.534      85.254      124.83      180.20      248.65    
  321.30      386.55      435.29      463.96      473.21      463.96      435.29      386.55      321.30      248.65    
  180.20      124.83      85.254      58.534      40.220      27.943      19.765      14.233      10.413      7.7446    
  5.8807      4.5871      3.7002      3.0990      2.6905      2.4125      2.2335      2.1368      2.1845      2.2125    
  2.3041      2.4741      2.7392      3.1301      3.7064      4.5566      5.7968      7.5836      10.137      13.779    
  19.019      26.700      38.137      55.092      79.579      115.29      165.31      227.86      295.54      357.93    
  406.03      435.29      444.95      435.29      406.03      357.93      295.54      227.86      165.31      115.29    
  79.579      55.092      38.137      26.700      19.019      13.779      10.137      7.5836      5.7968      4.5566    
  3.7064      3.1301      2.7392      2.4741      2.3041      2.2125      2.3414      2.3664      2.4483      2.6017    
  2.8435      3.2033      3.7366      4.5255      5.6787      7.3412      9.7129      13.077      17.871      24.806    
  34.991      49.924      71.238      101.45      143.55      196.92      256.15      312.63      357.93      386.55    
  396.25      386.55      357.93      312.63      256.15      196.92      143.55      101.45      71.238      49.924    
  34.991      24.806      17.871      13.077      9.7129      7.3412      5.6787      4.5255      3.7366      3.2033    
  2.8435      2.6017      2.4483      2.3664      2.6234      2.6432      2.7091      2.8356      3.0403      3.3521    
  3.8218      4.5241      5.5579      7.0543      9.1889      12.201      16.443      22.480      31.179      43.726    
  61.434      85.653      118.68      160.88      208.86      256.15      295.54      321.30      330.21      321.30    
  295.54      256.15      208.86      160.88      118.68      85.653      61.434      43.726      31.179      22.480    
  16.443      12.201      9.1889      7.0543      5.5579      4.5241      3.8218      3.3521      3.0403      2.8356    
  2.7091      2.6432      3.1052      3.1164      3.1566      3.2407      3.3884      3.6289      4.0090      4.5960    
  5.4781      6.7711      8.6250      11.235      14.872      19.953      27.111      37.212      51.241      69.989    
  94.409      125.28      160.88      196.92      227.86      248.65      255.95      248.65      227.86      196.92    
  160.88      125.28      94.409      69.989      51.241      37.212      27.111      19.953      14.872      11.235    
  8.6250      6.7711      5.4781      4.5960      4.0090      3.6289      3.3884      3.2407      3.1566      3.1164    
  3.9098      3.9070      3.9054      3.9223      3.9815      4.1150      4.3684      4.8028      5.4967      6.5504    
  8.0889      10.267      13.284      17.430      23.133      30.973      41.620      55.637      73.186      94.409    
  118.68      143.55      165.31      180.20      185.50      180.20      165.31      143.55      118.68      94.409    
  73.186      55.637      41.620      30.973      23.133      17.430      13.284      10.267      8.0889      6.5504    
  5.4967      4.8028      4.3684      4.1150      3.9815      3.9223      3.9054      3.9070      5.2403      5.2141    
  5.1439      5.0522      4.9706      4.9394      5.0075      5.2344      5.6911      6.4637      7.6546      9.3830    
  11.792      15.071      19.486      25.391      33.195      43.245      55.637      69.989      85.653      101.45    
  115.29      124.83      128.24      124.83      115.29      101.45      85.653      69.989      55.637      43.245    
  33.195      25.391      19.486      15.071      11.792      9.3830      7.6546      6.4637      5.6911      5.2344    
  5.0075      4.9394      4.9706      5.0522      5.1439      5.2141      7.4208      7.3559      7.1731      6.9044    
  6.5966      6.3057      6.0934      6.0249      6.1692      6.6014      7.4041      8.6667      10.487      12.983    
  16.304      20.642      26.213      33.195      41.620      51.241      61.434      71.238      79.579      85.254    
  87.273      85.254      79.579      71.238      61.434      51.241      41.620      33.195      26.213      20.642    
  16.304      12.983      10.487      8.6667      7.4041      6.6014      6.1692      6.0249      6.0934      6.3057    
  6.5966      6.9044      7.1731      7.3559      10.933      10.805      10.442      9.8895      9.2211      8.5209    
  7.8768      7.3724      7.0842      7.0825      7.4336      8.2010      9.4467      11.235      13.639      16.745    
  20.642      25.391      30.973      37.212      43.726      49.924      55.092      58.534      59.743      58.534    
  55.092      49.924      43.726      37.212      30.973      25.391      20.642      16.745      13.639      11.235    
  9.4467      8.2010      7.4336      7.0825      7.0842      7.3724      7.8768      8.5209      9.2211      9.8895    
  10.442      10.805      16.423      16.199      15.553      14.563      13.339      12.010      10.709      9.5551    
  8.6485      8.0649      7.8601      8.0742      8.7373      9.8724      11.500      13.639      16.304      19.486    
  23.133      27.111      31.179      34.991      38.137      40.220      40.949      40.220      38.137      34.991    
  31.179      27.111      23.133      19.486      16.304      13.639      11.500      9.8724      8.7373      8.0742    
  7.8601      8.0649      8.6485      9.5551      10.709      12.010      13.339      14.563      15.553      16.199    
  24.739      24.369      23.299      21.645      19.579      17.306      15.030      12.929      11.137      9.7515    
  8.8274      8.3856      8.4237      8.9267      9.8724      11.235      12.983      15.071      17.430      19.953    
  22.480      24.806      26.700      27.943      28.376      27.943      26.700      24.806      22.480      19.953    
  17.430      15.071      12.983      11.235      9.8724      8.9267      8.4237      8.3856      8.8274      9.7515    
  11.137      12.929      15.030      17.306      19.579      21.645      23.299      24.369      36.709      36.141    
  34.492      31.922      28.677      25.057      21.373      17.906      14.867      12.381      10.504      9.2460    
  8.5716      8.4237      8.7373      9.4467      10.487      11.792      13.284      14.872      16.443      17.871    
  19.019      19.765      20.024      19.765      19.019      17.871      16.443      14.872      13.284      11.792    
  10.487      9.4467      8.7373      8.4237      8.5716      9.2460      10.504      12.381      14.867      17.906    
  21.373      25.057      28.677      31.922      34.492      36.141      52.766      51.958      49.602      45.901    
  41.170      35.813      30.265      24.944      20.184      16.199      13.068      10.772      9.2460      8.3856    
  8.0742      8.2010      8.6667      9.3830      10.267      11.235      12.201      13.077      13.779      14.233    
  14.390      14.233      13.779      13.077      12.201      11.235      10.267      9.3830      8.6667      8.2010    
  8.0742      8.3856      9.2460      10.772      13.068      16.199      20.184      24.944      30.265      35.813    
  41.170      45.901      49.602      51.958      72.652      71.589      68.475      63.534      57.134      49.762    
  41.981      34.361      27.399      21.447      16.674      13.068      10.504      8.8274      7.8601      7.4336    
  7.4041      7.6546      8.0889      8.6250      9.1889      9.7129      10.137      10.413      10.508      10.413    
  10.137      9.7129      9.1889      8.6250      8.0889      7.6546      7.4041      7.4336      7.8601      8.8274    
  10.504      13.068      16.674      21.447      27.399      34.361      41.981      49.762      57.134      63.534    
  68.475      71.589      95.289      93.995      90.183      84.066      76.016      66.565      56.373      46.162    
  36.617      28.274      21.447      16.199      12.381      9.7515      8.0649      7.0825      6.6014      6.4637    
  6.5504      6.7711      7.0543      7.3412      7.5836      7.7446      7.8010      7.7446      7.5836      7.3412    
  7.0543      6.7711      6.5504      6.4637      6.6014      7.0825      8.0649      9.7515      12.381      16.199    
  21.447      28.274      36.617      46.162      56.373      66.565      76.016      84.066      90.183      93.995    
  118.90      117.44      113.12      106.08      96.650      85.325      72.813      59.959      47.641      36.617    
  27.399      20.184      14.867      11.137      8.6485      7.0842      6.1692      5.6911      5.4967      5.4781    
  5.5579      5.6787      5.7968      5.8807      5.9108      5.8807      5.7968      5.6787      5.5579      5.4781    
  5.4967      5.6911      6.1692      7.0842      8.6485      11.137      14.867      20.184      27.399      36.617    
  47.641      59.959      72.813      85.325      96.650      106.08      113.12      117.44      141.36      139.85    
  135.31      127.79      117.46      104.73      90.270      74.995      59.959      46.162      34.361      24.944    
  17.906      12.929      9.5551      7.3724      6.0249      5.2344      4.8028      4.5960      4.5241      4.5255    
  4.5566      4.5871      4.5993      4.5871      4.5566      4.5255      4.5241      4.5960      4.8028      5.2344    
  6.0249      7.3724      9.5551      12.929      17.906      24.944      34.361      46.162      59.959      74.995    
  90.270      104.73      117.46      127.79      135.31      139.85      160.70      159.26      154.86      147.40    
  136.82      123.34      107.51      90.270      72.813      56.373      41.981      30.265      21.373      15.030    
  10.709      7.8768      6.0934      5.0075      4.3684      4.0090      3.8218      3.7366      3.7064      3.7002    
  3.7001      3.7002      3.7064      3.7366      3.8218      4.0090      4.3684      5.0075      6.0934      7.8768    
  10.709      15.030      21.373      30.265      41.981      56.373      72.813      90.270      107.51      123.34    
  136.82      147.40      154.86      159.26      175.54      174.29      170.40      163.54      153.37      139.85    
  123.34      104.73      85.325      66.565      49.762      35.813      25.057      17.306      12.010      8.5209    
  6.3057      4.9394      4.1150      3.6289      3.3521      3.2033      3.1301      3.0990      3.0906      3.0990    
  3.1301      3.2033      3.3521      3.6289      4.1150      4.9394      6.3057      8.5209      12.010      17.306    
  25.057      35.813      49.762      66.565      85.325      104.73      123.34      139.85      153.37      163.54    
  170.40      174.29      185.40      184.44      181.34      175.52      166.33      153.37      136.82      117.46    
  96.650      76.016      57.134      41.170      28.677      19.579      13.339      9.2211      6.5966      4.9706    
  3.9815      3.3884      3.0403      2.8435      2.7392      2.6905      2.6765      2.6905      2.7392      2.8435    
  3.0403      3.3884      3.9815      4.9706      6.5966      9.2211      13.339      19.579      28.677      41.170    
  57.134      76.016      96.650      117.46      136.82      153.37      166.33      175.52      181.34      184.44    
  190.76      190.15      187.98      183.44      175.52      163.54      147.40      127.79      106.08      84.066    
  63.534      45.901      31.922      21.645      14.563      9.8895      6.9044      5.0522      3.9223      3.2407    
  2.8356      2.6017      2.4741      2.4125      2.3944      2.4125      2.4741      2.6017      2.8356      3.2407    
  3.9223      5.0522      6.9044      9.8895      14.563      21.645      31.922      45.901      63.534      84.066    
  106.08      127.79      147.40      163.54      175.52      183.44      187.98      190.15      192.87      192.58    
  191.30      187.98      181.34      170.40      154.86      135.31      113.12      90.183      68.475      49.602    
  34.492      23.299      15.553      10.442      7.1731      5.1439      3.9054      3.1566      2.7091      2.4483    
  2.3041      2.2335      2.2125      2.2335      2.3041      2.4483      2.7091      3.1566      3.9054      5.1439    
  7.1731      10.442      15.553      23.299      34.492      49.602      68.475      90.183      113.12      135.31    
  154.86      170.40      181.34      187.98      191.30      192.58      193.28      193.22      192.58      190.15    
  184.44      174.29      159.26      139.85      117.44      93.995      71.589      51.958      36.141      24.369    
  16.199      10.805      7.3559      5.2141      3.9070      3.1164      2.6432      2.3664      2.2125      2.1368    
  2.1142      2.1368      2.2125      2.3664      2.6432      3.1164      3.9070      5.2141      7.3559      10.805    
  16.199      24.369      36.141      51.958      71.589      93.995      117.44      139.85      159.26      174.29    
  184.44      190.15      192.58      193.22      193.28      193.22      192.58      190.15      184.44      174.29    
  159.26      139.85      117.44      93.995      71.589      51.958      36.141      24.369      16.199      10.805    
  7.3559      5.2141      3.9070      3.1164      2.6432      2.3664      2.2125      2.1368      2.1142      2.1368    
  2.2125      2.3664      2.6432      3.1164      3.9070      5.2141      7.3559      10.805      16.199      24.369    
  36.141      51.958      71.589      93.995      117.44      139.85      159.26      174.29      184.44      190.15    
  192.58      193.22      193.22      193.08      192.22      189.48      183.45      173.02      157.80      138.33    
  115.99      92.712      70.538      51.161      35.582      24.005      15.978      10.680      7.2921      5.1882    
  3.9041      3.1274      2.6626      2.3909      2.2401      2.1659      2.1438      2.1659      2.2401      2.3909    
  2.6626      3.1274      3.9041      5.1882      7.2921      10.680      15.978      24.005      35.582      51.161    
  70.538      92.712      115.99      138.33      157.80      173.02      183.45      189.48      192.22      193.08    
  192.58      192.22      190.75      187.16      180.24      169.06      153.38      133.80      111.69      88.934    
  67.461      48.838      33.958      22.953      15.344      10.322      7.1120      5.1188      3.9021      3.1666    
  2.7272      2.4714      2.3301      2.2610      2.2405      2.2610      2.3301      2.4714      2.7272      3.1666    
  3.9021      5.1188      7.1120      10.322      15.344      22.953      33.958      48.838      67.461      88.934    