unknown system                          
   1.00000000000000     
     3.905268    0.000000    0.000000
     0.000000    3.905268    0.000000
     0.000000    0.000000    3.905268
   Sr   Ti   O 
     1     1     3
Direct
  0.000000  0.000000  0.000000
  0.500000  0.500000  0.500000
  0.500000  0.500000  0.000000
  0.500000  0.000000  0.500000
  0.000000  0.500000  0.500000
 
   48   48   48
 0.19325140450E+03 0.19327738882E+03 0.19286800787E+03 0.19075699315E+03 0.18539602463E+03
 0.17553912866E+03 0.16070026973E+03 0.14136002878E+03 0.11889766101E+03 0.95289029668E+02
 0.72652370802E+02 0.52766199429E+02 0.36709316762E+02 0.24738902527E+02 0.16422686303E+02
 0.10932541218E+02 0.74207520094E+01 0.52402552004E+01 0.39097821333E+01 0.31051563717E+01
 0.26233805704E+01 0.23414120503E+01 0.21844855202E+01 0.21071006127E+01 0.20840311231E+01
 0.21071006127E+01 0.21844855202E+01 0.23414120503E+01 0.26233805704E+01 0.31051563717E+01
 0.39097821333E+01 0.52402552004E+01 0.74207520094E+01 0.10932541218E+02 0.16422686303E+02
 0.24738902527E+02 0.36709316762E+02 0.52766199429E+02 0.72652370802E+02 0.95289029668E+02
 0.11889766101E+03 0.14136002878E+03 0.16070026973E+03 0.17553912866E+03 0.18539602463E+03
 0.19075699315E+03 0.19286800787E+03 0.19327738882E+03 0.19327738882E+03 0.19321953750E+03
 0.19257929662E+03 0.19014531728E+03 0.18444101308E+03 0.17428923659E+03 0.15925513490E+03
 0.13984569817E+03 0.11744095054E+03 0.93995169629E+02 0.71589234712E+02 0.51958022563E+02
 0.36141038993E+02 0.24368899781E+02 0.16198681605E+02 0.10805491653E+02 0.73559424109E+01
 0.52140805369E+01 0.39069727702E+01 0.31164130480E+01 0.26431747017E+01 0.23664033011E+01
 0.22125439239E+01 0.21367631081E+01 0.21141896812E+01 0.21367631081E+01 0.22125439239E+01
 0.23664033011E+01 0.26431747017E+01 0.31164130480E+01 0.39069727702E+01 0.52140805369E+01
 0.73559424109E+01 0.10805491653E+02 0.16198681605E+02 0.24368899781E+02 0.36141038993E+02
 0.51958022563E+02 0.71589234712E+02 0.93995169629E+02 0.11744095054E+03 0.13984569817E+03
 0.15925513490E+03 0.17428923659E+03 0.18444101308E+03 0.19014531728E+03 0.19257929662E+03
 0.19321953750E+03 0.19286800787E+03 0.19257929662E+03 0.19130409135E+03 0.18798446216E+03
 0.18134460412E+03 0.17040047016E+03 0.15486092611E+03 0.13530643706E+03 0.11311704483E+03
 0.90182716251E+02 0.68474979965E+02 0.49602309794E+02 0.34491729370E+02 0.23299211118E+02
 0.15553485324E+02 0.10441605801E+02 0.71731158303E+01 0.51439192347E+01 0.39053813520E+01
 0.31565689725E+01 0.27090872218E+01 0.24483124117E+01 0.23040960958E+01 0.22334551417E+01
 0.22124900924E+01 0.22334551417E+01 0.23040960958E+01 0.24483124117E+01 0.27090872218E+01
 0.31565689725E+01 0.39053813520E+01 0.51439192347E+01 0.71731158303E+01 0.10441605801E+02
 0.15553485324E+02 0.23299211118E+02 0.34491729370E+02 0.49602309794E+02 0.68474979965E+02
 0.90182716251E+02 0.11311704483E+03 0.13530643706E+03 0.15486092611E+03 0.17040047016E+03
 0.18134460412E+03 0.18798446216E+03 0.19130409135E+03 0.19257929662E+03 0.19075699315E+03
 0.19014531728E+03 0.18798446216E+03 0.18343858656E+03 0.17552355498E+03 0.16353686039E+03
 0.14739674844E+03 0.12778796879E+03 0.10608298176E+03 0.84065724477E+02 0.63534140209E+02
 0.45900531386E+02 0.31921671709E+02 0.21644951203E+02 0.14562894350E+02 0.98895178540E+01
 0.69044003592E+01 0.50521519983E+01 0.39223035552E+01 0.32406983152E+01 0.28355538392E+01
 0.26016967821E+01 0.24740836310E+01 0.24124658223E+01 0.23943575657E+01 0.24124658223E+01
 0.24740836310E+01 0.26016967821E+01 0.28355538392E+01 0.32406983152E+01 0.39223035552E+01
 0.50521519983E+01 0.69044003592E+01 0.98895178540E+01 0.14562894350E+02 0.21644951203E+02
 0.31921671709E+02 0.45900531386E+02 0.63534140209E+02 0.84065724477E+02 0.10608298176E+03
 0.12778796879E+03 0.14739674844E+03 0.16353686039E+03 0.17552355498E+03 0.18343858656E+03
 0.18798446216E+03 0.19014531728E+03 0.18539602463E+03 0.18444101308E+03 0.18134460412E+03
 0.17552355498E+03 0.16632676052E+03 0.15337398176E+03 0.13682124078E+03 0.11746452278E+03
 0.96650314407E+02 0.76016041501E+02 0.57133835297E+02 0.41170102596E+02 0.28676737778E+02
 0.19578989112E+02 0.13338657317E+02 0.92210643725E+01 0.65965851991E+01 0.49706455208E+01
 0.39814508468E+01 0.33884096085E+01 0.30402991062E+01 0.28435184296E+01 0.27392292236E+01
 0.26904858035E+01 0.26764907859E+01 0.26904858035E+01 0.27392292236E+01 0.28435184296E+01
 0.30402991062E+01 0.33884096085E+01 0.39814508468E+01 0.49706455208E+01 0.65965851991E+01
 0.92210643725E+01 0.13338657317E+02 0.19578989112E+02 0.28676737778E+02 0.41170102596E+02
 0.57133835297E+02 0.76016041501E+02 0.96650314407E+02 0.11746452278E+03 0.13682124078E+03
 0.15337398176E+03 0.16632676052E+03 0.17552355498E+03 0.18134460412E+03 0.18444101308E+03
 0.17553912866E+03 0.17428923659E+03 0.17040047016E+03 0.16353686039E+03 0.15337398176E+03
 0.13984668208E+03 0.12333756227E+03 0.10473389203E+03 0.85325318251E+02 0.66564633643E+02
 0.49761764622E+02 0.35812514381E+02 0.25056534298E+02 0.17305738317E+02 0.12010120182E+02
 0.85209303283E+01 0.63057071375E+01 0.49393656636E+01 0.41149628603E+01 0.36288837614E+01
 0.33521226657E+01 0.32033416334E+01 0.31301497073E+01 0.30989588972E+01 0.30906422419E+01
 0.30989588972E+01 0.31301497073E+01 0.32033416334E+01 0.33521226657E+01 0.36288837614E+01
 0.41149628603E+01 0.49393656636E+01 0.63057071375E+01 0.85209303283E+01 0.12010120182E+02
 0.17305738317E+02 0.25056534298E+02 0.35812514381E+02 0.49761764622E+02 0.66564633643E+02
 0.85325318251E+02 0.10473389203E+03 0.12333756227E+03 0.13984668208E+03 0.15337398176E+03
 0.16353686039E+03 0.17040047016E+03 0.17428923659E+03 0.16070026973E+03 0.15925513490E+03
 0.15486092611E+03 0.14739674844E+03 0.13682124078E+03 0.12333756227E+03 0.10750900754E+03
 0.90269975239E+02 0.72812508252E+02 0.56372521731E+02 0.41980909991E+02 0.30265419588E+02
 0.21372906223E+02 0.15030227466E+02 0.10708778455E+02 0.78768298420E+01 0.60933960099E+01
 0.50075006815E+01 0.43683562964E+01 0.40090332730E+01 0.38218142452E+01 0.37365571453E+01
 0.37063551907E+01 0.37002057809E+01 0.37001274734E+01 0.37002057809E+01 0.37063551907E+01
 0.37365571453E+01 0.38218142452E+01 0.40090332730E+01 0.43683562964E+01 0.50075006815E+01
 0.60933960099E+01 0.78768298420E+01 0.10708778455E+02 0.15030227466E+02 0.21372906223E+02
 0.30265419588E+02 0.41980909991E+02 0.56372521731E+02 0.72812508252E+02 0.90269975239E+02
 0.10750900754E+03 0.12333756227E+03 0.13682124078E+03 0.14739674844E+03 0.15486092611E+03
 0.15925513490E+03 0.14136002878E+03 0.13984569817E+03 0.13530643706E+03 0.12778796879E+03
 0.11746452278E+03 0.10473389203E+03 0.90269975239E+02 0.74994606147E+02 0.59959099956E+02
 0.46162090941E+02 0.34361049545E+02 0.24944017447E+02 0.17905930007E+02 0.12929103516E+02
 0.95551342599E+01 0.73723886880E+01 0.60248702219E+01 0.52343939061E+01 0.48027853255E+01
 0.45959749044E+01 0.45241411848E+01 0.45255478970E+01 0.45565670230E+01 0.45871199214E+01
 0.45992936003E+01 0.45871199214E+01 0.45565670230E+01 0.45255478970E+01 0.45241411848E+01
 0.45959749044E+01 0.48027853255E+01 0.52343939061E+01 0.60248702219E+01 0.73723886880E+01
 0.95551342599E+01 0.12929103516E+02 0.17905930007E+02 0.24944017447E+02 0.34361049545E+02
 0.46162090941E+02 0.59959099956E+02 0.74994606147E+02 0.90269975239E+02 0.10473389203E+03
 0.11746452278E+03 0.12778796879E+03 0.13530643706E+03 0.13984569817E+03 0.11889766101E+03
 0.11744095054E+03 0.11311704483E+03 0.10608298176E+03 0.96650314407E+02 0.85325318251E+02
 0.72812508252E+02 0.59959099956E+02 0.47640849732E+02 0.36616693604E+02 0.27398768604E+02
 0.20183678170E+02 0.14867241419E+02 0.11137100297E+02 0.86485124425E+01 0.70841725038E+01
 0.61691873125E+01 0.56911297263E+01 0.54967397491E+01 0.54781069729E+01 0.55579437200E+01
 0.56787275015E+01 0.57968435036E+01 0.58806820675E+01 0.59108194917E+01 0.58806820675E+01
 0.57968435036E+01 0.56787275015E+01 0.55579437200E+01 0.54781069729E+01 0.54967397491E+01
 0.56911297263E+01 0.61691873125E+01 0.70841725038E+01 0.86485124425E+01 0.11137100297E+02
 0.14867241419E+02 0.20183678170E+02 0.27398768604E+02 0.36616693604E+02 0.47640849732E+02
 0.59959099956E+02 0.72812508252E+02 0.85325318251E+02 0.96650314407E+02 0.10608298176E+03
 0.11311704483E+03 0.11744095054E+03 0.95289029668E+02 0.93995169629E+02 0.90182716251E+02
 0.84065724477E+02 0.76016041501E+02 0.66564633643E+02 0.56372521731E+02 0.46162090941E+02
 0.36616693604E+02 0.28273953508E+02 0.21446724741E+02 0.16198565105E+02 0.12380876711E+02
 0.97514980700E+01 0.80649295542E+01 0.70824998576E+01 0.66014345190E+01 0.64636764277E+01
 0.65503554739E+01 0.67711054952E+01 0.70543439460E+01 0.73412349412E+01 0.75835927358E+01
 0.77446283487E+01 0.78009852361E+01 0.77446283487E+01 0.75835927358E+01 0.73412349412E+01
 0.70543439460E+01 0.67711054952E+01 0.65503554739E+01 0.64636764277E+01 0.66014345190E+01
 0.70824998576E+01 0.80649295542E+01 0.97514980700E+01 0.12380876711E+02 0.16198565105E+02
 0.21446724741E+02 0.28273953508E+02 0.36616693604E+02 0.46162090941E+02 0.56372521731E+02
 0.66564633643E+02 0.76016041501E+02 0.84065724477E+02 0.90182716251E+02 0.93995169629E+02
 0.72652370802E+02 0.71589234712E+02 0.68474979965E+02 0.63534140209E+02 0.57133835297E+02
 0.49761764622E+02 0.41980909991E+02 0.34361049545E+02 0.27398768604E+02 0.21446724741E+02
 0.16673710088E+02 0.13067814756E+02 0.10504314304E+02 0.88274160222E+01 0.78600655936E+01
 0.74336032016E+01 0.74041410388E+01 0.76545765152E+01 0.80889469936E+01 0.86250374300E+01
 0.91889091801E+01 0.97128726007E+01 0.10136913043E+02 0.10412645125E+02 0.10508265824E+02
 0.10412645125E+02 0.10136913043E+02 0.97128726007E+01 0.91889091801E+01 0.86250374300E+01
 0.80889469936E+01 0.76545765152E+01 0.74041410388E+01 0.74336032016E+01 0.78600655936E+01
 0.88274160222E+01 0.10504314304E+02 0.13067814756E+02 0.16673710088E+02 0.21446724741E+02
 0.27398768604E+02 0.34361049545E+02 0.41980909991E+02 0.49761764622E+02 0.57133835297E+02
 0.63534140209E+02 0.68474979965E+02 0.71589234712E+02 0.52766199429E+02 0.51958022563E+02
 0.49602309794E+02 0.45900531386E+02 0.41170102596E+02 0.35812514381E+02 0.30265419588E+02
 0.24944017447E+02 0.20183678170E+02 0.16198565105E+02 0.13067814756E+02 0.10772076814E+02
 0.92459998201E+01 0.83855724737E+01 0.80742498673E+01 0.82009812536E+01 0.86667321088E+01
 0.93829892120E+01 0.10266604495E+02 0.11234508421E+02 0.12200700984E+02 0.13077058069E+02
 0.13778627183E+02 0.14232799390E+02 0.14390067831E+02 0.14232799390E+02 0.13778627183E+02
 0.13077058069E+02 0.12200700984E+02 0.11234508421E+02 0.10266604495E+02 0.93829892120E+01
 0.86667321088E+01 0.82009812536E+01 0.80742498673E+01 0.83855724737E+01 0.92459998201E+01
 0.10772076814E+02 0.13067814756E+02 0.16198565105E+02 0.20183678170E+02 0.24944017447E+02
 0.30265419588E+02 0.35812514381E+02 0.41170102596E+02 0.45900531386E+02 0.49602309794E+02
 0.51958022563E+02 0.36709316762E+02 0.36141038993E+02 0.34491729370E+02 0.31921671709E+02
 0.28676737778E+02 0.25056534298E+02 0.21372906223E+02 0.17905930007E+02 0.14867241419E+02
 0.12380876711E+02 0.10504314304E+02 0.92459998201E+01 0.85715798457E+01 0.84237407546E+01
 0.87372617447E+01 0.94466907657E+01 0.10487396316E+02 0.11791962445E+02 0.13283999503E+02
 0.14871601118E+02 0.16443396942E+02 0.17870735021E+02 0.19018644280E+02 0.19765169004E+02
 0.20024369819E+02 0.19765169004E+02 0.19018644280E+02 0.17870735021E+02 0.16443396942E+02
 0.14871601118E+02 0.13283999503E+02 0.11791962445E+02 0.10487396316E+02 0.94466907657E+01
 0.87372617447E+01 0.84237407546E+01 0.85715798457E+01 0.92459998201E+01 0.10504314304E+02
 0.12380876711E+02 0.14867241419E+02 0.17905930007E+02 0.21372906223E+02 0.25056534298E+02
 0.28676737778E+02 0.31921671709E+02 0.34491729370E+02 0.36141038993E+02 0.24738902527E+02
 0.24368899781E+02 0.23299211118E+02 0.21644951203E+02 0.19578989112E+02 0.17305738317E+02
 0.15030227466E+02 0.12929103516E+02 0.11137100297E+02 0.97514980700E+01 0.88274160222E+01
 0.83855724737E+01 0.84237407546E+01 0.89266536899E+01 0.98724454740E+01 0.11235142439E+02
 0.12982869938E+02 0.15071039529E+02 0.17430420824E+02 0.19952687781E+02 0.22479868743E+02
 0.24806401792E+02 0.26700330585E+02 0.27942902505E+02 0.28376312211E+02 0.27942902505E+02
 0.26700330585E+02 0.24806401792E+02 0.22479868743E+02 0.19952687781E+02 0.17430420824E+02
 0.15071039529E+02 0.12982869938E+02 0.11235142439E+02 0.98724454740E+01 0.89266536899E+01
 0.84237407546E+01 0.83855724737E+01 0.88274160222E+01 0.97514980700E+01 0.11137100297E+02
 0.12929103516E+02 0.15030227466E+02 0.17305738317E+02 0.19578989112E+02 0.21644951203E+02
 0.23299211118E+02 0.24368899781E+02 0.16422686303E+02 0.16198681605E+02 0.15553485324E+02
 0.14562894350E+02 0.13338657317E+02 0.12010120182E+02 0.10708778455E+02 0.95551342599E+01
 0.86485124425E+01 0.80649295542E+01 0.78600655936E+01 0.80742498673E+01 0.87372617447E+01
 0.98724454740E+01 0.11500198895E+02 0.13639486286E+02 0.16303680167E+02 0.19486058718E+02
 0.23133062397E+02 0.27110710482E+02 0.31178650833E+02 0.34990944363E+02 0.38136974742E+02
 0.40219703787E+02 0.40949389479E+02 0.40219703787E+02 0.38136974742E+02 0.34990944363E+02
 0.31178650833E+02 0.27110710482E+02 0.23133062397E+02 0.19486058718E+02 0.16303680167E+02
 0.13639486286E+02 0.11500198895E+02 0.98724454740E+01 0.87372617447E+01 0.80742498673E+01
 0.78600655936E+01 0.80649295542E+01 0.86485124425E+01 0.95551342599E+01 0.10708778455E+02
 0.12010120182E+02 0.13338657317E+02 0.14562894350E+02 0.15553485324E+02 0.16198681605E+02
 0.10932541218E+02 0.10805491653E+02 0.10441605801E+02 0.98895178540E+01 0.92210643725E+01
 0.85209303283E+01 0.78768298420E+01 0.73723886880E+01 0.70841725038E+01 0.70824998576E+01
 0.74336032016E+01 0.82009812536E+01 0.94466907657E+01 0.11235142439E+02 0.13639486286E+02
 0.16745282394E+02 0.20641844191E+02 0.25391454061E+02 0.30973062821E+02 0.37211934360E+02
 0.43725507639E+02 0.49924402537E+02 0.55092431846E+02 0.58534014170E+02 0.59742939434E+02
 0.58534014170E+02 0.55092431846E+02 0.49924402537E+02 0.43725507639E+02 0.37211934360E+02
 0.30973062821E+02 0.25391454061E+02 0.20641844191E+02 0.16745282394E+02 0.13639486286E+02
 0.11235142439E+02 0.94466907657E+01 0.82009812536E+01 0.74336032016E+01 0.70824998576E+01
 0.70841725038E+01 0.73723886880E+01 0.78768298420E+01 0.85209303283E+01 0.92210643725E+01
 0.98895178540E+01 0.10441605801E+02 0.10805491653E+02 0.74207520094E+01 0.73559424109E+01
 0.71731158303E+01 0.69044003592E+01 0.65965851991E+01 0.63057071375E+01 0.60933960099E+01
 0.60248702219E+01 0.61691873125E+01 0.66014345190E+01 0.74041410388E+01 0.86667321088E+01
 0.10487396316E+02 0.12982869938E+02 0.16303680167E+02 0.20641844191E+02 0.26212795783E+02
 0.33194762658E+02 0.41620011198E+02 0.51241077644E+02 0.61433745799E+02 0.71238298796E+02
 0.79578778043E+02 0.85254124765E+02 0.87273298788E+02 0.85254124765E+02 0.79578778043E+02
 0.71238298796E+02 0.61433745799E+02 0.51241077644E+02 0.41620011198E+02 0.33194762658E+02
 0.26212795783E+02 0.20641844191E+02 0.16303680167E+02 0.12982869938E+02 0.10487396316E+02
 0.86667321088E+01 0.74041410388E+01 0.66014345190E+01 0.61691873125E+01 0.60248702219E+01
 0.60933960099E+01 0.63057071375E+01 0.65965851991E+01 0.69044003592E+01 0.71731158303E+01
 0.73559424109E+01 0.52402552004E+01 0.52140805369E+01 0.51439192347E+01 0.50521519983E+01
 0.49706455208E+01 0.49393656636E+01 0.50075006815E+01 0.52343939061E+01 0.56911297263E+01
 0.64636764277E+01 0.76545765152E+01 0.93829892120E+01 0.11791962445E+02 0.15071039529E+02
 0.19486058718E+02 0.25391454061E+02 0.33194762658E+02 0.43245186308E+02 0.55636815107E+02
 0.69989464794E+02 0.85652526526E+02 0.10144716212E+03 0.11529139154E+03 0.12482925492E+03
 0.12823597034E+03 0.12482925492E+03 0.11529139154E+03 0.10144716212E+03 0.85652526526E+02
 0.69989464794E+02 0.55636815107E+02 0.43245186308E+02 0.33194762658E+02 0.25391454061E+02
 0.19486058718E+02 0.15071039529E+02 0.11791962445E+02 0.93829892120E+01 0.76545765152E+01
 0.64636764277E+01 0.56911297263E+01 0.52343939061E+01 0.50075006815E+01 0.49393656636E+01
 0.49706455208E+01 0.50521519983E+01 0.51439192347E+01 0.52140805369E+01 0.39097821333E+01
 0.39069727702E+01 0.39053813520E+01 0.39223035552E+01 0.39814508468E+01 0.41149628603E+01
 0.43683562964E+01 0.48027853255E+01 0.54967397491E+01 0.65503554739E+01 0.80889469936E+01
 0.10266604495E+02 0.13283999503E+02 0.17430420824E+02 0.23133062397E+02 0.30973062821E+02
 0.41620011198E+02 0.55636815107E+02 0.73186279019E+02 0.94408885177E+02 0.11868035205E+03
 0.14354733367E+03 0.16531288221E+03 0.18020405357E+03 0.18549501256E+03 0.18020405357E+03
 0.16531288221E+03 0.14354733367E+03 0.11868035205E+03 0.94408885177E+02 0.73186279019E+02
 0.55636815107E+02 0.41620011198E+02 0.30973062821E+02 0.23133062397E+02 0.17430420824E+02
 0.13283999503E+02 0.10266604495E+02 0.80889469936E+01 0.65503554739E+01 0.54967397491E+01
 0.48027853255E+01 0.43683562964E+01 0.41149628603E+01 0.39814508468E+01 0.39223035552E+01
 0.39053813520E+01 0.39069727702E+01 0.31051563717E+01 0.31164130480E+01 0.31565689725E+01
 0.32406983152E+01 0.33884096085E+01 0.36288837614E+01 0.40090332730E+01 0.45959749044E+01
 0.54781069729E+01 0.67711054952E+01 0.86250374300E+01 0.11234508421E+02 0.14871601118E+02
 0.19952687781E+02 0.27110710482E+02 0.37211934360E+02 0.51241077644E+02 0.69989464794E+02
 0.94408885177E+02 0.12527891805E+03 0.16088056149E+03 0.19692374136E+03 0.22786314877E+03
 0.24864580771E+03 0.25594949326E+03 0.24864580771E+03 0.22786314877E+03 0.19692374136E+03
 0.16088056149E+03 0.12527891805E+03 0.94408885177E+02 0.69989464794E+02 0.51241077644E+02
 0.37211934360E+02 0.27110710482E+02 0.19952687781E+02 0.14871601118E+02 0.11234508421E+02
 0.86250374300E+01 0.67711054952E+01 0.54781069729E+01 0.45959749044E+01 0.40090332730E+01
 0.36288837614E+01 0.33884096085E+01 0.32406983152E+01 0.31565689725E+01 0.31164130480E+01
 0.26233805704E+01 0.26431747017E+01 0.27090872218E+01 0.28355538392E+01 0.30402991062E+01
 0.33521226657E+01 0.38218142452E+01 0.45241411848E+01 0.55579437200E+01 0.70543439460E+01
 0.91889091801E+01 0.12200700984E+02 0.16443396942E+02 0.22479868743E+02 0.31178650833E+02
 0.43725507639E+02 0.61433745799E+02 0.85652526526E+02 0.11868035205E+03 0.16088056149E+03
 0.20885543358E+03 0.25615341649E+03 0.29554013248E+03 0.32129748755E+03 0.33020632972E+03
 0.32129748755E+03 0.29554013248E+03 0.25615341649E+03 0.20885543358E+03 0.16088056149E+03
 0.11868035205E+03 0.85652526526E+02 0.61433745799E+02 0.43725507639E+02 0.31178650833E+02
 0.22479868743E+02 0.16443396942E+02 0.12200700984E+02 0.91889091801E+01 0.70543439460E+01
 0.55579437200E+01 0.45241411848E+01 0.38218142452E+01 0.33521226657E+01 0.30402991062E+01
 0.28355538392E+01 0.27090872218E+01 0.26431747017E+01 0.23414120503E+01 0.23664033011E+01
 0.24483124117E+01 0.26016967821E+01 0.28435184296E+01 0.32033416334E+01 0.37365571453E+01
 0.45255478970E+01 0.56787275015E+01 0.73412349412E+01 0.97128726007E+01 0.13077058069E+02
 0.17870735021E+02 0.24806401792E+02 0.34990944363E+02 0.49924402537E+02 0.71238298796E+02
 0.10144716212E+03 0.14354733367E+03 0.19692374136E+03 0.25615341649E+03 0.31262606039E+03
 0.35792527445E+03 0.38655390028E+03 0.39624913328E+03 0.38655390028E+03 0.35792527445E+03
 0.31262606039E+03 0.25615341649E+03 0.19692374136E+03 0.14354733367E+03 0.10144716212E+03
 0.71238298796E+02 0.49924402537E+02 0.34990944363E+02 0.24806401792E+02 0.17870735021E+02
 0.13077058069E+02 0.97128726007E+01 0.73412349412E+01 0.56787275015E+01 0.45255478970E+01
 0.37365571453E+01 0.32033416334E+01 0.28435184296E+01 0.26016967821E+01 0.24483124117E+01
 0.23664033011E+01 0.21844855202E+01 0.22125439239E+01 0.23040960958E+01 0.24740836310E+01
 0.27392292236E+01 0.31301497073E+01 0.37063551907E+01 0.45565670230E+01 0.57968435036E+01
 0.75835927358E+01 0.10136913043E+02 0.13778627183E+02 0.19018644280E+02 0.26700330585E+02
 0.38136974742E+02 0.55092431846E+02 0.79578778043E+02 0.11529139154E+03 0.16531288221E+03
 0.22786314877E+03 0.29554013248E+03 0.35792527445E+03 0.40603223134E+03 0.43528977645E+03
 0.44495270905E+03 0.43528977645E+03 0.40603223134E+03 0.35792527445E+03 0.29554013248E+03
 0.22786314877E+03 0.16531288221E+03 0.11529139154E+03 0.79578778043E+02 0.55092431846E+02
 0.38136974742E+02 0.26700330585E+02 0.19018644280E+02 0.13778627183E+02 0.10136913043E+02
 0.75835927358E+01 0.57968435036E+01 0.45565670230E+01 0.37063551907E+01 0.31301497073E+01
 0.27392292236E+01 0.24740836310E+01 0.23040960958E+01 0.22125439239E+01 0.21071006127E+01
 0.21367631081E+01 0.22334551417E+01 0.24124658223E+01 0.26904858035E+01 0.30989588972E+01
 0.37002057809E+01 0.45871199214E+01 0.58806820675E+01 0.77446283487E+01 0.10412645125E+02
 0.14232799390E+02 0.19765169004E+02 0.27942902505E+02 0.40219703787E+02 0.58534014170E+02
 0.85254124765E+02 0.12482925492E+03 0.18020405357E+03 0.24864580771E+03 0.32129748755E+03
 0.38655390028E+03 0.43528977645E+03 0.46395705518E+03 0.47320885600E+03 0.46395705518E+03
 0.43528977645E+03 0.38655390028E+03 0.32129748755E+03 0.24864580771E+03 0.18020405357E+03
 0.12482925492E+03 0.85254124765E+02 0.58534014170E+02 0.40219703787E+02 0.27942902505E+02
 0.19765169004E+02 0.14232799390E+02 0.10412645125E+02 0.77446283487E+01 0.58806820675E+01
 0.45871199214E+01 0.37002057809E+01 0.30989588972E+01 0.26904858035E+01 0.24124658223E+01
 0.22334551417E+01 0.21367631081E+01 0.20840311231E+01 0.21141896812E+01 0.22124900924E+01
 0.23943575657E+01 0.26764907859E+01 0.30906422419E+01 0.37001274734E+01 0.45992936003E+01
 0.59108194917E+01 0.78009852361E+01 0.10508265824E+02 0.14390067831E+02 0.20024369819E+02
 0.28376312211E+02 0.40949389479E+02 0.59742939434E+02 0.87273298788E+02 0.12823597034E+03
 0.18549501256E+03 0.25594949326E+03 0.33020632972E+03 0.39624913328E+03 0.44495270905E+03
 0.47320885600E+03 0.48223790166E+03 0.47320885600E+03 0.44495270905E+03 0.39624913328E+03
 0.33020632972E+03 0.25594949326E+03 0.18549501256E+03 0.12823597034E+03 0.87273298788E+02
 0.59742939434E+02 0.40949389479E+02 0.28376312211E+02 0.20024369819E+02 0.14390067831E+02
 0.10508265824E+02 0.78009852361E+01 0.59108194917E+01 0.45992936003E+01 0.37001274734E+01
 0.30906422419E+01 0.26764907859E+01 0.23943575657E+01 0.22124900924E+01 0.21141896812E+01
 0.21071006127E+01 0.21367631081E+01 0.22334551417E+01 0.24124658223E+01 0.26904858035E+01
 0.30989588972E+01 0.37002057809E+01 0.45871199214E+01 0.58806820675E+01 0.77446283487E+01
 0.10412645125E+02 0.14232799390E+02 0.19765169004E+02 0.27942902505E+02 0.40219703787E+02
 0.58534014170E+02 0.85254124765E+02 0.12482925492E+03 0.18020405357E+03 0.24864580771E+03
 0.32129748755E+03 0.38655390028E+03 0.43528977645E+03 0.46395705518E+03 0.47320885600E+03
 0.46395705518E+03 0.43528977645E+03 0.38655390028E+03 0.32129748755E+03 0.24864580771E+03
 0.18020405357E+03 0.12482925492E+03 0.85254124765E+02 0.58534014170E+02 0.40219703787E+02
 0.27942902505E+02 0.19765169004E+02 0.14232799390E+02 0.10412645125E+02 0.77446283487E+01
 0.58806820675E+01 0.45871199214E+01 0.37002057809E+01 0.30989588972E+01 0.26904858035E+01
 0.24124658223E+01 0.22334551417E+01 0.21367631081E+01 0.21844855202E+01 0.22125439239E+01
 0.23040960958E+01 0.24740836310E+01 0.27392292236E+01 0.31301497073E+01 0.37063551907E+01
 0.45565670230E+01 0.57968435036E+01 0.75835927358E+01 0.10136913043E+02 0.13778627183E+02
 0.19018644280E+02 0.26700330585E+02 0.38136974742E+02 0.55092431846E+02 0.79578778043E+02
 0.11529139154E+03 0.16531288221E+03 0.22786314877E+03 0.29554013248E+03 0.35792527445E+03
 0.40603223134E+03 0.43528977645E+03 0.44495270905E+03 0.43528977645E+03 0.40603223134E+03
 0.35792527445E+03 0.29554013248E+03 0.22786314877E+03 0.16531288221E+03 0.11529139154E+03
 0.79578778043E+02 0.55092431846E+02 0.38136974742E+02 0.26700330585E+02 0.19018644280E+02
 0.13778627183E+02 0.10136913043E+02 0.75835927358E+01 0.57968435036E+01 0.45565670230E+01
 0.37063551907E+01 0.31301497073E+01 0.27392292236E+01 0.24740836310E+01 0.23040960958E+01
 0.22125439239E+01 0.23414120503E+01 0.23664033011E+01 0.24483124117E+01 0.26016967821E+01
 0.28435184296E+01 0.32033416334E+01 0.37365571453E+01 0.45255478970E+01 0.56787275015E+01
 0.73412349412E+01 0.97128726007E+01 0.13077058069E+02 0.17870735021E+02 0.24806401792E+02
 0.34990944363E+02 0.49924402537E+02 0.71238298796E+02 0.10144716212E+03 0.14354733367E+03
 0.19692374136E+03 0.25615341649E+03 0.31262606039E+03 0.35792527445E+03 0.38655390028E+03
 0.39624913328E+03 0.38655390028E+03 0.35792527445E+03 0.31262606039E+03 0.25615341649E+03
 0.19692374136E+03 0.14354733367E+03 0.10144716212E+03 0.71238298796E+02 0.49924402537E+02
 0.34990944363E+02 0.24806401792E+02 0.17870735021E+02 0.13077058069E+02 0.97128726007E+01
 0.73412349412E+01 0.56787275015E+01 0.45255478970E+01 0.37365571453E+01 0.32033416334E+01
 0.28435184296E+01 0.26016967821E+01 0.24483124117E+01 0.23664033011E+01 0.26233805704E+01
 0.26431747017E+01 0.27090872218E+01 0.28355538392E+01 0.30402991062E+01 0.33521226657E+01
 0.38218142452E+01 0.45241411848E+01 0.55579437200E+01 0.70543439460E+01 0.91889091801E+01
 0.12200700984E+02 0.16443396942E+02 0.22479868743E+02 0.31178650833E+02 0.43725507639E+02
 0.61433745799E+02 0.85652526526E+02 0.11868035205E+03 0.16088056149E+03 0.20885543358E+03
 0.25615341649E+03 0.29554013248E+03 0.32129748755E+03 0.33020632972E+03 0.32129748755E+03
 0.29554013248E+03 0.25615341649E+03 0.20885543358E+03 0.16088056149E+03 0.11868035205E+03
 0.85652526526E+02 0.61433745799E+02 0.43725507639E+02 0.31178650833E+02 0.22479868743E+02
 0.16443396942E+02 0.12200700984E+02 0.91889091801E+01 0.70543439460E+01 0.55579437200E+01
 0.45241411848E+01 0.38218142452E+01 0.33521226657E+01 0.30402991062E+01 0.28355538392E+01
 0.27090872218E+01 0.26431747017E+01 0.31051563717E+01 0.31164130480E+01 0.31565689725E+01
 0.32406983152E+01 0.33884096085E+01 0.36288837614E+01 0.40090332730E+01 0.45959749044E+01
 0.54781069729E+01 0.67711054952E+01 0.86250374300E+01 0.11234508421E+02 0.14871601118E+02
 0.19952687781E+02 0.27110710482E+02 0.37211934360E+02 0.51241077644E+02 0.69989464794E+02
 0.94408885177E+02 0.12527891805E+03 0.16088056149E+03 0.19692374136E+03 0.22786314877E+03
 0.24864580771E+03 0.25594949326E+03 0.24864580771E+03 0.22786314877E+03 0.19692374136E+03
 0.16088056149E+03 0.12527891805E+03 0.94408885177E+02 0.69989464794E+02 0.51241077644E+02
 0.37211934360E+02 0.27110710482E+02 0.19952687781E+02 0.14871601118E+02 0.11234508421E+02
 0.86250374300E+01 0.67711054952E+01 0.54781069729E+01 0.45959749044E+01 0.40090332730E+01
 0.36288837614E+01 0.33884096085E+01 0.32406983152E+01 0.31565689725E+01 0.31164130480E+01
 0.39097821333E+01 0.39069727702E+01 0.39053813520E+01 0.39223035552E+01 0.39814508468E+01
 0.41149628603E+01 0.43683562964E+01 0.48027853255E+01 0.54967397491E+01 0.65503554739E+01
 0.80889469936E+01 0.10266604495E+02 0.13283999503E+02 0.17430420824E+02 0.23133062397E+02
 0.30973062821E+02 0.41620011198E+02 0.55636815107E+02 0.73186279019E+02 0.94408885177E+02
 0.11868035205E+03 0.14354733367E+03 0.16531288221E+03 0.18020405357E+03 0.18549501256E+03
 0.18020405357E+03 0.16531288221E+03 0.14354733367E+03 0.11868035205E+03 0.94408885177E+02
 0.73186279019E+02 0.55636815107E+02 0.41620011198E+02 0.30973062821E+02 0.23133062397E+02
 0.17430420824E+02 0.13283999503E+02 0.10266604495E+02 0.80889469936E+01 0.65503554739E+01
 0.54967397491E+01 0.48027853255E+01 0.43683562964E+01 0.41149628603E+01 0.39814508468E+01
 0.39223035552E+01 0.39053813520E+01 0.39069727702E+01 0.52402552004E+01 0.52140805369E+01
 0.51439192347E+01 0.50521519983E+01 0.49706455208E+01 0.49393656636E+01 0.50075006815E+01
 0.52343939061E+01 0.56911297263E+01 0.64636764277E+01 0.76545765152E+01 0.93829892120E+01
 0.11791962445E+02 0.15071039529E+02 0.19486058718E+02 0.25391454061E+02 0.33194762658E+02
 0.43245186308E+02 0.55636815107E+02 0.69989464794E+02 0.85652526526E+02 0.10144716212E+03
 0.11529139154E+03 0.12482925492E+03 0.12823597034E+03 0.12482925492E+03 0.11529139154E+03
 0.10144716212E+03 0.85652526526E+02 0.69989464794E+02 0.55636815107E+02 0.43245186308E+02
 0.33194762658E+02 0.25391454061E+02 0.19486058718E+02 0.15071039529E+02 0.11791962445E+02
 0.93829892120E+01 0.76545765152E+01 0.64636764277E+01 0.56911297263E+01 0.52343939061E+01
 0.50075006815E+01 0.49393656636E+01 0.49706455208E+01 0.50521519983E+01 0.51439192347E+01
 0.52140805369E+01 0.74207520094E+01 0.73559424109E+01 0.71731158303E+01 0.69044003592E+01
 0.65965851991E+01 0.63057071375E+01 0.60933960099E+01 0.60248702219E+01 0.61691873125E+01
 0.66014345190E+01 0.74041410388E+01 0.86667321088E+01 0.10487396316E+02 0.12982869938E+02
 0.16303680167E+02 0.20641844191E+02 0.26212795783E+02 0.33194762658E+02 0.41620011198E+02
 0.51241077644E+02 0.61433745799E+02 0.71238298796E+02 0.79578778043E+02 0.85254124765E+02
 0.87273298788E+02 0.85254124765E+02 0.79578778043E+02 0.71238298796E+02 0.61433745799E+02
 0.51241077644E+02 0.41620011198E+02 0.33194762658E+02 0.26212795783E+02 0.20641844191E+02
 0.16303680167E+02 0.12982869938E+02 0.10487396316E+02 0.86667321088E+01 0.74041410388E+01
 0.66014345190E+01 0.61691873125E+01 0.60248702219E+01 0.60933960099E+01 0.63057071375E+01
 0.65965851991E+01 0.69044003592E+01 0.71731158303E+01 0.73559424109E+01 0.10932541218E+02
 0.10805491653E+02 0.10441605801E+02 0.98895178540E+01 0.92210643725E+01 0.85209303283E+01
 0.78768298420E+01 0.73723886880E+01 0.70841725038E+01 0.70824998576E+01 0.74336032016E+01
 0.82009812536E+01 0.94466907657E+01 0.11235142439E+02 0.13639486286E+02 0.16745282394E+02
 0.20641844191E+02 0.25391454061E+02 0.30973062821E+02 0.37211934360E+02 0.43725507639E+02
 0.49924402537E+02 0.55092431846E+02 0.58534014170E+02 0.59742939434E+02 0.58534014170E+02
 0.55092431846E+02 0.49924402537E+02 0.43725507639E+02 0.37211934360E+02 0.30973062821E+02
 0.25391454061E+02 0.20641844191E+02 0.16745282394E+02 0.13639486286E+02 0.11235142439E+02
 0.94466907657E+01 0.82009812536E+01 0.74336032016E+01 0.70824998576E+01 0.70841725038E+01