   5   5   0   0
  0.1191194E+02  0.3905268E-09  0.3905268E-09  0.3905268E-09  0.5000000E-15
  1.000000000000000E-004
  CAR 
 unknown system                          
     12.61550893    -32.08716736  301      2.81817238      1.00000000
    -32.087  0.0000E+00  0.0000E+00
    -31.938  0.0000E+00  0.0000E+00
    -31.789  0.0000E+00  0.0000E+00
    -31.640  0.0000E+00  0.0000E+00
    -31.491  0.0000E+00  0.0000E+00
    -31.342  0.0000E+00  0.0000E+00
    -31.193  0.0000E+00  0.0000E+00
    -31.044  0.0000E+00  0.0000E+00
    -30.895  0.0000E+00  0.0000E+00
    -30.746  0.0000E+00  0.0000E+00
    -30.597  0.0000E+00  0.0000E+00
    -30.448  0.0000E+00  0.0000E+00
    -30.299  0.0000E+00  0.0000E+00
    -30.150  0.0000E+00  0.0000E+00
    -30.001  0.8621E+01  0.1978E+01
    -29.852  0.0000E+00  0.2000E+01
    -29.703  0.0000E+00  0.2000E+01
    -29.554  0.0000E+00  0.2000E+01
    -29.405  0.0000E+00  0.2000E+01
    -29.256  0.0000E+00  0.2000E+01
    -29.107  0.0000E+00  0.2000E+01
    -28.958  0.0000E+00  0.2000E+01
    -28.809  0.0000E+00  0.2000E+01
    -28.660  0.0000E+00  0.2000E+01
    -28.511  0.0000E+00  0.2000E+01
    -28.362  0.0000E+00  0.2000E+01
    -28.213  0.0000E+00  0.2000E+01
    -28.064  0.0000E+00  0.2000E+01
    -27.915  0.0000E+00  0.2000E+01
    -27.766  0.0000E+00  0.2000E+01
    -27.617  0.0000E+00  0.2000E+01
    -27.468  0.0000E+00  0.2000E+01
    -27.319  0.0000E+00  0.2000E+01
    -27.170  0.0000E+00  0.2000E+01
    -27.021  0.0000E+00  0.2000E+01
    -26.872  0.0000E+00  0.2000E+01
    -26.723  0.0000E+00  0.2000E+01
    -26.574  0.0000E+00  0.2000E+01
    -26.425  0.0000E+00  0.2000E+01
    -26.276  0.0000E+00  0.2000E+01
    -26.127  0.0000E+00  0.2000E+01
    -25.978  0.0000E+00  0.2000E+01
    -25.829  0.0000E+00  0.2000E+01
    -25.680  0.0000E+00  0.2000E+01
    -25.531  0.0000E+00  0.2000E+01
    -25.382  0.0000E+00  0.2000E+01
    -25.233  0.0000E+00  0.2000E+01
    -25.084  0.0000E+00  0.2000E+01
    -24.935  0.0000E+00  0.2000E+01
    -24.786  0.0000E+00  0.2000E+01
    -24.637  0.0000E+00  0.2000E+01
    -24.488  0.0000E+00  0.2000E+01
    -24.339  0.0000E+00  0.2000E+01
    -24.190  0.0000E+00  0.2000E+01
    -24.041  0.0000E+00  0.2000E+01
    -23.892  0.0000E+00  0.2000E+01
    -23.743  0.0000E+00  0.2000E+01
    -23.594  0.0000E+00  0.2000E+01
    -23.445  0.0000E+00  0.2000E+01
    -23.296  0.0000E+00  0.2000E+01
    -23.147  0.0000E+00  0.2000E+01
    -22.998  0.0000E+00  0.2000E+01
    -22.849  0.0000E+00  0.2000E+01
    -22.700  0.0000E+00  0.2000E+01
    -22.551  0.0000E+00  0.2000E+01
    -22.402  0.0000E+00  0.2000E+01
    -22.253  0.0000E+00  0.2000E+01
    -22.104  0.0000E+00  0.2000E+01
    -21.955  0.0000E+00  0.2000E+01
    -21.806  0.0000E+00  0.2000E+01
    -21.657  0.0000E+00  0.2000E+01
    -21.508  0.0000E+00  0.2000E+01
    -21.359  0.0000E+00  0.2000E+01
    -21.210  0.0000E+00  0.2000E+01
    -21.061  0.0000E+00  0.2000E+01
    -20.911  0.0000E+00  0.2000E+01
    -20.762  0.0000E+00  0.2000E+01
    -20.613  0.0000E+00  0.2000E+01
    -20.464  0.0000E+00  0.2000E+01
    -20.315  0.0000E+00  0.2000E+01
    -20.166  0.0000E+00  0.2000E+01
    -20.017  0.0000E+00  0.2000E+01
    -19.868  0.0000E+00  0.2000E+01
    -19.719  0.0000E+00  0.2000E+01
    -19.570  0.0000E+00  0.2000E+01
    -19.421  0.0000E+00  0.2000E+01
    -19.272  0.0000E+00  0.2000E+01
    -19.123  0.0000E+00  0.2000E+01
    -18.974  0.0000E+00  0.2000E+01
    -18.825  0.0000E+00  0.2000E+01
    -18.676  0.0000E+00  0.2000E+01
    -18.527  0.0000E+00  0.2000E+01
    -18.378  0.0000E+00  0.2000E+01
    -18.229  0.0000E+00  0.2000E+01
    -18.080  0.0000E+00  0.2000E+01
    -17.931  0.0000E+00  0.2000E+01
    -17.782  0.0000E+00  0.2000E+01
    -17.633  0.0000E+00  0.2000E+01
    -17.484  0.0000E+00  0.2000E+01
    -17.335  0.0000E+00  0.2000E+01
    -17.186  0.0000E+00  0.2000E+01
    -17.037  0.0000E+00  0.2000E+01
    -16.888  0.0000E+00  0.2000E+01
    -16.739  0.0000E+00  0.2000E+01
    -16.590  0.0000E+00  0.2000E+01
    -16.441  0.0000E+00  0.2000E+01
    -16.292  0.0000E+00  0.2000E+01
    -16.143  0.0000E+00  0.2000E+01
    -15.994  0.0000E+00  0.2000E+01
    -15.845  0.0000E+00  0.2000E+01
    -15.696  0.0000E+00  0.2000E+01
    -15.547  0.0000E+00  0.2000E+01
    -15.398  0.0000E+00  0.2000E+01
    -15.249  0.0000E+00  0.2000E+01
    -15.100  0.0000E+00  0.2000E+01
    -14.951  0.1976E-01  0.2000E+01
    -14.802  0.1914E+01  0.2166E+01
    -14.653  0.2267E+01  0.2489E+01
    -14.504  0.2273E+01  0.2829E+01
    -14.355  0.2144E+01  0.3160E+01
    -14.206  0.1880E+01  0.3461E+01
    -14.057  0.1474E+01  0.3713E+01
    -13.908  0.5895E+01  0.4061E+01
    -13.759  0.1426E+02  0.5596E+01
    -13.610  0.8120E+01  0.7519E+01
    -13.461  0.0000E+00  0.8000E+01
    -13.312  0.0000E+00  0.8000E+01
    -13.163  0.0000E+00  0.8000E+01
    -13.014  0.0000E+00  0.8000E+01
    -12.865  0.0000E+00  0.8000E+01
    -12.716  0.0000E+00  0.8000E+01
    -12.567  0.0000E+00  0.8000E+01
    -12.418  0.0000E+00  0.8000E+01
    -12.269  0.1700E+01  0.8063E+01
    -12.120  0.9269E+01  0.8805E+01
    -11.971  0.7861E+01  0.1133E+02
    -11.822  0.6581E+01  0.1243E+02
    -11.673  0.5452E+01  0.1322E+02
    -11.524  0.5449E+00  0.1400E+02
    -11.375  0.0000E+00  0.1400E+02
    -11.226  0.0000E+00  0.1400E+02
    -11.077  0.0000E+00  0.1400E+02
    -10.928  0.0000E+00  0.1400E+02
    -10.779  0.0000E+00  0.1400E+02
    -10.630  0.0000E+00  0.1400E+02
    -10.481  0.0000E+00  0.1400E+02
    -10.332  0.0000E+00  0.1400E+02
    -10.183  0.0000E+00  0.1400E+02
    -10.034  0.0000E+00  0.1400E+02
     -9.885  0.0000E+00  0.1400E+02
     -9.736  0.0000E+00  0.1400E+02
     -9.587  0.0000E+00  0.1400E+02
     -9.438  0.0000E+00  0.1400E+02
     -9.289  0.0000E+00  0.1400E+02
     -9.140  0.0000E+00  0.1400E+02
     -8.991  0.0000E+00  0.1400E+02
     -8.842  0.0000E+00  0.1400E+02
     -8.693  0.0000E+00  0.1400E+02
     -8.544  0.0000E+00  0.1400E+02
     -8.395  0.0000E+00  0.1400E+02
     -8.246  0.0000E+00  0.1400E+02
     -8.097  0.0000E+00  0.1400E+02
     -7.948  0.0000E+00  0.1400E+02
     -7.799  0.0000E+00  0.1400E+02
     -7.650  0.0000E+00  0.1400E+02
     -7.501  0.0000E+00  0.1400E+02
     -7.352  0.0000E+00  0.1400E+02
     -7.203  0.0000E+00  0.1400E+02
     -7.054  0.0000E+00  0.1400E+02
     -6.905  0.0000E+00  0.1400E+02
     -6.756  0.0000E+00  0.1400E+02
     -6.607  0.0000E+00  0.1400E+02
     -6.458  0.0000E+00  0.1400E+02
     -6.309  0.0000E+00  0.1400E+02
     -6.160  0.0000E+00  0.1400E+02
     -6.011  0.0000E+00  0.1400E+02
     -5.862  0.0000E+00  0.1400E+02
     -5.713  0.0000E+00  0.1400E+02
     -5.564  0.0000E+00  0.1400E+02
     -5.415  0.0000E+00  0.1400E+02
     -5.266  0.0000E+00  0.1400E+02
     -5.117  0.0000E+00  0.1400E+02
     -4.968  0.0000E+00  0.1400E+02
     -4.819  0.0000E+00  0.1400E+02
     -4.670  0.0000E+00  0.1400E+02
     -4.521  0.0000E+00  0.1400E+02
     -4.372  0.0000E+00  0.1400E+02
     -4.222  0.0000E+00  0.1400E+02
     -4.073  0.0000E+00  0.1400E+02
     -3.924  0.0000E+00  0.1400E+02
     -3.775  0.0000E+00  0.1400E+02
     -3.626  0.0000E+00  0.1400E+02
     -3.477  0.0000E+00  0.1400E+02
     -3.328  0.0000E+00  0.1400E+02
     -3.179  0.0000E+00  0.1400E+02
     -3.030  0.0000E+00  0.1400E+02
     -2.881  0.0000E+00  0.1400E+02
     -2.732  0.0000E+00  0.1400E+02
     -2.583  0.0000E+00  0.1400E+02
     -2.434  0.0000E+00  0.1400E+02
     -2.285  0.0000E+00  0.1400E+02
     -2.136  0.0000E+00  0.1400E+02
     -1.987  0.3399E+00  0.1400E+02
     -1.838  0.5112E+01  0.1480E+02
     -1.689  0.2426E+01  0.1535E+02
     -1.540  0.3503E+01  0.1578E+02
     -1.391  0.3529E+01  0.1631E+02
     -1.242  0.3507E+01  0.1683E+02
     -1.093  0.3437E+01  0.1735E+02
     -0.944  0.3412E+01  0.1786E+02
     -0.795  0.3528E+01  0.1837E+02
     -0.646  0.3783E+01  0.1892E+02
     -0.497  0.4178E+01  0.1951E+02
     -0.348  0.4714E+01  0.2017E+02
     -0.199  0.5540E+01  0.2092E+02
     -0.050  0.5346E+01  0.2169E+02
      0.099  0.5401E+01  0.2251E+02
      0.248  0.3695E+01  0.2321E+02
      0.397  0.3909E+01  0.2375E+02
      0.546  0.4163E+01  0.2436E+02
      0.695  0.3784E+01  0.2496E+02
      0.844  0.4395E+01  0.2554E+02
      0.993  0.3975E+01  0.2618E+02
      1.142  0.2675E+01  0.2670E+02
      1.291  0.2477E+01  0.2705E+02
      1.440  0.2765E+01  0.2744E+02
      1.589  0.3027E+01  0.2787E+02
      1.738  0.3175E+01  0.2834E+02
      1.887  0.3135E+01  0.2881E+02
      2.036  0.2972E+01  0.2926E+02
      2.185  0.4496E+01  0.2983E+02
      2.334  0.5065E+01  0.3056E+02
      2.483  0.4653E+01  0.3129E+02
      2.632  0.3004E+01  0.3188E+02
      2.781  0.0000E+00  0.3200E+02
      2.930  0.0000E+00  0.3200E+02
      3.079  0.0000E+00  0.3200E+02
      3.228  0.0000E+00  0.3200E+02
      3.377  0.0000E+00  0.3200E+02
      3.526  0.0000E+00  0.3200E+02
      3.675  0.0000E+00  0.3200E+02
      3.824  0.0000E+00  0.3200E+02
      3.973  0.0000E+00  0.3200E+02
      4.122  0.1460E+00  0.3200E+02
      4.271  0.8821E+00  0.3210E+02
      4.420  0.1009E+01  0.3224E+02
      4.569  0.1140E+01  0.3240E+02
      4.718  0.1277E+01  0.3258E+02
      4.867  0.1419E+01  0.3278E+02
      5.016  0.1566E+01  0.3300E+02
      5.165  0.1719E+01  0.3324E+02
      5.314  0.1876E+01  0.3351E+02
      5.463  0.2039E+01  0.3380E+02
      5.612  0.2207E+01  0.3412E+02
      5.761  0.2380E+01  0.3446E+02
      5.910  0.2558E+01  0.3483E+02
      6.059  0.2882E+01  0.3572E+02
      6.208  0.3357E+01  0.3621E+02
      6.357  0.2079E+01  0.3663E+02
      6.506  0.1156E+01  0.3684E+02
      6.655  0.1020E+01  0.3700E+02
      6.804  0.9196E+00  0.3714E+02
      6.953  0.8241E+00  0.3727E+02
      7.102  0.7339E+00  0.3739E+02
      7.251  0.6489E+00  0.3749E+02
      7.400  0.5691E+00  0.3758E+02
      7.549  0.4946E+00  0.3766E+02
      7.698  0.4253E+00  0.3773E+02
      7.847  0.3612E+00  0.3779E+02
      7.996  0.3023E+00  0.3784E+02
      8.145  0.2513E+00  0.3788E+02
      8.294  0.2194E+00  0.3791E+02
      8.443  0.2078E+00  0.3795E+02
      8.592  0.2166E+00  0.3798E+02
      8.741  0.2456E+00  0.3801E+02
      8.890  0.2950E+00  0.3805E+02
      9.039  0.3647E+00  0.3810E+02
      9.188  0.4547E+00  0.3816E+02
      9.337  0.5651E+00  0.3824E+02
      9.486  0.6957E+00  0.3833E+02
      9.635  0.8469E+00  0.3845E+02
      9.784  0.1053E+01  0.3859E+02
      9.933  0.1338E+01  0.3876E+02
     10.082  0.1919E+01  0.3899E+02
     10.231  0.2667E+01  0.3935E+02
     10.380  0.2299E+01  0.3973E+02
     10.529  0.8157E+00  0.3998E+02
     10.678  0.0000E+00  0.4000E+02
     10.827  0.0000E+00  0.4000E+02
     10.976  0.0000E+00  0.4000E+02
     11.125  0.0000E+00  0.4000E+02
     11.274  0.0000E+00  0.4000E+02
     11.423  0.0000E+00  0.4000E+02
     11.572  0.0000E+00  0.4000E+02
     11.721  0.0000E+00  0.4000E+02
     11.870  0.0000E+00  0.4000E+02
     12.019  0.0000E+00  0.4000E+02
     12.168  0.0000E+00  0.4000E+02
     12.317  0.0000E+00  0.4000E+02
     12.467  0.0000E+00  0.4000E+02
     12.616  0.0000E+00  0.4000E+02
