 vasp.5.4.4.18Apr17-6-g9f103f2a35 (build Jun 30 2017 11:15:00) complex          
  
 executed on    STALLO_VASP_5.4.4 date 2019.11.28  12:43:12
 running on    4 total cores
 distrk:  each k-point on    4 cores,    1 groups
 distr:  one band on NCORES_PER_BAND=   2 cores,    2 groups


--------------------------------------------------------------------------------------------------------


 INCAR:
 POTCAR:   PAW_PBE Sr_sv 07Sep2000                
 POTCAR:   PAW_PBE Ti 08Apr2002                   
 POTCAR:   PAW_PBE O 08Apr2002                    
 POTCAR:   PAW_PBE Sr_sv 07Sep2000                
   VRHFIN =Sr: 4s4p5s                                                           
   LEXCH  = PE                                                                  
   EATOM  =   842.4562 eV,   61.9188 Ry                                         
                                                                                
   TITEL  = PAW_PBE Sr_sv 07Sep2000                                             
   LULTRA =        F    use ultrasoft PP ?                                      
   IUNSCR =        1    unscreen: 0-lin 1-nonlin 2-no                           
   RPACOR =    2.200    partial core radius                                     
   POMASS =   87.620; ZVAL   =   10.000    mass and valenz                      
   RCORE  =    2.500    outmost cutoff radius                                   
   RWIGS  =    4.040; RWIGS  =    2.138    wigner-seitz radius (au A)           
   ENMAX  =  229.282; ENMIN  =  171.961 eV                                      
   RCLOC  =    2.201    cutoff for local pot                                    
   LCOR   =        T    correct aug charges                                     
   LPAW   =        T    paw PP                                                  
   EAUG   =  366.804                                                            
   DEXC   =     .000                                                            
   RMAX   =    3.045    core radius for proj-oper                               
   RAUG   =    1.300    factor for augmentation sphere                          
   RDEP   =    2.562    radius for radial grids                                 
   QCUT   =   -4.105; QGAM   =    8.210    optimization parameters              
                                                                                
   Description                                                                  
     l     E      TYP  RCUT    TYP  RCUT                                        
     0   .000     23  2.480                                                     
     0   .000     23  2.480                                                     
     1   .000     23  2.500                                                     
     1   .000     23  2.500                                                     
     2   .000     23  2.500                                                     
     2   .000     23  2.500                                                     
  local pseudopotential read in
  partial core-charges read in
  atomic valenz-charges read in
  non local Contribution for L=           0  read in
    real space projection operators read in
  non local Contribution for L=           0  read in
    real space projection operators read in
  non local Contribution for L=           1  read in
    real space projection operators read in
  non local Contribution for L=           1  read in
    real space projection operators read in
  non local Contribution for L=           2  read in
    real space projection operators read in
  non local Contribution for L=           2  read in
    real space projection operators read in
    PAW grid and wavefunctions read in
 
   number of l-projection  operators is LMAX  =           6
   number of lm-projection operators is LMMAX =          18
 
 POTCAR:   PAW_PBE Ti 08Apr2002                   
   VRHFIN =Ti: d3 s1                                                            
   LEXCH  = PE                                                                  
   EATOM  =    94.7929 eV,    6.9671 Ry                                         
                                                                                
   TITEL  = PAW_PBE Ti 08Apr2002                                                
   LULTRA =        F    use ultrasoft PP ?                                      
   IUNSCR =        1    unscreen: 0-lin 1-nonlin 2-no                           
   RPACOR =    2.200    partial core radius                                     
   POMASS =   47.880; ZVAL   =    4.000    mass and valenz                      
   RCORE  =    2.800    outmost cutoff radius                                   
   RWIGS  =    2.500; RWIGS  =    1.323    wigner-seitz radius (au A)           
   ENMAX  =  178.330; ENMIN  =  133.747 eV                                      
   RCLOC  =    2.215    cutoff for local pot                                    
   LCOR   =        T    correct aug charges                                     
   LPAW   =        T    paw PP                                                  
   EAUG   =  328.883                                                            
   DEXC   =    -.043                                                            
   RMAX   =    3.453    core radius for proj-oper                               
   RAUG   =    1.300    factor for augmentation sphere                          
   RDEP   =    2.885    radius for radial grids                                 
   QCUT   =   -3.620; QGAM   =    7.241    optimization parameters              
                                                                                
   Description                                                                  
     l     E      TYP  RCUT    TYP  RCUT                                        
     2   .000     23  2.800                                                     
     2   .000     23  2.800                                                     
     0   .000     23  2.800                                                     
     0  1.500     23  2.800                                                     
     1  -.400     23  2.800                                                     
     3   .000      7   .000                                                     
  local pseudopotential read in
  partial core-charges read in
  atomic valenz-charges read in
  non local Contribution for L=           2  read in
    real space projection operators read in
  non local Contribution for L=           2  read in
    real space projection operators read in
  non local Contribution for L=           0  read in
    real space projection operators read in
  non local Contribution for L=           0  read in
    real space projection operators read in
  non local Contribution for L=           1  read in
    real space projection operators read in
    PAW grid and wavefunctions read in
 
   number of l-projection  operators is LMAX  =           5
   number of lm-projection operators is LMMAX =          15
 
 POTCAR:   PAW_PBE O 08Apr2002                    
   VRHFIN =O: s2p4                                                              
   LEXCH  = PE                                                                  
   EATOM  =   432.3788 eV,   31.7789 Ry                                         
                                                                                
   TITEL  = PAW_PBE O 08Apr2002                                                 
   LULTRA =        F    use ultrasoft PP ?                                      
   IUNSCR =        0    unscreen: 0-lin 1-nonlin 2-no                           
   RPACOR =     .000    partial core radius                                     
   POMASS =   16.000; ZVAL   =    6.000    mass and valenz                      
   RCORE  =    1.520    outmost cutoff radius                                   
   RWIGS  =    1.550; RWIGS  =     .820    wigner-seitz radius (au A)           
   ENMAX  =  400.000; ENMIN  =  300.000 eV                                      
   ICORE  =        2    local potential                                         
   LCOR   =        T    correct aug charges                                     
   LPAW   =        T    paw PP                                                  
   EAUG   =  605.392                                                            
   DEXC   =     .000                                                            
   RMAX   =    2.264    core radius for proj-oper                               
   RAUG   =    1.300    factor for augmentation sphere                          
   RDEP   =    1.550    radius for radial grids                                 
   QCUT   =   -5.520; QGAM   =   11.041    optimization parameters              
                                                                                
   Description                                                                  
     l     E      TYP  RCUT    TYP  RCUT                                        
     0   .000     23  1.200                                                     
     0  -.700     23  1.200                                                     
     1   .000     23  1.520                                                     
     1   .600     23  1.520                                                     
     2   .000      7  1.500                                                     
  local pseudopotential read in
  atomic valenz-charges read in
  non local Contribution for L=           0  read in
    real space projection operators read in
  non local Contribution for L=           0  read in
    real space projection operators read in
  non local Contribution for L=           1  read in
    real space projection operators read in
  non local Contribution for L=           1  read in
    real space projection operators read in
    PAW grid and wavefunctions read in
 
   number of l-projection  operators is LMAX  =           4
   number of lm-projection operators is LMMAX =           8
 
 PAW_PBE Sr_sv 07Sep2000                :
 energy of atom  1       EATOM= -842.4562
 kinetic energy error for atom=    0.0012 (will be added to EATOM!!)
 PAW_PBE Ti 08Apr2002                   :
 energy of atom  2       EATOM=  -94.7929
 kinetic energy error for atom=    0.0002 (will be added to EATOM!!)
 PAW_PBE O 08Apr2002                    :
 energy of atom  3       EATOM= -432.3788
 kinetic energy error for atom=    0.0224 (will be added to EATOM!!)
 
 
 POSCAR: ICSD_CollCode262269                     
  positions in direct lattice
  No initial velocities read in
 exchange correlation table for  LEXCH =        8
   RHO(1)=    0.500       N(1)  =     2000
   RHO(2)=  100.500       N(2)  =     4000
 


--------------------------------------------------------------------------------------------------------


 ion  position               nearest neighbor table
   1  0.000  0.000  0.000-   3 2.76   4 2.76   5 2.76   4 2.76   5 2.76   3 2.76   5 2.76   5 2.76
                             3 2.76   4 2.76   4 2.76   3 2.76   2 3.38   2 3.38   2 3.38   2 3.38
   2  0.500  0.500  0.500-   3 1.95   4 1.95   5 1.95   3 1.95   4 1.95   5 1.95   1 3.38   1 3.38
                             1 3.38   1 3.38   1 3.38   1 3.38   1 3.38   1 3.38
   3  0.500  0.500  0.000-   2 1.95   2 1.95   1 2.76   1 2.76   1 2.76   1 2.76
   4  0.500  0.000  0.500-   2 1.95   2 1.95   1 2.76   1 2.76   1 2.76   1 2.76
   5  0.000  0.500  0.500-   2 1.95   2 1.95   1 2.76   1 2.76   1 2.76   1 2.76
 
  LATTYP: Found a simple cubic cell.
 ALAT       =     3.9052680000
  
  Lattice vectors:
  
 A1 = (   3.9052680000,   0.0000000000,   0.0000000000)
 A2 = (   0.0000000000,   3.9052680000,   0.0000000000)
 A3 = (   0.0000000000,   0.0000000000,   3.9052680000)


Analysis of symmetry for initial positions (statically):
=====================================================================
 Subroutine PRICEL returns:
 Original cell was already a primitive cell.
 

 Routine SETGRP: Setting up the symmetry group for a 
 simple cubic supercell.


 Subroutine GETGRP returns: Found 48 space group operations
 (whereof 48 operations were pure point group operations)
 out of a pool of 48 trial point group operations.


The static configuration has the point symmetry O_h .


Analysis of symmetry for dynamics (positions and initial velocities):
=====================================================================
 Subroutine PRICEL returns:
 Original cell was already a primitive cell.
 

 Routine SETGRP: Setting up the symmetry group for a 
 simple cubic supercell.


 Subroutine GETGRP returns: Found 48 space group operations
 (whereof 48 operations were pure point group operations)
 out of a pool of 48 trial point group operations.


The dynamic configuration has the point symmetry O_h .


 Subroutine INISYM returns: Found 48 space group operations
 (whereof 48 operations are pure point group operations),
 and found     1 'primitive' translations

 
 
 KPOINTS: k-density: 1.0                          

Automatic generation of k-mesh.
Space group operators:
 irot       det(A)        alpha          n_x          n_y          n_z        tau_x        tau_y        tau_z
    1     1.000000     0.000000     1.000000     0.000000     0.000000     0.000000     0.000000     0.000000
    2    -1.000000     0.000000     1.000000     0.000000     0.000000     0.000000     0.000000     0.000000
    3     1.000000   120.000000    -0.577350    -0.577350    -0.577350     0.000000     0.000000     0.000000
    4    -1.000000   120.000000    -0.577350    -0.577350    -0.577350     0.000000     0.000000     0.000000
    5     1.000000   120.000000     0.577350     0.577350     0.577350     0.000000     0.000000     0.000000
    6    -1.000000   120.000000     0.577350     0.577350     0.577350     0.000000     0.000000     0.000000
    7     1.000000    90.000000     0.000000     0.000000    -1.000000     0.000000     0.000000     0.000000
    8    -1.000000    90.000000     0.000000     0.000000    -1.000000     0.000000     0.000000     0.000000
    9     1.000000   180.000000     0.000000     0.707107     0.707107     0.000000     0.000000     0.000000
   10    -1.000000   180.000000     0.000000     0.707107     0.707107     0.000000     0.000000     0.000000
   11     1.000000    90.000000     0.000000     1.000000     0.000000     0.000000     0.000000     0.000000
   12    -1.000000    90.000000     0.000000     1.000000     0.000000     0.000000     0.000000     0.000000
   13     1.000000   180.000000     0.000000     0.000000     1.000000     0.000000     0.000000     0.000000
   14    -1.000000   180.000000     0.000000     0.000000     1.000000     0.000000     0.000000     0.000000
   15     1.000000   120.000000    -0.577350     0.577350     0.577350     0.000000     0.000000     0.000000
   16    -1.000000   120.000000    -0.577350     0.577350     0.577350     0.000000     0.000000     0.000000
   17     1.000000   120.000000    -0.577350     0.577350    -0.577350     0.000000     0.000000     0.000000
   18    -1.000000   120.000000    -0.577350     0.577350    -0.577350     0.000000     0.000000     0.000000
   19     1.000000    90.000000     0.000000     0.000000     1.000000     0.000000     0.000000     0.000000
   20    -1.000000    90.000000     0.000000     0.000000     1.000000     0.000000     0.000000     0.000000
   21     1.000000    90.000000    -1.000000     0.000000     0.000000     0.000000     0.000000     0.000000
   22    -1.000000    90.000000    -1.000000     0.000000     0.000000     0.000000     0.000000     0.000000
   23     1.000000   180.000000     0.707107     0.000000     0.707107     0.000000     0.000000     0.000000
   24    -1.000000   180.000000     0.707107     0.000000     0.707107     0.000000     0.000000     0.000000
   25     1.000000   120.000000     0.577350    -0.577350     0.577350     0.000000     0.000000     0.000000
   26    -1.000000   120.000000     0.577350    -0.577350     0.577350     0.000000     0.000000     0.000000
   27     1.000000   120.000000    -0.577350    -0.577350     0.577350     0.000000     0.000000     0.000000
   28    -1.000000   120.000000    -0.577350    -0.577350     0.577350     0.000000     0.000000     0.000000
   29     1.000000   180.000000     1.000000     0.000000     0.000000     0.000000     0.000000     0.000000
   30    -1.000000   180.000000     1.000000     0.000000     0.000000     0.000000     0.000000     0.000000
   31     1.000000    90.000000     0.000000    -1.000000     0.000000     0.000000     0.000000     0.000000
   32    -1.000000    90.000000     0.000000    -1.000000     0.000000     0.000000     0.000000     0.000000
   33     1.000000   180.000000     0.707107     0.707107     0.000000     0.000000     0.000000     0.000000
   34    -1.000000   180.000000     0.707107     0.707107     0.000000     0.000000     0.000000     0.000000
   35     1.000000    90.000000     1.000000     0.000000     0.000000     0.000000     0.000000     0.000000
   36    -1.000000    90.000000     1.000000     0.000000     0.000000     0.000000     0.000000     0.000000
   37     1.000000   120.000000     0.577350    -0.577350    -0.577350     0.000000     0.000000     0.000000
   38    -1.000000   120.000000     0.577350    -0.577350    -0.577350     0.000000     0.000000     0.000000
   39     1.000000   180.000000     0.000000     1.000000     0.000000     0.000000     0.000000     0.000000
   40    -1.000000   180.000000     0.000000     1.000000     0.000000     0.000000     0.000000     0.000000
   41     1.000000   120.000000     0.577350     0.577350    -0.577350     0.000000     0.000000     0.000000
   42    -1.000000   120.000000     0.577350     0.577350    -0.577350     0.000000     0.000000     0.000000
   43     1.000000   180.000000     0.000000    -0.707107     0.707107     0.000000     0.000000     0.000000
   44    -1.000000   180.000000     0.000000    -0.707107     0.707107     0.000000     0.000000     0.000000
   45     1.000000   180.000000     0.707107    -0.707107     0.000000     0.000000     0.000000     0.000000
   46    -1.000000   180.000000     0.707107    -0.707107     0.000000     0.000000     0.000000     0.000000
   47     1.000000   180.000000     0.707107     0.000000    -0.707107     0.000000     0.000000     0.000000
   48    -1.000000   180.000000     0.707107     0.000000    -0.707107     0.000000     0.000000     0.000000
 
 Subroutine IBZKPT returns following result:
 ===========================================
 
 Found      4 irreducible k-points:
 
 Following reciprocal coordinates:
            Coordinates               Weight
  0.000000  0.000000  0.000000      1.000000
  0.500000  0.000000  0.000000      3.000000
  0.500000  0.500000  0.000000      3.000000
  0.500000  0.500000  0.500000      1.000000
 
 Following cartesian coordinates:
            Coordinates               Weight
  0.000000  0.000000  0.000000      1.000000
  0.128032  0.000000  0.000000      3.000000
  0.128032  0.128032  0.000000      3.000000
  0.128032  0.128032  0.128032      1.000000
 
 TETIRR: Found      4 inequivalent tetrahedra from       48


--------------------------------------------------------------------------------------------------------




 Dimension of arrays:
   k-points           NKPTS =      4   k-points in BZ     NKDIM =      4   number of bands    NBANDS=     20
   number of dos      NEDOS =    301   number of ions     NIONS =      5
   non local maximal  LDIM  =      6   non local SUM 2l+1 LMDIM =     18
   total plane-waves  NPLWV =  13824
   max r-space proj   IRMAX =      1   max aug-charges    IRDMAX=  16228
   dimension x,y,z NGX =    24 NGY =   24 NGZ =   24
   dimension x,y,z NGXF=    48 NGYF=   48 NGZF=   48
   support grid    NGXF=    48 NGYF=   48 NGZF=   48
   ions per type =               1   1   3
   NGX,Y,Z   is equivalent  to a cutoff of  10.22, 10.22, 10.22 a.u.
   NGXF,Y,Z  is equivalent  to a cutoff of  20.43, 20.43, 20.43 a.u.

 SYSTEM =  unknown system                          
 POSCAR =  ICSD_CollCode262269                     

 Startparameter for this run:
   NWRITE =      2    write-flag & timer
   PREC   = normal    normal or accurate (medium, high low for compatibility)
   ISTART =      0    job   : 0-new  1-cont  2-samecut
   ICHARG =      2    charge: 1-file 2-atom 10-const
   ISPIN  =      1    spin polarized calculation?
   LNONCOLLINEAR =      F non collinear calculations
   LSORBIT =      F    spin-orbit coupling
   INIWAV =      1    electr: 0-lowe 1-rand  2-diag
   LASPH  =      F    aspherical Exc in radial PAW
   METAGGA=      F    non-selfconsistent MetaGGA calc.

 Electronic Relaxation 1
   ENCUT  =  500.0 eV  36.75 Ry    6.06 a.u.   7.12  7.12  7.12*2*pi/ulx,y,z
   ENINI  =  500.0     initial cutoff
   ENAUG  =  605.4 eV  augmentation charge cutoff
   NELM   =     60;   NELMIN=  4; NELMDL=  0     # of ELM steps 
   EDIFF  = 0.1E-04   stopping-criterion for ELM
   LREAL  =      F    real-space projection
   NLSPLINE    = F    spline interpolate recip. space projectors
   LCOMPAT=      F    compatible to vasp.4.4
   GGA_COMPAT  = T    GGA compatible to vasp.4.4-vasp.4.6
   LMAXPAW     = -100 max onsite density
   LMAXMIX     =    2 max onsite mixed and CHGCAR
   VOSKOWN=      0    Vosko Wilk Nusair interpolation
   ROPT   =    0.00000   0.00000   0.00000
 Ionic relaxation
   EDIFFG = 0.1E-03   stopping-criterion for IOM
   NSW    =      0    number of steps for IOM
   NBLOCK =      1;   KBLOCK =      1    inner block; outer block 
   IBRION =     -1    ionic relax: 0-MD 1-quasi-New 2-CG
   NFREE  =      0    steps in history (QN), initial steepest desc. (CG)
   ISIF   =      2    stress and relaxation
   IWAVPR =     10    prediction:  0-non 1-charg 2-wave 3-comb
   ISYM   =      2    0-nonsym 1-usesym 2-fastsym
   LCORR  =      T    Harris-Foulkes like correction to forces

   POTIM  = 0.5000    time-step for ionic-motion
   TEIN   =    0.0    initial temperature
   TEBEG  =    0.0;   TEEND  =   0.0 temperature during run
   SMASS  =  -3.00    Nose mass-parameter (am)
   estimated Nose-frequenzy (Omega)   =  0.10E-29 period in steps =****** mass=  -0.349E-27a.u.
   SCALEE = 1.0000    scale energy and forces
   NPACO  =    256;   APACO  = 16.0  distance and # of slots for P.C.
   PSTRESS=    0.0 pullay stress

  Mass of Ions in am
   POMASS =  87.62 47.88 16.00
  Ionic Valenz
   ZVAL   =  10.00  4.00  6.00
  Atomic Wigner-Seitz radii
   RWIGS  =  -1.00 -1.00 -1.00
  virtual crystal weights 
   VCA    =   1.00  1.00  1.00
   NELECT =      32.0000    total number of electrons
   NUPDOWN=      -1.0000    fix difference up-down

 DOS related values:
   EMIN   =  10.00;   EMAX   =-10.00  energy-range for DOS
   EFERMI =   0.00
   ISMEAR =    -5;   SIGMA  =   0.20  broadening in eV -4-tet -1-fermi 0-gaus

 Electronic relaxation 2 (details)
   IALGO  =     68    algorithm
   LDIAG  =      T    sub-space diagonalisation (order eigenvalues)
   LSUBROT=      F    optimize rotation matrix (better conditioning)
   TURBO    =      0    0=normal 1=particle mesh
   IRESTART =      0    0=no restart 2=restart with 2 vectors
   NREBOOT  =      0    no. of reboots
   NMIN     =      0    reboot dimension
   EREF     =   0.00    reference energy to select bands
   IMIX   =      4    mixing-type and parameters
     AMIX     =   0.40;   BMIX     =  1.00
     AMIX_MAG =   1.60;   BMIX_MAG =  1.00
     AMIN     =   0.10
     WC   =   100.;   INIMIX=   1;  MIXPRE=   1;  MAXMIX= -45

 Intra band minimization:
   WEIMIN = 0.0000     energy-eigenvalue tresh-hold
   EBREAK =  0.13E-06  absolut break condition
   DEPER  =   0.30     relativ break condition  

   TIME   =   0.40     timestep for ELM

  volume/ion in A,a.u.               =      11.91        80.39
  Fermi-wavevector in a.u.,A,eV,Ry     =   1.330885  2.515009 24.099399  1.771256
  Thomas-Fermi vector in A             =   2.459938
 
 Write flags
   LWAVE        =      F    write WAVECAR
   LDOWNSAMPLE  =      F    k-point downsampling of WAVECAR
   LCHARG       =      T    write CHGCAR
   LVTOT        =      F    write LOCPOT, total local potential
   LVHAR        =      F    write LOCPOT, Hartree potential only
   LELF         =      F    write electronic localiz. function (ELF)
   LORBIT       =      0    0 simple, 1 ext, 2 COOP (PROOUT), +10 PAW based schemes


 Dipole corrections
   LMONO  =      F    monopole corrections only (constant potential shift)
   LDIPOL =      F    correct potential (dipole corrections)
   IDIPOL =      0    1-x, 2-y, 3-z, 4-all directions 
   EPSILON=  1.0000000 bulk dielectric constant

 Exchange correlation treatment:
   GGA     =    --    GGA type
   LEXCH   =     8    internal setting for exchange type
   VOSKOWN=      0    Vosko Wilk Nusair interpolation
   LHFCALC =     F    Hartree Fock is set to
   LHFONE  =     F    Hartree Fock one center treatment
   AEXX    =    0.0000 exact exchange contribution

 Linear response parameters
   LEPSILON=     F    determine dielectric tensor
   LRPA    =     F    only Hartree local field effects (RPA)
   LNABLA  =     F    use nabla operator in PAW spheres
   LVEL    =     F    velocity operator in full k-point grid
   LINTERFAST=   F  fast interpolation
   KINTER  =     0    interpolate to denser k-point grid
   CSHIFT  =0.1000    complex shift for real part using Kramers Kronig
   OMEGAMAX=  -1.0    maximum frequency
   DEG_THRESHOLD= 0.2000000E-02 threshold for treating states as degnerate
   RTIME   =   -0.100 relaxation time in fs
  (WPLASMAI=    0.000 imaginary part of plasma frequency in eV, 0.658/RTIME)
   DFIELD  = 0.0000000 0.0000000 0.0000000 field for delta impulse in time
 
 Orbital magnetization related:
   ORBITALMAG=     F  switch on orbital magnetization
   LCHIMAG   =     F  perturbation theory with respect to B field
   DQ        =  0.001000  dq finite difference perturbation B field
   LLRAUG    =     F  two centre corrections for induced B field



--------------------------------------------------------------------------------------------------------


 Static calculation
 charge density and potential will be updated during run
 non-spin polarized calculation
 RMM-DIIS sequential band-by-band and
  variant of blocked Davidson during initial phase
 perform sub-space diagonalisation
    before iterative eigenvector-optimisation
 modified Broyden-mixing scheme, WC =      100.0
 initial mixing is a Kerker type mixing with AMIX =  0.4000 and BMIX =      1.0000
 Hartree-type preconditioning will be used
 using additional bands            4
 reciprocal scheme for non local part
 use partial core corrections
 calculate Harris-corrections to forces 
   (improved forces if not selfconsistent)
 use gradient corrections 
 use of overlap-Matrix (Vanderbilt PP)
 Fermi weights with tetrahedron method with Bloechl corrections


--------------------------------------------------------------------------------------------------------


  energy-cutoff  :      500.00
  volume of cell :       59.56
      direct lattice vectors                 reciprocal lattice vectors
     3.905268000  0.000000000  0.000000000     0.256064373  0.000000000  0.000000000
     0.000000000  3.905268000  0.000000000     0.000000000  0.256064373  0.000000000
     0.000000000  0.000000000  3.905268000     0.000000000  0.000000000  0.256064373

  length of vectors
     3.905268000  3.905268000  3.905268000     0.256064373  0.256064373  0.256064373


 
 k-points in units of 2pi/SCALE and weight: k-density: 1.0                          
   0.00000000  0.00000000  0.00000000       0.125
   0.12803219  0.00000000  0.00000000       0.375
   0.12803219  0.12803219  0.00000000       0.375
   0.12803219  0.12803219  0.12803219       0.125
 
 k-points in reciprocal lattice and weights: k-density: 1.0                          
   0.00000000  0.00000000  0.00000000       0.125
   0.50000000  0.00000000  0.00000000       0.375
   0.50000000  0.50000000  0.00000000       0.375
   0.50000000  0.50000000  0.50000000       0.125
 
 position of ions in fractional coordinates (direct lattice) 
   0.00000000  0.00000000  0.00000000
   0.50000000  0.50000000  0.50000000
   0.50000000  0.50000000  0.00000000
   0.50000000  0.00000000  0.50000000
   0.00000000  0.50000000  0.50000000
 
 position of ions in cartesian coordinates  (Angst):
   0.00000000  0.00000000  0.00000000
   1.95263400  1.95263400  1.95263400
   1.95263400  1.95263400  0.00000000
   1.95263400  0.00000000  1.95263400
   0.00000000  1.95263400  1.95263400
 


--------------------------------------------------------------------------------------------------------


 k-point  1 :   0.0000 0.0000 0.0000  plane waves:    1503
 k-point  2 :   0.5000 0.0000 0.0000  plane waves:    1510
 k-point  3 :   0.5000 0.5000 0.0000  plane waves:    1516
 k-point  4 :   0.5000 0.5000 0.5000  plane waves:    1472

 maximum and minimum number of plane-waves per node :       780      733

 maximum number of plane-waves:      1516
 maximum index in each direction: 
   IXMAX=    7   IYMAX=    7   IZMAX=    7
   IXMIN=   -7   IYMIN=   -7   IZMIN=   -7


 parallel 3D FFT for wavefunctions:
    minimum data exchange during FFTs selected (reduces bandwidth)
 parallel 3D FFT for charge:
    minimum data exchange during FFTs selected (reduces bandwidth)


 total amount of memory used by VASP MPI-rank0    35257. kBytes
=======================================================================

   base      :      30000. kBytes
   nonl-proj :       1410. kBytes
   fftplans  :       1176. kBytes
   grid      :       2105. kBytes
   one-center:         46. kBytes
   wavefun   :        520. kBytes
 
     INWAV:  cpu time    0.0000: real time    0.0003
 Broyden mixing: mesh for mixing (old mesh)
   NGX = 15   NGY = 15   NGZ = 15
  (NGX  = 48   NGY  = 48   NGZ  = 48)
  gives a total of   3375 points

 initial charge density was supplied:
 charge density of overlapping atoms calculated
 number of electron      32.0000000 magnetization 
 keeping initial charge density in first step


--------------------------------------------------------------------------------------------------------


 Maximum index for augmentation-charges         3835 (set IRDMAX)


--------------------------------------------------------------------------------------------------------


 First call to EWALD:  gamma=   0.454
 Maximum number of real-space cells 3x 3x 3
 Maximum number of reciprocal cells 3x 3x 3

    FEWALD:  cpu time    0.0020: real time    0.0015


--------------------------------------- Iteration      1(   1)  ---------------------------------------


    POTLOK:  cpu time    0.0190: real time    0.0397
    SETDIJ:  cpu time    0.0040: real time    0.0052
     EDDAV:  cpu time    0.0490: real time    0.0523
 BZINTS: Fermi energy: 19.308084; 32.000000 electrons
         Band energy:  97.278327;  BLOECHL correction: -0.029312
       DOS:  cpu time    0.0000: real time    0.0004
    --------------------------------------------
      LOOP:  cpu time    0.0720: real time    0.0977

 eigenvalue-minimisations  :   160
 total energy-change (2. order) : 0.3109236E+03  (-0.1537055E+04)
 number of electron      32.0000000 magnetization 
 augmentation part       32.0000000 magnetization 

 Free energy of the ion-electron system (eV)
  ---------------------------------------------------
  alpha Z        PSCENC =       185.39985751
  Ewald energy   TEWEN  =     -1934.07799583
  -Hartree energ DENC   =      -403.14003404
  -exchange      EXHF   =         0.00000000
  -V(xc)+E(xc)   XCENC  =        82.31788258
  PAW double counting   =      1333.61297253    -1284.78446064
  entropy T*S    EENTRO =         0.00000000
  eigenvalues    EBANDS =        97.27832675
  atomic energy  EATOM  =      2234.31706254
  Solvation  Ediel_sol  =         0.00000000
  ---------------------------------------------------
  free energy    TOTEN  =       310.92361140 eV

  energy without entropy =      310.92361140  energy(sigma->0) =      310.92361140


--------------------------------------------------------------------------------------------------------




--------------------------------------- Iteration      1(   2)  ---------------------------------------


     EDDAV:  cpu time    0.0570: real time    0.0582
 BZINTS: Fermi energy:  8.022091; 32.000000 electrons
         Band energy:-227.466895;  BLOECHL correction:  0.000000
       DOS:  cpu time    0.0000: real time    0.0001
    --------------------------------------------
      LOOP:  cpu time    0.0570: real time    0.0583

 eigenvalue-minimisations  :   212
 total energy-change (2. order) :-0.3247452E+03  (-0.3125011E+03)
 number of electron      32.0000000 magnetization 
 augmentation part       32.0000000 magnetization 

 Free energy of the ion-electron system (eV)
  ---------------------------------------------------
  alpha Z        PSCENC =       185.39985751
  Ewald energy   TEWEN  =     -1934.07799583
  -Hartree energ DENC   =      -403.14003404
  -exchange      EXHF   =         0.00000000
  -V(xc)+E(xc)   XCENC  =        82.31788258
  PAW double counting   =      1333.61297253    -1284.78446064
  entropy T*S    EENTRO =         0.00000000
  eigenvalues    EBANDS =      -227.46689504
  atomic energy  EATOM  =      2234.31706254
  Solvation  Ediel_sol  =         0.00000000
  ---------------------------------------------------
  free energy    TOTEN  =       -13.82161039 eV

  energy without entropy =      -13.82161039  energy(sigma->0) =      -13.82161039


--------------------------------------------------------------------------------------------------------




--------------------------------------- Iteration      1(   3)  ---------------------------------------


     EDDAV:  cpu time    0.0520: real time    0.0519
 BZINTS: Fermi energy:  0.327393; 32.000000 electrons
         Band energy:-262.251940;  BLOECHL correction:  0.000000
       DOS:  cpu time    0.0000: real time    0.0001
    --------------------------------------------
      LOOP:  cpu time    0.0520: real time    0.0519

 eigenvalue-minimisations  :   192
 total energy-change (2. order) :-0.3478504E+02  (-0.3442002E+02)
 number of electron      32.0000000 magnetization 
 augmentation part       32.0000000 magnetization 

 Free energy of the ion-electron system (eV)
  ---------------------------------------------------
  alpha Z        PSCENC =       185.39985751
  Ewald energy   TEWEN  =     -1934.07799583
  -Hartree energ DENC   =      -403.14003404
  -exchange      EXHF   =         0.00000000
  -V(xc)+E(xc)   XCENC  =        82.31788258
  PAW double counting   =      1333.61297253    -1284.78446064
  entropy T*S    EENTRO =         0.00000000
  eigenvalues    EBANDS =      -262.25193993
  atomic energy  EATOM  =      2234.31706254
  Solvation  Ediel_sol  =         0.00000000
  ---------------------------------------------------
  free energy    TOTEN  =       -48.60665528 eV

  energy without entropy =      -48.60665528  energy(sigma->0) =      -48.60665528


--------------------------------------------------------------------------------------------------------




--------------------------------------- Iteration      1(   4)  ---------------------------------------


     EDDAV:  cpu time    0.0660: real time    0.0660
 BZINTS: Fermi energy: -0.376750; 32.000000 electrons
         Band energy:-263.642960;  BLOECHL correction:  0.000000
       DOS:  cpu time    0.0000: real time    0.0001
    --------------------------------------------
      LOOP:  cpu time    0.0660: real time    0.0661

 eigenvalue-minimisations  :   264
 total energy-change (2. order) :-0.1391020E+01  (-0.1387418E+01)
 number of electron      32.0000000 magnetization 
 augmentation part       32.0000000 magnetization 

 Free energy of the ion-electron system (eV)
  ---------------------------------------------------
  alpha Z        PSCENC =       185.39985751
  Ewald energy   TEWEN  =     -1934.07799583
  -Hartree energ DENC   =      -403.14003404
  -exchange      EXHF   =         0.00000000
  -V(xc)+E(xc)   XCENC  =        82.31788258
  PAW double counting   =      1333.61297253    -1284.78446064
  entropy T*S    EENTRO =         0.00000000
  eigenvalues    EBANDS =      -263.64295980
  atomic energy  EATOM  =      2234.31706254
  Solvation  Ediel_sol  =         0.00000000
  ---------------------------------------------------
  free energy    TOTEN  =       -49.99767515 eV

  energy without entropy =      -49.99767515  energy(sigma->0) =      -49.99767515


--------------------------------------------------------------------------------------------------------




--------------------------------------- Iteration      1(   5)  ---------------------------------------


     EDDAV:  cpu time    0.0560: real time    0.0560
 BZINTS: Fermi energy: -0.410560; 32.000000 electrons
         Band energy:-263.687116;  BLOECHL correction:  0.000000
       DOS:  cpu time    0.0000: real time    0.0001
    CHARGE:  cpu time    0.0070: real time    0.0069
    MIXING:  cpu time    0.0000: real time    0.0007
    --------------------------------------------
      LOOP:  cpu time    0.0630: real time    0.0637

 eigenvalue-minimisations  :   216
 total energy-change (2. order) :-0.4415621E-01  (-0.4414331E-01)
 number of electron      31.9999896 magnetization 
 augmentation part        3.4075698 magnetization 

 Broyden mixing:
  rms(total) = 0.18462E+01    rms(broyden)= 0.18460E+01
  rms(prec ) = 0.48168E+01
  weight for this iteration     100.00

 Free energy of the ion-electron system (eV)
  ---------------------------------------------------
  alpha Z        PSCENC =       185.39985751
  Ewald energy   TEWEN  =     -1934.07799583
  -Hartree energ DENC   =      -403.14003404
  -exchange      EXHF   =         0.00000000
  -V(xc)+E(xc)   XCENC  =        82.31788258
  PAW double counting   =      1333.61297253    -1284.78446064
  entropy T*S    EENTRO =         0.00000000
  eigenvalues    EBANDS =      -263.68711601
  atomic energy  EATOM  =      2234.31706254
  Solvation  Ediel_sol  =         0.00000000
  ---------------------------------------------------
  free energy    TOTEN  =       -50.04183136 eV

  energy without entropy =      -50.04183136  energy(sigma->0) =      -50.04183136


--------------------------------------------------------------------------------------------------------




--------------------------------------- Iteration      1(   6)  ---------------------------------------


    POTLOK:  cpu time    0.0150: real time    0.0153
    SETDIJ:  cpu time    0.0040: real time    0.0041
    EDDIAG:  cpu time    0.0110: real time    0.0106
  RMM-DIIS:  cpu time    0.0340: real time    0.0345
    ORTHCH:  cpu time    0.0000: real time    0.0011
 BZINTS: Fermi energy:  3.398414; 32.000000 electrons
         Band energy:-199.239489;  BLOECHL correction:  0.000000
       DOS:  cpu time    0.0000: real time    0.0001
    CHARGE:  cpu time    0.0070: real time    0.0065
    MIXING:  cpu time    0.0010: real time    0.0006
    --------------------------------------------
      LOOP:  cpu time    0.0720: real time    0.0727

 eigenvalue-minimisations  :   175
 total energy-change (2. order) : 0.1063229E+02  (-0.5698249E+01)
 number of electron      31.9999923 magnetization 
 augmentation part        3.4181554 magnetization 

 Broyden mixing:
  rms(total) = 0.59597E+00    rms(broyden)= 0.59549E+00
  rms(prec ) = 0.10446E+01
  weight for this iteration     100.00

 eigenvalues of (default mixing * dielectric matrix)
  average eigenvalue GAMMA=   0.8203
  0.8203

 Free energy of the ion-electron system (eV)
  ---------------------------------------------------
  alpha Z        PSCENC =       185.39985751
  Ewald energy   TEWEN  =     -1934.07799583
  -Hartree energ DENC   =      -458.53279120
  -exchange      EXHF   =         0.00000000
  -V(xc)+E(xc)   XCENC  =        87.16776332
  PAW double counting   =      1488.91723969    -1443.36118972
  entropy T*S    EENTRO =         0.00000000
  eigenvalues    EBANDS =      -199.23948853
  atomic energy  EATOM  =      2234.31706254
  Solvation  Ediel_sol  =         0.00000000
  ---------------------------------------------------
  free energy    TOTEN  =       -39.40954222 eV

  energy without entropy =      -39.40954222  energy(sigma->0) =      -39.40954222


--------------------------------------------------------------------------------------------------------




--------------------------------------- Iteration      1(   7)  ---------------------------------------


    POTLOK:  cpu time    0.0150: real time    0.0154
    SETDIJ:  cpu time    0.0050: real time    0.0042
    EDDIAG:  cpu time    0.0090: real time    0.0101
  RMM-DIIS:  cpu time    0.0380: real time    0.0380
    ORTHCH:  cpu time    0.0010: real time    0.0011
 BZINTS: Fermi energy:  2.924942; 32.000000 electrons
         Band energy:-207.868490;  BLOECHL correction:  0.000000
       DOS:  cpu time    0.0000: real time    0.0001
    CHARGE:  cpu time    0.0070: real time    0.0065
    MIXING:  cpu time    0.0010: real time    0.0006
    --------------------------------------------
      LOOP:  cpu time    0.0760: real time    0.0760

 eigenvalue-minimisations  :   194
 total energy-change (2. order) : 0.4081013E+00  (-0.1230663E+00)
 number of electron      31.9999921 magnetization 
 augmentation part        3.3785452 magnetization 

 Broyden mixing:
  rms(total) = 0.31862E+00    rms(broyden)= 0.31861E+00
  rms(prec ) = 0.56374E+00
  weight for this iteration     100.00

 eigenvalues of (default mixing * dielectric matrix)
  average eigenvalue GAMMA=   1.7079
  0.9167  2.4990

 Free energy of the ion-electron system (eV)
  ---------------------------------------------------
  alpha Z        PSCENC =       185.39985751
  Ewald energy   TEWEN  =     -1934.07799583
  -Hartree energ DENC   =      -447.46714777
  -exchange      EXHF   =         0.00000000
  -V(xc)+E(xc)   XCENC  =        86.44685251
  PAW double counting   =      1502.10850825    -1457.86008857
  entropy T*S    EENTRO =         0.00000000
  eigenvalues    EBANDS =      -207.86848957
  atomic energy  EATOM  =      2234.31706254
  Solvation  Ediel_sol  =         0.00000000
  ---------------------------------------------------
  free energy    TOTEN  =       -39.00144094 eV

  energy without entropy =      -39.00144094  energy(sigma->0) =      -39.00144094


--------------------------------------------------------------------------------------------------------




--------------------------------------- Iteration      1(   8)  ---------------------------------------


    POTLOK:  cpu time    0.0150: real time    0.0156
    SETDIJ:  cpu time    0.0040: real time    0.0042
    EDDIAG:  cpu time    0.0100: real time    0.0102
  RMM-DIIS:  cpu time    0.0350: real time    0.0348
    ORTHCH:  cpu time    0.0010: real time    0.0011
 BZINTS: Fermi energy:  2.462742; 32.000000 electrons
         Band energy:-214.855922;  BLOECHL correction:  0.000000
       DOS:  cpu time    0.0000: real time    0.0001
    CHARGE:  cpu time    0.0070: real time    0.0064
    MIXING:  cpu time    0.0010: real time    0.0011
    --------------------------------------------
      LOOP:  cpu time    0.0730: real time    0.0734

 eigenvalue-minimisations  :   181
 total energy-change (2. order) : 0.7437435E-01  (-0.1098765E+00)
 number of electron      31.9999919 magnetization 
 augmentation part        3.4482893 magnetization 

 Broyden mixing:
  rms(total) = 0.12719E+00    rms(broyden)= 0.12714E+00
  rms(prec ) = 0.26974E+00
  weight for this iteration     100.00

 eigenvalues of (default mixing * dielectric matrix)
  average eigenvalue GAMMA=   1.3278
  2.2831  0.8501  0.8501

 Free energy of the ion-electron system (eV)
  ---------------------------------------------------
  alpha Z        PSCENC =       185.39985751
  Ewald energy   TEWEN  =     -1934.07799583
  -Hartree energ DENC   =      -437.77645460
  -exchange      EXHF   =         0.00000000
  -V(xc)+E(xc)   XCENC  =        86.06004392
  PAW double counting   =      1555.16672375    -1513.16038232
  entropy T*S    EENTRO =         0.00000000
  eigenvalues    EBANDS =      -214.85592155
  atomic energy  EATOM  =      2234.31706254
  Solvation  Ediel_sol  =         0.00000000
  ---------------------------------------------------
  free energy    TOTEN  =       -38.92706659 eV

  energy without entropy =      -38.92706659  energy(sigma->0) =      -38.92706659


--------------------------------------------------------------------------------------------------------




--------------------------------------- Iteration      1(   9)  ---------------------------------------


    POTLOK:  cpu time    0.0140: real time    0.0154
    SETDIJ:  cpu time    0.0050: real time    0.0041
    EDDIAG:  cpu time    0.0100: real time    0.0101
  RMM-DIIS:  cpu time    0.0380: real time    0.0389
    ORTHCH:  cpu time    0.0020: real time    0.0011
 BZINTS: Fermi energy:  2.649468; 32.000000 electrons
         Band energy:-212.409116;  BLOECHL correction:  0.000000
       DOS:  cpu time    0.0000: real time    0.0001
    CHARGE:  cpu time    0.0060: real time    0.0065
    MIXING:  cpu time    0.0010: real time    0.0006
    --------------------------------------------
      LOOP:  cpu time    0.0760: real time    0.0769

 eigenvalue-minimisations  :   197
 total energy-change (2. order) : 0.3168398E-01  (-0.5986922E-02)
 number of electron      31.9999919 magnetization 
 augmentation part        3.4342639 magnetization 

 Broyden mixing:
  rms(total) = 0.67633E-01    rms(broyden)= 0.67632E-01
  rms(prec ) = 0.15380E+00
  weight for this iteration     100.00

 eigenvalues of (default mixing * dielectric matrix)
  average eigenvalue GAMMA=   1.4396
  1.9492  1.9492  0.9299  0.9299

 Free energy of the ion-electron system (eV)
  ---------------------------------------------------
  alpha Z        PSCENC =       185.39985751
  Ewald energy   TEWEN  =     -1934.07799583
  -Hartree energ DENC   =      -440.41273867
  -exchange      EXHF   =         0.00000000
  -V(xc)+E(xc)   XCENC  =        86.22291175
  PAW double counting   =      1556.58885085    -1514.52421513
  entropy T*S    EENTRO =         0.00000000
  eigenvalues    EBANDS =      -212.40911562
  atomic energy  EATOM  =      2234.31706254
  Solvation  Ediel_sol  =         0.00000000
  ---------------------------------------------------
  free energy    TOTEN  =       -38.89538261 eV

  energy without entropy =      -38.89538261  energy(sigma->0) =      -38.89538261


--------------------------------------------------------------------------------------------------------




--------------------------------------- Iteration      1(  10)  ---------------------------------------


    POTLOK:  cpu time    0.0150: real time    0.0155
    SETDIJ:  cpu time    0.0040: real time    0.0041
    EDDIAG:  cpu time    0.0110: real time    0.0102
  RMM-DIIS:  cpu time    0.0360: real time    0.0364
    ORTHCH:  cpu time    0.0010: real time    0.0011
 BZINTS: Fermi energy:  2.788617; 32.000000 electrons
         Band energy:-209.958837;  BLOECHL correction:  0.000000
       DOS:  cpu time    0.0000: real time    0.0001
    CHARGE:  cpu time    0.0070: real time    0.0065
    MIXING:  cpu time    0.0000: real time    0.0006
    --------------------------------------------
      LOOP:  cpu time    0.0740: real time    0.0746

 eigenvalue-minimisations  :   188
 total energy-change (2. order) : 0.1035049E-01  (-0.7797033E-02)
 number of electron      31.9999920 magnetization 
 augmentation part        3.4105434 magnetization 

 Broyden mixing:
  rms(total) = 0.97681E-02    rms(broyden)= 0.97291E-02
  rms(prec ) = 0.21044E-01
  weight for this iteration     100.00

 eigenvalues of (default mixing * dielectric matrix)
  average eigenvalue GAMMA=   1.3886
  2.4973  0.9549  1.1114  1.1896  1.1896

 Free energy of the ion-electron system (eV)
  ---------------------------------------------------
  alpha Z        PSCENC =       185.39985751
  Ewald energy   TEWEN  =     -1934.07799583
  -Hartree energ DENC   =      -443.02564029
  -exchange      EXHF   =         0.00000000
  -V(xc)+E(xc)   XCENC  =        86.38313981
  PAW double counting   =      1561.64733861    -1519.56995714
  entropy T*S    EENTRO =         0.00000000
  eigenvalues    EBANDS =      -209.95883733
  atomic energy  EATOM  =      2234.31706254
  Solvation  Ediel_sol  =         0.00000000
  ---------------------------------------------------
  free energy    TOTEN  =       -38.88503212 eV

  energy without entropy =      -38.88503212  energy(sigma->0) =      -38.88503212


--------------------------------------------------------------------------------------------------------




--------------------------------------- Iteration      1(  11)  ---------------------------------------


    POTLOK:  cpu time    0.0150: real time    0.0157
    SETDIJ:  cpu time    0.0050: real time    0.0042
    EDDIAG:  cpu time    0.0100: real time    0.0104
  RMM-DIIS:  cpu time    0.0380: real time    0.0387
    ORTHCH:  cpu time    0.0010: real time    0.0011
 BZINTS: Fermi energy:  2.796383; 32.000000 electrons
         Band energy:-209.780253;  BLOECHL correction:  0.000000
       DOS:  cpu time    0.0000: real time    0.0001
    CHARGE:  cpu time    0.0080: real time    0.0065
    MIXING:  cpu time    0.0000: real time    0.0007
    --------------------------------------------
      LOOP:  cpu time    0.0770: real time    0.0772

 eigenvalue-minimisations  :   200
 total energy-change (2. order) :-0.1024156E-02  (-0.7687111E-03)
 number of electron      31.9999920 magnetization 
 augmentation part        3.4062539 magnetization 

 Broyden mixing:
  rms(total) = 0.61041E-02    rms(broyden)= 0.60977E-02
  rms(prec ) = 0.12889E-01
  weight for this iteration     100.00

 eigenvalues of (default mixing * dielectric matrix)
  average eigenvalue GAMMA=   1.5230
  2.3247  2.3247  1.2641  1.2641  0.9801  0.9801

 Free energy of the ion-electron system (eV)
  ---------------------------------------------------
  alpha Z        PSCENC =       185.39985751
  Ewald energy   TEWEN  =     -1934.07799583
  -Hartree energ DENC   =      -443.18605362
  -exchange      EXHF   =         0.00000000
  -V(xc)+E(xc)   XCENC  =        86.40403340
  PAW double counting   =      1564.88153065    -1522.84423763
  entropy T*S    EENTRO =         0.00000000
  eigenvalues    EBANDS =      -209.78025329
  atomic energy  EATOM  =      2234.31706254
  Solvation  Ediel_sol  =         0.00000000
  ---------------------------------------------------
  free energy    TOTEN  =       -38.88605628 eV

  energy without entropy =      -38.88605628  energy(sigma->0) =      -38.88605628


--------------------------------------------------------------------------------------------------------




--------------------------------------- Iteration      1(  12)  ---------------------------------------


    POTLOK:  cpu time    0.0160: real time    0.0186
    SETDIJ:  cpu time    0.0040: real time    0.0041
    EDDIAG:  cpu time    0.0100: real time    0.0102
  RMM-DIIS:  cpu time    0.0370: real time    0.0372
    ORTHCH:  cpu time    0.0010: real time    0.0011
 BZINTS: Fermi energy:  2.809788; 32.000000 electrons
         Band energy:-210.070974;  BLOECHL correction:  0.000000
       DOS:  cpu time    0.0000: real time    0.0001
    CHARGE:  cpu time    0.0060: real time    0.0065
    MIXING:  cpu time    0.0020: real time    0.0007
    --------------------------------------------
      LOOP:  cpu time    0.0760: real time    0.0785

 eigenvalue-minimisations  :   195
 total energy-change (2. order) :-0.1839527E-03  (-0.1906407E-03)
 number of electron      31.9999920 magnetization 
 augmentation part        3.4044025 magnetization 

 Broyden mixing:
  rms(total) = 0.56998E-02    rms(broyden)= 0.56993E-02
  rms(prec ) = 0.13374E-01
  weight for this iteration     100.00

 eigenvalues of (default mixing * dielectric matrix)
  average eigenvalue GAMMA=   1.5716
  2.7632  2.3239  1.7630  1.1421  1.1421  0.9335  0.9335

 Free energy of the ion-electron system (eV)
  ---------------------------------------------------
  alpha Z        PSCENC =       185.39985751
  Ewald energy   TEWEN  =     -1934.07799583
  -Hartree energ DENC   =      -442.96916412
  -exchange      EXHF   =         0.00000000
  -V(xc)+E(xc)   XCENC  =        86.38641223
  PAW double counting   =      1563.90788828    -1521.77932668
  entropy T*S    EENTRO =         0.00000000
  eigenvalues    EBANDS =      -210.07097415
  atomic energy  EATOM  =      2234.31706254
  Solvation  Ediel_sol  =         0.00000000
  ---------------------------------------------------
  free energy    TOTEN  =       -38.88624023 eV

  energy without entropy =      -38.88624023  energy(sigma->0) =      -38.88624023


--------------------------------------------------------------------------------------------------------




--------------------------------------- Iteration      1(  13)  ---------------------------------------


    POTLOK:  cpu time    0.0140: real time    0.0153
    SETDIJ:  cpu time    0.0050: real time    0.0042
    EDDIAG:  cpu time    0.0100: real time    0.0101
  RMM-DIIS:  cpu time    0.0360: real time    0.0362
    ORTHCH:  cpu time    0.0010: real time    0.0011
 BZINTS: Fermi energy:  2.815642; 32.000000 electrons
         Band energy:-209.880465;  BLOECHL correction:  0.000000
       DOS:  cpu time    0.0000: real time    0.0001
    CHARGE:  cpu time    0.0060: real time    0.0065
    MIXING:  cpu time    0.0010: real time    0.0007
    --------------------------------------------
      LOOP:  cpu time    0.0730: real time    0.0742

 eigenvalue-minimisations  :   178
 total energy-change (2. order) :-0.7998765E-05  (-0.8828486E-04)
 number of electron      31.9999920 magnetization 
 augmentation part        3.4052796 magnetization 

 Broyden mixing:
  rms(total) = 0.27219E-02    rms(broyden)= 0.27208E-02
  rms(prec ) = 0.79812E-02
  weight for this iteration     100.00

 eigenvalues of (default mixing * dielectric matrix)
  average eigenvalue GAMMA=   1.5891
  2.6207  2.6207  2.2844  1.2096  1.2096  1.0468  0.8605  0.8605

 Free energy of the ion-electron system (eV)
  ---------------------------------------------------
  alpha Z        PSCENC =       185.39985751
  Ewald energy   TEWEN  =     -1934.07799583
  -Hartree energ DENC   =      -443.18562114
  -exchange      EXHF   =         0.00000000
  -V(xc)+E(xc)   XCENC  =        86.40510019
  PAW double counting   =      1564.70806711    -1522.57225330
  entropy T*S    EENTRO =         0.00000000
  eigenvalues    EBANDS =      -209.88046531
  atomic energy  EATOM  =      2234.31706254
  Solvation  Ediel_sol  =         0.00000000
  ---------------------------------------------------
  free energy    TOTEN  =       -38.88624823 eV

  energy without entropy =      -38.88624823  energy(sigma->0) =      -38.88624823


--------------------------------------------------------------------------------------------------------




--------------------------------------- Iteration      1(  14)  ---------------------------------------


    POTLOK:  cpu time    0.0150: real time    0.0152
    SETDIJ:  cpu time    0.0050: real time    0.0041
    EDDIAG:  cpu time    0.0100: real time    0.0101
  RMM-DIIS:  cpu time    0.0330: real time    0.0337
    ORTHCH:  cpu time    0.0010: real time    0.0011
 BZINTS: Fermi energy:  2.816682; 32.000000 electrons
         Band energy:-209.896480;  BLOECHL correction:  0.000000
       DOS:  cpu time    0.0010: real time    0.0001
    CHARGE:  cpu time    0.0060: real time    0.0064
    MIXING:  cpu time    0.0010: real time    0.0008
    --------------------------------------------
      LOOP:  cpu time    0.0720: real time    0.0716

 eigenvalue-minimisations  :   160
 total energy-change (2. order) : 0.1356066E-04  (-0.2658088E-04)
 number of electron      31.9999920 magnetization 
 augmentation part        3.4030251 magnetization 

 Broyden mixing:
  rms(total) = 0.12363E-02    rms(broyden)= 0.12363E-02
  rms(prec ) = 0.29149E-02
  weight for this iteration     100.00

 eigenvalues of (default mixing * dielectric matrix)
  average eigenvalue GAMMA=   1.6174
  3.1211  3.1211  2.4428  1.2127  1.2127  1.1026  0.8925  0.8925  0.5589

 Free energy of the ion-electron system (eV)
  ---------------------------------------------------
  alpha Z        PSCENC =       185.39985751
  Ewald energy   TEWEN  =     -1934.07799583
  -Hartree energ DENC   =      -443.17139152
  -exchange      EXHF   =         0.00000000
  -V(xc)+E(xc)   XCENC  =        86.40125272
  PAW double counting   =      1564.63971785    -1522.49825752
  entropy T*S    EENTRO =         0.00000000
  eigenvalues    EBANDS =      -209.89648042
  atomic energy  EATOM  =      2234.31706254
  Solvation  Ediel_sol  =         0.00000000
  ---------------------------------------------------
  free energy    TOTEN  =       -38.88623467 eV

  energy without entropy =      -38.88623467  energy(sigma->0) =      -38.88623467


--------------------------------------------------------------------------------------------------------




--------------------------------------- Iteration      1(  15)  ---------------------------------------


    POTLOK:  cpu time    0.0150: real time    0.0153
    SETDIJ:  cpu time    0.0040: real time    0.0041
    EDDIAG:  cpu time    0.0100: real time    0.0102
  RMM-DIIS:  cpu time    0.0270: real time    0.0270
    ORTHCH:  cpu time    0.0010: real time    0.0011
 BZINTS: Fermi energy:  2.818172; 32.000000 electrons
         Band energy:-209.881580;  BLOECHL correction:  0.000000
       DOS:  cpu time    0.0010: real time    0.0001
    --------------------------------------------
      LOOP:  cpu time    0.0580: real time    0.0578

 eigenvalue-minimisations  :   124
 total energy-change (2. order) :-0.6893940E-05  (-0.9506165E-05)
 number of electron      31.9999920 magnetization 
 augmentation part        3.4030251 magnetization 

 Free energy of the ion-electron system (eV)
  ---------------------------------------------------
  alpha Z        PSCENC =       185.39985751
  Ewald energy   TEWEN  =     -1934.07799583
  -Hartree energ DENC   =      -443.19402185
  -exchange      EXHF   =         0.00000000
  -V(xc)+E(xc)   XCENC  =        86.40276210
  PAW double counting   =      1564.69740246    -1522.54972814
  entropy T*S    EENTRO =         0.00000000
  eigenvalues    EBANDS =      -209.88158035
  atomic energy  EATOM  =      2234.31706254
  Solvation  Ediel_sol  =         0.00000000
  ---------------------------------------------------
  free energy    TOTEN  =       -38.88624156 eV

  energy without entropy =      -38.88624156  energy(sigma->0) =      -38.88624156


--------------------------------------------------------------------------------------------------------




 average (electrostatic) potential at core
  the test charge radii are     1.1929  1.2598  0.7215
  (the norm of the test charge is              1.0000)
       1 -36.1067       2 -27.1884       3 -70.8650       4 -70.8650       5 -70.8650
 
 
 
 E-fermi :   2.8182     XC(G=0): -11.1524     alpha+bet :-12.6354


 k-point     1 :       0.0000    0.0000    0.0000
  band No.  band energies     occupation 
      1     -30.0552      2.00000
      2     -14.7253      2.00000
      3     -13.7112      2.00000
      4     -13.7112      2.00000
      5     -12.1185      2.00000
      6     -12.1185      2.00000
      7     -12.1185      2.00000
      8      -0.1461      2.00000
      9      -0.1461      2.00000
     10      -0.1461      2.00000
     11       1.5808      2.00000
     12       1.5808      2.00000
     13       1.5808      2.00000
     14       2.4257      2.00000
     15       2.4257      2.00000
     16       2.4257      2.00000
     17       4.0619      0.00000
     18       4.0619      0.00000
     19       4.0621      0.00000
     20       8.0570      0.00000

 k-point     2 :       0.5000    0.0000    0.0000
  band No.  band energies     occupation 
      1     -30.0317      2.00000
      2     -14.9522      2.00000
      3     -13.6700      2.00000
      4     -13.5109      2.00000
      5     -12.0701      2.00000
      6     -12.0701      2.00000
      7     -11.5196      2.00000
      8      -1.7144      2.00000
      9      -0.1583      2.00000
     10      -0.1583      2.00000
     11       0.2550      2.00000
     12       0.2836      2.00000
     13       0.2836      2.00000
     14       0.7502      2.00000
     15       2.0318      2.00000
     16       2.0318      2.00000
     17       4.2050      0.00000
     18       6.0070      0.00000
     19       6.0070      0.00000
     20      10.0508      0.00000

 k-point     3 :       0.5000    0.5000    0.0000
  band No.  band energies     occupation 
      1     -30.0119      2.00000
      2     -14.0603      2.00000
      3     -13.9774      2.00000
      4     -13.9774      2.00000
      5     -12.0134      2.00000
      6     -11.6935      2.00000
      7     -11.6935      2.00000
      8      -1.9880      2.00000
      9      -1.8892      2.00000
     10      -1.6066      2.00000
     11      -0.2128      2.00000
     12      -0.2128      2.00000
     13       0.9774      2.00000
     14       1.1709      2.00000
     15       1.1709      2.00000
     16       2.6424      2.00000
     17       5.9993      0.00000
     18       5.9993      0.00000
     19       6.4048      0.00000
     20      10.5836      0.00000

 k-point     4 :       0.5000    0.5000    0.5000
  band No.  band energies     occupation 
      1     -29.9934      2.00000
      2     -13.4737      2.00000
      3     -13.4737      2.00000
      4     -13.4737      2.00000
      5     -12.3806      2.00000
      6     -12.3806      2.00000
      7     -12.3806      2.00000
      8      -1.9649      2.00000
      9      -1.5892      2.00000
     10      -1.5892      2.00000
     11      -1.0926      2.00000
     12      -1.0926      2.00000
     13      -1.0926      2.00000
     14       2.7377      2.00000
     15       2.7377      2.00000
     16       2.7377      2.00000
     17       6.6296      0.00000
     18       9.5982      0.00000
     19       9.5983      0.00000
     20       9.6203      0.00000


--------------------------------------------------------------------------------------------------------


 soft charge-density along one line, spin component           1
         0         1         2         3         4         5         6         7         8         9
 total charge-density along one line
 
 pseudopotential strength for first ion, spin component:           1
-11.349  -7.396   0.000   0.000  -0.000  -0.000  -0.000   0.000
 -7.396  -5.733   0.000   0.000  -0.000  -0.000  -0.000   0.000
  0.000   0.000 -14.867  -0.000  -0.000   0.103   0.000   0.000
  0.000   0.000  -0.000 -14.867   0.000   0.000   0.103  -0.000
 -0.000  -0.000  -0.000   0.000 -14.867   0.000  -0.000   0.103
 -0.000  -0.000   0.103   0.000   0.000   0.037   0.000   0.000
 -0.000  -0.000   0.000   0.103  -0.000   0.000   0.037  -0.000
  0.000   0.000   0.000  -0.000   0.103   0.000  -0.000   0.037
 -0.000  -0.000  -0.000   0.000   0.000   0.000  -0.000  -0.000
 -0.000  -0.000   0.000   0.000   0.000  -0.000  -0.000  -0.000
 -0.000  -0.000  -0.000   0.000   0.000   0.000  -0.000  -0.000
  0.000   0.000   0.000  -0.000   0.000  -0.000   0.000  -0.000
 -0.000  -0.000  -0.000   0.000  -0.000   0.000  -0.000  -0.000
 -0.000  -0.000  -0.000   0.000   0.000  -0.000   0.000   0.000
 -0.000  -0.000   0.000   0.000   0.000   0.000   0.000   0.000
 -0.000  -0.000  -0.000   0.000   0.000  -0.000  -0.000  -0.000
  0.000   0.000   0.000  -0.000   0.000   0.000  -0.000   0.000
 -0.000  -0.000  -0.000   0.000   0.000   0.000   0.000   0.000
 total augmentation occupancy for first ion, spin component:           1
  2.104  -0.223   0.000   0.000   0.000   0.000   0.000   0.000  -0.000  -0.000  -0.000  -0.000   0.000   0.000   0.000   0.000
 -0.223   0.466   0.000   0.000   0.000   0.000   0.000   0.000   0.000  -0.000   0.000  -0.000   0.000   0.000   0.000   0.000
  0.000   0.000   2.026   0.000   0.000   0.067   0.000   0.000   0.000   0.000   0.000   0.000   0.000   0.000   0.000   0.000
  0.000   0.000   0.000   2.026  -0.000   0.000   0.067  -0.000   0.000   0.000   0.000   0.000   0.000   0.000   0.000   0.000
  0.000   0.000   0.000  -0.000   2.026   0.000  -0.000   0.067   0.000   0.000   0.000   0.000   0.000   0.000   0.000   0.000
  0.000   0.000   0.067   0.000   0.000   0.311  -0.000   0.000   0.000   0.000   0.000   0.000   0.000   0.000   0.000   0.000
  0.000   0.000   0.000   0.067  -0.000  -0.000   0.311   0.000   0.000   0.000   0.000   0.000   0.000   0.000   0.000   0.000
  0.000   0.000   0.000  -0.000   0.067   0.000   0.000   0.311   0.000   0.000   0.000   0.000   0.000   0.000   0.000   0.000
 -0.000   0.000   0.000   0.000   0.000   0.000   0.000   0.000   0.087   0.000   0.000  -0.000  -0.000  -0.403   0.000  -0.000
 -0.000  -0.000   0.000   0.000   0.000   0.000   0.000   0.000   0.000   0.087  -0.000   0.000  -0.000   0.000  -0.403   0.000
 -0.000  -0.000   0.000   0.000   0.000   0.000   0.000   0.000   0.000   0.000   0.066   0.000   0.000  -0.000   0.000  -0.284
  0.000   0.000   0.000   0.000   0.000   0.000   0.000   0.000  -0.000   0.000  -0.000   0.087  -0.000  -0.000  -0.000  -0.000
  0.000   0.000   0.000   0.000   0.000   0.000   0.000   0.000  -0.000  -0.000   0.000   0.000   0.066   0.000   0.000   0.000
  0.000   0.000   0.000   0.000   0.000   0.000   0.000   0.000  -0.403   0.000  -0.000  -0.000   0.000   1.974  -0.000   0.000
  0.000   0.000   0.000   0.000   0.000   0.000   0.000   0.000   0.000  -0.403   0.000  -0.000   0.000  -0.000   1.974   0.000
  0.000   0.000   0.000   0.000   0.000   0.000   0.000   0.000   0.000   0.000  -0.284   0.000  -0.000  -0.000   0.000   1.310
 -0.000  -0.000   0.000   0.000   0.000   0.000   0.000   0.000   0.000  -0.000   0.000  -0.403   0.000   0.000   0.000   0.000
  0.000   0.000   0.000   0.000   0.000   0.000   0.000   0.000  -0.000   0.000  -0.000  -0.000  -0.284   0.000   0.000  -0.000


------------------------ aborting loop because EDIFF is reached ----------------------------------------


    CHARGE:  cpu time    0.0070: real time    0.0070
    FORLOC:  cpu time    0.0020: real time    0.0020
    FORNL :  cpu time    0.0160: real time    0.0168
    STRESS:  cpu time    0.0620: real time    0.0620
    FORCOR:  cpu time    0.0160: real time    0.0159
    FORHAR:  cpu time    0.0040: real time    0.0040
    MIXING:  cpu time    0.0010: real time    0.0008
    OFIELD:  cpu time    0.0000: real time    0.0000

  FORCE on cell =-STRESS in cart. coord.  units (eV):
  Direction    XX          YY          ZZ          XY          YZ          ZX
  --------------------------------------------------------------------------------------
  Alpha Z   185.39986   185.39986   185.39986
  Ewald    -644.69310  -644.69310  -644.69310     0.00000    -0.00000    -0.00000
  Hartree   147.75378   147.75378   147.75378    -0.00000    -0.00000    -0.00000
  E(xc)    -145.47471  -145.47471  -145.47471     0.00000    -0.00000     0.00000
  Local     -10.73621   -10.73621   -10.73621     0.00000    -0.00000    -0.00000
  n-local  -123.69965  -118.02508  -113.23277    -0.00018     0.00004    -0.00002
  augment    29.06156    29.06156    29.06156     0.00000    -0.00000    -0.00000
  Kinetic   546.82501   564.69374   569.24186     0.00021    -0.00013     0.00003
  Fock        0.00000     0.00000     0.00000     0.00000     0.00000     0.00000
  -------------------------------------------------------------------------------------
  Total       3.24556     3.24556     3.24556     0.00000     0.00000     0.00000
  in kB      87.30669    87.30669    87.30669     0.00000     0.00000     0.00000
  external pressure =       87.31 kB  Pullay stress =        0.00 kB


 VOLUME and BASIS-vectors are now :
 -----------------------------------------------------------------------------
  energy-cutoff  :      500.00
  volume of cell :       59.56
      direct lattice vectors                 reciprocal lattice vectors
     3.905268000  0.000000000  0.000000000     0.256064373  0.000000000  0.000000000
     0.000000000  3.905268000  0.000000000     0.000000000  0.256064373  0.000000000
     0.000000000  0.000000000  3.905268000     0.000000000  0.000000000  0.256064373

  length of vectors
     3.905268000  3.905268000  3.905268000     0.256064373  0.256064373  0.256064373


 FORCES acting on ions
    electron-ion (+dipol)            ewald-force                    non-local-force                 convergence-correction
 -----------------------------------------------------------------------------------------------
   -.111E-14 -.398E-14 -.440E-14   -.987E-14 0.226E-14 -.502E-14   0.000E+00 0.000E+00 0.000E+00   0.595E-14 0.879E-14 0.254E-14
   0.365E-14 -.461E-12 -.401E-13   0.387E-14 0.424E-14 -.122E-14   0.000E+00 0.000E+00 0.000E+00   -.157E-14 0.107E-14 0.164E-14
   0.154E-12 -.142E-11 -.153E-11   0.648E-14 0.208E-14 -.144E-14   0.000E+00 0.000E+00 0.000E+00   -.546E-14 0.108E-13 -.428E-14
   0.156E-12 -.510E-14 -.193E-11   0.284E-14 -.378E-14 0.434E-14   0.000E+00 0.000E+00 0.000E+00   -.385E-14 -.643E-16 -.394E-14
   -.422E-14 0.155E-12 0.154E-12   -.327E-14 -.425E-14 0.433E-14   0.000E+00 0.000E+00 0.000E+00   0.796E-14 0.121E-13 0.382E-15
 -----------------------------------------------------------------------------------------------
   0.308E-12 -.173E-11 -.336E-11   0.432E-16 0.547E-15 0.100E-14   0.000E+00 0.000E+00 0.000E+00   0.303E-14 0.327E-13 -.366E-14
 
 
 POSITION                                       TOTAL-FORCE (eV/Angst)
 -----------------------------------------------------------------------------------
      0.00000      0.00000      0.00000         0.000000      0.000000      0.000000
      1.95263      1.95263      1.95263         0.000000      0.000000      0.000000
      1.95263      1.95263      0.00000         0.000000      0.000000      0.000000
      1.95263      0.00000      1.95263         0.000000      0.000000      0.000000
      0.00000      1.95263      1.95263         0.000000      0.000000      0.000000
 -----------------------------------------------------------------------------------
    total drift:                                0.000000     -0.000000     -0.000000


--------------------------------------------------------------------------------------------------------



  FREE ENERGIE OF THE ION-ELECTRON SYSTEM (eV)
  ---------------------------------------------------
  free  energy   TOTEN  =       -38.88624156 eV

  energy  without entropy=      -38.88624156  energy(sigma->0) =      -38.88624156
 


--------------------------------------------------------------------------------------------------------


    POTLOK:  cpu time    0.0190: real time    0.0191


--------------------------------------------------------------------------------------------------------


     LOOP+:  cpu time    1.2898: real time    1.3318
    4ORBIT:  cpu time    0.0000: real time    0.0000
 BZINTS: Fermi energy:  2.818172; 32.000000 electrons
         Band energy:-209.881580;  BLOECHL correction:  0.000000

 total amount of memory used by VASP MPI-rank0    35257. kBytes
=======================================================================

   base      :      30000. kBytes
   nonl-proj :       1410. kBytes
   fftplans  :       1176. kBytes
   grid      :       2105. kBytes
   one-center:         46. kBytes
   wavefun   :        520. kBytes
 
  
  
 General timing and accounting informations for this job:
 ========================================================
  
                  Total CPU time used (sec):        1.979
                            User time (sec):        1.903
                          System time (sec):        0.076
                         Elapsed time (sec):        2.163
  
                   Maximum memory used (kb):       34748.
                   Average memory used (kb):           0.
  
                          Minor page faults:         9571
                          Major page faults:          201
                 Voluntary context switches:         2688
