Starting job 28424454 ("jobname") on c15-18 at Sat Oct 26 17:42:27 CEST 2019
 running on    4 total cores
 distrk:  each k-point on    4 cores,    1 groups
 distr:  one band on    2 cores,    2 groups
 using from now: INCAR     
 vasp.5.4.4.18Apr17-6-g9f103f2a35 (build Jun 30 2017 11:15:00) complex          
  
 POSCAR found type information on POSCAR  Sr Ti O 
 POSCAR found :  3 types and       5 ions
 scaLAPACK will be used
 LDA part: xc-table for Pade appr. of Perdew
 POSCAR, INCAR and KPOINTS ok, starting setup
 FFT: planning ...
 WAVECAR not read
 WARNING: random wavefunctions but no delay for mixing, default for NELMDL
 entering main loop
       N       E                     dE             d eps       ncg     rms          rms(c)
DAV:   1     0.310923611402E+03    0.31092E+03   -0.15371E+04   160   0.157E+03
DAV:   2    -0.138216103923E+02   -0.32475E+03   -0.31250E+03   212   0.355E+02
DAV:   3    -0.486066552836E+02   -0.34785E+02   -0.34420E+02   192   0.129E+02
DAV:   4    -0.499976751498E+02   -0.13910E+01   -0.13874E+01   264   0.245E+01
DAV:   5    -0.500418313637E+02   -0.44156E-01   -0.44143E-01   216   0.304E+00    0.185E+01
RMM:   6    -0.394095422243E+02    0.10632E+02   -0.56982E+01   175   0.421E+01    0.596E+00
RMM:   7    -0.390014409411E+02    0.40810E+00   -0.12307E+00   194   0.806E+00    0.319E+00
RMM:   8    -0.389270665869E+02    0.74374E-01   -0.10988E+00   181   0.774E+00    0.127E+00
RMM:   9    -0.388953826072E+02    0.31684E-01   -0.59869E-02   197   0.176E+00    0.676E-01
RMM:  10    -0.388850321218E+02    0.10350E-01   -0.77970E-02   188   0.157E+00    0.977E-02
RMM:  11    -0.388860562776E+02   -0.10242E-02   -0.76871E-03   200   0.449E-01    0.610E-02
RMM:  12    -0.388862402303E+02   -0.18395E-03   -0.19064E-03   195   0.222E-01    0.570E-02
RMM:  13    -0.388862482291E+02   -0.79988E-05   -0.88285E-04   178   0.150E-01    0.272E-02
RMM:  14    -0.388862346684E+02    0.13561E-04   -0.26581E-04   160   0.864E-02    0.124E-02
RMM:  15    -0.388862415624E+02   -0.68939E-05   -0.95062E-05   124   0.294E-02
   1 F= -.38886242E+02 E0= -.38886242E+02  d E =0.000000E+00

Currently Loaded Modulefiles:
  1) intel/2017.4         2) perf-reports/7.0.6

Job script resource usage:
       JobID  MaxVMSize     MaxRSS 
------------ ---------- ---------- 
28424454.ba+    216884K      2594K 

Job step resource usage:
       JobID    JobName  AllocCPUS  MaxVMSize     MaxRSS    Elapsed ExitCode 
------------ ---------- ---------- ---------- ---------- ---------- -------- 
28424454        jobname          4                         00:00:10      0:0 
28424454.0    pmi_proxy          1    279832K       520K   00:00:03      0:0 

Job 28424454 ("jobname") completed on c15-18 at Sat Oct 26 17:42:32 CEST 2019
