<?xml version="1.0" encoding="ISO-8859-1"?>
<modeling>
 <generator>
  <i name="program" type="string">vasp </i>
  <i name="version" type="string">5.4.4.18Apr17-6-g9f103f2a35  </i>
  <i name="subversion" type="string">(build Jun 30 2017 11:15:00) complex            parallel </i>
  <i name="platform" type="string">STALLO_VASP_5.4.4 </i>
  <i name="date" type="string">2019 10 26 </i>
  <i name="time" type="string">17:42:29 </i>
 </generator>
 <incar>
  <i type="string" name="PREC">normal    ! low/normal/accurate</i>
  <i type="string" name="ALGO"> Fast      ! Algorithm for electronic re</i>
  <i type="int" name="ISPIN">     1</i>
  <i type="int" name="NELMIN">     4</i>
  <i name="EDIFF">      0.00001000</i>
  <i type="int" name="NSW">     0</i>
  <i name="ENCUT">    500.00000000</i>
  <i type="logical" name="LREAL"> F  </i>
  <i type="int" name="ISMEAR">    -5</i>
  <i name="SIGMA">      0.20000000</i>
  <i type="logical" name="LWAVE"> F  </i>
  <v type="int" name="KPOINT_BSE">    -1     0     0     0</v>
 </incar>
 <structure name="primitive_cell" >
  <crystal>
   <varray name="basis" >
    <v>       3.90526800       0.00000000       0.00000000 </v>
    <v>       0.00000000       3.90526800       0.00000000 </v>
    <v>       0.00000000       0.00000000       3.90526800 </v>
   </varray>
   <i name="volume">     59.55970368 </i>
   <varray name="rec_basis" >
    <v>       0.25606437       0.00000000       0.00000000 </v>
    <v>       0.00000000       0.25606437       0.00000000 </v>
    <v>       0.00000000       0.00000000       0.25606437 </v>
   </varray>
  </crystal>
  <varray name="positions" >
   <v>       0.00000000       0.00000000       0.00000000 </v>
   <v>      -0.50000000      -0.50000000       0.00000000 </v>
   <v>      -0.50000000       0.00000000      -0.50000000 </v>
   <v>       0.00000000      -0.50000000      -0.50000000 </v>
   <v>      -0.50000000      -0.50000000      -0.50000000 </v>
  </varray>
 </structure>
 <varray name="primitive_index" >
  <v type="int" >        1 </v>
  <v type="int" >        3 </v>
  <v type="int" >        4 </v>
  <v type="int" >        5 </v>
  <v type="int" >        2 </v>
 </varray>
 <kpoints>
  <generation param="Gamma">
   <v type="int" name="divisions">       2        2        2 </v>
   <v name="usershift">      0.00000000       0.00000000       0.00000000 </v>
   <v name="genvec1">      0.50000000       0.00000000       0.00000000 </v>
   <v name="genvec2">      0.00000000       0.50000000       0.00000000 </v>
   <v name="genvec3">      0.00000000       0.00000000       0.50000000 </v>
   <v name="shift">      0.00000000       0.00000000       0.00000000 </v>
  </generation>
  <varray name="kpointlist" >
   <v>       0.00000000       0.00000000       0.00000000 </v>
   <v>       0.50000000       0.00000000       0.00000000 </v>
   <v>       0.50000000       0.50000000       0.00000000 </v>
   <v>       0.50000000       0.50000000       0.50000000 </v>
  </varray>
  <varray name="weights" >
   <v>       0.12500000 </v>
   <v>       0.37500000 </v>
   <v>       0.37500000 </v>
   <v>       0.12500000 </v>
  </varray>
  <varray name="tetrahedronlist"  type="int" >
   <v type="int" >       12        1        2        2        3 </v>
   <v type="int" >       12        2        2        3        3 </v>
   <v type="int" >       12        2        3        3        4 </v>
   <v type="int" >       12        1        2        3        4 </v>
  </varray>
  <i name="volumeweight">      0.02083333 </i>
 </kpoints>
 <parameters>
  <separator name="general" >
   <i type="string" name="SYSTEM">unknown system</i>
   <i type="logical" name="LCOMPAT"> F  </i>
  </separator>
  <separator name="electronic" >
   <i type="string" name="PREC">normal</i>
   <i name="ENMAX">    500.00000000</i>
   <i name="ENAUG">    605.39200000</i>
   <i name="EDIFF">      0.00001000</i>
   <i type="int" name="IALGO">    68</i>
   <i type="int" name="IWAVPR">    10</i>
   <i type="int" name="NBANDS">    20</i>
   <i name="NELECT">     32.00000000</i>
   <i type="int" name="TURBO">     0</i>
   <i type="int" name="IRESTART">     0</i>
   <i type="int" name="NREBOOT">     0</i>
   <i type="int" name="NMIN">     0</i>
   <i name="EREF">      0.00000000</i>
   <separator name="electronic smearing" >
    <i type="int" name="ISMEAR">    -5</i>
    <i name="SIGMA">      0.20000000</i>
    <i name="KSPACING">      0.50000000</i>
    <i type="logical" name="KGAMMA"> T  </i>
   </separator>
   <separator name="electronic projectors" >
    <i type="logical" name="LREAL"> F  </i>
    <v name="ROPT">      0.00000000      0.00000000      0.00000000</v>
    <i type="int" name="LMAXPAW">  -100</i>
    <i type="int" name="LMAXMIX">     2</i>
    <i type="logical" name="NLSPLINE"> F  </i>
   </separator>
   <separator name="electronic startup" >
    <i type="int" name="ISTART">     0</i>
    <i type="int" name="ICHARG">     2</i>
    <i type="int" name="INIWAV">     1</i>
   </separator>
   <separator name="electronic spin" >
    <i type="int" name="ISPIN">     1</i>
    <i type="logical" name="LNONCOLLINEAR"> F  </i>
    <v name="MAGMOM">      1.00000000      1.00000000      1.00000000      1.00000000      1.00000000</v>
    <i name="NUPDOWN">     -1.00000000</i>
    <i type="logical" name="LSORBIT"> F  </i>
    <v name="SAXIS">      0.00000000      0.00000000      1.00000000</v>
    <i type="logical" name="LSPIRAL"> F  </i>
    <v name="QSPIRAL">      0.00000000      0.00000000      0.00000000</v>
    <i type="logical" name="LZEROZ"> F  </i>
   </separator>
   <separator name="electronic exchange-correlation" >
    <i type="logical" name="LASPH"> F  </i>
    <i type="logical" name="LMETAGGA"> F  </i>
   </separator>
   <separator name="electronic convergence" >
    <i type="int" name="NELM">    60</i>
    <i type="int" name="NELMDL">     0</i>
    <i type="int" name="NELMIN">     4</i>
    <i name="ENINI">    500.00000000</i>
    <separator name="electronic convergence detail" >
     <i type="logical" name="LDIAG"> T  </i>
     <i type="logical" name="LSUBROT"> F  </i>
     <i name="WEIMIN">      0.00000000</i>
     <i name="EBREAK">      0.00000013</i>
     <i name="DEPER">      0.30000000</i>
     <i type="int" name="NRMM">     4</i>
     <i name="TIME">      0.40000000</i>
    </separator>
   </separator>
   <separator name="electronic mixer" >
    <i name="AMIX">      0.40000000</i>
    <i name="BMIX">      1.00000000</i>
    <i name="AMIN">      0.10000000</i>
    <i name="AMIX_MAG">      1.60000000</i>
    <i name="BMIX_MAG">      1.00000000</i>
    <separator name="electronic mixer details" >
     <i type="int" name="IMIX">     4</i>
     <i type="logical" name="MIXFIRST"> F  </i>
     <i type="int" name="MAXMIX">   -45</i>
     <i name="WC">    100.00000000</i>
     <i type="int" name="INIMIX">     1</i>
     <i type="int" name="MIXPRE">     1</i>
     <i type="int" name="MREMOVE">     5</i>
    </separator>
   </separator>
   <separator name="electronic dipolcorrection" >
    <i type="logical" name="LDIPOL"> F  </i>
    <i type="logical" name="LMONO"> F  </i>
    <i type="int" name="IDIPOL">     0</i>
    <i name="EPSILON">      1.00000000</i>
    <v name="DIPOL">   -100.00000000   -100.00000000   -100.00000000</v>
    <i name="EFIELD">      0.00000000</i>
   </separator>
  </separator>
  <separator name="grids" >
   <i type="int" name="NGX">    24</i>
   <i type="int" name="NGY">    24</i>
   <i type="int" name="NGZ">    24</i>
   <i type="int" name="NGXF">    48</i>
   <i type="int" name="NGYF">    48</i>
   <i type="int" name="NGZF">    48</i>
   <i type="logical" name="ADDGRID"> F  </i>
  </separator>
  <separator name="ionic" >
   <i type="int" name="NSW">     0</i>
   <i type="int" name="IBRION">    -1</i>
   <i type="int" name="MDALGO">     0</i>
   <i type="int" name="ISIF">     2</i>
   <i name="PSTRESS">      0.00000000</i>
   <i name="EDIFFG">      0.00010000</i>
   <i type="int" name="NFREE">     0</i>
   <i name="POTIM">      0.50000000</i>
   <i name="SMASS">     -3.00000000</i>
   <i name="SCALEE">      1.00000000</i>
  </separator>
  <separator name="ionic md" >
   <i name="TEBEG">      0.00010000</i>
   <i name="TEEND">      0.00010000</i>
   <i type="int" name="NBLOCK">     1</i>
   <i type="int" name="KBLOCK">     1</i>
   <i type="int" name="NPACO">   256</i>
   <i name="APACO">     16.00000000</i>
  </separator>
  <separator name="symmetry" >
   <i type="int" name="ISYM">     2</i>
   <i name="SYMPREC">      0.00001000</i>
  </separator>
  <separator name="dos" >
   <i type="int" name="LORBIT">     0</i>
   <v name="RWIGS">     -1.00000000     -1.00000000     -1.00000000</v>
   <i type="int" name="NEDOS">   301</i>
   <i name="EMIN">     10.00000000</i>
   <i name="EMAX">    -10.00000000</i>
   <i name="EFERMI">      0.00000000</i>
  </separator>
  <separator name="writing" >
   <i type="int" name="NWRITE">     2</i>
   <i type="logical" name="LWAVE"> F  </i>
   <i type="logical" name="LDOWNSAMPLE"> F  </i>
   <i type="logical" name="LCHARG"> T  </i>
   <i type="logical" name="LPARD"> F  </i>
   <i type="logical" name="LVTOT"> F  </i>
   <i type="logical" name="LVHAR"> F  </i>
   <i type="logical" name="LELF"> F  </i>
   <i type="logical" name="LOPTICS"> F  </i>
   <v name="STM">      0.00000000      0.00000000      0.00000000      0.00000000      0.00000000      0.00000000      0.00000000</v>
  </separator>
  <separator name="performance" >
   <i type="int" name="NPAR">     2</i>
   <i type="int" name="NSIM">     4</i>
   <i type="int" name="NBLK">    -1</i>
   <i type="logical" name="LPLANE"> T  </i>
   <i type="logical" name="LSCALAPACK"> T  </i>
   <i type="logical" name="LSCAAWARE"> F  </i>
   <i type="logical" name="LSCALU"> F  </i>
   <i type="logical" name="LASYNC"> F  </i>
   <i type="logical" name="LORBITALREAL"> F  </i>
  </separator>
  <separator name="miscellaneous" >
   <i type="int" name="IDIOT">     3</i>
   <i type="int" name="ISPECIAL">     0</i>
   <i type="logical" name="LMUSIC"> F  </i>
   <v name="POMASS">     87.62000000     47.88000000     16.00000000</v>
   <v name="DARWINR">      0.00000000      0.00000000      0.00000000</v>
   <v name="DARWINV">      1.00000000      1.00000000      1.00000000</v>
   <i type="logical" name="LCORR"> T  </i>
  </separator>
  <i type="logical" name="GGA_COMPAT"> T  </i>
  <i type="logical" name="LBERRY"> F  </i>
  <i type="int" name="ICORELEVEL">     0</i>
  <i type="logical" name="LDAU"> F  </i>
  <i type="int" name="I_CONSTRAINED_M">     0</i>
  <separator name="electronic exchange-correlation" >
   <i type="string" name="GGA">--</i>
   <i type="int" name="VOSKOWN">     0</i>
   <i type="logical" name="LHFCALC"> F  </i>
   <i type="string" name="PRECFOCK"></i>
   <i type="logical" name="LSYMGRAD"> F  </i>
   <i type="logical" name="LHFONE"> F  </i>
   <i type="logical" name="LRHFCALC"> F  </i>
   <i type="logical" name="LTHOMAS"> F  </i>
   <i type="logical" name="LMODELHF"> F  </i>
   <i name="ENCUT4O">     -1.00000000</i>
   <i type="int" name="EXXOEP">     0</i>
   <i type="int" name="FOURORBIT">     0</i>
   <i name="AEXX">      0.00000000</i>
   <i name="HFALPHA">      0.00000000</i>
   <i name="MCALPHA">      0.00000000</i>
   <i name="ALDAX">      1.00000000</i>
   <i name="AGGAX">      1.00000000</i>
   <i name="ALDAC">      1.00000000</i>
   <i name="AGGAC">      1.00000000</i>
   <i type="int" name="NKREDX">     1</i>
   <i type="int" name="NKREDY">     1</i>
   <i type="int" name="NKREDZ">     1</i>
   <i type="logical" name="SHIFTRED"> F  </i>
   <i type="logical" name="ODDONLY"> F  </i>
   <i type="logical" name="EVENONLY"> F  </i>
   <i type="int" name="LMAXFOCK">     0</i>
   <i type="int" name="NMAXFOCKAE">     0</i>
   <i type="logical" name="LFOCKAEDFT"> F  </i>
   <i name="HFSCREEN">      0.00000000</i>
   <i name="HFSCREENC">      0.00000000</i>
   <i type="int" name="NBANDSGWLOW">     0</i>
  </separator>
  <separator name="vdW DFT" >
   <i type="logical" name="LUSE_VDW"> F  </i>
   <i name="Zab_VDW">     -0.84910000</i>
   <i name="PARAM1">      0.12340000</i>
   <i name="PARAM2">      1.00000000</i>
   <i name="PARAM3">      0.00000000</i>
  </separator>
  <separator name="model GW" >
   <i type="int" name="MODEL_GW">     0</i>
   <i name="MODEL_EPS0">      7.14716444</i>
   <i name="MODEL_ALPHA">      1.00000000</i>
  </separator>
  <separator name="linear response parameters" >
   <i type="logical" name="LEPSILON"> F  </i>
   <i type="logical" name="LRPA"> F  </i>
   <i type="logical" name="LNABLA"> F  </i>
   <i type="logical" name="LVEL"> F  </i>
   <i type="int" name="KINTER">     0</i>
   <i name="CSHIFT">      0.10000000</i>
   <i name="OMEGAMAX">     -1.00000000</i>
   <i name="DEG_THRESHOLD">      0.00200000</i>
   <i name="RTIME">     -0.10000000</i>
   <i name="WPLASMAI">      0.00000000</i>
   <v name="DFIELD">      0.00000000      0.00000000      0.00000000</v>
   <v name="WPLASMA">      0.00000000      0.00000000      0.00000000      0.00000000      0.00000000      0.00000000      0.00000000      0.00000000      0.00000000</v>
  </separator>
  <separator name="orbital magnetization" >
   <i type="logical" name="NUCIND"> F  </i>
   <v name="MAGPOS">      0.00000000      0.00000000      0.00000000</v>
   <i type="logical" name="LNICSALL"> T  </i>
   <i type="logical" name="ORBITALMAG"> F  </i>
   <i type="logical" name="LMAGBLOCH"> F  </i>
   <i type="logical" name="LCHIMAG"> F  </i>
   <i type="logical" name="LGAUGE"> T  </i>
   <i type="int" name="MAGATOM">     0</i>
   <v name="MAGDIPOL">      0.00000000      0.00000000      0.00000000</v>
   <v name="AVECCONST">      0.00000000      0.00000000      0.00000000</v>
  </separator>
  <separator name="response functions" >
   <i type="logical" name="LADDER"> F  </i>
   <i type="logical" name="LRPAFORCE"> F  </i>
   <i type="logical" name="LFXC"> F  </i>
   <i type="logical" name="LHARTREE"> T  </i>
   <i type="int" name="IBSE">     0</i>
   <v type="int" name="KPOINT">    -1     0     0     0</v>
   <i type="logical" name="LTCTE"> F  </i>
   <i type="logical" name="LTETE"> F  </i>
   <i type="logical" name="LTRIPLET"> F  </i>
   <i type="logical" name="LFXCEPS"> F  </i>
   <i type="logical" name="LFXHEG"> F  </i>
   <i type="int" name="NATURALO">     2</i>
   <i type="logical" name="L2ORDER"> F  </i>
   <i type="logical" name="LMP2LT"> F  </i>
   <i type="logical" name="LUSEW"> F  </i>
   <i name="ENCUTGW">     -2.00000000</i>
   <i name="ENCUTGWSOFT">     -2.00000000</i>
   <i name="ENCUTLF">     -1.00000000</i>
   <i type="int" name="LMAXMP2">    -1</i>
   <i name="SCISSOR">      0.00000000</i>
   <i type="int" name="NOMEGA">     0</i>
   <i type="int" name="NOMEGAR">     0</i>
   <i type="int" name="NBANDSGW">    -1</i>
   <i type="int" name="NBANDSO">    -1</i>
   <i type="int" name="NBANDSV">    -1</i>
   <i type="int" name="NELM">     1</i>
   <i type="int" name="NELMHF">     1</i>
   <i type="int" name="DIM">     3</i>
   <i type="int" name="ANTIRES">     0</i>
   <i name="OMEGAMAX">    -30.00000000</i>
   <i name="OMEGAMIN">    -30.00000000</i>
   <i name="OMEGATL">   -200.00000000</i>
   <i type="int" name="OMEGAGRID">   140</i>
   <i name="CSHIFT">     -0.10000000</i>
   <i type="logical" name="SELFENERGY"> F  </i>
   <i type="logical" name="LSPECTRAL"> F  </i>
   <i type="logical" name="LSPECTRALGW"> F  </i>
   <i type="logical" name="LSINGLES"> F  </i>
   <i type="logical" name="LFERMIGW"> F  </i>
   <i type="logical" name="ODDONLYGW"> F  </i>
   <i type="logical" name="EVENONLYGW"> F  </i>
   <i type="int" name="NKREDLFX">     1</i>
   <i type="int" name="NKREDLFY">     1</i>
   <i type="int" name="NKREDLFZ">     1</i>
   <i type="int" name="MAXMEM">  2800</i>
   <i type="int" name="TELESCOPE">     0</i>
   <i type="int" name="TAUPAR">     1</i>
   <i type="int" name="OMEGAPAR">    -1</i>
   <i name="LAMBDA">      1.00000000</i>
  </separator>
  <separator name="External order field" >
   <i name="OFIELD_KAPPA">      0.00000000</i>
   <v name="OFIELD_K">      0.00000000      0.00000000      0.00000000</v>
   <i name="OFIELD_Q6_NEAR">      0.00000000</i>
   <i name="OFIELD_Q6_FAR">      0.00000000</i>
   <i name="OFIELD_A">      0.00000000</i>
  </separator>
 </parameters>
 <atominfo>
  <atoms>       5 </atoms>
  <types>       3 </types>
  <array name="atoms" >
   <dimension dim="1">ion</dimension>
   <field type="string">element</field>
   <field type="int">atomtype</field>
   <set>
    <rc><c>Sr</c><c>   1</c></rc>
    <rc><c>Ti</c><c>   2</c></rc>
    <rc><c>O </c><c>   3</c></rc>
    <rc><c>O </c><c>   3</c></rc>
    <rc><c>O </c><c>   3</c></rc>
   </set>
  </array>
  <array name="atomtypes" >
   <dimension dim="1">type</dimension>
   <field type="int">atomspertype</field>
   <field type="string">element</field>
   <field>mass</field>
   <field>valence</field>
   <field type="string">pseudopotential</field>
   <set>
    <rc><c>   1</c><c>Sr</c><c>     87.62000000</c><c>     10.00000000</c><c> PAW_PBE Sr_sv 07Sep2000                </c></rc>
    <rc><c>   1</c><c>Ti</c><c>     47.88000000</c><c>      4.00000000</c><c> PAW_PBE Ti 08Apr2002                   </c></rc>
    <rc><c>   3</c><c>O </c><c>     16.00000000</c><c>      6.00000000</c><c> PAW_PBE O 08Apr2002                    </c></rc>
   </set>
  </array>
 </atominfo>
 <structure name="initialpos" >
  <crystal>
   <varray name="basis" >
    <v>       3.90526800       0.00000000       0.00000000 </v>
    <v>       0.00000000       3.90526800       0.00000000 </v>
    <v>       0.00000000       0.00000000       3.90526800 </v>
   </varray>
   <i name="volume">     59.55970368 </i>
   <varray name="rec_basis" >
    <v>       0.25606437       0.00000000       0.00000000 </v>
    <v>       0.00000000       0.25606437       0.00000000 </v>
    <v>       0.00000000       0.00000000       0.25606437 </v>
   </varray>
  </crystal>
  <varray name="positions" >
   <v>       0.00000000       0.00000000       0.00000000 </v>
   <v>       0.50000000       0.50000000       0.50000000 </v>
   <v>       0.50000000       0.50000000       0.00000000 </v>
   <v>       0.50000000       0.00000000       0.50000000 </v>
   <v>       0.00000000       0.50000000       0.50000000 </v>
  </varray>
 </structure>
 <calculation>
  <scstep>
   <time name="dav">    0.05    0.05</time>
   <time name="total">    0.07    0.09</time>
   <energy>
    <i name="alphaZ">    185.39985751 </i>
    <i name="ewald">  -1934.07799583 </i>
    <i name="hartreedc">   -403.14003404 </i>
    <i name="XCdc">     82.31788258 </i>
    <i name="pawpsdc">   1333.61297253 </i>
    <i name="pawaedc">  -1284.78446064 </i>
    <i name="eentropy">      0.00000000 </i>
    <i name="bandstr">     97.27832675 </i>
    <i name="atom">   2234.31706254 </i>
    <i name="e_fr_energy">    310.92361140 </i>
    <i name="e_wo_entrp">    310.92361140 </i>
    <i name="e_0_energy">    310.92361140 </i>
   </energy>
  </scstep>
  <scstep>
   <time name="dav">    0.06    0.06</time>
   <time name="total">    0.06    0.06</time>
   <energy>
    <i name="e_fr_energy">    -13.82161039 </i>
    <i name="e_wo_entrp">    -13.82161039 </i>
    <i name="e_0_energy">    -13.82161039 </i>
   </energy>
  </scstep>
  <scstep>
   <time name="dav">    0.05    0.05</time>
   <time name="total">    0.05    0.05</time>
   <energy>
    <i name="e_fr_energy">    -48.60665528 </i>
    <i name="e_wo_entrp">    -48.60665528 </i>
    <i name="e_0_energy">    -48.60665528 </i>
   </energy>
  </scstep>
  <scstep>
   <time name="dav">    0.06    0.07</time>
   <time name="total">    0.06    0.07</time>
   <energy>
    <i name="e_fr_energy">    -49.99767515 </i>
    <i name="e_wo_entrp">    -49.99767515 </i>
    <i name="e_0_energy">    -49.99767515 </i>
   </energy>
  </scstep>
  <scstep>
   <time name="dav">    0.06    0.06</time>
   <time name="total">    0.06    0.06</time>
   <energy>
    <i name="e_fr_energy">    -50.04183136 </i>
    <i name="e_wo_entrp">    -50.04183136 </i>
    <i name="e_0_energy">    -50.04183136 </i>
   </energy>
  </scstep>
  <scstep>
   <time name="diag">    0.01    0.01</time>
   <time name="diis">    0.03    0.03</time>
   <time name="orth">    0.00    0.00</time>
   <time name="total">    0.07    0.07</time>
   <energy>
    <i name="e_fr_energy">    -39.40954222 </i>
    <i name="e_wo_entrp">    -39.40954222 </i>
    <i name="e_0_energy">    -39.40954222 </i>
   </energy>
  </scstep>
  <scstep>
   <time name="diag">    0.01    0.01</time>
   <time name="diis">    0.04    0.04</time>
   <time name="orth">    0.00    0.00</time>
   <time name="total">    0.08    0.08</time>
   <energy>
    <i name="e_fr_energy">    -39.00144094 </i>
    <i name="e_wo_entrp">    -39.00144094 </i>
    <i name="e_0_energy">    -39.00144094 </i>
   </energy>
  </scstep>
  <scstep>
   <time name="diag">    0.01    0.01</time>
   <time name="diis">    0.03    0.03</time>
   <time name="orth">    0.00    0.00</time>
   <time name="total">    0.07    0.07</time>
   <energy>
    <i name="e_fr_energy">    -38.92706659 </i>
    <i name="e_wo_entrp">    -38.92706659 </i>
    <i name="e_0_energy">    -38.92706659 </i>
   </energy>
  </scstep>
  <scstep>
   <time name="diag">    0.01    0.01</time>
   <time name="diis">    0.04    0.04</time>
   <time name="orth">    0.00    0.00</time>
   <time name="total">    0.07    0.07</time>
   <energy>
    <i name="e_fr_energy">    -38.89538261 </i>
    <i name="e_wo_entrp">    -38.89538261 </i>
    <i name="e_0_energy">    -38.89538261 </i>
   </energy>
  </scstep>
  <scstep>
   <time name="diag">    0.01    0.01</time>
   <time name="diis">    0.03    0.03</time>
   <time name="orth">    0.00    0.00</time>
   <time name="total">    0.07    0.07</time>
   <energy>
    <i name="e_fr_energy">    -38.88503212 </i>
    <i name="e_wo_entrp">    -38.88503212 </i>
    <i name="e_0_energy">    -38.88503212 </i>
   </energy>
  </scstep>
  <scstep>
   <time name="diag">    0.01    0.01</time>
   <time name="diis">    0.04    0.04</time>
   <time name="orth">    0.00    0.00</time>
   <time name="total">    0.07    0.07</time>
   <energy>
    <i name="e_fr_energy">    -38.88605628 </i>
    <i name="e_wo_entrp">    -38.88605628 </i>
    <i name="e_0_energy">    -38.88605628 </i>
   </energy>
  </scstep>
  <scstep>
   <time name="diag">    0.01    0.01</time>
   <time name="diis">    0.03    0.04</time>
   <time name="orth">    0.00    0.00</time>
   <time name="total">    0.07    0.07</time>
   <energy>
    <i name="e_fr_energy">    -38.88624023 </i>
    <i name="e_wo_entrp">    -38.88624023 </i>
    <i name="e_0_energy">    -38.88624023 </i>
   </energy>
  </scstep>
  <scstep>
   <time name="diag">    0.01    0.01</time>
   <time name="diis">    0.03    0.03</time>
   <time name="orth">    0.00    0.00</time>
   <time name="total">    0.07    0.07</time>
   <energy>
    <i name="e_fr_energy">    -38.88624823 </i>
    <i name="e_wo_entrp">    -38.88624823 </i>
    <i name="e_0_energy">    -38.88624823 </i>
   </energy>
  </scstep>
  <scstep>
   <time name="diag">    0.01    0.01</time>
   <time name="diis">    0.03    0.03</time>
   <time name="orth">    0.00    0.00</time>
   <time name="total">    0.07    0.07</time>
   <energy>
    <i name="e_fr_energy">    -38.88623467 </i>
    <i name="e_wo_entrp">    -38.88623467 </i>
    <i name="e_0_energy">    -38.88623467 </i>
   </energy>
  </scstep>
  <scstep>
   <time name="diag">    0.01    0.01</time>
   <time name="diis">    0.03    0.03</time>
   <time name="orth">    0.00    0.00</time>
   <time name="total">    0.05    0.05</time>
   <energy>
    <i name="alphaZ">    185.39985751 </i>
    <i name="ewald">  -1934.07799583 </i>
    <i name="hartreedc">   -443.19402185 </i>
    <i name="XCdc">     86.40276210 </i>
    <i name="pawpsdc">   1564.69740246 </i>
    <i name="pawaedc">  -1522.54972814 </i>
    <i name="eentropy">      0.00000000 </i>
    <i name="bandstr">   -209.88158035 </i>
    <i name="atom">   2234.31706254 </i>
    <i name="e_fr_energy">    -38.88624156 </i>
    <i name="e_wo_entrp">    -38.88624156 </i>
    <i name="e_0_energy">    -38.88624156 </i>
   </energy>
  </scstep>
  <structure>
   <crystal>
    <varray name="basis" >
     <v>       3.90526800       0.00000000       0.00000000 </v>
     <v>       0.00000000       3.90526800       0.00000000 </v>
     <v>       0.00000000       0.00000000       3.90526800 </v>
    </varray>
    <i name="volume">     59.55970368 </i>
    <varray name="rec_basis" >
     <v>       0.25606437       0.00000000       0.00000000 </v>
     <v>       0.00000000       0.25606437       0.00000000 </v>
     <v>       0.00000000       0.00000000       0.25606437 </v>
    </varray>
   </crystal>
   <varray name="positions" >
    <v>       0.00000000       0.00000000       0.00000000 </v>
    <v>       0.50000000       0.50000000       0.50000000 </v>
    <v>       0.50000000       0.50000000       0.00000000 </v>
    <v>       0.50000000       0.00000000       0.50000000 </v>
    <v>       0.00000000       0.50000000       0.50000000 </v>
   </varray>
  </structure>
  <varray name="forces" >
   <v>       0.00000000       0.00000000       0.00000000 </v>
   <v>       0.00000000       0.00000000       0.00000000 </v>
   <v>       0.00000000       0.00000000       0.00000000 </v>
   <v>       0.00000000       0.00000000       0.00000000 </v>
   <v>       0.00000000       0.00000000       0.00000000 </v>
  </varray>
  <varray name="stress" >
   <v>      87.30668607       0.00000000       0.00000000 </v>
   <v>       0.00000000      87.30668607       0.00000000 </v>
   <v>      -0.00000000       0.00000000      87.30668607 </v>
  </varray>
  <energy>
   <i name="e_fr_energy">    -38.88624156 </i>
   <i name="e_wo_entrp">    -38.88624156 </i>
   <i name="e_0_energy">      0.00000000 </i>
  </energy>
  <time name="totalsc">    1.24    1.32</time>
  <eigenvalues>
   <array>
    <dimension dim="1">band</dimension>
    <dimension dim="2">kpoint</dimension>
    <dimension dim="3">spin</dimension>
    <field>eigene</field>
    <field>occ</field>
    <set>
     <set comment="spin 1">
      <set comment="kpoint 1">
       <r>  -30.0552    1.0000 </r>
       <r>  -14.7253    1.0000 </r>
       <r>  -13.7112    1.0000 </r>
       <r>  -13.7112    1.0000 </r>
       <r>  -12.1185    1.0000 </r>
       <r>  -12.1185    1.0000 </r>
       <r>  -12.1185    1.0000 </r>
       <r>   -0.1461    1.0000 </r>
       <r>   -0.1461    1.0000 </r>
       <r>   -0.1461    1.0000 </r>
       <r>    1.5808    1.0000 </r>
       <r>    1.5808    1.0000 </r>
       <r>    1.5808    1.0000 </r>
       <r>    2.4257    1.0000 </r>
       <r>    2.4257    1.0000 </r>
       <r>    2.4257    1.0000 </r>
       <r>    4.0619    0.0000 </r>
       <r>    4.0619    0.0000 </r>
       <r>    4.0621    0.0000 </r>
       <r>    8.0570    0.0000 </r>
      </set>
      <set comment="kpoint 2">
       <r>  -30.0317    1.0000 </r>
       <r>  -14.9522    1.0000 </r>
       <r>  -13.6700    1.0000 </r>
       <r>  -13.5109    1.0000 </r>
       <r>  -12.0701    1.0000 </r>
       <r>  -12.0701    1.0000 </r>
       <r>  -11.5196    1.0000 </r>
       <r>   -1.7144    1.0000 </r>
       <r>   -0.1583    1.0000 </r>
       <r>   -0.1583    1.0000 </r>
       <r>    0.2550    1.0000 </r>
       <r>    0.2836    1.0000 </r>
       <r>    0.2836    1.0000 </r>
       <r>    0.7502    1.0000 </r>
       <r>    2.0318    1.0000 </r>
       <r>    2.0318    1.0000 </r>
       <r>    4.2050    0.0000 </r>
       <r>    6.0070    0.0000 </r>
       <r>    6.0070    0.0000 </r>
       <r>   10.0508    0.0000 </r>
      </set>
      <set comment="kpoint 3">
       <r>  -30.0119    1.0000 </r>
       <r>  -14.0603    1.0000 </r>
       <r>  -13.9774    1.0000 </r>
       <r>  -13.9774    1.0000 </r>
       <r>  -12.0134    1.0000 </r>
       <r>  -11.6935    1.0000 </r>
       <r>  -11.6935    1.0000 </r>
       <r>   -1.9880    1.0000 </r>
       <r>   -1.8892    1.0000 </r>
       <r>   -1.6066    1.0000 </r>
       <r>   -0.2128    1.0000 </r>
       <r>   -0.2128    1.0000 </r>
       <r>    0.9774    1.0000 </r>
       <r>    1.1709    1.0000 </r>
       <r>    1.1709    1.0000 </r>
       <r>    2.6424    1.0000 </r>
       <r>    5.9993    0.0000 </r>
       <r>    5.9993    0.0000 </r>
       <r>    6.4048    0.0000 </r>
       <r>   10.5836    0.0000 </r>
      </set>
      <set comment="kpoint 4">
       <r>  -29.9934    1.0000 </r>
       <r>  -13.4737    1.0000 </r>
       <r>  -13.4737    1.0000 </r>
       <r>  -13.4737    1.0000 </r>
       <r>  -12.3806    1.0000 </r>
       <r>  -12.3806    1.0000 </r>
       <r>  -12.3806    1.0000 </r>
       <r>   -1.9649    1.0000 </r>
       <r>   -1.5892    1.0000 </r>
       <r>   -1.5892    1.0000 </r>
       <r>   -1.0926    1.0000 </r>
       <r>   -1.0926    1.0000 </r>
       <r>   -1.0926    1.0000 </r>
       <r>    2.7377    1.0000 </r>
       <r>    2.7377    1.0000 </r>
       <r>    2.7377    1.0000 </r>
       <r>    6.6296    0.0000 </r>
       <r>    9.5982    0.0000 </r>
       <r>    9.5983    0.0000 </r>
       <r>    9.6203    0.0000 </r>
      </set>
     </set>
    </set>
   </array>
  </eigenvalues>
  <separator name="orbital magnetization" >
   <v name="MAGDIPOLOUT">      0.00000000      0.00000000      0.00000000</v>
  </separator>
  <dos>
   <i name="efermi">      2.81817238 </i>
   <total>
    <array>
     <dimension dim="1">gridpoints</dimension>
     <dimension dim="2">spin</dimension>
     <field>energy</field>
     <field>total</field>
     <field>integrated</field>
     <set>
      <set comment="spin 1">
       <r>   -32.0872     0.0000     0.0000 </r>
       <r>   -31.9382     0.0000     0.0000 </r>
       <r>   -31.7891     0.0000     0.0000 </r>
       <r>   -31.6401     0.0000     0.0000 </r>
       <r>   -31.4911     0.0000     0.0000 </r>
       <r>   -31.3421     0.0000     0.0000 </r>
       <r>   -31.1931     0.0000     0.0000 </r>
       <r>   -31.0441     0.0000     0.0000 </r>
       <r>   -30.8951     0.0000     0.0000 </r>
       <r>   -30.7461     0.0000     0.0000 </r>
       <r>   -30.5971     0.0000     0.0000 </r>
       <r>   -30.4481     0.0000     0.0000 </r>
       <r>   -30.2991     0.0000     0.0000 </r>
       <r>   -30.1501     0.0000     0.0000 </r>
       <r>   -30.0010     8.6207     1.9781 </r>
       <r>   -29.8520     0.0000     2.0000 </r>
       <r>   -29.7030     0.0000     2.0000 </r>
       <r>   -29.5540     0.0000     2.0000 </r>
       <r>   -29.4050     0.0000     2.0000 </r>
       <r>   -29.2560     0.0000     2.0000 </r>
       <r>   -29.1070     0.0000     2.0000 </r>
       <r>   -28.9580     0.0000     2.0000 </r>
       <r>   -28.8090     0.0000     2.0000 </r>
       <r>   -28.6600     0.0000     2.0000 </r>
       <r>   -28.5110     0.0000     2.0000 </r>
       <r>   -28.3619     0.0000     2.0000 </r>
       <r>   -28.2129     0.0000     2.0000 </r>
       <r>   -28.0639     0.0000     2.0000 </r>
       <r>   -27.9149     0.0000     2.0000 </r>
       <r>   -27.7659     0.0000     2.0000 </r>
       <r>   -27.6169     0.0000     2.0000 </r>
       <r>   -27.4679     0.0000     2.0000 </r>
       <r>   -27.3189     0.0000     2.0000 </r>
       <r>   -27.1699     0.0000     2.0000 </r>
       <r>   -27.0209     0.0000     2.0000 </r>
       <r>   -26.8719     0.0000     2.0000 </r>
       <r>   -26.7228     0.0000     2.0000 </r>
       <r>   -26.5738     0.0000     2.0000 </r>
       <r>   -26.4248     0.0000     2.0000 </r>
       <r>   -26.2758     0.0000     2.0000 </r>
       <r>   -26.1268     0.0000     2.0000 </r>
       <r>   -25.9778     0.0000     2.0000 </r>
       <r>   -25.8288     0.0000     2.0000 </r>
       <r>   -25.6798     0.0000     2.0000 </r>
       <r>   -25.5308     0.0000     2.0000 </r>
       <r>   -25.3818     0.0000     2.0000 </r>
       <r>   -25.2328     0.0000     2.0000 </r>
       <r>   -25.0837     0.0000     2.0000 </r>
       <r>   -24.9347     0.0000     2.0000 </r>
       <r>   -24.7857     0.0000     2.0000 </r>
       <r>   -24.6367     0.0000     2.0000 </r>
       <r>   -24.4877     0.0000     2.0000 </r>
       <r>   -24.3387     0.0000     2.0000 </r>
       <r>   -24.1897     0.0000     2.0000 </r>
       <r>   -24.0407     0.0000     2.0000 </r>
       <r>   -23.8917     0.0000     2.0000 </r>
       <r>   -23.7427     0.0000     2.0000 </r>
       <r>   -23.5937     0.0000     2.0000 </r>
       <r>   -23.4446     0.0000     2.0000 </r>
       <r>   -23.2956     0.0000     2.0000 </r>
       <r>   -23.1466     0.0000     2.0000 </r>
       <r>   -22.9976     0.0000     2.0000 </r>
       <r>   -22.8486     0.0000     2.0000 </r>
       <r>   -22.6996     0.0000     2.0000 </r>
       <r>   -22.5506     0.0000     2.0000 </r>
       <r>   -22.4016     0.0000     2.0000 </r>
       <r>   -22.2526     0.0000     2.0000 </r>
       <r>   -22.1036     0.0000     2.0000 </r>
       <r>   -21.9546     0.0000     2.0000 </r>
       <r>   -21.8056     0.0000     2.0000 </r>
       <r>   -21.6565     0.0000     2.0000 </r>
       <r>   -21.5075     0.0000     2.0000 </r>
       <r>   -21.3585     0.0000     2.0000 </r>
       <r>   -21.2095     0.0000     2.0000 </r>
       <r>   -21.0605     0.0000     2.0000 </r>
       <r>   -20.9115     0.0000     2.0000 </r>
       <r>   -20.7625     0.0000     2.0000 </r>
       <r>   -20.6135     0.0000     2.0000 </r>
       <r>   -20.4645     0.0000     2.0000 </r>
       <r>   -20.3155     0.0000     2.0000 </r>
       <r>   -20.1665     0.0000     2.0000 </r>
       <r>   -20.0174     0.0000     2.0000 </r>
       <r>   -19.8684     0.0000     2.0000 </r>
       <r>   -19.7194     0.0000     2.0000 </r>
       <r>   -19.5704     0.0000     2.0000 </r>
       <r>   -19.4214     0.0000     2.0000 </r>
       <r>   -19.2724     0.0000     2.0000 </r>
       <r>   -19.1234     0.0000     2.0000 </r>
       <r>   -18.9744     0.0000     2.0000 </r>
       <r>   -18.8254     0.0000     2.0000 </r>
       <r>   -18.6764     0.0000     2.0000 </r>
       <r>   -18.5274     0.0000     2.0000 </r>
       <r>   -18.3783     0.0000     2.0000 </r>
       <r>   -18.2293     0.0000     2.0000 </r>
       <r>   -18.0803     0.0000     2.0000 </r>
       <r>   -17.9313     0.0000     2.0000 </r>
       <r>   -17.7823     0.0000     2.0000 </r>
       <r>   -17.6333     0.0000     2.0000 </r>
       <r>   -17.4843     0.0000     2.0000 </r>
       <r>   -17.3353     0.0000     2.0000 </r>
       <r>   -17.1863     0.0000     2.0000 </r>
       <r>   -17.0373     0.0000     2.0000 </r>
       <r>   -16.8883     0.0000     2.0000 </r>
       <r>   -16.7392     0.0000     2.0000 </r>
       <r>   -16.5902     0.0000     2.0000 </r>
       <r>   -16.4412     0.0000     2.0000 </r>
       <r>   -16.2922     0.0000     2.0000 </r>
       <r>   -16.1432     0.0000     2.0000 </r>
       <r>   -15.9942     0.0000     2.0000 </r>
       <r>   -15.8452     0.0000     2.0000 </r>
       <r>   -15.6962     0.0000     2.0000 </r>
       <r>   -15.5472     0.0000     2.0000 </r>
       <r>   -15.3982     0.0000     2.0000 </r>
       <r>   -15.2492     0.0000     2.0000 </r>
       <r>   -15.1002     0.0000     2.0000 </r>
       <r>   -14.9511     0.0198     2.0000 </r>
       <r>   -14.8021     1.9141     2.1656 </r>
       <r>   -14.6531     2.2672     2.4891 </r>
       <r>   -14.5041     2.2734     2.8291 </r>
       <r>   -14.3551     2.1442     3.1599 </r>
       <r>   -14.2061     1.8798     3.4614 </r>
       <r>   -14.0571     1.4739     3.7134 </r>
       <r>   -13.9081     5.8948     4.0613 </r>
       <r>   -13.7591    14.2555     5.5955 </r>
       <r>   -13.6101     8.1200     7.5192 </r>
       <r>   -13.4611     0.0000     8.0000 </r>
       <r>   -13.3120     0.0000     8.0000 </r>
       <r>   -13.1630     0.0000     8.0000 </r>
       <r>   -13.0140     0.0000     8.0000 </r>
       <r>   -12.8650     0.0000     8.0000 </r>
       <r>   -12.7160     0.0000     8.0000 </r>
       <r>   -12.5670     0.0000     8.0000 </r>
       <r>   -12.4180     0.0000     8.0000 </r>
       <r>   -12.2690     1.6999     8.0632 </r>
       <r>   -12.1200     9.2692     8.8052 </r>
       <r>   -11.9710     7.8608    11.3276 </r>
       <r>   -11.8220     6.5807    12.4260 </r>
       <r>   -11.6729     5.4516    13.2199 </r>
       <r>   -11.5239     0.5449    13.9988 </r>
       <r>   -11.3749     0.0000    14.0000 </r>
       <r>   -11.2259     0.0000    14.0000 </r>
       <r>   -11.0769     0.0000    14.0000 </r>
       <r>   -10.9279     0.0000    14.0000 </r>
       <r>   -10.7789     0.0000    14.0000 </r>
       <r>   -10.6299     0.0000    14.0000 </r>
       <r>   -10.4809     0.0000    14.0000 </r>
       <r>   -10.3319     0.0000    14.0000 </r>
       <r>   -10.1829     0.0000    14.0000 </r>
       <r>   -10.0338     0.0000    14.0000 </r>
       <r>    -9.8848     0.0000    14.0000 </r>
       <r>    -9.7358     0.0000    14.0000 </r>
       <r>    -9.5868     0.0000    14.0000 </r>
       <r>    -9.4378     0.0000    14.0000 </r>
       <r>    -9.2888     0.0000    14.0000 </r>
       <r>    -9.1398     0.0000    14.0000 </r>
       <r>    -8.9908     0.0000    14.0000 </r>
       <r>    -8.8418     0.0000    14.0000 </r>
       <r>    -8.6928     0.0000    14.0000 </r>
       <r>    -8.5438     0.0000    14.0000 </r>
       <r>    -8.3947     0.0000    14.0000 </r>
       <r>    -8.2457     0.0000    14.0000 </r>
       <r>    -8.0967     0.0000    14.0000 </r>
       <r>    -7.9477     0.0000    14.0000 </r>
       <r>    -7.7987     0.0000    14.0000 </r>
       <r>    -7.6497     0.0000    14.0000 </r>
       <r>    -7.5007     0.0000    14.0000 </r>
       <r>    -7.3517     0.0000    14.0000 </r>
       <r>    -7.2027     0.0000    14.0000 </r>
       <r>    -7.0537     0.0000    14.0000 </r>
       <r>    -6.9047     0.0000    14.0000 </r>
       <r>    -6.7557     0.0000    14.0000 </r>
       <r>    -6.6066     0.0000    14.0000 </r>
       <r>    -6.4576     0.0000    14.0000 </r>
       <r>    -6.3086     0.0000    14.0000 </r>
       <r>    -6.1596     0.0000    14.0000 </r>
       <r>    -6.0106     0.0000    14.0000 </r>
       <r>    -5.8616     0.0000    14.0000 </r>
       <r>    -5.7126     0.0000    14.0000 </r>
       <r>    -5.5636     0.0000    14.0000 </r>
       <r>    -5.4146     0.0000    14.0000 </r>
       <r>    -5.2656     0.0000    14.0000 </r>
       <r>    -5.1166     0.0000    14.0000 </r>
       <r>    -4.9675     0.0000    14.0000 </r>
       <r>    -4.8185     0.0000    14.0000 </r>
       <r>    -4.6695     0.0000    14.0000 </r>
       <r>    -4.5205     0.0000    14.0000 </r>
       <r>    -4.3715     0.0000    14.0000 </r>
       <r>    -4.2225     0.0000    14.0000 </r>
       <r>    -4.0735     0.0000    14.0000 </r>
       <r>    -3.9245     0.0000    14.0000 </r>
       <r>    -3.7755     0.0000    14.0000 </r>
       <r>    -3.6265     0.0000    14.0000 </r>
       <r>    -3.4775     0.0000    14.0000 </r>
       <r>    -3.3284     0.0000    14.0000 </r>
       <r>    -3.1794     0.0000    14.0000 </r>
       <r>    -3.0304     0.0000    14.0000 </r>
       <r>    -2.8814     0.0000    14.0000 </r>
       <r>    -2.7324     0.0000    14.0000 </r>
       <r>    -2.5834     0.0000    14.0000 </r>
       <r>    -2.4344     0.0000    14.0000 </r>
       <r>    -2.2854     0.0000    14.0000 </r>
       <r>    -2.1364     0.0000    14.0000 </r>
       <r>    -1.9874     0.3399    14.0001 </r>
       <r>    -1.8384     5.1118    14.8026 </r>
       <r>    -1.6893     2.4265    15.3536 </r>
       <r>    -1.5403     3.5031    15.7809 </r>
       <r>    -1.3913     3.5291    16.3054 </r>
       <r>    -1.2423     3.5071    16.8303 </r>
       <r>    -1.0933     3.4372    17.3483 </r>
       <r>    -0.9443     3.4124    17.8568 </r>
       <r>    -0.7953     3.5277    18.3722 </r>
       <r>    -0.6463     3.7831    18.9151 </r>
       <r>    -0.4973     4.1785    19.5066 </r>
       <r>    -0.3483     4.7140    20.1673 </r>
       <r>    -0.1993     5.5404    20.9194 </r>
       <r>    -0.0502     5.3463    21.6905 </r>
       <r>     0.0988     5.4014    22.5131 </r>
       <r>     0.2478     3.6951    23.2127 </r>
       <r>     0.3968     3.9094    23.7483 </r>
       <r>     0.5458     4.1628    24.3575 </r>
       <r>     0.6948     3.7836    24.9574 </r>
       <r>     0.8438     4.3954    25.5353 </r>
       <r>     0.9928     3.9749    26.1807 </r>
       <r>     1.1418     2.6751    26.6969 </r>
       <r>     1.2908     2.4770    27.0506 </r>
       <r>     1.4398     2.7648    27.4415 </r>
       <r>     1.5888     3.0270    27.8733 </r>
       <r>     1.7379     3.1746    28.3377 </r>
       <r>     1.8869     3.1352    28.8101 </r>
       <r>     2.0359     2.9719    29.2628 </r>
       <r>     2.1849     4.4960    29.8311 </r>
       <r>     2.3339     5.0648    30.5553 </r>
       <r>     2.4829     4.6525    31.2926 </r>
       <r>     2.6319     3.0036    31.8791 </r>
       <r>     2.7809     0.0000    32.0000 </r>
       <r>     2.9299     0.0000    32.0000 </r>
       <r>     3.0789     0.0000    32.0000 </r>
       <r>     3.2279     0.0000    32.0000 </r>
       <r>     3.3770     0.0000    32.0000 </r>
       <r>     3.5260     0.0000    32.0000 </r>
       <r>     3.6750     0.0000    32.0000 </r>
       <r>     3.8240     0.0000    32.0000 </r>
       <r>     3.9730     0.0000    32.0000 </r>
       <r>     4.1220     0.1460    32.0029 </r>
       <r>     4.2710     0.8821    32.0959 </r>
       <r>     4.4200     1.0086    32.2367 </r>
       <r>     4.5690     1.1403    32.3968 </r>
       <r>     4.7180     1.2771    32.5768 </r>
       <r>     4.8670     1.4191    32.7776 </r>
       <r>     5.0161     1.5663    33.0000 </r>
       <r>     5.1651     1.7186    33.2447 </r>
       <r>     5.3141     1.8761    33.5124 </r>
       <r>     5.4631     2.0388    33.8041 </r>
       <r>     5.6121     2.2066    34.1203 </r>
       <r>     5.7611     2.3796    34.4619 </r>
       <r>     5.9101     2.5577    34.8297 </r>
       <r>     6.0591     2.8822    35.7194 </r>
       <r>     6.2081     3.3567    36.2060 </r>
       <r>     6.3571     2.0785    36.6327 </r>
       <r>     6.5061     1.1558    36.8380 </r>
       <r>     6.6552     1.0203    36.9990 </r>
       <r>     6.8042     0.9196    37.1435 </r>
       <r>     6.9532     0.8241    37.2734 </r>
       <r>     7.1022     0.7339    37.3894 </r>
       <r>     7.2512     0.6489    37.4923 </r>
       <r>     7.4002     0.5691    37.5830 </r>
       <r>     7.5492     0.4946    37.6622 </r>
       <r>     7.6982     0.4253    37.7307 </r>
       <r>     7.8472     0.3612    37.7892 </r>
       <r>     7.9962     0.3023    37.8386 </r>
       <r>     8.1452     0.2513    37.8796 </r>
       <r>     8.2943     0.2194    37.9145 </r>
       <r>     8.4433     0.2078    37.9460 </r>
       <r>     8.5923     0.2166    37.9774 </r>
       <r>     8.7413     0.2456    38.0116 </r>
       <r>     8.8903     0.2950    38.0516 </r>
       <r>     9.0393     0.3647    38.1005 </r>
       <r>     9.1883     0.4547    38.1613 </r>
       <r>     9.3373     0.5651    38.2370 </r>
       <r>     9.4863     0.6957    38.3307 </r>
       <r>     9.6353     0.8469    38.4454 </r>
       <r>     9.7843     1.0527    38.5859 </r>
       <r>     9.9333     1.3376    38.7630 </r>
       <r>    10.0824     1.9193    38.9921 </r>
       <r>    10.2314     2.6665    39.3476 </r>
       <r>    10.3804     2.2987    39.7314 </r>
       <r>    10.5294     0.8157    39.9772 </r>
       <r>    10.6784     0.0000    40.0000 </r>
       <r>    10.8274     0.0000    40.0000 </r>
       <r>    10.9764     0.0000    40.0000 </r>
       <r>    11.1254     0.0000    40.0000 </r>
       <r>    11.2744     0.0000    40.0000 </r>
       <r>    11.4234     0.0000    40.0000 </r>
       <r>    11.5724     0.0000    40.0000 </r>
       <r>    11.7215     0.0000    40.0000 </r>
       <r>    11.8705     0.0000    40.0000 </r>
       <r>    12.0195     0.0000    40.0000 </r>
       <r>    12.1685     0.0000    40.0000 </r>
       <r>    12.3175     0.0000    40.0000 </r>
       <r>    12.4665     0.0000    40.0000 </r>
       <r>    12.6155     0.0000    40.0000 </r>
      </set>
     </set>
    </array>
   </total>
  </dos>
 </calculation>
 <structure name="finalpos" >
  <crystal>
   <varray name="basis" >
    <v>       3.90526800       0.00000000       0.00000000 </v>
    <v>       0.00000000       3.90526800       0.00000000 </v>
    <v>       0.00000000       0.00000000       3.90526800 </v>
   </varray>
   <i name="volume">     59.55970368 </i>
   <varray name="rec_basis" >
    <v>       0.25606437       0.00000000       0.00000000 </v>
    <v>       0.00000000       0.25606437       0.00000000 </v>
    <v>       0.00000000       0.00000000       0.25606437 </v>
   </varray>
  </crystal>
  <varray name="positions" >
   <v>       0.00000000       0.00000000       0.00000000 </v>
   <v>       0.50000000       0.50000000       0.50000000 </v>
   <v>       0.50000000       0.50000000       0.00000000 </v>
   <v>       0.50000000       0.00000000       0.50000000 </v>
   <v>       0.00000000       0.50000000       0.50000000 </v>
  </varray>
 </structure>
</modeling>
