unknown system                          
   1.00000000000000     
     2.573869    0.000000    0.000000
     1.286934    2.229036    0.000000
     0.000000    0.000000   30.304665
   Cu   H 
     4     1
Direct
  0.000000  0.000000  0.395979
  0.333333  0.333333  0.465326
  0.666667  0.666667  0.534674
  0.000000  0.000000  0.604021
  0.022431  0.955138  0.663418
 
   20   20  240
 -.59564E-02 -.56549E-02 -.43554E-02 -.23940E-02 -.40123E-03 0.96530E-03 0.12853E-02 0.52515E-03 -.92391E-03 -.23379E-02
 -.29498E-02 -.23811E-02 -.93055E-03 0.56950E-03 0.12805E-02 0.85425E-03 -.48433E-03 -.22385E-02 -.39569E-02 -.53007E-02
 -.56285E-02 -.45080E-02 -.25442E-02 -.35280E-03 0.11476E-02 0.11518E-02 -.52128E-03 -.31669E-02 -.54698E-02 -.62421E-02
 -.51478E-02 -.28776E-02 -.64839E-03 0.56112E-03 0.46679E-03 -.61085E-03 -.21449E-02 -.37069E-02 -.49975E-02 -.57359E-02
 -.43879E-02 -.30026E-02 -.11751E-02 0.35119E-03 0.53336E-03 -.14606E-02 -.55195E-02 -.10285E-01 -.13739E-01 -.14388E-01
 -.12133E-01 -.81944E-02 -.42466E-02 -.15257E-02 -.46520E-03 -.84463E-03 -.20988E-02 -.35624E-02 -.46463E-02 -.49668E-02
 -.29483E-02 -.19350E-02 -.93347E-03 -.77298E-03 -.26132E-02 -.72533E-02 -.14216E-01 -.21468E-01 -.26263E-01 -.26625E-01
 -.22438E-01 -.15409E-01 -.80705E-02 -.25653E-02 0.12584E-03 0.27698E-03 -.10218E-02 -.25379E-02 -.34554E-02 -.35440E-02
 -.12316E-02 -.75376E-03 -.10630E-02 -.32993E-02 -.86321E-02 -.17320E-01 -.27862E-01 -.37092E-01 -.41507E-01 -.39140E-01
 -.30735E-01 -.19389E-01 -.89010E-02 -.19278E-02 0.94119E-03 0.84598E-03 -.44690E-03 -.15773E-02 -.20002E-02 -.17842E-02
 0.83891E-03 0.65814E-03 -.18090E-02 -.79833E-02 -.18391E-01 -.31752E-01 -.44777E-01 -.53178E-01 -.53666E-01 -.45816E-01
 -.32484E-01 -.18327E-01 -.73790E-02 -.13091E-02 0.63743E-03 0.38091E-03 -.37587E-03 -.75374E-03 -.53992E-03 0.13525E-03
 0.20371E-02 0.82189E-03 -.45447E-02 -.15202E-01 -.30235E-01 -.46310E-01 -.58596E-01 -.62796E-01 -.57329E-01 -.44284E-01
 -.28367E-01 -.14441E-01 -.52808E-02 -.95181E-03 0.17247E-03 -.95224E-04 -.57349E-03 -.65700E-03 -.45203E-04 0.11533E-02
 0.10995E-02 -.11902E-02 -.89371E-02 -.22426E-01 -.39201E-01 -.54520E-01 -.63255E-01 -.62342E-01 -.52330E-01 -.37032E-01
 -.21480E-01 -.95481E-02 -.26733E-02 -.15397E-03 -.33131E-03 -.16020E-02 -.27623E-02 -.29712E-02 -.18635E-02 0.50693E-04
 -.12333E-02 -.39832E-02 -.12497E-01 -.26083E-01 -.41378E-01 -.53437E-01 -.57966E-01 -.53417E-01 -.41640E-01 -.26800E-01
 -.13358E-01 -.43429E-02 -.63849E-03 -.12691E-02 -.42250E-02 -.73475E-02 -.89901E-02 -.83909E-02 -.58346E-02 -.26908E-02
 -.30238E-02 -.56419E-02 -.13566E-01 -.25237E-01 -.37094E-01 -.44903E-01 -.45691E-01 -.39137E-01 -.27642E-01 -.15190E-01
 -.57103E-02 -.16573E-02 -.32558E-02 -.86073E-02 -.14638E-01 -.18488E-01 -.18648E-01 -.15320E-01 -.10058E-01 -.51445E-02
 -.34285E-02 -.58324E-02 -.12546E-01 -.21271E-01 -.28779E-01 -.32099E-01 -.29784E-01 -.22601E-01 -.13291E-01 -.55171E-02
 -.24253E-02 -.53530E-02 -.13183E-01 -.22722E-01 -.30076E-01 -.32384E-01 -.28994E-01 -.21505E-01 -.12844E-01 -.60663E-02
 -.27646E-02 -.49040E-02 -.99455E-02 -.15259E-01 -.18461E-01 -.18122E-01 -.14259E-01 -.84473E-02 -.33734E-02 -.18940E-02
 -.58751E-02 -.15249E-01 -.27710E-01 -.39324E-01 -.46002E-01 -.45272E-01 -.37455E-01 -.25521E-01 -.13682E-01 -.55355E-02
 -.11758E-02 -.26981E-02 -.57852E-02 -.81845E-02 -.86151E-02 -.68743E-02 -.37718E-02 -.96575E-03 -.57336E-03 -.45040E-02
 -.13634E-01 -.27073E-01 -.41892E-01 -.53729E-01 -.58396E-01 -.53904E-01 -.41705E-01 -.26155E-01 -.12374E-01 -.38341E-02
 0.10222E-02 0.23757E-03 -.13861E-02 -.23953E-02 -.22660E-02 -.11781E-02 0.11167E-03 0.27424E-03 -.24346E-02 -.96150E-02
 -.21774E-01 -.37390E-01 -.52698E-01 -.62778E-01 -.63756E-01 -.54931E-01 -.39375E-01 -.22418E-01 -.89469E-02 -.13098E-02
 0.23944E-02 0.19321E-02 0.89374E-03 0.99423E-04 -.11624E-03 0.21800E-03 0.52421E-03 -.57677E-03 -.50518E-02 -.14471E-01
 -.28614E-01 -.44646E-01 -.57757E-01 -.63265E-01 -.59027E-01 -.46606E-01 -.30399E-01 -.15344E-01 -.47067E-02 0.79941E-03
 0.16533E-02 0.11643E-02 0.47815E-03 0.58524E-04 0.15887E-03 0.69534E-03 0.84125E-03 -.11491E-02 -.72818E-02 -.18363E-01
 -.32697E-01 -.46174E-01 -.54075E-01 -.53550E-01 -.45081E-01 -.32009E-01 -.18610E-01 -.81015E-02 -.16964E-02 0.11184E-02
 -.53453E-03 -.94630E-03 -.98708E-03 -.54058E-03 0.33354E-03 0.12114E-02 0.99718E-03 -.19525E-02 -.89037E-02 -.19450E-01
 -.30946E-01 -.39453E-01 -.41798E-01 -.37317E-01 -.28077E-01 -.17535E-01 -.87246E-02 -.31246E-02 -.61387E-03 -.14569E-03
 -.25287E-02 -.27927E-02 -.23359E-02 -.13590E-02 -.19640E-03 0.59424E-03 0.11938E-03 -.26302E-02 -.81084E-02 -.15496E-01
 -.22616E-01 -.26825E-01 -.26415E-01 -.21597E-01 -.14357E-01 -.73345E-02 -.25043E-02 -.46197E-03 -.56314E-03 -.16043E-02
 -.38989E-02 -.42224E-02 -.37588E-02 -.27658E-02 -.15835E-02 -.63288E-03 -.44150E-03 -.15655E-02 -.42999E-02 -.82648E-02
 -.12221E-01 -.14477E-01 -.13821E-01 -.10357E-01 -.55614E-02 -.14336E-02 0.64510E-03 0.51864E-03 -.97511E-03 -.27156E-02
 -.51353E-02 -.54278E-02 -.48397E-02 -.35626E-02 -.19572E-02 -.45280E-03 0.51273E-03 0.51777E-03 -.69174E-03 -.28840E-02
 -.51603E-02 -.62943E-02 -.55238E-02 -.31725E-02 -.50052E-03 0.11391E-02 0.11262E-02 -.24454E-03 -.21939E-02 -.39818E-02
 0.15397E-02 0.15433E-02 0.13411E-02 0.10331E-02 0.78352E-03 0.65073E-03 0.54782E-03 0.38357E-03 0.19517E-03 0.98324E-04
 0.12823E-03 0.19002E-03 0.18635E-03 0.14951E-03 0.20236E-03 0.40421E-03 0.68636E-03 0.94921E-03 0.11716E-02 0.13802E-02
 0.15429E-02 0.16774E-02 0.17542E-02 0.17457E-02 0.14833E-02 0.76950E-03 -.33058E-03 -.13340E-02 -.16148E-02 -.94824E-03
 0.21435E-03 0.10783E-02 0.11567E-02 0.61466E-03 0.18142E-04 -.18848E-03 0.44079E-04 0.49887E-03 0.95607E-03 0.13108E-02
 0.12006E-02 0.12033E-02 0.12732E-02 0.12413E-02 0.85275E-03 0.95230E-05 -.10309E-02 -.17432E-02 -.17145E-02 -.10014E-02
 -.10831E-03 0.41931E-03 0.41489E-03 0.14956E-03 0.24841E-04 0.22844E-03 0.64819E-03 0.10410E-02 0.12430E-02 0.12560E-02
 0.53218E-03 0.31236E-03 0.17313E-03 0.71129E-04 -.26518E-04 -.16438E-03 -.42740E-03 -.88372E-03 -.14649E-02 -.19284E-02
 -.19939E-02 -.15519E-02 -.74783E-03 0.13369E-03 0.85565E-03 0.13155E-02 0.15038E-02 0.14435E-02 0.11893E-02 0.84581E-03
 0.39202E-03 0.47390E-04 -.31877E-03 -.49942E-03 -.37317E-03 -.14987E-03 -.31399E-03 -.11842E-02 -.24866E-02 -.34394E-02
 -.33574E-02 -.22167E-02 -.64388E-03 0.61961E-03 0.12292E-02 0.13051E-02 0.11451E-02 0.95577E-03 0.79434E-03 0.62872E-03
 0.97693E-03 0.56237E-03 -.89311E-04 -.72697E-03 -.11943E-02 -.15880E-02 -.21266E-02 -.28248E-02 -.33417E-02 -.32334E-02
 -.23855E-02 -.11742E-02 -.17601E-03 0.27909E-03 0.28697E-03 0.17902E-03 0.21980E-03 0.46456E-03 0.79917E-03 0.10317E-02
 0.12544E-02 0.84290E-03 -.77328E-04 -.13956E-02 -.27735E-02 -.37617E-02 -.40266E-02 -.35395E-02 -.25888E-02 -.16023E-02
 -.90667E-03 -.58918E-03 -.52632E-03 -.51916E-03 -.42051E-03 -.18245E-03 0.16828E-03 0.57431E-03 0.96513E-03 0.12407E-02
 0.64159E-03 0.44845E-03 -.38727E-03 -.18589E-02 -.34228E-02 -.42982E-02 -.40652E-02 -.30117E-02 -.18732E-02 -.12111E-02
 -.10284E-02 -.93579E-03 -.61180E-03 -.71747E-04 0.43818E-03 0.70761E-03 0.71040E-03 0.57684E-03 0.48686E-03 0.54295E-03
 -.94781E-04 0.16902E-04 -.33661E-03 -.12493E-02 -.23589E-02 -.31304E-02 -.33031E-02 -.30341E-02 -.26191E-02 -.21473E-02
 -.14832E-02 -.54700E-03 0.48005E-03 0.12588E-02 0.15539E-02 0.13646E-02 0.85874E-03 0.26798E-03 -.16494E-03 -.26808E-03
 -.30547E-03 -.20267E-03 -.15494E-03 -.46499E-03 -.12321E-02 -.22499E-02 -.31038E-02 -.33895E-02 -.29235E-02 -.18400E-02
 -.52479E-03 0.58915E-03 0.12474E-02 0.14668E-02 0.14293E-02 0.12819E-02 0.10352E-02 0.64736E-03 0.17582E-03 -.19492E-03
 -.38441E-03 -.69275E-03 -.67922E-03 -.76064E-03 -.12493E-02 -.19880E-02 -.24285E-02 -.21202E-02 -.11397E-02 -.36745E-04
 0.63711E-03 0.75303E-03 0.61836E-03 0.64282E-03 0.10016E-02 0.15422E-02 0.19232E-02 0.18428E-02 0.12371E-02 0.35371E-03
 -.52943E-03 -.12500E-02 -.14880E-02 -.14479E-02 -.13235E-02 -.10748E-02 -.56262E-03 0.14318E-03 0.70271E-03 0.81104E-03
 0.52533E-03 0.23313E-03 0.30388E-03 0.80613E-03 0.15333E-02 0.22008E-02 0.25624E-02 0.24237E-02 0.17081E-02 0.58690E-03
 -.11410E-03 -.90826E-03 -.12852E-02 -.11205E-02 -.54301E-03 0.14524E-03 0.61696E-03 0.69316E-03 0.46995E-03 0.27859E-03
 0.44297E-03 0.10045E-02 0.16770E-02 0.21002E-02 0.21512E-02 0.19980E-02 0.18563E-02 0.17303E-02 0.14201E-02 0.77090E-03
 0.88914E-03 0.30445E-03 -.93931E-04 -.94048E-04 0.12472E-03 0.18594E-03 -.75287E-04 -.40006E-03 -.31397E-03 0.43525E-03
 0.16176E-02 0.26613E-02 0.30536E-02 0.26726E-02 0.18318E-02 0.10501E-02 0.72061E-03 0.87581E-03 0.11939E-02 0.12568E-02
 0.13682E-02 0.11293E-02 0.78449E-03 0.44395E-03 0.59060E-04 -.38034E-03 -.65707E-03 -.44720E-03 0.34686E-03 0.14369E-02
 0.23536E-02 0.27848E-02 0.27048E-02 0.22533E-02 0.16026E-02 0.96046E-03 0.57918E-03 0.61902E-03 0.97455E-03 0.13161E-02
 0.84162E-03 0.10281E-02 0.91964E-03 0.60898E-03 0.30251E-03 0.22020E-03 0.45857E-03 0.88657E-03 0.12219E-02 0.12920E-02
 0.12319E-02 0.13586E-02 0.18038E-02 0.22982E-02 0.23827E-02 0.18577E-02 0.10009E-02 0.33225E-03 0.17792E-03 0.45890E-03
 0.35352E-03 0.84503E-03 0.10453E-02 0.10909E-02 0.12038E-02 0.14185E-02 0.15274E-02 0.12945E-02 0.73390E-03 0.18906E-03
 0.11520E-03 0.72349E-03 0.17669E-02 0.26513E-02 0.28134E-02 0.21051E-02 0.90285E-03 -.14280E-03 -.54027E-03 -.25293E-03
 0.74344E-03 0.11463E-02 0.13423E-02 0.13953E-02 0.13603E-02 0.11860E-02 0.84008E-03 0.45766E-03 0.27831E-03 0.42653E-03
 0.80457E-03 0.12138E-02 0.15247E-02 0.16875E-02 0.16336E-02 0.12833E-02 0.69854E-03 0.15892E-03 -.15368E-04 0.25519E-03
 0.14047E-02 0.14424E-02 0.12787E-02 0.88332E-03 0.34804E-03 -.96211E-04 -.14213E-03 0.37088E-03 0.12164E-02 0.18302E-02
 0.17344E-02 0.97942E-03 0.13801E-03 -.18965E-03 0.12338E-03 0.70975E-03 0.11285E-02 0.12489E-02 0.12413E-02 0.12923E-02
 0.15870E-02 0.14428E-02 0.10499E-02 0.43877E-03 -.12221E-03 -.26894E-03 0.18279E-03 0.10302E-02 0.17426E-02 0.18023E-02
 0.10949E-02 0.29504E-04 -.73820E-03 -.77071E-03 -.12767E-03 0.74779E-03 0.14008E-02 0.16646E-02 0.16701E-02 0.16237E-02
 0.63158E-02 0.61808E-02 0.48937E-02 0.28518E-02 0.87498E-03 -.34377E-03 -.57273E-03 0.61470E-04 0.12679E-02 0.25679E-02
 0.32669E-02 0.27949E-02 0.12551E-02 -.45606E-03 -.12642E-02 -.72764E-03 0.76549E-03 0.25304E-02 0.41555E-02 0.54988E-02
 0.62262E-02 0.55985E-02 0.41739E-02 0.24336E-02 0.90385E-03 -.27826E-04 -.65812E-04 0.10177E-02 0.31057E-02 0.54030E-02
 0.66352E-02 0.59022E-02 0.34824E-02 0.74254E-03 -.84555E-03 -.68058E-03 0.82284E-03 0.28248E-02 0.46432E-02 0.58681E-02
 0.47151E-02 0.35392E-02 0.21784E-02 0.10384E-02 0.66302E-03 0.16774E-02 0.44204E-02 0.84627E-02 0.12470E-01 0.14724E-01
 0.14077E-01 0.10700E-01 0.60447E-02 0.20283E-02 0.80208E-05 0.20686E-03 0.18495E-02 0.37738E-02 0.50592E-02 0.53350E-02
 0.24094E-02 0.11220E-02 0.16630E-03 0.35285E-03 0.28079E-02 0.81885E-02 0.15692E-01 0.22926E-01 0.27069E-01 0.26503E-01
 0.21674E-01 0.14636E-01 0.78414E-02 0.30821E-02 0.10219E-02 0.12385E-02 0.25916E-02 0.38238E-02 0.41660E-02 0.35662E-02
 0.85305E-03 -.12967E-03 -.11902E-03 0.25382E-02 0.92590E-02 0.19743E-01 0.31257E-01 0.39689E-01 0.41843E-01 0.37224E-01
 0.28039E-01 0.17675E-01 0.89831E-02 0.34026E-02 0.97214E-03 0.78683E-03 0.15762E-02 0.22738E-02 0.23648E-02 0.18253E-02
 0.33101E-03 -.16943E-04 0.17986E-02 0.77878E-02 0.18726E-01 0.32899E-01 0.46219E-01 0.54016E-01 0.53470E-01 0.45043E-01
 0.32034E-01 0.18701E-01 0.82838E-02 0.20354E-02 -.54603E-03 -.80578E-03 -.64521E-04 0.78589E-03 0.12412E-02 0.10476E-02
 0.13379E-05 0.89301E-03 0.53405E-02 0.14744E-01 0.28715E-01 0.44484E-01 0.57471E-01 0.63100E-01 0.59082E-01 0.46779E-01
 0.30583E-01 0.15597E-01 0.51805E-02 -.55285E-04 -.14831E-02 -.96084E-03 0.13958E-03 0.10176E-02 0.12067E-02 0.63822E-03
 -.39988E-04 0.25906E-02 0.98265E-02 0.21939E-01 0.37325E-01 0.52414E-01 0.62507E-01 0.63702E-01 0.55078E-01 0.39582E-01
 0.22654E-01 0.93412E-02 0.19552E-02 -.21169E-03 0.57888E-03 0.21745E-02 0.32458E-02 0.31893E-02 0.19977E-02 0.40757E-03
 0.99154E-03 0.48821E-02 0.13983E-01 0.27321E-01 0.41972E-01 0.53664E-01 0.58284E-01 0.53836E-01 0.41713E-01 0.26241E-01
 0.12550E-01 0.41127E-02 0.15451E-02 0.31302E-02 0.62822E-02 0.87851E-02 0.93321E-02 0.76358E-02 0.44549E-02 0.14993E-02
 0.24531E-02 0.62916E-02 0.15588E-01 0.28039E-01 0.39594E-01 0.46094E-01 0.45172E-01 0.37317E-01 0.25524E-01 0.13842E-01
 0.57151E-02 0.28733E-02 0.50230E-02 0.10232E-01 0.15759E-01 0.19075E-01 0.18740E-01 0.14875E-01 0.90998E-02 0.40296E-02
 0.27232E-02 0.54991E-02 0.13343E-01 0.22978E-01 0.30308E-01 0.32448E-01 0.28953E-01 0.21587E-01 0.13168E-01 0.64969E-02
 0.37636E-02 0.60746E-02 0.12898E-01 0.21865E-01 0.29498E-01 0.32725E-01 0.30256E-01 0.23045E-01 0.13796E-01 0.59890E-02
 0.17433E-02 0.32773E-02 0.86527E-02 0.14723E-01 0.18566E-01 0.18725E-01 0.15495E-01 0.10419E-01 0.56540E-02 0.35552E-02
 0.61378E-02 0.14109E-01 0.25931E-01 0.37907E-01 0.45670E-01 0.46275E-01 0.39551E-01 0.27980E-01 0.15490E-01 0.59197E-02
 0.92168E-03 0.14369E-02 0.42321E-02 0.72705E-02 0.89670E-02 0.84925E-02 0.60242E-02 0.29086E-02 0.14882E-02 0.43395E-02
 0.12991E-01 0.26687E-01 0.42047E-01 0.54153E-01 0.58711E-01 0.54125E-01 0.42221E-01 0.27223E-01 0.13686E-01 0.46540E-02
 0.61659E-03 0.50379E-03 0.14669E-02 0.25304E-02 0.28390E-02 0.18187E-02 -.13103E-03 -.12162E-02 0.11975E-02 0.91895E-02
 0.22857E-01 0.39669E-01 0.55021E-01 0.63920E-01 0.63218E-01 0.53251E-01 0.37776E-01 0.22018E-01 0.10040E-01 0.32161E-02
 -.15443E-05 -.48927E-04 0.20006E-03 0.26542E-03 -.23957E-03 -.13543E-02 -.21848E-02 -.83902E-03 0.47617E-02 0.15629E-01
 0.30733E-01 0.46804E-01 0.59174E-01 0.63570E-01 0.58241E-01 0.45116E-01 0.28967E-01 0.14865E-01 0.56727E-02 0.13149E-02
 -.65582E-03 -.60750E-04 0.20732E-03 0.55454E-05 -.50652E-03 -.94047E-03 -.47644E-03 0.22085E-02 0.85146E-02 0.18997E-01
 0.32414E-01 0.45485E-01 0.53907E-01 0.54369E-01 0.46436E-01 0.32973E-01 0.18659E-01 0.75537E-02 0.13378E-02 -.75337E-03
 0.61725E-04 0.10759E-02 0.13597E-02 0.11604E-02 0.89410E-03 0.83571E-03 0.14361E-02 0.37416E-02 0.90769E-02 0.17874E-01
 0.28588E-01 0.37865E-01 0.42136E-01 0.39583E-01 0.31114E-01 0.19792E-01 0.92374E-02 0.20382E-02 -.10918E-02 -.11529E-02
 0.22478E-02 0.29678E-02 0.29025E-02 0.23812E-02 0.16724E-02 0.97690E-03 0.92469E-03 0.27395E-02 0.74411E-02 0.14621E-01
 0.22069E-01 0.26854E-01 0.27067E-01 0.22818E-01 0.15901E-01 0.86818E-02 0.30978E-02 0.14308E-03 -.27040E-03 0.86931E-03
 0.43926E-02 0.45925E-02 0.40003E-02 0.27207E-02 0.10545E-02 -.34575E-03 -.46674E-03 0.15757E-02 0.57276E-02 0.10614E-01
 0.14150E-01 0.14814E-01 0.12559E-01 0.86680E-02 0.48054E-02 0.21235E-02 0.98929E-03 0.11939E-02 0.22333E-02 0.34889E-02
 0.56430E-02 0.56472E-02 0.46295E-02 0.26966E-02 0.53901E-03 -.84714E-03 -.71349E-03 0.99209E-03 0.35435E-02 0.57537E-02
 0.65509E-02 0.55536E-02 0.33106E-02 0.99428E-03 -.30907E-03 -.21194E-03 0.91384E-03 0.24019E-02 0.37920E-02 0.49197E-02
 -.13113E-02 -.61182E-03 -.30845E-03 -.37925E-03 -.32770E-03 0.76717E-04 0.48587E-03 0.48615E-03 0.18774E-03 0.61286E-04
 0.26574E-03 0.42482E-03 0.17016E-03 -.31924E-03 -.55702E-03 -.44686E-03 -.44807E-03 -.93608E-03 -.16153E-02 -.18140E-02
 -.92913E-03 -.43550E-03 -.80016E-04 0.21388E-03 0.45584E-03 0.40541E-03 -.10485E-03 -.72457E-03 -.73619E-03 0.18913E-03
 0.14919E-02 0.21649E-02 0.17121E-02 0.56203E-03 -.48232E-03 -.10414E-02 -.13043E-02 -.15227E-02 -.16264E-02 -.14144E-02
 -.12419E-02 -.11097E-02 -.59699E-03 -.55413E-04 0.16806E-03 0.46514E-04 -.10573E-03 0.95965E-04 0.78420E-03 0.17114E-02
 0.23916E-02 0.24092E-02 0.16989E-02 0.61013E-03 -.31250E-03 -.70477E-03 -.62979E-03 -.47897E-03 -.59699E-03 -.96559E-03
 -.16076E-02 -.14313E-02 -.89195E-03 -.37368E-03 0.17965E-03 0.10702E-02 0.22258E-02 0.30589E-02 0.30645E-02 0.23955E-02
 0.16642E-02 0.12409E-02 0.96341E-03 0.57137E-03 0.18122E-03 0.10969E-03 0.31622E-03 0.31048E-03 -.26308E-03 -.11196E-02
 -.76258E-03 -.61084E-03 -.40760E-03 0.65742E-04 0.12388E-02 0.30570E-02 0.46489E-02 0.49850E-02 0.39040E-02 0.23082E-02
 0.12552E-02 0.98700E-03 0.95898E-03 0.67492E-03 0.22465E-03 -.36841E-04 -.68423E-04 -.15840E-03 -.45028E-03 -.73002E-03
 0.51129E-03 0.32142E-03 0.26069E-03 0.79565E-03 0.20615E-02 0.36440E-02 0.48175E-02 0.50805E-02 0.45033E-02 0.35707E-02
 0.27097E-02 0.19885E-02 0.12349E-02 0.36316E-03 -.46389E-03 -.96500E-03 -.97529E-03 -.56364E-03 0.11651E-04 0.43604E-03
 0.57596E-03 0.47420E-03 0.72551E-03 0.12870E-02 0.20207E-02 0.29796E-02 0.42348E-02 0.54731E-02 0.60191E-02 0.54112E-02
 0.38893E-02 0.21850E-02 0.85412E-03 -.59763E-04 -.71730E-03 -.10568E-02 -.86351E-03 -.19888E-03 0.47410E-03 0.71804E-03
 -.12278E-03 0.58954E-03 0.14624E-02 0.20612E-02 0.24938E-02 0.33417E-02 0.48067E-02 0.61458E-02 0.62481E-02 0.47978E-02
 0.26621E-02 0.10411E-02 0.38194E-03 0.25071E-03 0.10339E-03 -.12266E-03 -.22122E-03 -.19991E-03 -.25479E-03 -.34552E-03
 -.94395E-04 0.11990E-02 0.24471E-02 0.33574E-02 0.40305E-02 0.46692E-02 0.51265E-02 0.49179E-02 0.37742E-02 0.20974E-02
 0.72736E-03 0.22519E-03 0.43948E-03 0.77004E-03 0.75285E-03 0.33682E-03 -.27813E-03 -.86398E-03 -.11821E-02 -.96559E-03
 0.27087E-03 0.12553E-02 0.26137E-02 0.40124E-02 0.48420E-02 0.46860E-02 0.36952E-02 0.24450E-02 0.14398E-02 0.80513E-03
 0.42322E-03 0.21514E-03 0.18358E-03 0.24432E-03 0.18563E-03 -.12218E-03 -.54484E-03 -.79941E-03 -.72635E-03 -.35898E-03
 -.26184E-03 0.16842E-03 0.15305E-02 0.30722E-02 0.37198E-02 0.31768E-02 0.21881E-02 0.16491E-02 0.16388E-02 0.15070E-02
 0.79594E-03 -.19947E-03 -.84701E-03 -.90777E-03 -.64800E-03 -.35584E-03 -.53405E-04 0.25194E-03 0.32978E-03 0.30406E-04
 -.90001E-03 -.68606E-03 0.30911E-03 0.14180E-02 0.20026E-02 0.20706E-02 0.20765E-02 0.22108E-02 0.21166E-02 0.13849E-02
 0.16282E-03 -.90882E-03 -.13235E-02 -.11118E-02 -.61616E-03 -.74315E-04 0.41486E-03 0.65301E-03 0.37833E-03 -.33509E-03
 -.91135E-04 -.16146E-03 -.19268E-04 0.45587E-03 0.11252E-02 0.16333E-02 0.16630E-02 0.11829E-02 0.46085E-03 -.15335E-03
 -.46688E-03 -.51021E-03 -.43117E-03 -.35579E-03 -.32554E-03 -.31244E-03 -.26588E-03 -.16478E-03 -.53430E-04 -.18202E-04
 0.12892E-02 0.69950E-03 0.14469E-03 0.20526E-03 0.60434E-03 0.56963E-03 -.18982E-03 -.10874E-02 -.13105E-02 -.70442E-03
 0.13789E-03 0.56447E-03 0.42731E-03 -.35571E-04 -.59827E-03 -.11066E-02 -.12783E-02 -.79701E-03 0.23765E-03 0.11564E-02
 0.11528E-02 0.52455E-03 0.11529E-04 -.85361E-04 -.14052E-03 -.57577E-03 -.11907E-02 -.13508E-02 -.78356E-03 0.61049E-04
 0.52273E-03 0.41733E-03 0.50631E-04 -.31409E-03 -.71004E-03 -.11321E-02 -.12334E-02 -.64973E-03 0.41245E-03 0.11970E-02
 -.21532E-03 -.23832E-03 -.37579E-03 -.46829E-03 -.40406E-03 -.16449E-03 0.16080E-03 0.37849E-03 0.28914E-03 -.12554E-03
 -.60744E-03 -.79294E-03 -.54660E-03 -.11701E-03 0.85803E-04 -.11600E-03 -.51308E-03 -.74456E-03 -.65327E-03 -.39117E-03
 -.84376E-03 -.59357E-03 -.71347E-03 -.67090E-03 -.29781E-04 0.91495E-03 0.13604E-02 0.83460E-03 -.31390E-03 -.12812E-02
 -.15334E-02 -.11054E-02 -.34489E-03 0.39957E-03 0.81784E-03 0.63523E-03 -.16502E-03 -.11371E-02 -.16288E-02 -.13909E-02
 -.55306E-03 -.76559E-03 -.10927E-02 -.93864E-03 -.22229E-03 0.40731E-03 0.30916E-03 -.38931E-03 -.97130E-03 -.98099E-03
 -.64336E-03 -.39787E-03 -.28435E-03 -.30110E-04 0.37169E-03 0.50691E-03 0.87379E-04 -.57424E-03 -.88841E-03 -.72471E-03
 -.72191E-03 -.11612E-02 -.13819E-02 -.13416E-02 -.11962E-02 -.10999E-02 -.95608E-03 -.52291E-03 0.17857E-03 0.69254E-03
 0.52565E-03 -.27532E-03 -.10625E-02 -.11785E-02 -.56787E-03 0.23970E-03 0.68786E-03 0.63274E-03 0.26593E-03 -.21408E-03
 -.13435E-02 -.11913E-02 -.10632E-02 -.12200E-02 -.14044E-02 -.11520E-02 -.34187E-03 0.63269E-03 0.12066E-02 0.10833E-02
 0.37221E-03 -.55721E-03 -.12623E-02 -.13775E-02 -.81001E-03 0.97698E-04 0.70079E-03 0.53474E-03 -.25993E-03 -.10560E-02
 -.59870E-02 -.46388E-02 -.32257E-02 -.19220E-02 -.38551E-03 0.12280E-02 0.19722E-02 0.10957E-02 -.91342E-03 -.26149E-02
 -.29598E-02 -.21136E-02 -.93432E-03 0.30012E-05 0.57770E-03 0.56454E-03 -.51647E-03 -.27140E-02 -.51012E-02 -.63614E-02
 -.53993E-02 -.40515E-02 -.23611E-02 -.54269E-03 0.96021E-03 0.12766E-02 -.24480E-03 -.31087E-02 -.56788E-02 -.63924E-02
 -.50184E-02 -.26728E-02 -.70146E-03 0.27730E-03 0.31577E-03 -.45111E-03 -.19682E-02 -.38976E-02 -.54790E-02 -.60122E-02
 -.49977E-02 -.38007E-02 -.17769E-02 -.28597E-04 0.17029E-03 -.18909E-02 -.58775E-02 -.10437E-01 -.13752E-01 -.14403E-01
 -.12142E-01 -.80479E-02 -.38949E-02 -.11177E-02 -.13704E-03 -.49468E-03 -.15123E-02 -.27741E-02 -.40529E-02 -.49776E-02
 -.39575E-02 -.25026E-02 -.81149E-03 -.56315E-03 -.28604E-02 -.77413E-02 -.14365E-01 -.21194E-01 -.26067E-01 -.26838E-01
 -.22730E-01 -.15279E-01 -.76076E-02 -.23504E-02 -.12033E-03 0.12216E-03 -.47551E-03 -.15355E-02 -.29414E-02 -.40546E-02
 -.11806E-02 -.84347E-04 -.16557E-03 -.28089E-02 -.86408E-02 -.17331E-01 -.27522E-01 -.36678E-01 -.41513E-01 -.39568E-01
 -.31092E-01 -.19401E-01 -.89216E-02 -.24530E-02 0.77945E-05 0.14664E-03 -.51515E-03 -.13351E-02 -.19994E-02 -.20306E-02
 0.15102E-02 0.11590E-02 -.15552E-02 -.78849E-02 -.18308E-01 -.31622E-01 -.44642E-01 -.53124E-01 -.53733E-01 -.45962E-01
 -.32626E-01 -.18427E-01 -.75014E-02 -.15890E-02 0.11391E-03 -.30833E-03 -.98411E-03 -.10029E-02 -.30765E-03 0.72723E-03
 0.16524E-02 -.61412E-05 -.51234E-02 -.15299E-01 -.30243E-01 -.46587E-01 -.58943E-01 -.62796E-01 -.56986E-01 -.44019E-01
 -.28375E-01 -.14357E-01 -.47081E-02 -.12804E-03 0.54845E-03 -.45447E-03 -.11236E-02 -.66779E-03 0.48483E-03 0.14972E-02
 0.16158E-04 -.20399E-02 -.90679E-02 -.22206E-01 -.39302E-01 -.55003E-01 -.63537E-01 -.62055E-01 -.51854E-01 -.36951E-01
 -.21721E-01 -.94258E-02 -.18195E-02 0.93633E-03 0.22407E-03 -.16934E-02 -.29253E-02 -.28273E-02 -.17835E-02 -.50510E-03
 -.11946E-02 -.35829E-02 -.11937E-01 -.25731E-01 -.41389E-01 -.53594E-01 -.57970E-01 -.53268E-01 -.41642E-01 -.27172E-01
 -.13942E-01 -.47597E-02 -.67747E-03 -.10528E-02 -.40050E-02 -.72485E-02 -.90008E-02 -.85023E-02 -.60503E-02 -.28966E-02
 -.20848E-02 -.51444E-02 -.13454E-01 -.25135E-01 -.36867E-01 -.44777E-01 -.45835E-01 -.39382E-01 -.27765E-01 -.15327E-01
 -.62328E-02 -.26150E-02 -.41582E-02 -.89304E-02 -.14441E-01 -.18319E-01 -.18827E-01 -.15523E-01 -.97384E-02 -.42513E-02
 -.34736E-02 -.65232E-02 -.13126E-01 -.21220E-01 -.28437E-01 -.32106E-01 -.30144E-01 -.22675E-01 -.12734E-01 -.48453E-02
 -.23997E-02 -.59958E-02 -.13757E-01 -.22695E-01 -.29755E-01 -.32382E-01 -.29320E-01 -.21551E-01 -.12297E-01 -.54490E-02
 -.37156E-02 -.57556E-02 -.10217E-01 -.15037E-01 -.18289E-01 -.18313E-01 -.14494E-01 -.81800E-02 -.25258E-02 -.95725E-03
 -.53311E-02 -.15080E-01 -.27581E-01 -.39100E-01 -.45877E-01 -.45400E-01 -.37692E-01 -.25677E-01 -.13885E-01 -.61072E-02
 -.11416E-02 -.24350E-02 -.55643E-02 -.81058E-02 -.86314E-02 -.69750E-02 -.39933E-02 -.12170E-02 -.60199E-03 -.41520E-02
 -.13081E-01 -.26702E-01 -.41884E-01 -.53879E-01 -.58402E-01 -.53768E-01 -.41732E-01 -.26550E-01 -.12950E-01 -.41973E-02
 0.21111E-02 0.74123E-03 -.15440E-02 -.25926E-02 -.21030E-02 -.10457E-02 -.40190E-03 -.80854E-03 -.33233E-02 -.97954E-02
 -.21585E-01 -.37496E-01 -.53174E-01 -.63062E-01 -.63486E-01 -.54474E-01 -.39290E-01 -.22617E-01 -.87619E-02 -.40863E-03
 0.27016E-02 0.15061E-02 0.30158E-03 0.79850E-04 0.43771E-03 0.61151E-03 0.19821E-03 -.13607E-02 -.56166E-02 -.14578E-01
 -.28638E-01 -.44930E-01 -.58107E-01 -.63272E-01 -.58693E-01 -.46337E-01 -.30382E-01 -.15233E-01 -.41344E-02 0.15814E-02
 0.96989E-03 0.58895E-03 0.24130E-03 0.25866E-03 0.70394E-03 0.13555E-02 0.13825E-02 -.83565E-03 -.71446E-02 -.18271E-01
 -.32568E-01 -.46036E-01 -.54019E-01 -.53619E-01 -.45225E-01 -.32141E-01 -.18707E-01 -.82510E-02 -.20272E-02 0.55737E-03
 -.50625E-03 -.63258E-03 -.99541E-03 -.87019E-03 0.28964E-03 0.18341E-02 0.19046E-02 -.14291E-02 -.88890E-02 -.19454E-01
 -.30604E-01 -.39039E-01 -.41805E-01 -.37744E-01 -.28428E-01 -.17542E-01 -.87560E-02 -.36705E-02 -.15438E-02 -.78682E-03
 -.14933E-02 -.22708E-02 -.28597E-02 -.23977E-02 -.80374E-03 0.67938E-03 0.31138E-03 -.28717E-02 -.85816E-02 -.15641E-01
 -.22353E-01 -.26642E-01 -.26628E-01 -.21878E-01 -.14219E-01 -.68686E-02 -.22782E-02 -.67465E-03 -.66521E-03 -.10057E-02
 -.33694E-02 -.42324E-02 -.42989E-02 -.34832E-02 -.21519E-02 -.10289E-02 -.82750E-03 -.19938E-02 -.46409E-02 -.84116E-02
 -.12244E-01 -.14503E-01 -.13832E-01 -.10210E-01 -.52097E-02 -.10126E-02 0.10056E-02 0.89445E-03 -.40864E-03 -.19957E-02
 -.54536E-02 -.51542E-02 -.42818E-02 -.32887E-02 -.21116E-02 -.64977E-03 0.62340E-03 0.79981E-03 -.61613E-03 -.30827E-02
 -.53140E-02 -.61759E-02 -.53306E-02 -.32325E-02 -.78001E-03 0.10044E-02 0.12954E-02 -.97287E-04 -.24641E-02 -.45562E-02
 0.17500E-02 0.27714E-02 0.26131E-02 0.15834E-02 0.85116E-03 0.96659E-03 0.12798E-02 0.95507E-03 0.13513E-03 -.31348E-03
 -.40409E-04 0.32574E-03 0.11214E-03 -.42207E-03 -.46318E-03 0.16507E-03 0.70944E-03 0.55543E-03 0.16859E-03 0.52865E-03
 0.19750E-02 0.22911E-02 0.20320E-02 0.16083E-02 0.13346E-02 0.91931E-03 -.80311E-04 -.13997E-02 -.20589E-02 -.14060E-02
 0.38986E-04 0.10524E-02 0.97976E-03 0.29930E-03 -.11330E-03 0.84625E-05 0.27338E-03 0.40010E-03 0.62651E-03 0.12344E-02
 0.71861E-03 0.49401E-03 0.72447E-03 0.89022E-03 0.47963E-03 -.52707E-03 -.16695E-02 -.23963E-02 -.24138E-02 -.17757E-02
 -.80083E-03 0.69882E-04 0.48948E-03 0.45291E-03 0.34328E-03 0.60667E-03 0.12865E-02 0.19163E-02 0.19629E-02 0.13899E-02
 -.41420E-03 -.20956E-03 0.32215E-03 0.25687E-03 -.43579E-03 -.10777E-02 -.13671E-02 -.17663E-02 -.26583E-02 -.35311E-02
 -.34423E-02 -.22105E-02 -.70742E-03 0.18947E-03 0.58783E-03 0.11904E-02 0.20996E-02 0.25128E-02 0.17833E-02 0.41339E-03
 0.47862E-03 0.74909E-03 0.56713E-03 -.17223E-03 -.86622E-03 -.11356E-02 -.15091E-02 -.27610E-02 -.46626E-02 -.58646E-02
 -.52565E-02 -.32049E-02 -.11474E-02 -.67831E-04 0.28390E-03 0.63912E-03 0.11166E-02 0.12379E-02 0.83361E-03 0.41808E-03
 0.16837E-02 0.10809E-02 0.56537E-04 -.10566E-02 -.20901E-02 -.31421E-02 -.43520E-02 -.55496E-02 -.61905E-02 -.57451E-02
 -.42146E-02 -.22518E-02 -.72646E-03 -.11188E-03 -.22443E-03 -.47921E-03 -.36899E-03 0.22588E-03 0.10421E-02 0.16448E-02
 0.89926E-03 -.17932E-04 -.93787E-03 -.22848E-02 -.43228E-02 -.64034E-02 -.73886E-02 -.67998E-02 -.52567E-02 -.36987E-02
 -.24525E-02 -.12977E-02 -.23635E-03 0.26994E-03 -.18756E-04 -.54017E-03 -.41444E-03 0.51910E-03 0.14667E-02 0.15915E-02
 -.44724E-03 -.52682E-03 -.10178E-02 -.27947E-02 -.55158E-02 -.75639E-02 -.76113E-02 -.59861E-02 -.41747E-02 -.31184E-02
 -.24237E-02 -.13130E-02 0.11864E-03 0.10170E-02 0.95805E-03 0.49790E-03 0.37139E-03 0.54447E-03 0.44710E-03 -.51733E-04
 -.12349E-03 0.18541E-03 -.46085E-03 -.22824E-02 -.45342E-02 -.60682E-02 -.63223E-02 -.56671E-02 -.47871E-02 -.39054E-02
 -.27533E-02 -.11946E-02 0.37738E-03 0.13565E-02 0.14969E-02 0.10390E-02 0.36425E-03 -.27156E-03 -.66363E-03 -.59826E-03
 0.50338E-03 -.93613E-05 -.80039E-03 -.17470E-02 -.29948E-02 -.44851E-02 -.56096E-02 -.56263E-02 -.44346E-02 -.27385E-02
 -.13544E-02 -.49850E-03 0.12023E-03 0.65170E-03 0.84036E-03 0.47953E-03 -.11404E-03 -.33859E-03 0.41660E-05 0.47249E-03
 -.58854E-03 -.16891E-02 -.19426E-02 -.18629E-02 -.24432E-02 -.36779E-02 -.43237E-02 -.33471E-02 -.12674E-02 0.32783E-03
 0.50216E-03 -.18996E-03 -.63362E-03 -.48295E-03 -.21770E-03 -.14464E-03 0.61143E-04 0.65051E-03 0.11102E-02 0.67299E-03
 -.16141E-02 -.23351E-02 -.22568E-02 -.20117E-02 -.21230E-02 -.22389E-02 -.15852E-02 -.84273E-04 0.13230E-02 0.16182E-02
 0.76787E-03 -.35067E-03 -.94857E-03 -.96408E-03 -.71483E-03 -.30119E-03 0.32962E-03 0.88686E-03 0.75599E-03 -.28510E-03
 -.14549E-03 -.76810E-03 -.13408E-02 -.14583E-02 -.10321E-02 -.37500E-03 0.11794E-03 0.32274E-03 0.38116E-03 0.40700E-03
 0.31726E-03 -.69473E-05 -.48025E-03 -.83513E-03 -.87975E-03 -.65862E-03 -.34285E-03 -.48303E-04 0.16587E-03 0.18165E-03
 0.19851E-02 0.78416E-03 -.34938E-03 -.43805E-03 0.14151E-03 0.22133E-03 -.61345E-03 -.14779E-02 -.13175E-02 -.23476E-03
 0.65696E-03 0.56465E-03 -.20860E-03 -.88248E-03 -.11701E-02 -.12801E-02 -.11867E-02 -.47444E-03 0.88981E-03 0.20452E-02
 0.17254E-02 0.73642E-03 0.19796E-03 0.42039E-03 0.62062E-03 0.46750E-04 -.93641E-03 -.12523E-02 -.48920E-03 0.54697E-03
 0.79473E-03 0.13408E-03 -.66993E-03 -.10282E-02 -.10845E-02 -.11334E-02 -.93601E-03 -.51051E-04 0.12791E-02 0.20821E-02
 0.21778E-03 0.50700E-03 0.73258E-03 0.85965E-03 0.90261E-03 0.93848E-03 0.10302E-02 0.11017E-02 0.94232E-03 0.41603E-03
 -.32112E-03 -.87307E-03 -.93222E-03 -.56146E-03 -.12744E-03 0.44611E-04 -.66408E-04 -.23597E-03 -.25019E-03 -.68845E-04
 0.44520E-03 0.12299E-02 0.11127E-02 0.83441E-03 0.12245E-02 0.20889E-02 0.24292E-02 0.16598E-02 0.27310E-03 -.78014E-03
 -.10756E-02 -.85544E-03 -.41068E-03 0.23360E-03 0.93114E-03 0.11281E-02 0.38904E-03 -.85114E-03 -.14762E-02 -.84570E-03
 0.18718E-02 0.17793E-02 0.92946E-03 0.45000E-03 0.82124E-03 0.13084E-02 0.10081E-02 0.52751E-04 -.61506E-03 -.49734E-03
 -.76623E-04 0.17313E-04 -.69587E-04 0.25953E-03 0.99269E-03 0.13301E-02 0.76144E-03 -.80046E-04 -.83771E-04 0.91966E-03
 0.20884E-02 0.16033E-02 0.88834E-03 0.27351E-03 -.15220E-03 -.45541E-03 -.53823E-03 -.16639E-03 0.59802E-03 0.11950E-02
 0.10398E-02 0.20526E-03 -.55076E-03 -.53401E-03 0.20465E-03 0.10325E-02 0.14832E-02 0.16579E-02 0.18721E-02 0.21218E-02
 0.14868E-02 0.19327E-02 0.17732E-02 0.81460E-03 -.21536E-03 -.42004E-03 0.31972E-03 0.12833E-02 0.16947E-02 0.13757E-02
 0.64365E-03 -.15138E-03 -.77574E-03 -.95432E-03 -.43281E-03 0.64306E-03 0.16176E-02 0.18740E-02 0.15042E-02 0.12185E-02
 0.63041E-02 0.72090E-02 0.60188E-02 0.33123E-02 0.88876E-03 -.72115E-04 0.12067E-03 0.62785E-03 0.12729E-02 0.22976E-02
 0.32740E-02 0.30735E-02 0.12467E-02 -.10337E-02 -.19696E-02 -.10108E-02 0.73646E-03 0.20481E-02 0.30051E-02 0.44460E-02
 0.64644E-02 0.60580E-02 0.43518E-02 0.22385E-02 0.71863E-03 0.10442E-03 0.21600E-03 0.10779E-02 0.29020E-02 0.52664E-02
 0.67819E-02 0.61185E-02 0.34319E-02 0.45781E-03 -.99612E-03 -.52177E-03 0.99219E-03 0.26225E-02 0.41555E-02 0.55961E-02