unknown system                          
   1.00000000000000     
     2.573869    0.000000    0.000000
     1.286934    2.229036    0.000000
     0.000000    0.000000   30.304665
   Cu   H 
     4     1
Direct
  0.000000  0.000000  0.395979
  0.333333  0.333333  0.465326
  0.666667  0.666667  0.534674
  0.000000  0.000000  0.604021
  0.022431  0.955138  0.663418
 
   20   20  240
 -.59564364216E-02 -.56548585861E-02 -.43554362900E-02 -.23940335483E-02 -.40122988213E-03
 0.96530092435E-03 0.12852678905E-02 0.52514829584E-03 -.92390692709E-03 -.23378875997E-02
 -.29498269018E-02 -.23811216270E-02 -.93054861775E-03 0.56950368461E-03 0.12804597017E-02
 0.85424754346E-03 -.48432858296E-03 -.22385088542E-02 -.39569148316E-02 -.53006910947E-02
 -.56285158961E-02 -.45079528021E-02 -.25441707149E-02 -.35280080289E-03 0.11476334612E-02
 0.11517599885E-02 -.52127900138E-03 -.31669307730E-02 -.54698301179E-02 -.62421097578E-02
 -.51478411934E-02 -.28775948195E-02 -.64838825863E-03 0.56112238024E-03 0.46678765926E-03
 -.61084818256E-03 -.21449361745E-02 -.37068567946E-02 -.49975337355E-02 -.57358624089E-02
 -.43878928025E-02 -.30026235504E-02 -.11751205345E-02 0.35118795131E-03 0.53336262269E-03
 -.14605527352E-02 -.55194626574E-02 -.10284730500E-01 -.13739465403E-01 -.14388144728E-01
 -.12133238023E-01 -.81943627462E-02 -.42465963954E-02 -.15256651197E-02 -.46520166956E-03
 -.84463192127E-03 -.20987510232E-02 -.35623568676E-02 -.46463201173E-02 -.49668057859E-02
 -.29483323270E-02 -.19350456288E-02 -.93346703807E-03 -.77297640800E-03 -.26131950661E-02
 -.72532670832E-02 -.14215591469E-01 -.21467930357E-01 -.26262694516E-01 -.26624970579E-01
 -.22437868306E-01 -.15408585716E-01 -.80705011125E-02 -.25652896275E-02 0.12583700521E-03
 0.27697527747E-03 -.10217533858E-02 -.25379034895E-02 -.34553865999E-02 -.35439592036E-02
 -.12315798884E-02 -.75376111636E-03 -.10629694352E-02 -.32992652261E-02 -.86320623136E-02
 -.17320013642E-01 -.27862117776E-01 -.37092239090E-01 -.41507144931E-01 -.39139831093E-01
 -.30734618583E-01 -.19388921106E-01 -.89009800042E-02 -.19277798954E-02 0.94119466921E-03
 0.84598057794E-03 -.44689538095E-03 -.15772767709E-02 -.20001513939E-02 -.17842176734E-02
 0.83890687739E-03 0.65814413881E-03 -.18089754282E-02 -.79833073347E-02 -.18390755510E-01
 -.31751977026E-01 -.44777205362E-01 -.53178422461E-01 -.53666112413E-01 -.45816197232E-01
 -.32484191711E-01 -.18327289556E-01 -.73790326231E-02 -.13090999419E-02 0.63742548312E-03
 0.38090651213E-03 -.37587145911E-03 -.75373506667E-03 -.53991810961E-03 0.13524771143E-03
 0.20371214101E-02 0.82189459231E-03 -.45447127740E-02 -.15202208983E-01 -.30234647934E-01
 -.46310163765E-01 -.58596173368E-01 -.62795933648E-01 -.57328975519E-01 -.44283761272E-01
 -.28367221602E-01 -.14440807284E-01 -.52808490585E-02 -.95180937564E-03 0.17247239373E-03
 -.95224211336E-04 -.57348688598E-03 -.65699816753E-03 -.45202638375E-04 0.11533361390E-02
 0.10994606845E-02 -.11901799118E-02 -.89371113182E-02 -.22426305738E-01 -.39201223973E-01
 -.54520021003E-01 -.63255184093E-01 -.62341565571E-01 -.52329834842E-01 -.37031835193E-01
 -.21480157689E-01 -.95481122106E-02 -.26733237768E-02 -.15397217364E-03 -.33131171788E-03
 -.16019628622E-02 -.27623315249E-02 -.29712451505E-02 -.18634886145E-02 0.50692949131E-04
 -.12332859533E-02 -.39831812967E-02 -.12496814243E-01 -.26082610512E-01 -.41378181233E-01
 -.53437178541E-01 -.57966247512E-01 -.53416839268E-01 -.41640435576E-01 -.26800206530E-01
 -.13357906558E-01 -.43428706948E-02 -.63849106927E-03 -.12690687656E-02 -.42250048984E-02
 -.73474535758E-02 -.89901345259E-02 -.83908932237E-02 -.58345551466E-02 -.26907543065E-02
 -.30238078195E-02 -.56419247127E-02 -.13565839504E-01 -.25236694836E-01 -.37093933547E-01
 -.44903311642E-01 -.45691217388E-01 -.39136646047E-01 -.27641639897E-01 -.15190196116E-01
 -.57102922125E-02 -.16573078390E-02 -.32558277206E-02 -.86072858022E-02 -.14637911745E-01
 -.18487753467E-01 -.18647677088E-01 -.15320167799E-01 -.10057625223E-01 -.51444838837E-02
 -.34284707001E-02 -.58324252976E-02 -.12546277686E-01 -.21271323668E-01 -.28779196300E-01
 -.32099301987E-01 -.29784059807E-01 -.22600945025E-01 -.13291427622E-01 -.55171473765E-02
 -.24252609946E-02 -.53530348338E-02 -.13182611182E-01 -.22722052445E-01 -.30076325992E-01
 -.32383894561E-01 -.28993766712E-01 -.21504545410E-01 -.12843548037E-01 -.60662744286E-02
 -.27646270904E-02 -.49039895514E-02 -.99455383245E-02 -.15259340171E-01 -.18461050082E-01
 -.18121584247E-01 -.14259282263E-01 -.84473135771E-02 -.33734484668E-02 -.18940322905E-02
 -.58751279016E-02 -.15249168000E-01 -.27709698298E-01 -.39323577169E-01 -.46001651501E-01
 -.45272380345E-01 -.37454926749E-01 -.25520567429E-01 -.13682150697E-01 -.55355485937E-02
 -.11758072223E-02 -.26980613194E-02 -.57851575713E-02 -.81844744546E-02 -.86151331932E-02
 -.68742957816E-02 -.37718300957E-02 -.96574904581E-03 -.57336186748E-03 -.45040070034E-02
 -.13633760792E-01 -.27072594127E-01 -.41891952624E-01 -.53729336920E-01 -.58396113089E-01
 -.53904020549E-01 -.41704703306E-01 -.26155257189E-01 -.12374096666E-01 -.38341200375E-02
 0.10221855717E-02 0.23757472988E-03 -.13861111440E-02 -.23952698126E-02 -.22660315522E-02
 -.11780511181E-02 0.11166531312E-03 0.27424380104E-03 -.24345675946E-02 -.96149898927E-02
 -.21774085343E-01 -.37389733450E-01 -.52697553733E-01 -.62778348417E-01 -.63755955687E-01
 -.54930826616E-01 -.39375432702E-01 -.22417585311E-01 -.89469131479E-02 -.13098139318E-02
 0.23943624854E-02 0.19320960727E-02 0.89373911166E-03 0.99422729136E-04 -.11624304587E-03
 0.21800411618E-03 0.52420743717E-03 -.57677001426E-03 -.50518124724E-02 -.14470741941E-01
 -.28613997310E-01 -.44646112407E-01 -.57757306104E-01 -.63265238711E-01 -.59027429546E-01
 -.46606119318E-01 -.30399165887E-01 -.15344284561E-01 -.47066847171E-02 0.79941398602E-03
 0.16533345886E-02 0.11643287736E-02 0.47814782863E-03 0.58523709328E-04 0.15887377211E-03
 0.69533727967E-03 0.84125387460E-03 -.11490563313E-02 -.72818439702E-02 -.18362881829E-01
 -.32696936928E-01 -.46173746890E-01 -.54075089500E-01 -.53549766096E-01 -.45080600134E-01
 -.32008611783E-01 -.18609778683E-01 -.81015219200E-02 -.16963684333E-02 0.11183875021E-02
 -.53453417723E-03 -.94630190597E-03 -.98707931357E-03 -.54058264703E-03 0.33354089430E-03
 0.12114077032E-02 0.99718217042E-03 -.19524997150E-02 -.89037002686E-02 -.19450247918E-01
 -.30945958414E-01 -.39453224130E-01 -.41797821876E-01 -.37317375998E-01 -.28077407205E-01
 -.17535131209E-01 -.87246134485E-02 -.31246107576E-02 -.61386611331E-03 -.14569117448E-03
 -.25286814580E-02 -.27927143876E-02 -.23359070444E-02 -.13589515597E-02 -.19640197814E-03
 0.59424344605E-03 0.11937593490E-03 -.26301556988E-02 -.81083658631E-02 -.15495511189E-01
 -.22616002977E-01 -.26824620948E-01 -.26414804733E-01 -.21596585910E-01 -.14356870289E-01
 -.73345223888E-02 -.25042861694E-02 -.46197215991E-03 -.56313582499E-03 -.16042896056E-02
 -.38988630679E-02 -.42223811142E-02 -.37588412116E-02 -.27658159847E-02 -.15834733605E-02
 -.63288062310E-03 -.44150474550E-03 -.15654533032E-02 -.42998512918E-02 -.82647749646E-02
 -.12221043031E-01 -.14477363492E-01 -.13820819490E-01 -.10356509599E-01 -.55614126338E-02
 -.14336272102E-02 0.64509734361E-03 0.51863643489E-03 -.97510824492E-03 -.27156498757E-02
 -.51353094688E-02 -.54278441688E-02 -.48396972592E-02 -.35625813908E-02 -.19571792690E-02
 -.45280292542E-03 0.51272599190E-03 0.51776570154E-03 -.69174419760E-03 -.28840263468E-02
 -.51603279477E-02 -.62942530186E-02 -.55237566673E-02 -.31725303882E-02 -.50051734127E-03
 0.11391494189E-02 0.11262455254E-02 -.24454024697E-03 -.21939275204E-02 -.39818247883E-02
 0.15397281179E-02 0.15433476563E-02 0.13411439134E-02 0.10330802133E-02 0.78351698460E-03
 0.65073340909E-03 0.54781501953E-03 0.38357456140E-03 0.19517102303E-03 0.98323823270E-04
 0.12822956058E-03 0.19002484662E-03 0.18634653893E-03 0.14950725146E-03 0.20235842817E-03
 0.40420836078E-03 0.68635550195E-03 0.94920602709E-03 0.11715712454E-02 0.13802301842E-02
 0.15429463651E-02 0.16774159470E-02 0.17542229793E-02 0.17457180984E-02 0.14833001377E-02
 0.76950196313E-03 -.33057526218E-03 -.13340485896E-02 -.16147894551E-02 -.94823645837E-03
 0.21435114486E-03 0.10782717631E-02 0.11566748264E-02 0.61466224417E-03 0.18141779151E-04
 -.18848224011E-03 0.44079102508E-04 0.49886728095E-03 0.95607033506E-03 0.13107519444E-02
 0.12005821497E-02 0.12032676627E-02 0.12732484130E-02 0.12413162199E-02 0.85275326890E-03
 0.95230138442E-05 -.10309224113E-02 -.17431770304E-02 -.17145162088E-02 -.10014245570E-02
 -.10831167467E-03 0.41930562056E-03 0.41489031761E-03 0.14955941429E-03 0.24841315934E-04
 0.22843553285E-03 0.64818850456E-03 0.10409724987E-02 0.12430423898E-02 0.12560176897E-02
 0.53217656290E-03 0.31235628239E-03 0.17312926704E-03 0.71129187234E-04 -.26518450348E-04
 -.16437566012E-03 -.42739929000E-03 -.88371969640E-03 -.14648600687E-02 -.19284041466E-02
 -.19939248584E-02 -.15519486605E-02 -.74783262331E-03 0.13369159096E-03 0.85564679202E-03
 0.13155068829E-02 0.15038080862E-02 0.14435054405E-02 0.11893215964E-02 0.84580579426E-03
 0.39201794118E-03 0.47390129566E-04 -.31876674944E-03 -.49941770742E-03 -.37317025163E-03
 -.14986863355E-03 -.31398701389E-03 -.11842059861E-02 -.24865823987E-02 -.34394360032E-02
 -.33573640232E-02 -.22167096659E-02 -.64388075331E-03 0.61960793941E-03 0.12292408771E-02
 0.13050787867E-02 0.11450790550E-02 0.95577016100E-03 0.79434050195E-03 0.62871816533E-03
 0.97693358606E-03 0.56236998823E-03 -.89311392983E-04 -.72696715062E-03 -.11943341180E-02
 -.15879896924E-02 -.21266471821E-02 -.28248012769E-02 -.33417242213E-02 -.32333685980E-02
 -.23855140354E-02 -.11742449700E-02 -.17601136344E-03 0.27909409673E-03 0.28696734302E-03
 0.17902348060E-03 0.21980459590E-03 0.46456268510E-03 0.79917374643E-03 0.10316583960E-02
 0.12544124704E-02 0.84289795718E-03 -.77328122728E-04 -.13956056450E-02 -.27734803341E-02
 -.37617034478E-02 -.40265823701E-02 -.35394502502E-02 -.25888456127E-02 -.16023007328E-02
 -.90666524324E-03 -.58917750833E-03 -.52631615840E-03 -.51915824059E-03 -.42050611580E-03
 -.18245183784E-03 0.16827843177E-03 0.57431326178E-03 0.96513064891E-03 0.12407340390E-02
 0.64159391876E-03 0.44844642074E-03 -.38727034454E-03 -.18588523548E-02 -.34228105180E-02
 -.42982162405E-02 -.40651794250E-02 -.30116875770E-02 -.18731579268E-02 -.12110959123E-02
 -.10283670256E-02 -.93578675356E-03 -.61179990664E-03 -.71747370257E-04 0.43818485272E-03
 0.70760968846E-03 0.71040292830E-03 0.57684159788E-03 0.48686043755E-03 0.54294549239E-03
 -.94781494745E-04 0.16902147305E-04 -.33661058226E-03 -.12493489731E-02 -.23588530972E-02
 -.31303623632E-02 -.33030873915E-02 -.30340807487E-02 -.26190893105E-02 -.21472529136E-02
 -.14832176995E-02 -.54699700109E-03 0.48005381215E-03 0.12588029840E-02 0.15539320803E-02
 0.13645836833E-02 0.85874365639E-03 0.26798371203E-03 -.16494284073E-03 -.26808339365E-03
 -.30546904614E-03 -.20267274637E-03 -.15493948180E-03 -.46498895103E-03 -.12320591597E-02
 -.22498908279E-02 -.31038130259E-02 -.33895350708E-02 -.29235080357E-02 -.18400103281E-02
 -.52479440197E-03 0.58914829578E-03 0.12473858453E-02 0.14667899047E-02 0.14292993526E-02
 0.12818744316E-02 0.10352258550E-02 0.64735945700E-03 0.17582301603E-03 -.19492324683E-03
 -.38440661986E-03 -.69275029233E-03 -.67922199514E-03 -.76064169945E-03 -.12493317700E-02
 -.19880360951E-02 -.24284839629E-02 -.21202102207E-02 -.11397384019E-02 -.36745302236E-04
 0.63710625381E-03 0.75303204160E-03 0.61835826231E-03 0.64281526827E-03 0.10015740737E-02
 0.15421597059E-02 0.19231675200E-02 0.18427654124E-02 0.12370746213E-02 0.35370916337E-03
 -.52942719332E-03 -.12500260781E-02 -.14879699957E-02 -.14479129732E-02 -.13234866239E-02
 -.10747753046E-02 -.56261667497E-03 0.14317670405E-03 0.70271047771E-03 0.81103945616E-03
 0.52533292505E-03 0.23313423357E-03 0.30387708445E-03 0.80613327686E-03 0.15333063321E-02
 0.22008141523E-02 0.25624358690E-02 0.24237382639E-02 0.17080570276E-02 0.58689749730E-03
 -.11409779174E-03 -.90825824452E-03 -.12851650228E-02 -.11204679045E-02 -.54301036975E-03
 0.14523679674E-03 0.61695892234E-03 0.69316368602E-03 0.46995387644E-03 0.27858858530E-03
 0.44296618191E-03 0.10045275749E-02 0.16770018325E-02 0.21002313513E-02 0.21512280019E-02
 0.19979752408E-02 0.18562508625E-02 0.17302999217E-02 0.14201103268E-02 0.77089981323E-03
 0.88913835296E-03 0.30445011338E-03 -.93930776401E-04 -.94048427236E-04 0.12472036719E-03
 0.18593869807E-03 -.75287379019E-04 -.40005686015E-03 -.31396677842E-03 0.43524636638E-03
 0.16175599539E-02 0.26612913800E-02 0.30535854812E-02 0.26726366547E-02 0.18317986331E-02
 0.10501369984E-02 0.72060679523E-03 0.87581238643E-03 0.11939437868E-02 0.12567611273E-02
 0.13682192091E-02 0.11293084115E-02 0.78448700785E-03 0.44395392209E-03 0.59059961643E-04
 -.38034234532E-03 -.65706773194E-03 -.44719930148E-03 0.34685694818E-03 0.14368892846E-02
 0.23535910817E-02 0.27847978619E-02 0.27048183211E-02 0.22532595403E-02 0.16025768493E-02
 0.96045519679E-03 0.57917913098E-03 0.61901868064E-03 0.97454636442E-03 0.13161258921E-02
 0.84162248970E-03 0.10280903261E-02 0.91963811286E-03 0.60898014883E-03 0.30251265107E-03
 0.22020087624E-03 0.45856949882E-03 0.88656965283E-03 0.12218547204E-02 0.12920059884E-02
 0.12318504179E-02 0.13585684366E-02 0.18038157593E-02 0.22981639127E-02 0.23827282098E-02
 0.18576896824E-02 0.10009027378E-02 0.33224725578E-03 0.17792211895E-03 0.45890043775E-03
 0.35352068528E-03 0.84502573969E-03 0.10452835233E-02 0.10909288997E-02 0.12038446220E-02
 0.14184855123E-02 0.15273987373E-02 0.12944512993E-02 0.73390275737E-03 0.18906380703E-03
 0.11520182069E-03 0.72349124153E-03 0.17669180493E-02 0.26512560688E-02 0.28134190967E-02
 0.21050916180E-02 0.90284687123E-03 -.14279814194E-03 -.54027019240E-03 -.25293007306E-03
 0.74343789151E-03 0.11462866239E-02 0.13423272937E-02 0.13952900415E-02 0.13602524693E-02
 0.11859985606E-02 0.84007552627E-03 0.45765677649E-03 0.27831191526E-03 0.42652510340E-03
 0.80457227983E-03 0.12137780805E-02 0.15247058544E-02 0.16875139560E-02 0.16336401735E-02
 0.12833310700E-02 0.69853945761E-03 0.15892334449E-03 -.15367685023E-04 0.25519161966E-03
 0.14047423512E-02 0.14423674244E-02 0.12787027399E-02 0.88331534334E-03 0.34804067468E-03
 -.96210624463E-04 -.14212831179E-03 0.37087989435E-03 0.12163554425E-02 0.18302459925E-02
 0.17344104155E-02 0.97942089490E-03 0.13800931792E-03 -.18964971887E-03 0.12337766799E-03
 0.70975384278E-03 0.11285095431E-02 0.12489042564E-02 0.12412948175E-02 0.12922873543E-02
 0.15869840911E-02 0.14427817134E-02 0.10498774639E-02 0.43876504935E-03 -.12220706594E-03
 -.26893715042E-03 0.18278669970E-03 0.10301918404E-02 0.17425974878E-02 0.18022505123E-02
 0.10948802730E-02 0.29504101388E-04 -.73820141733E-03 -.77070640738E-03 -.12767119289E-03
 0.74778598275E-03 0.14007936502E-02 0.16645780773E-02 0.16700935021E-02 0.16237197716E-02
 0.63157979538E-02 0.61808347294E-02 0.48937305080E-02 0.28518151802E-02 0.87497528554E-03
 -.34377209366E-03 -.57272786111E-03 0.61469524908E-04 0.12679338129E-02 0.25678609770E-02
 0.32669338231E-02 0.27948521610E-02 0.12550829854E-02 -.45605848774E-03 -.12641734685E-02
 -.72764029053E-03 0.76548603749E-03 0.25304109505E-02 0.41555130736E-02 0.54987795005E-02
 0.62261874821E-02 0.55984573032E-02 0.41738812782E-02 0.24335599807E-02 0.90384593938E-03
 -.27825774879E-04 -.65812427380E-04 0.10177245436E-02 0.31056794246E-02 0.54029791158E-02
 0.66351673072E-02 0.59021752527E-02 0.34823758867E-02 0.74253906936E-03 -.84554952853E-03
 -.68058458356E-03 0.82283882693E-03 0.28247778457E-02 0.46432409298E-02 0.58680523659E-02
 0.47151013847E-02 0.35392348318E-02 0.21784090052E-02 0.10383905089E-02 0.66301655229E-03
 0.16774161659E-02 0.44204436798E-02 0.84626864030E-02 0.12470364536E-01 0.14723924897E-01
 0.14076682908E-01 0.10699741326E-01 0.60447011780E-02 0.20283198777E-02 0.80208413493E-05
 0.20685582672E-03 0.18495278385E-02 0.37738157183E-02 0.50591550551E-02 0.53350374245E-02
 0.24093923975E-02 0.11219843476E-02 0.16629847440E-03 0.35284580493E-03 0.28078700714E-02
 0.81885251792E-02 0.15691588409E-01 0.22926420521E-01 0.27069446880E-01 0.26503271914E-01
 0.21673796624E-01 0.14635681253E-01 0.78413911818E-02 0.30821103069E-02 0.10219463207E-02
 0.12384766605E-02 0.25915526306E-02 0.38237614139E-02 0.41660233347E-02 0.35662289218E-02
 0.85304999632E-03 -.12967262256E-03 -.11902004270E-03 0.25382341343E-02 0.92589605529E-02
 0.19743387258E-01 0.31256968846E-01 0.39689030111E-01 0.41842837992E-01 0.37224134117E-01
 0.28039340842E-01 0.17674842267E-01 0.89831300929E-02 0.34025637053E-02 0.97213824381E-03
 0.78683458113E-03 0.15762241247E-02 0.22737903020E-02 0.23647748702E-02 0.18252616665E-02
 0.33100878036E-03 -.16942615659E-04 0.17985667940E-02 0.77878430148E-02 0.18726453177E-01
 0.32899183750E-01 0.46218652220E-01 0.54016468627E-01 0.53470150313E-01 0.45043379049E-01
 0.32034476412E-01 0.18700749267E-01 0.82837932638E-02 0.20353701255E-02 -.54603358014E-03
 -.80578240653E-03 -.64520821269E-04 0.78589440415E-03 0.12412228669E-02 0.10476062114E-02
 0.13379019563E-05 0.89301446361E-03 0.53405071772E-02 0.14744026275E-01 0.28714663720E-01
 0.44483589982E-01 0.57470969903E-01 0.63099590068E-01 0.59081660629E-01 0.46778888030E-01
 0.30582735243E-01 0.15596773115E-01 0.51805217945E-02 -.55285195195E-04 -.14831060013E-02
 -.96084237127E-03 0.13958201217E-03 0.10175587783E-02 0.12066597361E-02 0.63821897118E-03
 -.39987734823E-04 0.25905639642E-02 0.98265283928E-02 0.21938753568E-01 0.37325355965E-01
 0.52413923124E-01 0.62506802704E-01 0.63702170716E-01 0.55077929181E-01 0.39582182333E-01
 0.22654295118E-01 0.93411997057E-02 0.19551882558E-02 -.21168600867E-03 0.57888226611E-03
 0.21745440543E-02 0.32457502553E-02 0.31892525098E-02 0.19977274410E-02 0.40756787836E-03
 0.99153861899E-03 0.48820623310E-02 0.13982797269E-01 0.27320687926E-01 0.41971849958E-01
 0.53663939865E-01 0.58284118555E-01 0.53835722456E-01 0.41712857786E-01 0.26241487955E-01
 0.12549527855E-01 0.41126738059E-02 0.15450917026E-02 0.31301847993E-02 0.62821793613E-02
 0.87851107387E-02 0.93321480641E-02 0.76358111794E-02 0.44548630887E-02 0.14992912034E-02
 0.24531010372E-02 0.62915576566E-02 0.15587697288E-01 0.28038892836E-01 0.39593892929E-01
 0.46093933301E-01 0.45171765355E-01 0.37317214457E-01 0.25524017751E-01 0.13841531251E-01
 0.57150576376E-02 0.28732566981E-02 0.50230285412E-02 0.10231723598E-01 0.15759311109E-01
 0.19074606477E-01 0.18739573947E-01 0.14874868399E-01 0.90997828161E-02 0.40296437362E-02
 0.27232173938E-02 0.54990604260E-02 0.13343291321E-01 0.22978028119E-01 0.30308208102E-01
 0.32448169540E-01 0.28953383556E-01 0.21587414461E-01 0.13167755681E-01 0.64968796471E-02
 0.37635786984E-02 0.60745969622E-02 0.12898414353E-01 0.21864868763E-01 0.29497742972E-01
 0.32724506001E-01 0.30255969857E-01 0.23044587010E-01 0.13795568838E-01 0.59890198425E-02
 0.17432515487E-02 0.32772727376E-02 0.86526878315E-02 0.14722676490E-01 0.18566376998E-01
 0.18725178216E-01 0.15495220468E-01 0.10418909472E-01 0.56539625700E-02 0.35551560471E-02
 0.61378208878E-02 0.14108616574E-01 0.25931015733E-01 0.37907213282E-01 0.45669751941E-01
 0.46275396703E-01 0.39550674968E-01 0.27980461535E-01 0.15489800689E-01 0.59196825780E-02
 0.92167730197E-03 0.14369225776E-02 0.42321286172E-02 0.72705421575E-02 0.89670240465E-02
 0.84925103828E-02 0.60241952907E-02 0.29086073727E-02 0.14881810409E-02 0.43394697513E-02
 0.12990828619E-01 0.26686664563E-01 0.42047155646E-01 0.54153147311E-01 0.58711384953E-01
 0.54124952778E-01 0.42220712747E-01 0.27222700760E-01 0.13686213302E-01 0.46539839102E-02
 0.61659258025E-03 0.50378892809E-03 0.14669419214E-02 0.25303572230E-02 0.28389586302E-02
 0.18187314254E-02 -.13103169628E-03 -.12161712957E-02 0.11974888097E-02 0.91895122994E-02
 0.22856909709E-01 0.39669248355E-01 0.55020934998E-01 0.63920257108E-01 0.63217860292E-01
 0.53250877431E-01 0.37776396651E-01 0.22018081909E-01 0.10039691444E-01 0.32160599562E-02
 -.15442815524E-05 -.48927085118E-04 0.20006254699E-03 0.26541629855E-03 -.23957433297E-03
 -.13542587433E-02 -.21848172618E-02 -.83901827490E-03 0.47617295428E-02 0.15629388841E-01
 0.30732736214E-01 0.46804403431E-01 0.59173847899E-01 0.63570041085E-01 0.58240507055E-01
 0.45115548896E-01 0.28966760779E-01 0.14864975509E-01 0.56727310523E-02 0.13148692557E-02
 -.65581616605E-03 -.60749714521E-04 0.20731755851E-03 0.55454273706E-05 -.50651956647E-03
 -.94046899655E-03 -.47644407832E-03 0.22084959251E-02 0.85145875540E-02 0.18997206189E-01
 0.32413739464E-01 0.45485099171E-01 0.53907401660E-01 0.54369146797E-01 0.46436388409E-01
 0.32973051063E-01 0.18659165908E-01 0.75536851149E-02 0.13378180366E-02 -.75337219779E-03
 0.61724581570E-04 0.10759338717E-02 0.13597182073E-02 0.11604168361E-02 0.89409649866E-03
 0.83571113649E-03 0.14361421791E-02 0.37416094751E-02 0.90769174281E-02 0.17873698711E-01
 0.28587968070E-01 0.37865425884E-01 0.42136129549E-01 0.39582680773E-01 0.31114185774E-01
 0.19791658386E-01 0.92373543405E-02 0.20381979057E-02 -.10917918327E-02 -.11528881834E-02
 0.22478031742E-02 0.29677733767E-02 0.29025143323E-02 0.23811897523E-02 0.16724323274E-02
 0.97690392334E-03 0.92468671237E-03 0.27395126494E-02 0.74410654681E-02 0.14620883340E-01
 0.22068593115E-01 0.26854320645E-01 0.27067053724E-01 0.22817503121E-01 0.15900749377E-01
 0.86818062332E-02 0.30977853023E-02 0.14307623621E-03 -.27040354001E-03 0.86931071695E-03
 0.43926438241E-02 0.45924795680E-02 0.40003428653E-02 0.27206678946E-02 0.10544554044E-02
 -.34574590597E-03 -.46674090666E-03 0.15757233715E-02 0.57275989488E-02 0.10614026752E-01
 0.14150462954E-01 0.14813955351E-01 0.12558689784E-01 0.86679963707E-02 0.48053596363E-02
 0.21234702227E-02 0.98928764119E-03 0.11939188188E-02 0.22332510535E-02 0.34888587636E-02
 0.56430115767E-02 0.56472371062E-02 0.46295336042E-02 0.26965612317E-02 0.53900931567E-03
 -.84713656054E-03 -.71349168397E-03 0.99208935252E-03 0.35435094468E-02 0.57536581393E-02
 0.65509389520E-02 0.55535819449E-02 0.33105817391E-02 0.99428160334E-03 -.30906723818E-03
 -.21193686339E-03 0.91383577387E-03 0.24019075641E-02 0.37920342186E-02 0.49196521865E-02
 -.13112718575E-02 -.61182088575E-03 -.30845319174E-03 -.37925156823E-03 -.32770333661E-03
 0.76716631526E-04 0.48587367151E-03 0.48614893244E-03 0.18774101709E-03 0.61285552375E-04
 0.26574037510E-03 0.42481787793E-03 0.17015922972E-03 -.31924401276E-03 -.55701999823E-03
 -.44686476059E-03 -.44807134810E-03 -.93608358026E-03 -.16152871521E-02 -.18139967765E-02
 -.92913269555E-03 -.43550130164E-03 -.80016099218E-04 0.21387925847E-03 0.45584304947E-03
 0.40540989666E-03 -.10485167557E-03 -.72457221462E-03 -.73618632024E-03 0.18912655617E-03
 0.14919385170E-02 0.21648632639E-02 0.17121370195E-02 0.56202809864E-03 -.48231943369E-03
 -.10414239016E-02 -.13042893493E-02 -.15226915460E-02 -.16263796047E-02 -.14143747020E-02
 -.12419249800E-02 -.11096626126E-02 -.59698944807E-03 -.55412691495E-04 0.16806182715E-03
 0.46514295406E-04 -.10572911700E-03 0.95965028617E-04 0.78420302508E-03 0.17114018933E-02
 0.23916150954E-02 0.24092231788E-02 0.16988578400E-02 0.61012984403E-03 -.31249725306E-03
 -.70477228508E-03 -.62978850974E-03 -.47897421791E-03 -.59699007522E-03 -.96559402880E-03
 -.16076083335E-02 -.14313427052E-02 -.89194612769E-03 -.37368379407E-03 0.17965250589E-03
 0.10701950896E-02 0.22257774030E-02 0.30589448622E-02 0.30645185618E-02 0.23954953776E-02
 0.16642326678E-02 0.12408789137E-02 0.96340996552E-03 0.57136710355E-03 0.18121704481E-03
 0.10968768538E-03 0.31622358119E-03 0.31048141557E-03 -.26308470672E-03 -.11196313857E-02
 -.76258068739E-03 -.61083863717E-03 -.40760483945E-03 0.65741700325E-04 0.12388466252E-02
 0.30569939312E-02 0.46489267097E-02 0.49849833434E-02 0.39040425016E-02 0.23081846978E-02
 0.12551786403E-02 0.98700088008E-03 0.95897995514E-03 0.67492110962E-03 0.22464702613E-03
 -.36840858854E-04 -.68422601203E-04 -.15839530738E-03 -.45028174347E-03 -.73001927137E-03
 0.51129322675E-03 0.32141679048E-03 0.26068659419E-03 0.79564880909E-03 0.20614767504E-02
 0.36440466048E-02 0.48175498942E-02 0.50804517961E-02 0.45033194974E-02 0.35707057016E-02
 0.27096836045E-02 0.19885428572E-02 0.12348883246E-02 0.36315636948E-03 -.46388679205E-03
 -.96499726072E-03 -.97529349054E-03 -.56364115773E-03 0.11651007298E-04 0.43603810664E-03
 0.57595579657E-03 0.47419762275E-03 0.72551416466E-03 0.12870459556E-02 0.20206881401E-02
 0.29796355993E-02 0.42347598853E-02 0.54731493532E-02 0.60191358518E-02 0.54112007715E-02
 0.38893114864E-02 0.21849604275E-02 0.85411566634E-03 -.59763193711E-04 -.71729807906E-03
 -.10568124837E-02 -.86350803031E-03 -.19888337478E-03 0.47409996722E-03 0.71804417246E-03
 -.12277666668E-03 0.58953573442E-03 0.14624323762E-02 0.20612348325E-02 0.24937951427E-02
 0.33416833224E-02 0.48067424037E-02 0.61457519780E-02 0.62481194300E-02 0.47978420878E-02
 0.26620870075E-02 0.10410567129E-02 0.38194032672E-03 0.25071205007E-03 0.10339175984E-03
 -.12265780604E-03 -.22121614231E-03 -.19991110446E-03 -.25479145732E-03 -.34552362727E-03
 -.94395209288E-04 0.11990287403E-02 0.24470583992E-02 0.33573942499E-02 0.40305469031E-02
 0.46692054720E-02 0.51265111571E-02 0.49178603718E-02 0.37741811500E-02 0.20973827603E-02
 0.72735744511E-03 0.22519466242E-03 0.43947623620E-03 0.77004443536E-03 0.75285172311E-03
 0.33681817737E-03 -.27812807006E-03 -.86398039754E-03 -.11820977142E-02 -.96558645111E-03
 0.27086995030E-03 0.12553395211E-02 0.26137156234E-02 0.40123617569E-02 0.48419998042E-02
 0.46859849929E-02 0.36951567982E-02 0.24450364325E-02 0.14397598962E-02 0.80513135076E-03
 0.42322466552E-03 0.21513694526E-03 0.18357818925E-03 0.24432258197E-03 0.18562597571E-03
 -.12218139339E-03 -.54483636907E-03 -.79940697584E-03 -.72635159193E-03 -.35898227049E-03
 -.26183698550E-03 0.16842336388E-03 0.15305346403E-02 0.30722371952E-02 0.37198244723E-02
 0.31767697380E-02 0.21881273365E-02 0.16490552419E-02 0.16388148939E-02 0.15070314165E-02
 0.79594216047E-03 -.19947316085E-03 -.84700960587E-03 -.90777264016E-03 -.64799545226E-03
 -.35583778436E-03 -.53405066769E-04 0.25193583011E-03 0.32977902320E-03 0.30406216331E-04
 -.90001081763E-03 -.68605956445E-03 0.30911498463E-03 0.14179985029E-02 0.20025962257E-02
 0.20706125209E-02 0.20765022122E-02 0.22108297355E-02 0.21166226251E-02 0.13848819500E-02
 0.16281931314E-03 -.90881541928E-03 -.13234522317E-02 -.11118311152E-02 -.61615519296E-03
 -.74314764760E-04 0.41485609066E-03 0.65300810108E-03 0.37833057506E-03 -.33508616190E-03
 -.91134752083E-04 -.16146396166E-03 -.19267632911E-04 0.45587211082E-03 0.11252259278E-02
 0.16332728789E-02 0.16629978080E-02 0.11828666038E-02 0.46085218856E-03 -.15335393667E-03
 -.46687558920E-03 -.51021033624E-03 -.43117261819E-03 -.35578700303E-03 -.32553658548E-03
 -.31243866076E-03 -.26588284834E-03 -.16478007922E-03 -.53430102675E-04 -.18201819451E-04
 0.12892399082E-02 0.69950021505E-03 0.14469052707E-03 0.20525685724E-03 0.60433943314E-03
 0.56963172761E-03 -.18981725816E-03 -.10874196336E-02 -.13104966665E-02 -.70441749440E-03
 0.13788942744E-03 0.56447285723E-03 0.42731069250E-03 -.35571393411E-04 -.59827293796E-03
 -.11066209382E-02 -.12782580461E-02 -.79700773307E-03 0.23764556300E-03 0.11564461783E-02
 0.11528197470E-02 0.52455496498E-03 0.11529480105E-04 -.85361459583E-04 -.14051693029E-03
 -.57576903625E-03 -.11906555786E-02 -.13508341166E-02 -.78356497048E-03 0.61048684344E-04
 0.52272957702E-03 0.41732618197E-03 0.50631017997E-04 -.31409061431E-03 -.71003574650E-03
 -.11320845309E-02 -.12333556902E-02 -.64973082411E-03 0.41244544229E-03 0.11969670999E-02
 -.21532185565E-03 -.23831506157E-03 -.37579434354E-03 -.46829379068E-03 -.40405516025E-03
 -.16448952059E-03 0.16079542095E-03 0.37848519042E-03 0.28914396194E-03 -.12554071544E-03
 -.60744494487E-03 -.79294077663E-03 -.54660126338E-03 -.11700743013E-03 0.85803466643E-04
 -.11599651844E-03 -.51307774271E-03 -.74455933157E-03 -.65327165918E-03 -.39116616470E-03
 -.84376088253E-03 -.59357349670E-03 -.71346559258E-03 -.67090350268E-03 -.29780879657E-04
 0.91494706170E-03 0.13604101552E-02 0.83460097147E-03 -.31389991708E-03 -.12812215674E-02
 -.15333688205E-02 -.11054049862E-02 -.34488649575E-03 0.39957391147E-03 0.81783631310E-03
 0.63523075586E-03 -.16502054382E-03 -.11370746274E-02 -.16287607737E-02 -.13908719571E-02
 -.55306463616E-03 -.76559217985E-03 -.10926950430E-02 -.93863905727E-03 -.22229053275E-03
 0.40731182560E-03 0.30915969596E-03 -.38931392538E-03 -.97129896855E-03 -.98099468538E-03
 -.64336272874E-03 -.39787194124E-03 -.28434763335E-03 -.30109541971E-04 0.37168583771E-03
 0.50690761433E-03 0.87378654165E-04 -.57423853511E-03 -.88841087864E-03 -.72470580713E-03
 -.72190988715E-03 -.11611955338E-02 -.13818912120E-02 -.13416447100E-02 -.11962348298E-02
 -.10998900665E-02 -.95608070711E-03 -.52290857042E-03 0.17857432028E-03 0.69253870240E-03
 0.52565037068E-03 -.27532299105E-03 -.10625494422E-02 -.11784554654E-02 -.56786834028E-03
 0.23970276567E-03 0.68786201632E-03 0.63274454155E-03 0.26593206658E-03 -.21408431644E-03
 -.13435277773E-02 -.11913318849E-02 -.10632237239E-02 -.12200460953E-02 -.14043992988E-02
 -.11519899556E-02 -.34187357431E-03 0.63269293798E-03 0.12065780442E-02 0.10832688451E-02
 0.37221321171E-03 -.55721167891E-03 -.12622616060E-02 -.13775103513E-02 -.81000612085E-03
 0.97697617370E-04 0.70079212171E-03 0.53474482996E-03 -.25992830928E-03 -.10559512980E-02
 -.59870493679E-02 -.46388419937E-02 -.32256637983E-02 -.19220391918E-02 -.38550804885E-03
 0.12279709193E-02 0.19722370034E-02 0.10957151440E-02 -.91341940541E-03 -.26149009095E-02
 -.29598215000E-02 -.21135525913E-02 -.93432323283E-03 0.30012028844E-05 0.57769643967E-03
 0.56453928009E-03 -.51647075496E-03 -.27140000281E-02 -.51012189541E-02 -.63614334505E-02
 -.53993452453E-02 -.40515495932E-02 -.23611412233E-02 -.54269178924E-03 0.96020664439E-03