    5    5    1    1
  0.3477306E+02  0.2573869E-09  0.2573869E-09  0.3030466E-08  0.5000000E-15
  1.000000000000000E-004
  CAR 
 unknown system                          
     45     31     28
 
  0.0000000E+00  0.0000000E+00  0.0000000E+00  0.1000000E-01
    1      -11.283873   1.000000
    2      -10.142136   1.000000
    3       -8.667341   1.000000
    4       -7.687106   1.000000
    5       -6.998802   1.000000
    6       -5.651922   1.000000
    7       -5.567536   1.000000
    8       -5.521615   1.000000
    9       -5.521116   1.000000
   10       -5.481755   1.000000
   11       -5.480427   1.000000
   12       -5.351998   1.000000
   13       -5.350516   1.000000
   14       -5.252514   1.000000
   15       -5.251818   1.000000
   16       -5.075750   1.000000
   17       -4.771085   1.000000
   18       -4.769782   1.000000
   19       -4.671259   1.000000
   20       -4.670686   1.000000
   21       -4.437367   1.000000
   22       -4.434795   1.000000
   23       -4.240107   1.000000
   24       -4.238627   1.000000
   25       -3.215702   1.000000
   26        0.145476   0.000000
   27        1.757956   0.000000
   28        2.378631   0.000000
 
  0.1000000E+00  0.6938894E-17  0.0000000E+00  0.4000000E-01
    1      -10.970522   1.000000
    2       -9.842104   1.000000
    3       -8.389843   1.000000
    4       -7.462466   1.000000
    5       -6.870031   1.000000
    6       -5.752745   1.000000
    7       -5.666161   1.000000
    8       -5.609640   1.000000
    9       -5.466850   1.000000
   10       -5.414692   1.000000
   11       -5.405696   1.000000
   12       -5.404333   1.000000
   13       -5.348431   1.000000
   14       -5.252386   1.000000
   15       -5.249291   1.000000
   16       -5.156924   1.000000
   17       -4.840266   1.000000
   18       -4.818230   1.000000
   19       -4.663293   1.000000
   20       -4.660278   1.000000
   21       -4.524713   1.000000
   22       -4.433077   1.000000
   23       -4.234424   1.000000
   24       -4.035316   1.000000
   25       -2.586439   0.184917
   26        0.419611   0.000000
   27        2.054578   0.000000
   28        2.693211   0.000000
 
  0.2000000E+00 -0.1387779E-16  0.0000000E+00  0.4000000E-01
    1      -10.068620   1.000000
    2       -9.001050   1.000000
    3       -7.658045   1.000000
    4       -6.920381   1.000000
    5       -6.576218   1.000000
    6       -6.049287   1.000000
    7       -5.868586   1.000000
    8       -5.781945   1.000000
    9       -5.594602   1.000000
   10       -5.499356   1.000000
   11       -5.464012   1.000000
   12       -5.283031   1.000000
   13       -5.245313   1.000000
   14       -5.137769   1.000000
   15       -5.038453   1.000000
   16       -5.030702   1.000000
   17       -4.926292   1.000000
   18       -4.812447   1.000000
   19       -4.780905   1.000000
   20       -4.636488   1.000000
   21       -4.436780   1.000000
   22       -4.358655   1.000000
   23       -4.226164   1.000000
   24       -3.369774   1.000000
   25       -1.441028   0.000000
   26        1.236651   0.000000
   27        2.947420   0.000000
   28        3.629121   0.000000
 
  0.3000000E+00 -0.2775558E-16  0.0000000E+00  0.4000000E-01
    1       -8.753909   1.000000
    2       -7.916363   1.000000
    3       -7.021298   1.000000
    4       -6.612783   1.000000
    5       -6.383981   1.000000
    6       -6.269000   1.000000
    7       -5.993064   1.000000
    8       -5.797752   1.000000
    9       -5.613681   1.000000
   10       -5.418871   1.000000
   11       -5.315913   1.000000
   12       -5.254776   1.000000
   13       -5.105143   1.000000
   14       -4.992238   1.000000
   15       -4.935815   1.000000
   16       -4.752140   1.000000
   17       -4.624392   1.000000
   18       -4.588111   1.000000
   19       -4.520854   1.000000
   20       -4.442416   1.000000
   21       -4.392417   1.000000
   22       -4.212576   1.000000
   23       -3.989646   1.000000
   24       -2.452667   0.002647
   25       -0.099253   0.000000
   26        2.543462   0.000000
   27        4.411681   0.000000
   28        5.029533   0.000000
 
  0.4000000E+00 -0.2775558E-16  0.0000000E+00  0.4000000E-01
    1       -7.618980   1.000000
    2       -7.290443   1.000000
    3       -6.934517   1.000000
    4       -6.723241   1.000000
    5       -6.570763   1.000000
    6       -6.319337   1.000000
    7       -5.906962   1.000000
    8       -5.720031   1.000000
    9       -5.543952   1.000000
   10       -5.401807   1.000000
   11       -5.234818   1.000000
   12       -5.018245   1.000000
   13       -4.782607   1.000000
   14       -4.589128   1.000000
   15       -4.535028   1.000000
   16       -4.339167   1.000000
   17       -4.314802   1.000000
   18       -4.237477   1.000000
   19       -4.196633   1.000000
   20       -4.099522   1.000000
   21       -4.098168   1.000000
   22       -3.636568   1.000000
   23       -3.050427   1.000000
   24       -1.322482   0.000000
   25        0.764686   0.000000
   26        2.448974   0.000000
   27        3.392280   0.000000
   28        4.819975   0.000000
 
  0.5000000E+00 -0.2775558E-16  0.0000000E+00  0.2000000E-01
    1       -7.319411   1.000000
    2       -7.181190   1.000000
    3       -6.855563   1.000000
    4       -6.770170   1.000000
    5       -6.713210   1.000000
    6       -6.382859   1.000000
    7       -5.864693   1.000000
    8       -5.662345   1.000000
    9       -5.556683   1.000000
   10       -5.435975   1.000000
   11       -5.096957   1.000000
   12       -5.034112   1.000000
   13       -4.653564   1.000000
   14       -4.573977   1.000000
   15       -4.323966   1.000000
   16       -4.287132   1.000000
   17       -4.204716   1.000000
   18       -4.152841   1.000000
   19       -4.099032   1.000000
   20       -3.984195   1.000000
   21       -2.794307   0.979469
   22       -2.291682   0.000000
   23       -1.798185   0.000000
   24       -1.233351   0.000000
   25       -0.988346   0.000000
   26        1.688381   0.000000
   27        2.798702   0.000000
   28        4.305496   0.000000
 
  0.0000000E+00  0.1000000E+00  0.0000000E+00  0.2000000E-01
    1      -10.970499   1.000000
    2       -9.842089   1.000000
    3       -8.389933   1.000000
    4       -7.462491   1.000000
    5       -6.870096   1.000000
    6       -5.751975   1.000000
    7       -5.667536   1.000000
    8       -5.608927   1.000000
    9       -5.466236   1.000000
   10       -5.415051   1.000000
   11       -5.406185   1.000000
   12       -5.403655   1.000000
   13       -5.349309   1.000000
   14       -5.251448   1.000000
   15       -5.249272   1.000000
   16       -5.156495   1.000000
   17       -4.840139   1.000000
   18       -4.819092   1.000000
   19       -4.664224   1.000000
   20       -4.662112   1.000000
   21       -4.524877   1.000000
   22       -4.431278   1.000000
   23       -4.233356   1.000000
   24       -4.035068   1.000000
   25       -2.586423   0.184854
   26        0.419256   0.000000
   27        2.054586   0.000000
   28        2.693218   0.000000
 
  0.2000000E+00  0.1000000E+00  0.0000000E+00  0.2000000E-01
    1      -10.361261   1.000000
    2       -9.268184   1.000000
    3       -7.876182   1.000000
    4       -7.065909   1.000000
    5       -6.657168   1.000000
    6       -5.895969   1.000000
    7       -5.877329   1.000000
    8       -5.748839   1.000000
    9       -5.570927   1.000000
   10       -5.526988   1.000000
   11       -5.443069   1.000000
   12       -5.339502   1.000000
   13       -5.271457   1.000000
   14       -5.204204   1.000000
   15       -5.049205   1.000000
   16       -5.013282   1.000000
   17       -4.924986   1.000000
   18       -4.857694   1.000000
   19       -4.760366   1.000000
   20       -4.599814   1.000000
   21       -4.567355   1.000000
   22       -4.300849   1.000000
   23       -4.283204   1.000000
   24       -3.558623   1.000000
   25       -1.767267   0.000000
   26        0.968266   0.000000
   27        2.649951   0.000000
   28        3.324759   0.000000
 
  0.3000000E+00  0.1000000E+00  0.0000000E+00  0.4000000E-01
    1       -9.233131   1.000000
    2       -8.267154   1.000000
    3       -7.115170   1.000000
    4       -6.561399   1.000000
    5       -6.396421   1.000000
    6       -6.172749   1.000000
    7       -5.986562   1.000000
    8       -5.893554   1.000000
    9       -5.682066   1.000000
   10       -5.588948   1.000000
   11       -5.526148   1.000000
   12       -5.366142   1.000000
   13       -5.233333   1.000000
   14       -5.124257   1.000000
   15       -4.960699   1.000000
   16       -4.854405   1.000000
   17       -4.761258   1.000000
   18       -4.630574   1.000000
   19       -4.523283   1.000000
   20       -4.501637   1.000000
   21       -4.409824   1.000000
   22       -4.295783   1.000000
   23       -4.050157   1.000000
   24       -2.781949   0.969129
   25       -0.569974   0.000000
   26        2.056727   0.000000
   27        3.842703   0.000000
   28        4.507292   0.000000
 
  0.4000000E+00  0.1000000E+00  0.0000000E+00  0.4000000E-01
    1       -7.924031   1.000000
    2       -7.368850   1.000000
    3       -6.847681   1.000000
    4       -6.576720   1.000000
    5       -6.367487   1.000000
    6       -6.237509   1.000000
    7       -5.980697   1.000000
    8       -5.814570   1.000000
    9       -5.573345   1.000000
   10       -5.466720   1.000000
   11       -5.323709   1.000000
   12       -5.222873   1.000000
   13       -5.089727   1.000000
   14       -4.966489   1.000000
   15       -4.874051   1.000000
   16       -4.661395   1.000000
   17       -4.578303   1.000000
   18       -4.405537   1.000000
   19       -4.309336   1.000000
   20       -4.223356   1.000000
   21       -3.971630   1.000000
   22       -3.861044   1.000000
   23       -3.300958   1.000000
   24       -1.634246   0.000000
   25        0.796192   0.000000
   26        3.331286   0.000000
   27        4.333596   0.000000
   28        5.377046   0.000000
 
  0.5000000E+00  0.1000000E+00  0.0000000E+00  0.4000000E-01
    1       -7.239026   1.000000
    2       -7.087704   1.000000
    3       -6.778051   1.000000
    4       -6.690223   1.000000
    5       -6.552694   1.000000
    6       -6.314999   1.000000
    7       -5.905383   1.000000
    8       -5.676723   1.000000
    9       -5.575821   1.000000
   10       -5.437644   1.000000
   11       -5.311325   1.000000
   12       -4.969285   1.000000
   13       -4.820012   1.000000
   14       -4.705827   1.000000
   15       -4.562028   1.000000
   16       -4.466077   1.000000
   17       -4.353833   1.000000
   18       -4.297076   1.000000
   19       -4.211058   1.000000
   20       -4.129777   1.000000
   21       -2.796453   0.980926
   22       -2.540578   0.061129
   23       -1.948294   0.000000
   24       -0.666191   0.000000
   25        0.203789   0.000000
   26        1.996283   0.000000
   27        3.166910   0.000000
   28        4.495375   0.000000
 
 -0.4000000E+00  0.1000000E+00  0.0000000E+00  0.4000000E-01
    1       -7.239212   1.000000
    2       -7.087741   1.000000
    3       -6.778325   1.000000
    4       -6.690518   1.000000
    5       -6.552970   1.000000
    6       -6.313737   1.000000
    7       -5.907618   1.000000
    8       -5.673004   1.000000
    9       -5.578491   1.000000
   10       -5.439559   1.000000
   11       -5.306289   1.000000
   12       -4.981196   1.000000
   13       -4.812339   1.000000
   14       -4.697339   1.000000
   15       -4.569734   1.000000
   16       -4.461697   1.000000
   17       -4.356278   1.000000
   18       -4.297881   1.000000
   19       -4.210578   1.000000
   20       -4.128670   1.000000
   21       -2.791938   0.977753
   22       -2.547945   0.074768
   23       -1.948450   0.000000
   24       -0.663636   0.000000
   25        0.205225   0.000000
   26        1.995480   0.000000
   27        3.166186   0.000000
   28        4.495011   0.000000
 
 -0.3000000E+00  0.1000000E+00  0.0000000E+00  0.4000000E-01
    1       -7.923947   1.000000
    2       -7.369165   1.000000
    3       -6.848485   1.000000
    4       -6.577187   1.000000
    5       -6.369010   1.000000
    6       -6.232584   1.000000
    7       -5.983450   1.000000
    8       -5.819483   1.000000
    9       -5.572387   1.000000
   10       -5.469537   1.000000
   11       -5.312287   1.000000
   12       -5.223071   1.000000
   13       -5.098228   1.000000
   14       -4.974797   1.000000
   15       -4.854442   1.000000
   16       -4.656425   1.000000
   17       -4.582498   1.000000
   18       -4.411477   1.000000
   19       -4.309279   1.000000
   20       -4.219839   1.000000
   21       -3.970062   1.000000
   22       -3.866516   1.000000
   23       -3.303137   1.000000
   24       -1.630987   0.000000
   25        0.796948   0.000000
   26        3.330408   0.000000
   27        4.333387   0.000000
   28        5.377944   0.000000
 
 -0.2000000E+00  0.1000000E+00  0.0000000E+00  0.4000000E-01
    1       -9.232987   1.000000
    2       -8.267192   1.000000
    3       -7.116535   1.000000
    4       -6.564344   1.000000
    5       -6.389601   1.000000
    6       -6.175823   1.000000
    7       -5.985125   1.000000
    8       -5.897253   1.000000
    9       -5.681058   1.000000
   10       -5.590537   1.000000
   11       -5.527019   1.000000
   12       -5.366545   1.000000
   13       -5.233997   1.000000
   14       -5.117015   1.000000
   15       -4.961189   1.000000
   16       -4.849258   1.000000
   17       -4.759679   1.000000
   18       -4.633262   1.000000
   19       -4.528111   1.000000
   20       -4.502469   1.000000
   21       -4.409694   1.000000
   22       -4.291995   1.000000
   23       -4.055425   1.000000
   24       -2.778843   0.965940
   25       -0.569522   0.000000
   26        2.055710   0.000000
   27        3.842726   0.000000
   28        4.507371   0.000000
 
 -0.1000000E+00  0.1000000E+00  0.0000000E+00  0.4000000E-01
    1      -10.361170   1.000000
    2       -9.268125   1.000000
    3       -7.876560   1.000000
    4       -7.065947   1.000000
    5       -6.656888   1.000000
    6       -5.896581   1.000000
    7       -5.876866   1.000000
    8       -5.748886   1.000000
    9       -5.573916   1.000000
   10       -5.526116   1.000000
   11       -5.442982   1.000000
   12       -5.338676   1.000000
   13       -5.271343   1.000000
   14       -5.204028   1.000000
   15       -5.049117   1.000000
   16       -5.009948   1.000000
   17       -4.923992   1.000000
   18       -4.856293   1.000000
   19       -4.767415   1.000000
   20       -4.599420   1.000000
   21       -4.563244   1.000000
   22       -4.305848   1.000000
   23       -4.281535   1.000000
   24       -3.556282   1.000000
   25       -1.767038   0.000000
   26        0.967389   0.000000
   27        2.649959   0.000000
   28        3.319605   0.000000
 
  0.0000000E+00  0.2000000E+00  0.0000000E+00  0.2000000E-01
    1      -10.068494   1.000000
    2       -9.000956   1.000000
    3       -7.658165   1.000000
    4       -6.918857   1.000000
    5       -6.582338   1.000000
    6       -6.044032   1.000000
    7       -5.869283   1.000000
    8       -5.778209   1.000000
    9       -5.597660   1.000000
   10       -5.498290   1.000000
   11       -5.464873   1.000000
   12       -5.281291   1.000000
   13       -5.246918   1.000000
   14       -5.138373   1.000000
   15       -5.039032   1.000000
   16       -5.030146   1.000000
   17       -4.925185   1.000000
   18       -4.814487   1.000000
   19       -4.782331   1.000000
   20       -4.637009   1.000000
   21       -4.434731   1.000000
   22       -4.360435   1.000000
   23       -4.225101   1.000000
   24       -3.367344   1.000000
   25       -1.440641   0.000000
   26        1.235544   0.000000
   27        2.947430   0.000000
   28        3.629330   0.000000
 
  0.4000000E+00  0.2000000E+00  0.0000000E+00  0.2000000E-01
    1       -8.043301   1.000000
    2       -7.368500   1.000000
    3       -6.721550   1.000000
    4       -6.368727   1.000000
    5       -6.273785   1.000000
    6       -6.111613   1.000000
    7       -5.988230   1.000000
    8       -5.868828   1.000000
    9       -5.767408   1.000000
   10       -5.628001   1.000000
   11       -5.574862   1.000000
   12       -5.383798   1.000000
   13       -5.275362   1.000000
   14       -5.201421   1.000000
   15       -4.933915   1.000000
   16       -4.743418   1.000000
   17       -4.658216   1.000000
   18       -4.510074   1.000000
   19       -4.297356   1.000000
   20       -4.228464   1.000000
   21       -3.903429   1.000000
   22       -3.843369   1.000000
   23       -3.289881   1.000000
   24       -1.713419   0.000000
   25        0.709112   0.000000
   26        3.385197   0.000000
   27        5.300319   0.000000
   28        5.841846   0.000000
 
  0.5000000E+00  0.2000000E+00  0.0000000E+00  0.4000000E-01
    1       -7.065301   1.000000
    2       -6.872867   1.000000
    3       -6.642674   1.000000
    4       -6.475485   1.000000
    5       -6.277854   1.000000
    6       -6.141880   1.000000
    7       -6.018106   1.000000
    8       -5.807737   1.000000
    9       -5.706047   1.000000
   10       -5.438327   1.000000
   11       -5.330797   1.000000
   12       -5.306759   1.000000
   13       -5.187458   1.000000
   14       -5.064877   1.000000
   15       -4.892085   1.000000
   16       -4.725022   1.000000
   17       -4.616368   1.000000
   18       -4.439395   1.000000
   19       -4.234272   1.000000
   20       -4.138225   1.000000
   21       -2.848614   0.997530
   22       -2.662160   0.569095
   23       -1.850545   0.000000
   24       -0.197156   0.000000
   25        1.903663   0.000000
   26        3.072109   0.000000
   27        4.131502   0.000000
   28        5.336175   0.000000
 
 -0.4000000E+00  0.2000000E+00  0.0000000E+00  0.4000000E-01
    1       -6.845370   1.000000
    2       -6.811419   1.000000
    3       -6.540146   1.000000
    4       -6.457527   1.000000
    5       -6.369988   1.000000
    6       -6.170704   1.000000
    7       -6.048605   1.000000
    8       -5.749357   1.000000
    9       -5.662855   1.000000
   10       -5.481614   1.000000
   11       -5.368985   1.000000
   12       -5.070557   1.000000
   13       -5.051788   1.000000
   14       -4.954221   1.000000
   15       -4.859946   1.000000
   16       -4.653977   1.000000
   17       -4.530346   1.000000
   18       -4.324967   1.000000
   19       -4.299758   1.000000
   20       -4.200029   1.000000
   21       -1.968792   0.000000
   22       -0.979951   0.000000
   23       -0.529239   0.000000
   24        0.019931   0.000000
   25        0.562045   0.000000
   26        2.227019   0.000000
   27        3.433167   0.000000
   28        4.903601   0.000000
 
 -0.3000000E+00  0.2000000E+00  0.0000000E+00  0.4000000E-01
    1       -7.065898   1.000000
    2       -6.873676   1.000000
    3       -6.643359   1.000000
    4       -6.475691   1.000000
    5       -6.277356   1.000000
    6       -6.138948   1.000000
    7       -6.019453   1.000000
    8       -5.805920   1.000000
    9       -5.712722   1.000000
   10       -5.452947   1.000000
   11       -5.318753   1.000000
   12       -5.299822   1.000000
   13       -5.188237   1.000000
   14       -5.062982   1.000000
   15       -4.883254   1.000000
   16       -4.731875   1.000000
   17       -4.612950   1.000000
   18       -4.444473   1.000000
   19       -4.233656   1.000000
   20       -4.136841   1.000000
   21       -2.846359   0.997274
   22       -2.668933   0.606364
   23       -1.849978   0.000000
   24       -0.191401   0.000000
   25        1.907239   0.000000
   26        3.070585   0.000000
   27        4.129139   0.000000
   28        5.336689   0.000000
 
 -0.2000000E+00  0.2000000E+00  0.0000000E+00  0.4000000E-01
    1       -8.042929   1.000000
    2       -7.369201   1.000000
    3       -6.723511   1.000000
    4       -6.369214   1.000000
    5       -6.273696   1.000000
    6       -6.111786   1.000000
    7       -5.989022   1.000000
    8       -5.868223   1.000000
    9       -5.768648   1.000000
   10       -5.627085   1.000000
   11       -5.575342   1.000000
   12       -5.398880   1.000000
   13       -5.253339   1.000000
   14       -5.197202   1.000000
   15       -4.942828   1.000000
   16       -4.730351   1.000000
   17       -4.659268   1.000000
   18       -4.518706   1.000000
   19       -4.296538   1.000000
   20       -4.226368   1.000000
   21       -3.903844   1.000000
   22       -3.846936   1.000000
   23       -3.291903   1.000000
   24       -1.708169   0.000000
   25        0.710715   0.000000
   26        3.382459   0.000000
   27        5.299844   0.000000
   28        5.845779   0.000000
 
 -0.1000000E+00  0.2000000E+00  0.0000000E+00  0.4000000E-01
    1       -9.232853   1.000000
    2       -8.267133   1.000000
    3       -7.116267   1.000000
    4       -6.556175   1.000000
    5       -6.409729   1.000000
    6       -6.166007   1.000000
    7       -5.989581   1.000000
    8       -5.885361   1.000000
    9       -5.690977   1.000000
   10       -5.585915   1.000000
   11       -5.524305   1.000000
   12       -5.365200   1.000000
   13       -5.237825   1.000000
   14       -5.117672   1.000000
   15       -4.961599   1.000000
   16       -4.851967   1.000000
   17       -4.761834   1.000000
   18       -4.629714   1.000000
   19       -4.525861   1.000000
   20       -4.504123   1.000000
   21       -4.409584   1.000000
   22       -4.292074   1.000000
   23       -4.054481   1.000000
   24       -2.777668   0.964665
   25       -0.569127   0.000000
   26        2.054812   0.000000
   27        3.842694   0.000000
   28        4.507127   0.000000
 
  0.0000000E+00  0.3000000E+00  0.0000000E+00  0.2000000E-01
    1       -8.753454   1.000000
    2       -7.916445   1.000000
    3       -7.021581   1.000000
    4       -6.608651   1.000000
    5       -6.399328   1.000000
    6       -6.271377   1.000000
    7       -5.979103   1.000000
    8       -5.780582   1.000000
    9       -5.621044   1.000000
   10       -5.428138   1.000000
   11       -5.314582   1.000000
   12       -5.266978   1.000000
   13       -5.106750   1.000000
   14       -4.990359   1.000000
   15       -4.928290   1.000000
   16       -4.752427   1.000000
   17       -4.623945   1.000000
   18       -4.587712   1.000000
   19       -4.522027   1.000000
   20       -4.441567   1.000000
   21       -4.391789   1.000000
   22       -4.211284   1.000000
   23       -3.990414   1.000000
   24       -2.448820   0.002234
   25       -0.097737   0.000000
   26        2.540548   0.000000
   27        4.411158   0.000000
   28        5.031212   0.000000
 
 -0.4000000E+00  0.3000000E+00  0.0000000E+00  0.2000000E-01
    1       -6.575286   1.000000
    2       -6.549544   1.000000
    3       -6.467639   1.000000
    4       -6.327692   1.000000
    5       -6.303331   1.000000
    6       -6.197067   1.000000
    7       -6.098087   1.000000
    8       -5.760200   1.000000
    9       -5.707396   1.000000
   10       -5.444035   1.000000
   11       -5.380302   1.000000
   12       -5.305064   1.000000
   13       -5.264042   1.000000
   14       -5.063289   1.000000
   15       -4.834838   1.000000
   16       -4.785386   1.000000
   17       -4.700766   1.000000
   18       -4.382448   1.000000
   19       -4.295394   1.000000
   20       -4.230133   1.000000
   21       -1.861127   0.000000
   22       -0.727173   0.000000
   23        0.211437   0.000000
   24        1.549843   0.000000
   25        2.140741   0.000000
   26        2.238363   0.000000
   27        3.113230   0.000000
   28        3.450485   0.000000
 
 -0.3000000E+00  0.3000000E+00  0.0000000E+00  0.4000000E-01
    1       -6.576616   1.000000
    2       -6.552439   1.000000
    3       -6.467833   1.000000
    4       -6.323009   1.000000
    5       -6.305014   1.000000
    6       -6.194954   1.000000
    7       -6.099141   1.000000
    8       -5.762508   1.000000
    9       -5.704555   1.000000
   10       -5.446574   1.000000
   11       -5.385553   1.000000
   12       -5.306108   1.000000
   13       -5.264100   1.000000
   14       -5.043537   1.000000
   15       -4.838142   1.000000
   16       -4.793113   1.000000
   17       -4.700542   1.000000
   18       -4.382859   1.000000
   19       -4.295277   1.000000
   20       -4.229067   1.000000
   21       -1.863561   0.000000
   22       -0.727565   0.000000
   23        0.212947   0.000000
   24        1.558769   0.000000
   25        2.146530   0.000000
   26        2.254454   0.000000
   27        3.112844   0.000000
   28        3.424989   0.000000
 
 -0.2000000E+00  0.3000000E+00  0.0000000E+00  0.4000000E-01
    1       -7.063540   1.000000
    2       -6.875580   1.000000
    3       -6.645768   1.000000
    4       -6.475859   1.000000
    5       -6.276517   1.000000
    6       -6.148516   1.000000
    7       -6.014335   1.000000
    8       -5.802733   1.000000
    9       -5.701214   1.000000
   10       -5.434523   1.000000
   11       -5.342143   1.000000
   12       -5.305196   1.000000
   13       -5.195383   1.000000
   14       -5.054096   1.000000
   15       -4.885406   1.000000
   16       -4.730323   1.000000
   17       -4.615426   1.000000
   18       -4.442713   1.000000
   19       -4.232999   1.000000
   20       -4.136826   1.000000
   21       -2.857761   0.998360
   22       -2.658665   0.549597
   23       -1.847907   0.000000
   24       -0.187663   0.000000
   25        1.922457   0.000000
   26        3.054924   0.000000
   27        4.096479   0.000000
   28        5.303156   0.000000
 
 -0.1000000E+00  0.3000000E+00  0.0000000E+00  0.4000000E-01
    1       -7.923013   1.000000
    2       -7.369594   1.000000
    3       -6.850148   1.000000
    4       -6.578031   1.000000
    5       -6.364240   1.000000
    6       -6.251132   1.000000
    7       -5.972967   1.000000
    8       -5.801153   1.000000
    9       -5.561550   1.000000
   10       -5.464279   1.000000
   11       -5.328285   1.000000
   12       -5.250000   1.000000
   13       -5.097246   1.000000
   14       -4.968636   1.000000
   15       -4.852455   1.000000
   16       -4.660155   1.000000
   17       -4.581711   1.000000
   18       -4.407902   1.000000
   19       -4.307498   1.000000
   20       -4.221090   1.000000
   21       -3.978816   1.000000
   22       -3.856065   1.000000
   23       -3.300605   1.000000
   24       -1.627913   0.000000
   25        0.800704   0.000000
   26        3.328943   0.000000
   27        4.311324   0.000000
   28        5.361658   0.000000
 
  0.0000000E+00  0.4000000E+00  0.0000000E+00  0.2000000E-01
    1       -7.616781   1.000000
    2       -7.291150   1.000000
    3       -6.936695   1.000000
    4       -6.724820   1.000000
    5       -6.569517   1.000000
    6       -6.335935   1.000000
    7       -5.882857   1.000000
    8       -5.718627   1.000000
    9       -5.546551   1.000000
   10       -5.400676   1.000000
   11       -5.210152   1.000000
   12       -5.016808   1.000000
   13       -4.829173   1.000000
   14       -4.588021   1.000000
   15       -4.525980   1.000000
   16       -4.338878   1.000000
   17       -4.314777   1.000000
   18       -4.238331   1.000000
   19       -4.194608   1.000000
   20       -4.121797   1.000000
   21       -4.098078   1.000000
   22       -3.620309   1.000000
   23       -3.040405   1.000000
   24       -1.315998   0.000000
   25        0.778743   0.000000
   26        2.435891   0.000000
   27        3.362038   0.000000
   28        4.733001   0.000000
 
 -0.2000000E+00  0.4000000E+00  0.0000000E+00  0.2000000E-01
    1       -6.842089   1.000000
    2       -6.813732   1.000000
    3       -6.544392   1.000000
    4       -6.461248   1.000000
    5       -6.363840   1.000000
    6       -6.180724   1.000000
    7       -6.042737   1.000000
    8       -5.748568   1.000000
    9       -5.665325   1.000000
   10       -5.461672   1.000000
   11       -5.363635   1.000000
   12       -5.103568   1.000000
   13       -5.043517   1.000000
   14       -4.956569   1.000000
   15       -4.848403   1.000000
   16       -4.658218   1.000000
   17       -4.529878   1.000000
   18       -4.324383   1.000000
   19       -4.299258   1.000000
   20       -4.199618   1.000000
   21       -1.980730   0.000000
   22       -0.978440   0.000000
   23       -0.529282   0.000000
   24        0.040027   0.000000
   25        0.588933   0.000000
   26        2.201112   0.000000
   27        3.392264   0.000000
   28        4.841184   0.000000
 
 -0.1000000E+00  0.4000000E+00  0.0000000E+00  0.4000000E-01
    1       -7.235782   1.000000
    2       -7.088847   1.000000
    3       -6.782183   1.000000
    4       -6.691389   1.000000
    5       -6.550897   1.000000
    6       -6.328352   1.000000
    7       -5.889177   1.000000
    8       -5.678813   1.000000
    9       -5.579461   1.000000
   10       -5.427081   1.000000
   11       -5.295313   1.000000
   12       -4.972517   1.000000
   13       -4.848959   1.000000
   14       -4.700181   1.000000
   15       -4.568629   1.000000
   16       -4.455423   1.000000
   17       -4.353479   1.000000
   18       -4.298024   1.000000
   19       -4.209969   1.000000
   20       -4.128568   1.000000
   21       -2.845875   0.997216
   22       -2.503885   0.019496
   23       -1.934747   0.000000
   24       -0.654676   0.000000
   25        0.222062   0.000000
   26        1.975469   0.000000
   27        3.128820   0.000000
   28        4.429367   0.000000
 
  0.0000000E+00  0.5000000E+00  0.0000000E+00  0.1000000E-01
    1       -7.316022   1.000000
    2       -7.181777   1.000000
    3       -6.858999   1.000000
    4       -6.769772   1.000000