unknown system                          
   1.00000000000000     
     2.573869    0.000000    0.000000
     1.286934    2.229036    0.000000
     0.000000    0.000000   30.304665
   Cu   H 
     4     1
Direct
  0.000000  0.000000  0.395979
  0.333333  0.333333  0.465326
  0.666667  0.666667  0.534674
  0.000000  0.000000  0.604021
  0.022431  0.955138  0.663418
 
   10   10  120
 0.51867E-12 0.53516E-12 0.30774E-13 0.14165E-11 0.67599E-13 0.57211E-12 0.11713E-13 0.20158E-11 0.68369E-12 0.13413E-12
 0.11279E-11 0.23344E-11 0.26860E-12 0.40662E-10 0.21011E-13 0.28051E-10 0.54665E-13 0.18607E-09 0.21302E-12 0.42853E-11
 0.10405E-12 0.44208E-13 0.14669E-12 0.18963E-12 0.58703E-14 0.24702E-13 0.63283E-13 0.34437E-12 0.24099E-13 0.31039E-12
 0.50776E-10 0.93896E-12 0.55497E-13 0.38872E-13 0.18791E-13 0.83827E-12 0.45880E-13 0.38185E-11 0.37231E-12 0.25030E-11
 0.74163E-13 0.81352E-13 0.44409E-14 0.11879E-13 0.21164E-13 0.18166E-13 0.22204E-14 0.58370E-13 0.53985E-13 0.99920E-14
 0.29398E-11 0.15696E-11 0.87111E-13 0.36753E-12 0.35194E-13 0.21091E-11 0.30503E-13 0.48515E-12 0.90553E-13 0.35820E-11
 0.30823E-13 0.10630E-13 0.57357E-13 0.53554E-13 0.24009E-14 0.22010E-13 0.12809E-13 0.12546E-13 0.84238E-14 0.67349E-13
 0.95433E-10 0.10832E-11 0.32446E-12 0.43686E-11 0.32890E-13 0.10282E-11 0.20067E-13 0.32876E-13 0.49155E-13 0.18550E-11
 0.19842E-11 0.92636E-12 0.28179E-13 0.77683E-11 0.45658E-13 0.65878E-13 0.95757E-14 0.65183E-12 0.37129E-12 0.22408E-12
 0.21379E-11 0.10633E-11 0.15986E-12 0.11009E-10 0.54554E-13 0.26527E-09 0.23731E-13 0.46365E-11 0.53926E-12 0.23765E-11
 0.63177E-12 0.72712E-12 0.33529E-12 0.25399E-10 0.20386E-13 0.43186E-11 0.13894E-12 0.79314E-08 0.23675E-12 0.79111E-12
 0.74635E-12 0.13279E-11 0.30079E-12 0.66891E-11 0.10422E-13 0.52092E-10 0.19343E-12 0.70471E-10 0.30855E-12 0.64636E-11
 0.40380E-12 0.77216E-13 0.19275E-12 0.16524E-12 0.33445E-14 0.17014E-13 0.10923E-12 0.29318E-12 0.25646E-13 0.36784E-12
 0.27829E-10 0.85279E-12 0.36526E-13 0.69389E-14 0.68834E-14 0.28641E-12 0.18728E-12 0.36583E-11 0.33953E-12 0.32300E-11
 0.16737E-13 0.44159E-13 0.30254E-14 0.39552E-14 0.74524E-14 0.68695E-14 0.31086E-14 0.31933E-13 0.35430E-13 0.75218E-14
 0.52509E-12 0.75855E-12 0.69403E-13 0.10952E-12 0.19817E-13 0.20215E-11 0.67849E-13 0.10327E-09 0.20567E-12 0.20404E-08
 0.26326E-12 0.28422E-13 0.12898E-12 0.19651E-12 0.37470E-14 0.61867E-13 0.73677E-13 0.69944E-13 0.22260E-13 0.14980E-12
 0.19526E-10 0.14450E-11 0.36496E-12 0.42185E-11 0.16612E-13 0.14163E-08 0.10905E-12 0.91387E-12 0.15683E-12 0.85889E-11
 0.27561E-12 0.11713E-11 0.48114E-13 0.89928E-11 0.33945E-13 0.27842E-12 0.29865E-13 0.27170E-11 0.53088E-12 0.11519E-12
 0.68298E-12 0.11834E-11 0.14381E-12 0.16071E-10 0.27214E-13 0.83054E-11 0.59078E-13 0.63992E-10 0.46370E-12 0.18923E-10
 0.42057E-13 0.82157E-13 0.23300E-12 0.48272E-12 0.42466E-14 0.10157E-12 0.17904E-12 0.57759E-13 0.18680E-13 0.47067E-13
 0.24328E-13 0.55619E-12 0.24650E-12 0.13092E-11 0.43437E-14 0.18414E-11 0.56839E-12 0.29290E-10 0.26952E-12 0.45175E-11
 0.11831E-12 0.12343E-12 0.15257E-12 0.68140E-13 0.17625E-14 0.28866E-14 0.91149E-13 0.18191E-12 0.19047E-13 0.35106E-12
 0.50862E-13 0.40991E-12 0.90067E-14 0.16237E-14 0.28033E-14 0.70083E-13 0.57422E-12 0.34816E-11 0.28245E-12 0.39013E-11
 0.35666E-14 0.22288E-13 0.17347E-14 0.14155E-14 0.26507E-14 0.24425E-14 0.23870E-14 0.14128E-13 0.17722E-13 0.41078E-14
 0.18360E-13 0.26411E-12 0.29116E-13 0.21386E-13 0.99920E-14 0.21971E-11 0.14864E-12 0.38061E-10 0.16538E-12 0.24594E-10
 0.12025E-12 0.46782E-13 0.14569E-12 0.55696E-12 0.33307E-14 0.18215E-12 0.30798E-12 0.23305E-12 0.35846E-13 0.31981E-12
 0.10648E-12 0.14689E-11 0.36016E-12 0.41773E-11 0.62172E-14 0.37266E-10 0.28234E-12 0.63363E-11 0.15896E-12 0.93263E-10
 0.24009E-13 0.87900E-12 0.49585E-13 0.75155E-11 0.20373E-13 0.31249E-12 0.58578E-13 0.13671E-11 0.44488E-12 0.44090E-13
 0.44457E-13 0.80541E-12 0.10130E-12 0.26609E-10 0.96173E-14 0.36242E-11 0.14705E-12 0.13951E-09 0.37176E-12 0.12113E-09
 0.94091E-14 0.21969E-13 0.46144E-13 0.50043E-13 0.14849E-14 0.11990E-13 0.22191E-13 0.42466E-14 0.28727E-14 0.52458E-14
 0.49266E-14 0.38405E-12 0.22642E-12 0.76790E-12 0.29837E-14 0.77177E-12 0.39527E-11 0.17631E-10 0.33609E-12 0.54532E-11
 0.24120E-13 0.23753E-12 0.16530E-12 0.60230E-13 0.11519E-14 0.32752E-14 0.10859E-12 0.13838E-12 0.16778E-13 0.34590E-12
 0.77022E-14 0.37952E-12 0.79520E-14 0.77716E-15 0.17208E-14 0.49169E-13 0.73271E-11 0.32771E-11 0.20745E-12 0.48562E-11
 0.13323E-14 0.15654E-13 0.14155E-14 0.86042E-15 0.13184E-14 0.15404E-14 0.27062E-14 0.99781E-14 0.10658E-13 0.33099E-14
 0.30947E-14 0.17390E-12 0.24272E-13 0.18485E-13 0.73552E-14 0.21690E-11 0.55925E-12 0.17727E-10 0.19620E-12 0.39905E-11
 0.17195E-13 0.19583E-12 0.20899E-12 0.56686E-11 0.36637E-14 0.84527E-12 0.13202E-11 0.19539E-12 0.58564E-13 0.92595E-12
 0.19373E-13 0.19047E-11 0.41644E-12 0.38989E-11 0.36360E-14 0.14212E-10 0.19577E-12 0.48823E-12 0.22829E-12 0.23963E-10
 0.44548E-14 0.93453E-12 0.61423E-13 0.59253E-11 0.14683E-13 0.37728E-12 0.11920E-12 0.10365E-11 0.37689E-12 0.11519E-13
 0.12129E-13 0.77267E-12 0.71484E-13 0.27789E-10 0.53915E-14 0.17598E-11 0.57079E-12 0.86944E-11 0.29456E-12 0.64190E-11
 0.23315E-14 0.71193E-14 0.12115E-13 0.12879E-13 0.51348E-15 0.29837E-14 0.29837E-14 0.38858E-15 0.55511E-15 0.56899E-15
 0.10408E-14 0.21252E-12 0.16288E-12 0.20869E-12 0.15959E-14 0.29382E-12 0.32235E-10 0.10870E-10 0.33314E-12 0.47355E-11
 0.67030E-14 0.47871E-12 0.13346E-12 0.28283E-13 0.63144E-15 0.34694E-15 0.44145E-13 0.83877E-13 0.13642E-13 0.39475E-12
 0.17486E-14 0.19108E-12 0.17625E-14 0.19429E-15 0.92981E-15 0.19970E-13 0.35532E-08 0.31067E-11 0.23263E-12 0.73115E-11
 0.43021E-15 0.97006E-14 0.84655E-15 0.38858E-15 0.43021E-15 0.74940E-15 0.19290E-14 0.52180E-14 0.56760E-14 0.18319E-14
 0.10131E-14 0.78083E-13 0.10394E-13 0.52736E-14 0.48156E-14 0.24377E-11 0.12074E-11 0.27210E-11 0.81310E-13 0.41498E-11
 0.32335E-14 0.44278E-12 0.13847E-12 0.10334E-09 0.30531E-14 0.18163E-11 0.24811E-12 0.30850E-13 0.38039E-13 0.92912E-12
 0.60230E-14 0.22389E-11 0.43709E-12 0.36788E-11 0.15127E-14 0.30561E-11 0.27908E-13 0.39885E-13 0.92426E-13 0.64429E-11
 0.11102E-14 0.71972E-12 0.69889E-13 0.65931E-11 0.94647E-14 0.12600E-12 0.65337E-13 0.18566E-12 0.22457E-12 0.54262E-14
 0.37886E-14 0.54029E-12 0.58190E-13 0.43686E-10 0.21788E-14 0.18860E-11 0.10254E-11 0.38570E-11 0.26588E-12 0.20206E-11
 0.86042E-15 0.31919E-14 0.50515E-14 0.49405E-14 0.27756E-15 0.92981E-15 0.76328E-15  0.0000     0.19429E-15 0.27756E-16
 0.27756E-15 0.14720E-12 0.84710E-13 0.10136E-12 0.10270E-14 0.15992E-12 0.18610E-08 0.76111E-11 0.39718E-12 0.37050E-11
 0.28449E-14 0.12790E-11 0.12196E-12 0.20900E-13 0.39552E-15 0.22204E-15 0.22968E-13 0.45505E-13 0.13295E-13 0.34109E-12
 0.47184E-15 0.13281E-12 0.11102E-14 0.21511E-15 0.60368E-15 0.13586E-13 0.49047E-10 0.28748E-11 0.18094E-12 0.92694E-11
 0.22204E-15 0.65503E-14 0.66613E-15 0.24980E-15 0.27062E-15 0.31919E-15 0.16792E-14 0.32890E-14 0.39413E-14 0.13461E-14
 0.43021E-15 0.43472E-13 0.75079E-14 0.37331E-14 0.32058E-14 0.24946E-11 0.14573E-11 0.48567E-12 0.47698E-13 0.27130E-11
 0.91593E-15 0.14256E-11 0.94438E-13 0.56395E-08 0.26645E-14 0.21559E-11 0.82719E-13 0.85626E-14 0.22982E-13 0.55641E-12
 0.24980E-14 0.25438E-11 0.51376E-12 0.30150E-11 0.63838E-15 0.41132E-12 0.64670E-14 0.11893E-13 0.61701E-13 0.24235E-11
 0.41633E-15 0.73691E-12 0.89817E-13 0.54196E-11 0.75218E-14 0.76300E-13 0.37761E-13 0.72956E-13 0.17247E-12 0.13600E-14
 0.16653E-14 0.35141E-12 0.19290E-13 0.24170E-11 0.10131E-14 0.16976E-11 0.99759E-12 0.19064E-11 0.21536E-12 0.10512E-11
 0.44409E-15 0.17764E-14 0.21649E-14 0.24425E-14 0.15266E-15 0.43715E-15 0.26368E-15 0.55511E-16 0.55511E-16 -.11102E-15
 0.11102E-15 0.56205E-13 0.30004E-13 0.31683E-13 0.68001E-15 0.91267E-13 0.54587E-10 0.54627E-11 0.36374E-12 0.37571E-11
 0.12490E-14 0.60315E-11 0.10789E-12 0.13212E-13 0.27756E-15 0.27756E-16 0.91593E-14 0.20706E-13 0.81324E-14 0.33326E-12
 0.27756E-15 0.85154E-13 0.29143E-15 0.97145E-16 0.41633E-15 0.86597E-14 0.13641E-06 0.27078E-11 0.18643E-12 0.15675E-10
 0.97145E-16 0.45797E-14 0.42327E-15 0.14572E-15 0.83267E-16 0.12490E-15 0.12629E-14 0.22066E-14 0.26368E-14 0.10131E-14
 0.22204E-15 0.24238E-13 0.45380E-14 0.20262E-14 0.24147E-14 0.29614E-11 0.32224E-12 0.88582E-13 0.19318E-13 0.50434E-11
 0.43021E-15 0.12074E-11 0.56039E-13 0.17846E-10 0.21233E-14 0.69299E-12 0.19790E-13 0.25258E-14 0.70915E-14 0.14526E-12
 0.12768E-14 0.28100E-11 0.53832E-12 0.25451E-11 0.41633E-15 0.67418E-13 0.14710E-14 0.41772E-14 0.26257E-13 0.14924E-11
 0.55511E-16 0.46879E-12 0.89651E-13 0.56662E-11 0.54401E-14 0.32113E-13 0.11560E-13 0.21275E-13 0.10569E-12 0.55789E-14
 0.94369E-15 0.28166E-12 0.17486E-14 0.28033E-13 0.65226E-15 0.38984E-11 0.32192E-12 0.13136E-11 0.18935E-12 0.63338E-12
 0.16653E-15 0.97145E-15 0.12768E-14 0.16376E-14 0.97145E-16 0.20817E-15 0.11102E-15  0.0000     0.83267E-16 0.55511E-16
 0.83267E-16 0.25258E-13 0.28866E-14 0.34278E-14 0.44409E-15 0.57569E-13 0.76399E-11 0.41559E-11 0.40212E-12 0.28775E-11
 0.80491E-15 0.12745E-08 0.90400E-13 0.93536E-14 0.12490E-15 -.76328E-16 0.21094E-14 0.38858E-14 0.72442E-14 0.32652E-12
 0.11102E-15 0.50127E-13 0.76328E-16 0.58981E-16 0.23592E-15 0.57350E-14 0.12231E-10 0.24963E-11 0.17183E-12 0.24416E-10
 0.69389E-16 0.31641E-14 0.31572E-15 0.62450E-16 0.48572E-16 0.34694E-16 0.98532E-15 0.14710E-14 0.16515E-14 0.76328E-15
 0.20817E-15 0.12865E-13 0.29282E-14 0.11519E-14 0.17139E-14 0.31618E-11 0.97353E-13 0.35735E-13 0.10603E-13 0.63096E-11
 0.22204E-15 0.44734E-12 0.29338E-13 0.20404E-11 0.18041E-14 0.28702E-12 0.81463E-14 0.10547E-14 0.28033E-14 0.48600E-13
 0.83267E-15 0.28083E-11 0.67690E-12 0.15880E-11 0.19429E-15 0.19540E-13 0.58287E-15 0.19984E-14 0.16959E-13 0.92723E-12
  0.0000     0.41422E-12 0.10444E-12 0.65820E-11 0.41633E-14 0.19720E-13 0.49821E-14 0.84377E-14 0.49794E-13 0.28144E-13
 0.61062E-15 0.17125E-12 0.29421E-14 0.40865E-11 0.30531E-15 0.92336E-11 0.12672E-12 0.87691E-12 0.16021E-12 0.43016E-12
 0.22204E-15 0.72164E-15 0.74940E-15 0.12768E-14 0.55511E-16 0.48572E-16 0.83267E-16 0.55511E-16 0.11102E-15 0.55511E-16
 0.27756E-15 0.25813E-14 0.94647E-14 0.73552E-15 0.28449E-15 0.38639E-13 0.16520E-11 0.32004E-11 0.38944E-12 0.22586E-11
 0.38858E-15 0.66793E-11 0.77494E-13 0.71332E-14 0.12317E-15 -.10408E-15 0.95757E-15 0.34694E-14 0.43854E-14 0.30054E-12
 0.83267E-16 0.29671E-13 0.69389E-17 0.50307E-16 0.20470E-15 0.42640E-14 0.16261E-11 0.23136E-11 0.11313E-12 0.35774E-10
  0.0000     0.24702E-14 0.29143E-15 -.69389E-17 0.48572E-16 0.48572E-16 0.83267E-15 0.90206E-15 0.11657E-14 0.43021E-15
 0.27756E-16 0.76397E-14 0.22204E-14 0.79103E-15 0.14017E-14 0.41323E-11 0.23849E-13 0.16223E-13 0.61617E-14 0.42713E-10
 0.83267E-16 0.13595E-12 0.18152E-13 0.45447E-12 0.15682E-14 0.11277E-12 0.38164E-14 0.51348E-15 0.10131E-14 0.14641E-13
 0.44409E-15 0.26668E-11 0.66736E-12 0.39371E-12 0.19429E-15 0.76744E-14 0.18041E-15 0.11102E-14 0.10783E-13 0.70086E-12
 0.27756E-16 0.29132E-12 0.10406E-12 0.53590E-11 0.34139E-14 0.12171E-13 0.22621E-14 0.38303E-14 0.22149E-13 0.13450E-12
 0.44409E-15 0.71332E-13 0.25813E-13 0.75412E-11 0.11102E-15 0.48435E-10 0.47420E-13 0.69433E-12 0.15216E-12 0.32380E-12
 0.16653E-15 0.77716E-15 0.77716E-15 0.12212E-14 0.27756E-16 0.48572E-16 0.69389E-16 0.83267E-16 0.11102E-15 0.24980E-15
 -.55511E-16 0.33307E-15 0.21094E-13 0.18763E-13 0.27756E-15 0.31010E-13 0.64984E-12 0.33895E-11 0.54673E-12 0.19640E-11
 0.36082E-15 0.19137E-11 0.69514E-13 0.61895E-14 0.14311E-15 -.97145E-16 0.26368E-15 0.12074E-13 0.49405E-14 0.36704E-12
  0.0000     0.13413E-13 -.69389E-16 0.57246E-16 0.13184E-15 0.33133E-14 0.48136E-12 0.21839E-11 0.13042E-12 0.21537E-09
 0.69389E-16 0.20262E-14 0.24980E-15 -.34694E-16 0.32960E-16 -.69389E-17 0.74246E-15 0.76328E-15 0.94369E-15 0.48572E-15
 0.90206E-16 0.61340E-14 0.14988E-14 0.55511E-15 0.11588E-14 0.42345E-11 0.11192E-13 0.92981E-14 0.35874E-14 0.13590E-09
 0.11102E-15 0.43354E-13 0.11935E-13 0.15909E-12 0.15266E-14 0.61340E-13 0.24564E-14 0.27062E-15 0.63838E-15 0.76258E-14
 0.38858E-15 0.26096E-11 0.85965E-12 0.38111E-12 0.83267E-16 0.36499E-14 0.11102E-15 0.74940E-15 0.69805E-14 0.50493E-12
  0.0000     0.28716E-12 0.12149E-12 0.81812E-11 0.29698E-14 0.80769E-14 0.14433E-14 0.17070E-14 0.11935E-13 0.14061E-12
 0.33307E-15 0.63838E-13 0.32890E-13 0.51114E-11 0.41633E-16 0.63681E-11 0.25813E-13 0.51720E-12 0.19998E-12 0.37137E-12
  0.0000     0.49960E-15 0.38858E-15 0.91593E-15 0.83267E-16 -.20817E-16 0.13878E-16  0.0000     -.13878E-15 -.27756E-16
 0.55511E-16 0.17216E-10 0.57343E-13 0.35895E-13 0.83267E-16 0.19817E-13 0.35749E-12 0.31459E-11 0.45175E-12 0.15291E-11
 0.19429E-15 0.11831E-11 0.54089E-13 0.50793E-14 0.11796E-15 -.69389E-16 0.13878E-16 0.65475E-13 0.21927E-14 0.26315E-12
 0.27756E-16 0.53221E-14 -.27756E-16 -.24286E-16 0.13878E-15 0.24529E-14 0.21218E-12 0.20088E-11 0.89873E-13 0.46543E-09
 0.41633E-16 0.14294E-14 0.25327E-15 -.69389E-17 -.11796E-15 -.55511E-16 0.49266E-15 0.56899E-15 0.58287E-15 0.18735E-15
 -.13878E-16 0.25535E-14 0.11102E-14 0.40939E-15 0.83267E-15 0.74532E-11 0.36568E-14 0.46213E-14 0.20400E-14 0.99412E-11
 0.27756E-16 0.19318E-13 0.58425E-14 0.72053E-13 0.10963E-14 0.31183E-13 0.12768E-14 0.97145E-16 0.16653E-15 0.22204E-14
 0.22204E-15 0.22783E-11 0.81263E-12 0.89900E-13 0.55511E-16 0.13184E-14 -.13878E-16 0.38858E-15 0.45658E-14 0.41567E-12
 0.55511E-16 0.15032E-12 0.11610E-12 0.70824E-11 0.22204E-14 0.53568E-14 0.59674E-15 0.65226E-15 0.21094E-14 0.52119E-12
 0.55511E-16 0.21760E-13 0.28755E-12 0.46121E-11 -.27756E-16 0.62493E-12 0.12393E-13 0.43382E-12 0.18910E-12 0.28449E-12
 0.16653E-15 0.52736E-15 0.66613E-15 0.80491E-15 0.41633E-16 0.97145E-16 0.69389E-16 0.11102E-15 0.55511E-16 0.13878E-15
 0.55511E-16 0.14522E-10 0.65808E-13 0.82739E-13 0.97145E-16 0.16938E-13 0.23850E-12 0.34038E-11 0.70960E-12 0.11767E-11
 0.36082E-15 0.90390E-12 0.49058E-13 0.62450E-14 0.97145E-16  0.0000     0.10408E-15 0.10897E-12 0.23870E-14 0.28105E-12
 0.41633E-16 0.97145E-15 -.55511E-16 -.27756E-16 0.13878E-15 0.22760E-14 0.11094E-12 0.18527E-11 0.96756E-13 0.20016E-08
 0.13878E-16 0.12906E-14 0.15959E-15 0.27756E-16 -.13878E-16 -.48572E-16 0.49960E-15 0.47184E-15 0.54123E-15 0.27062E-15
 0.12490E-15 0.22274E-14 0.88818E-15 0.37470E-15 0.87430E-15 0.78707E-11 0.22968E-14 0.37748E-14 0.18457E-14 0.50495E-11
 0.41633E-16 0.85487E-14 0.47878E-14 0.38358E-13 0.10825E-14 0.20969E-13 0.10825E-14 0.18041E-15 0.24980E-15 0.14433E-14
 0.26368E-15 0.20273E-11 0.10074E-11 0.25424E-11 -.27756E-16 0.10270E-14 0.10408E-15 0.37470E-15 0.39135E-14 0.32620E-12
 0.11102E-15 0.13442E-12 0.13253E-12 0.91460E-11 0.20262E-14 0.44201E-14 0.58287E-15 0.51348E-15 0.12768E-14 0.77270E-12
 0.24980E-15 0.99920E-14 0.38092E-12 0.34450E-11 0.69389E-17 0.38292E-12 0.85140E-14 0.34700E-12 0.23340E-12 0.30623E-12
 -.27756E-16 0.56899E-15 0.47184E-15 0.10270E-14 -.83267E-16 -.41633E-16 0.34694E-16 -.27756E-16  0.0000     0.11102E-15
 0.13878E-16 0.12828E-11 0.80769E-13 0.97165E-13 0.12490E-15 0.12677E-13 0.17147E-12 0.34067E-11 0.83278E-12 0.10014E-11
 0.16653E-15 0.73096E-12 0.47497E-13 0.52180E-14 0.83267E-16 -.27756E-16 0.69389E-16 0.18988E-12 0.16376E-14 0.26192E-12
 -.27756E-16 0.13184E-15 -.55511E-16 0.41633E-16 0.11102E-15 0.21511E-14 0.69666E-13 0.17547E-11 0.70513E-13 0.19110E-09
  0.0000     0.97838E-15 0.13184E-15 -.55511E-16 -.27756E-16 -.55511E-16 0.36776E-15 0.37470E-15 0.40939E-15 0.20817E-15
  0.0000     0.14225E-14 0.66613E-15 0.20817E-15 0.62450E-15 0.16568E-10 0.94369E-15 0.23315E-14 0.11102E-14 0.15229E-11
 -.13878E-16 0.49474E-14 0.28588E-14 0.22066E-13 0.89512E-15 0.13371E-13 0.68695E-15 0.20817E-16 0.13878E-15 0.65919E-15
 0.22204E-15 0.17311E-11 0.98183E-12 0.30087E-12 0.41633E-16 0.48572E-15 -.48572E-16 0.22898E-15 0.26576E-14 0.31080E-12
  0.0000     0.10422E-12 0.13703E-12 0.85598E-11 0.16098E-14 0.31433E-14 0.20817E-15 0.18735E-15 0.12490E-15 0.30520E-11
 0.13878E-15 0.76605E-14 0.91092E-12 0.27930E-11 0.90206E-16 0.15939E-12 0.49336E-14 0.30043E-12 0.22669E-12 0.31478E-12
 0.83267E-16 0.43715E-15 0.43021E-15 0.77716E-15 -.13878E-16 0.20817E-16 0.41633E-16 0.55511E-16 0.83267E-16 0.41633E-16
 0.15266E-15 0.63999E-12 0.83815E-13 0.18958E-12 0.15266E-15 0.99920E-14 0.12186E-12 0.37084E-11 0.96877E-12 0.68583E-12
 0.26368E-15 0.64056E-12 0.56219E-13 0.50376E-14 0.11102E-15 -.13878E-16 0.76328E-16 0.26378E-12 0.79103E-15 0.26810E-12
 0.83267E-16 0.11172E-14 -.69389E-16 0.13878E-16 0.15959E-15 0.20539E-14 0.47712E-13 0.15455E-11 0.58543E-13 0.71234E-10
 0.12490E-15 0.11033E-14 0.11796E-15 -.55511E-16 0.48572E-16 0.34694E-16 0.33307E-15 0.22204E-15 0.43021E-15 0.17347E-15
 0.90206E-16 0.78410E-15 0.55511E-15 0.23592E-15 0.58981E-15 0.22407E-10 0.51348E-15 0.17070E-14 0.85348E-15 0.86595E-12
 0.62450E-16 0.26090E-14 0.23037E-14 0.13434E-13 0.66613E-15 0.91940E-14 0.47878E-15 0.27756E-16 0.12490E-15 0.28449E-15
 0.16653E-15 0.14602E-11 0.10977E-11 0.20725E-10 0.20817E-16 0.28449E-15 0.27756E-16 0.22898E-15 0.21025E-14 0.28308E-12
 0.97145E-16 0.80533E-13 0.13066E-12 0.94652E-11 0.14988E-14 0.25188E-14 0.26368E-15 -.69389E-17 0.12490E-15 0.76744E-10
 0.13184E-15 0.55511E-15 0.14453E-11 0.22083E-11 0.20817E-16 0.95673E-13 0.34764E-14 0.27001E-12 0.24425E-12 0.35928E-12
 0.13878E-16 0.46491E-15 0.40939E-15 0.84655E-15 -.27756E-16 0.13878E-16 0.69389E-17 0.34694E-16 0.55511E-16 -.13878E-16
 0.27756E-16 0.34232E-12 0.79103E-13 0.34516E-12 0.11102E-15 0.83128E-14 0.10970E-12 0.39384E-11 0.12200E-11 0.55554E-12
 0.11102E-15 0.62243E-12 0.57343E-13 0.51070E-14 0.10408E-15 -.13878E-16 0.20123E-15 0.33583E-12 0.97145E-15 0.25868E-12
 0.48572E-16 0.62936E-14 -.41633E-16 -.20817E-16 0.83267E-16 0.20539E-14 0.42577E-13 0.14661E-11 0.63352E-13 0.30387E-10
 0.69389E-17 0.11657E-14 0.48572E-16 -.69389E-16 0.27756E-16 0.13878E-16 0.24980E-15 0.20817E-15 0.23592E-15 0.55511E-16
 0.13878E-16 0.68695E-15 0.45797E-15 0.18041E-15 0.54817E-15 0.81535E-10 0.37470E-15 0.12594E-14 0.67654E-15 0.47728E-12
 -.20817E-16 0.15613E-14 0.15474E-14 0.90691E-14 0.59674E-15 0.66683E-14 0.38858E-15 0.24286E-16 0.27756E-16 0.13878E-15
 0.21511E-15 0.12199E-11 0.16219E-11 0.18949E-10 0.83267E-16 0.18735E-15 0.34694E-17 0.14225E-15 0.17694E-14 0.29263E-12
 0.48572E-16 0.65961E-13 0.18799E-12 0.10930E-10 0.12212E-14 0.20053E-14 0.20817E-15 0.34694E-16 0.55511E-16 0.76215E-10
 0.13184E-15 0.13878E-15 0.21813E-11 0.17991E-11 0.13878E-16 0.53763E-13 0.24911E-14 0.29492E-12 0.27883E-12 0.36839E-12
 0.97145E-16 0.34001E-15 0.36776E-15 0.79103E-15 0.55511E-16 -.13878E-16 0.27756E-16 0.13878E-16 -.62450E-16 0.62450E-16
 -.20817E-16 0.21955E-12 0.73629E-13 0.31931E-12 0.76328E-16 0.60368E-14 0.87881E-13 0.45786E-11 0.11317E-11 0.38576E-12
 0.15266E-15 0.64806E-12 0.55740E-13 0.40107E-14 0.83267E-16  0.0000     0.20123E-15 0.39813E-12 0.16653E-15 0.20468E-12
 -.69389E-17 0.67168E-14 -.27756E-16 -.34694E-16 0.83267E-16 0.16931E-14 0.34785E-13 0.13494E-11 0.52514E-13 0.18857E-10
 0.41633E-16 0.84655E-15 0.41633E-16 -.90206E-16 -.34694E-16 0.27756E-16 0.22898E-15 0.13878E-15 0.20123E-15 0.14225E-15
 0.20817E-16 0.19429E-15 0.27062E-15 0.76328E-16 0.44409E-15 0.53712E-09 0.12837E-15 0.80144E-15 0.28623E-15 0.29909E-12
 0.69389E-17 0.10963E-14 0.10963E-14 0.64809E-14 0.45797E-15 0.48364E-14 0.25500E-15 0.17347E-16 -.86736E-17 0.52042E-16
 0.11796E-15 0.10428E-11 0.21803E-11 0.10163E-09 -.13878E-16 0.69389E-17 0.15613E-16 0.12663E-15 0.12663E-14 0.30084E-12
 -.13878E-16 0.40322E-13 0.17332E-12 0.10953E-10 0.13184E-14 0.14693E-14 0.76328E-16 -.97145E-16 0.25674E-15 0.80545E-11
 0.69389E-16 0.24980E-15 0.64477E-11 0.14550E-11 0.52042E-16 0.32852E-13 0.16376E-14 0.30931E-12 0.29179E-12 0.35670E-12
 0.16653E-15 0.52042E-15 0.52736E-15 0.82573E-15 0.11102E-15 0.27756E-16 0.97145E-16 0.83267E-16 0.69389E-16 0.12490E-15
  0.0000     0.18546E-12 0.70360E-13 0.93962E-12 0.15959E-15 0.55234E-14 0.59619E-13 0.42837E-11 0.14076E-11 0.39119E-12
 0.97145E-16 0.57453E-12 0.52451E-13 0.49127E-14 0.97145E-16 -.27756E-16 0.33307E-15 0.56749E-12 0.30531E-15 0.19590E-12
 0.97145E-16 0.28831E-13 -.41633E-16 0.41633E-16 0.13878E-15 0.19706E-14 0.22655E-13 0.14594E-11 0.40870E-13 0.12019E-10
  0.0000     0.10061E-14 0.83267E-16 -.34694E-16 0.41633E-16 0.69389E-17 0.16653E-15 0.19429E-15 0.19776E-15 0.13184E-15
 0.27756E-16 0.31225E-15 0.27062E-15 0.19429E-15 0.34001E-15 0.31095E-09 0.11102E-15 0.80925E-15 0.41633E-15 0.23736E-12
 0.48572E-16 0.59674E-15 0.88818E-15 0.41217E-14 0.40246E-15 0.43021E-14 0.28883E-15 0.27756E-16 0.42067E-16 0.93675E-16
 0.22204E-15 0.83852E-12 0.16298E-11 0.18429E-09 0.83267E-16 0.97145E-16 0.83267E-16 0.80665E-16 0.11519E-14 0.32959E-12
 0.97145E-16 0.36471E-13 0.24486E-12 0.11146E-10 0.12941E-14 0.14919E-14 0.12013E-15 -.69389E-17 0.82573E-15 0.25304E-11
 0.15959E-15 0.47184E-15 0.93238E-11 0.12210E-11 0.55511E-16 0.28826E-13 0.13045E-14 0.34214E-12 0.30038E-12 0.39282E-12
 0.69389E-16 0.37470E-15 0.51348E-15 0.88124E-15 0.27756E-16 0.27756E-16 0.13878E-16 -.41633E-16 -.83267E-16 0.11102E-15
 0.55511E-16 0.14792E-12 0.63283E-13 0.84290E-12 0.12490E-15 0.44131E-14 0.68785E-13 0.48742E-11 0.18228E-11 0.27214E-12
  0.0000     0.63327E-12 0.73566E-13 0.50238E-14 0.83267E-16 -.41633E-16 0.97145E-16 0.60228E-12 0.18041E-15 0.18968E-12
 0.11102E-15 0.23356E-13 -.27756E-16 0.27756E-16 0.97145E-16 0.20817E-14 0.27485E-13 0.16396E-11 0.42175E-13 0.82076E-11
 0.55511E-16 0.10617E-14 0.55511E-16 0.13878E-16 0.27756E-16 0.27756E-16 0.24286E-15 0.15266E-15 0.20123E-15 0.11102E-15
 0.55511E-16 0.15266E-15 0.22204E-15 0.16653E-15 0.29143E-15 0.12825E-09 0.83267E-16 0.56899E-15 0.33307E-15 0.15210E-12
 -.13878E-16 0.52042E-15 0.76328E-15 0.34209E-14 0.39552E-15 0.33307E-14 0.19429E-15 0.55511E-16 -.12143E-16 0.20817E-16
 0.24980E-15 0.70988E-12 0.33969E-11 0.16209E-09 -.34694E-16 0.24286E-16 0.11102E-15 0.85001E-16 0.95757E-15 0.32430E-12
 0.76328E-16 0.30344E-13 0.27287E-12 0.12237E-10 0.17764E-14 0.13600E-14 0.11102E-15 -.41633E-16 0.25674E-15 0.15288E-11
 0.13878E-15 0.11241E-14 0.11144E-10 0.10127E-11 0.55511E-16 0.16136E-13 0.10061E-14 0.34980E-12 0.35211E-12 0.43478E-12
 0.11102E-15 0.48572E-15 0.59674E-15 0.97145E-15 0.83267E-16 -.55511E-16 0.41633E-16 0.83267E-16 0.16653E-15 0.13878E-15
 0.15266E-15 0.12332E-12 0.57308E-13 0.15238E-11 0.83267E-16 0.36082E-14 0.60320E-13 0.48724E-11 0.19556E-11 0.25335E-12
 0.13878E-15 0.59358E-12 0.60563E-13 0.44617E-14 0.83267E-16 0.27756E-16 0.27756E-15 0.70492E-12 0.24980E-15 0.17332E-12
 0.97145E-16 0.31419E-13  0.0000     0.27756E-16 0.11102E-15 0.19151E-14 0.22871E-13 0.18480E-11 0.39815E-13 0.59445E-11
 -.41633E-16 0.10617E-14 0.11102E-15 0.13878E-16 -.27756E-16 -.27756E-16 0.83267E-16 0.15266E-15 0.15266E-15 0.55511E-16
  0.0000     0.11102E-15 0.20817E-15 0.83267E-16 0.33307E-15 0.16941E-10 0.27756E-16 0.49266E-15 0.20817E-15 0.16591E-12
 -.13878E-16 0.31919E-15 0.49960E-15 0.25396E-14 0.27756E-15 0.35527E-14 0.18388E-15 0.41633E-16 0.45103E-16 0.27756E-16
 0.23592E-15 0.57959E-12 0.40382E-11 0.21155E-09 0.55511E-16 0.48572E-16 0.41633E-16 0.13184E-15 0.99920E-15 0.33784E-12
 0.15266E-15 0.23564E-13 0.36349E-12 0.13376E-10 0.16029E-14 0.14433E-14 0.17347E-15  0.0000     0.61062E-15 0.96309E-12
 0.16653E-15 0.11380E-14 0.14348E-10 0.84692E-12 0.13878E-15 0.13829E-13 0.77716E-15 0.36020E-12 0.37187E-12 0.47103E-12
  0.0000     0.34694E-15 0.54123E-15 0.10131E-14 0.13878E-16 0.13878E-16 0.27756E-16 -.41633E-16 -.97145E-16  0.0000    
 0.69389E-16 0.10797E-12 0.51598E-13 0.20993E-11 0.62450E-16 0.30531E-14 0.56649E-13 0.55075E-11 0.20385E-11 0.30317E-12
 0.13878E-16 0.64340E-12 0.74551E-13 0.45242E-14 0.55511E-16 -.27756E-16 0.12490E-15 0.75848E-12 -.97145E-16 0.14344E-12
 0.13878E-16 0.33556E-13 0.13878E-16 0.27756E-16 0.97145E-16 0.20262E-14 0.21830E-13 0.19502E-11 0.30628E-13 0.44713E-11
 -.13878E-16 0.11172E-14 0.69389E-16 0.55511E-16 0.55511E-16 0.41633E-16 0.16653E-15 0.11102E-15 0.83267E-16 0.22204E-15
 0.13878E-16 0.83267E-16 0.23592E-15 0.41633E-16 0.37470E-15 0.13822E-10 0.41633E-16 0.43021E-15 0.16653E-15 0.15246E-12
 -.27756E-16 0.27756E-15 0.47184E-15 0.19845E-14 0.26368E-15 0.30947E-14 0.27756E-15 0.83267E-16 0.69389E-16 0.27756E-16
 0.20817E-15 0.49577E-12 0.77213E-11 0.46334E-09 0.27756E-16 0.27756E-16 -.27756E-16 0.20817E-15 0.74940E-15 0.36302E-12
 -.11102E-15 0.18763E-13 0.35281E-12 0.14113E-10 0.16792E-14 0.12351E-14 0.97145E-16 -.13878E-16 0.66613E-15 0.64541E-12
 -.13878E-16 0.12490E-15 0.31746E-10 0.71088E-12 0.55511E-16 0.10048E-13 0.58287E-15 0.39532E-12 0.38362E-12 0.51897E-12
 -.69389E-16 0.41633E-15 0.38858E-15 0.10686E-14 0.27756E-16 -.55511E-16 0.13878E-16 -.27756E-16 -.55511E-16 0.55511E-16
 0.27756E-16 0.97436E-13 0.45838E-13 0.13499E-11 0.41633E-16 0.28311E-14 0.62006E-13 0.61809E-11 0.23116E-11 0.23755E-12
 -.27756E-16 0.70322E-12 0.74357E-13 0.52458E-14 0.83267E-16  0.0000     0.15266E-15 0.80262E-12 0.11102E-15 0.12579E-12
 -.41633E-16 0.23453E-13 0.55511E-16 0.55511E-16 0.83267E-16 0.23453E-14 0.23107E-13 0.25337E-11 0.31225E-13 0.32866E-11
 -.27756E-16 0.11935E-14 0.13878E-15 0.27756E-16 0.55511E-16 -.27756E-16 0.83267E-16 0.13878E-15 0.55511E-16 0.16653E-15
 0.13878E-16 0.13878E-15 0.19429E-15 -.27756E-16 0.37470E-15 0.47863E-11 0.13878E-16 0.33307E-15 0.15266E-15 0.16916E-12
 -.11102E-15 0.13878E-15 0.30531E-15 0.16098E-14 0.29143E-15 0.37748E-14 0.20817E-15 0.55511E-16 0.27756E-16 0.83267E-16
 0.15266E-15 0.41891E-12 0.18106E-10 0.45422E-10 0.27756E-16 -.69389E-16  0.0000     0.15266E-15 0.86042E-15 0.38315E-12
 0.41633E-16 0.15224E-13 0.54996E-12 0.15298E-10 0.19845E-14 0.13739E-14 0.41633E-16  0.0000     0.65226E-15 0.59484E-12
 0.16653E-15 0.44409E-15 0.16206E-10 0.60565E-12 0.41633E-16 0.93259E-14 0.52736E-15 0.41872E-12 0.43685E-12 0.54082E-12
 0.41633E-16 0.52736E-15 0.59674E-15 0.10825E-14 0.83267E-16 0.27756E-16 0.41633E-16 -.13878E-16 0.13878E-16 0.18041E-15
 0.15266E-15 0.88277E-13 0.41411E-13 0.95678E-11 -.69389E-16 0.22204E-14 0.56552E-13 0.59480E-11 0.25039E-11 0.20221E-12
 0.13878E-16 0.69644E-12 0.85196E-13 0.47323E-14  0.0000      0.0000     0.26368E-15 0.87169E-12 0.13878E-15 0.10707E-12
 0.97145E-16 0.50140E-13 0.41633E-16 0.69389E-16 0.13878E-15 0.19290E-14 0.20817E-13 0.23807E-11 0.23814E-13 0.26743E-11
 -.13878E-16 0.11102E-14 0.13878E-15 0.27756E-16 -.69389E-16 0.27756E-16 0.11102E-15 0.97145E-16 0.16653E-15 0.13878E-15
 -.13878E-16 0.83267E-16 0.19429E-15 0.55511E-16 0.37470E-15 0.41242E-11 0.13878E-16 0.24980E-15 0.69389E-16 0.13523E-12
 0.41633E-16 0.23592E-15 0.29143E-15 0.13878E-14 0.29143E-15 0.32474E-14 0.16653E-15 0.55511E-16 -.69389E-16 0.83267E-16
 0.26368E-15 0.34218E-12 0.28909E-10 0.39718E-09  0.0000     -.69389E-16 0.13878E-16 0.13878E-15 0.98532E-15 0.38403E-12
 0.12490E-15 0.13198E-13 0.52468E-12 0.13846E-10 0.21094E-14 0.14155E-14 0.27756E-16 -.55511E-16 0.72164E-15 0.43691E-12
 0.23592E-15 0.34001E-15 0.95326E-11 0.51842E-12 0.41633E-16 0.65087E-14 0.38858E-15 0.43676E-12 0.44230E-12 0.60862E-12
 -.72858E-16 0.43715E-15 0.58287E-15 0.10547E-14 -.27756E-16 0.13878E-16 0.27756E-16  0.0000     0.76328E-16 0.10408E-15
 0.93675E-16 0.84190E-13 0.36790E-13 0.26975E-11 0.41633E-16 0.22760E-14 0.60993E-13 0.66450E-11 0.25135E-11 0.16756E-12
  0.0000     0.75687E-12 0.96603E-13 0.68279E-14 0.27756E-16 -.13878E-16 0.19429E-15 0.90791E-12 -.34694E-16 0.86119E-13
  0.0000     0.26854E-13 -.27756E-16 0.55511E-16 0.16653E-15 0.32335E-14 0.22191E-13 0.27700E-11 0.18527E-13 0.21505E-11
 -.55511E-16 0.13739E-14 0.11102E-15 -.55511E-16 -.13878E-16 -.41633E-16 0.69389E-16 0.97145E-16 0.27756E-16 0.83267E-16
  0.0000     0.27756E-16 0.97145E-16 0.55511E-16 0.41633E-15 0.20475E-11 -.41633E-16 0.26368E-15 0.55511E-16 0.15073E-12
 -.55511E-16 0.12490E-15 0.24980E-15 0.12490E-14 0.19429E-15 0.37609E-14 0.16653E-15 -.55511E-16 -.55511E-16 -.27756E-16
 0.22204E-15 0.29385E-12 0.72328E-10 0.16727E-09 0.83267E-16 -.83267E-16  0.0000     0.11102E-15 0.11796E-14 0.42839E-12
 -.48572E-16 0.99434E-14 0.53753E-12 0.13868E-10 0.25535E-14 0.18874E-14 0.41633E-16 -.13878E-16 0.49960E-15 0.35549E-12
 0.11102E-15 0.29837E-15 0.59758E-11 0.44269E-12 0.13878E-16 0.61479E-14 0.41633E-15 0.48221E-12 0.46696E-12 0.64074E-12
 -.10755E-15 0.67307E-15 0.78063E-15 0.12906E-14 0.41633E-16 0.41633E-16 0.13878E-16  0.0000     0.10408E-16 0.62450E-16
 0.13878E-15 0.86913E-13 0.32606E-13 0.71421E-12  0.0000     0.30670E-14 0.67724E-13 0.74596E-11 0.29107E-11 0.14323E-12
 0.45103E-16 0.84010E-12 0.11051E-12 0.63699E-14 0.11102E-15 -.27756E-16 0.16653E-15 0.88950E-12 0.27062E-15 0.79943E-13
 0.97145E-16 0.12976E-13 -.41633E-16 0.41633E-16 0.16653E-15 0.28727E-14 0.24522E-13 0.35067E-11 0.24925E-13 0.16724E-11
 -.41633E-16 0.15543E-14 0.12490E-15 0.83267E-16 0.13878E-16 0.41633E-16 0.16653E-15 0.41633E-16 0.41633E-16 0.16653E-15
  0.0000     0.83267E-16 0.27756E-15 0.55511E-16 0.61062E-15 0.44708E-11 -.13878E-16 0.24980E-15 0.27756E-16 0.20142E-12
 -.13878E-16 0.22204E-15 0.29143E-15 0.17070E-14 0.34694E-15 0.46629E-14 0.27756E-15 -.27756E-16 0.41633E-16 -.83267E-16
 0.13878E-15 0.25378E-12 0.47498E-09 0.40317E-10 0.13878E-16  0.0000      0.0000     0.18041E-15 0.13045E-14 0.50558E-12
 0.62450E-16 0.97110E-14 0.80678E-12 0.16942E-10 0.30809E-14 0.19151E-14 0.27756E-16 -.11102E-15 0.47184E-15 0.41249E-12
 0.45103E-16 0.17347E-15 0.22784E-11 0.37435E-12 0.27756E-16 0.62589E-14 0.34694E-15 0.56748E-12 0.56884E-12 0.79960E-12
 -.12121E-15 0.59258E-15 0.74322E-15 0.14645E-14 0.14745E-16 -.91073E-17 0.59414E-16 -.39031E-17 0.37866E-16 0.63284E-16
 0.23785E-16 0.87350E-13 0.28853E-13 0.41823E-12 0.52042E-16 0.35631E-14 0.88435E-13 0.82293E-11 0.30918E-11 0.13207E-12
 0.70094E-16 0.94936E-12 0.13809E-12 0.87708E-14 0.12490E-15 -.42501E-16 0.11753E-15 0.89258E-12 0.10690E-15 0.59376E-13
 0.59197E-16 0.89105E-14 -.44235E-16 0.58981E-16 0.17087E-15 0.41399E-14 0.34524E-13 0.41292E-11 0.22223E-13 0.13239E-11