       N       E                     dE             d eps       ncg     rms          rms(c)
DAV:   1     0.194270387702E+03    0.19427E+03   -0.13858E+04  1800   0.920E+02
DAV:   2    -0.100709700102E+02   -0.20434E+03   -0.19813E+03  1824   0.263E+02
DAV:   3    -0.201270247395E+02   -0.10056E+02   -0.97630E+01  1900   0.767E+01
DAV:   4    -0.202489240892E+02   -0.12190E+00   -0.12142E+00  1948   0.777E+00
DAV:   5    -0.202500414644E+02   -0.11174E-02   -0.11173E-02  2028   0.513E-01    0.156E+01
RMM:   6    -0.204300961010E+02   -0.18005E+00   -0.50935E+01  1931   0.701E+01    0.103E+01
RMM:   7    -0.175727983637E+02    0.28573E+01   -0.10013E+01  1921   0.303E+01    0.611E+00
RMM:   8    -0.161995062665E+02    0.13733E+01   -0.60248E-01  1904   0.626E+00    0.237E+00
RMM:   9    -0.160966293110E+02    0.10288E+00   -0.17103E-01  1874   0.367E+00    0.112E+00
RMM:  10    -0.160826752169E+02    0.13954E-01   -0.48250E-02  1906   0.190E+00    0.112E+00
RMM:  11    -0.160572173790E+02    0.25458E-01   -0.30168E-02  1866   0.145E+00    0.458E-01
RMM:  12    -0.160532445217E+02    0.39729E-02   -0.91070E-03  1890   0.813E-01    0.231E-01
RMM:  13    -0.160523085098E+02    0.93601E-03   -0.30948E-03  1895   0.442E-01    0.182E-01
RMM:  14    -0.160513422690E+02    0.96624E-03   -0.58909E-04  1908   0.173E-01    0.956E-02
RMM:  15    -0.160512341933E+02    0.10808E-03   -0.89312E-05  1827   0.481E-02    0.567E-02
RMM:  16    -0.160512348893E+02   -0.69597E-06   -0.20593E-04  1833   0.881E-02    0.240E-02
RMM:  17    -0.160514046495E+02   -0.16976E-03   -0.63004E-05  1790   0.579E-02    0.119E-02
RMM:  18    -0.160515526947E+02   -0.14805E-03   -0.40486E-05  1633   0.233E-02    0.722E-03
RMM:  19    -0.160515995000E+02   -0.46805E-04   -0.86488E-06  1418   0.151E-02    0.756E-03
RMM:  20    -0.160516444500E+02   -0.44950E-04   -0.29195E-06  1164   0.946E-03    0.589E-03
RMM:  21    -0.160516660684E+02   -0.21618E-04   -0.85687E-07  1092   0.576E-03    0.580E-03
RMM:  22    -0.160516780371E+02   -0.11969E-04   -0.41776E-07  1068   0.334E-03    0.571E-03
RMM:  23    -0.160516831883E+02   -0.51512E-05   -0.18530E-07   999   0.328E-03    0.559E-03
RMM:  24    -0.160516847933E+02   -0.16049E-05   -0.38578E-08   741   0.175E-03    0.557E-03
RMM:  25    -0.160516849043E+02   -0.11105E-06   -0.17882E-09   284   0.109E-03
   1 F= -.16051685E+02 E0= -.16045257E+02  d E =-.128550E-01
