 vasp.5.4.4.18Apr17-6-g9f103f2a35 (build Jun 30 2017 11:15:00) complex          
  
 executed on    STALLO_VASP_5.4.4 date 2019.10.11  11:19:47
 running on    4 total cores
 distrk:  each k-point on    4 cores,    1 groups
 distr:  one band on NCORES_PER_BAND=   2 cores,    2 groups


--------------------------------------------------------------------------------------------------------


 INCAR:
 POTCAR:   PAW_PBE Cu 05Jan2001                   
 POTCAR:   PAW_PBE H 15Jun2001                    
 POTCAR:   PAW_PBE Cu 05Jan2001                   
   VRHFIN =Cu: d10 p1                                                           
   LEXCH  = PE                                                                  
   EATOM  =  1390.9800 eV,  102.2341 Ry                                         
                                                                                
   TITEL  = PAW_PBE Cu 05Jan2001                                                
   LULTRA =        F    use ultrasoft PP ?                                      
   IUNSCR =        1    unscreen: 0-lin 1-nonlin 2-no                           
   RPACOR =    2.000    partial core radius                                     
   POMASS =   63.546; ZVAL   =   11.000    mass and valenz                      
   RCORE  =    2.300    outmost cutoff radius                                   
   RWIGS  =    2.480; RWIGS  =    1.312    wigner-seitz radius (au A)           
   ENMAX  =  273.214; ENMIN  =  204.910 eV                                      
   RCLOC  =    1.712    cutoff for local pot                                    
   LCOR   =        T    correct aug charges                                     
   LPAW   =        T    paw PP                                                  
   EAUG   =  516.456                                                            
   DEXC   =    -.008                                                            
   RMAX   =    2.789    core radius for proj-oper                               
   RAUG   =    1.300    factor for augmentation sphere                          
   RDEP   =    2.302    radius for radial grids                                 
   QCUT   =   -4.481; QGAM   =    8.962    optimization parameters              
                                                                                
   Description                                                                  
     l     E      TYP  RCUT    TYP  RCUT                                        
     2   .000     23  2.300                                                     
     2   .000     23  2.300                                                     
     0   .000     23  2.300                                                     
     0   .000     23  2.300                                                     
     1  -.200     23  2.300                                                     
     1   .000     23  2.300                                                     
     3   .000      7   .000                                                     
  local pseudopotential read in
  partial core-charges read in
  atomic valenz-charges read in
  non local Contribution for L=           2  read in
    real space projection operators read in
  non local Contribution for L=           2  read in
    real space projection operators read in
  non local Contribution for L=           0  read in
    real space projection operators read in
  non local Contribution for L=           0  read in
    real space projection operators read in
  non local Contribution for L=           1  read in
    real space projection operators read in
  non local Contribution for L=           1  read in
    real space projection operators read in
    PAW grid and wavefunctions read in
 
   number of l-projection  operators is LMAX  =           6
   number of lm-projection operators is LMMAX =          18
 
 POTCAR:   PAW_PBE H 15Jun2001                    
   VRHFIN =H: ultrasoft test                                                    
   LEXCH  = PE                                                                  
   EATOM  =    12.4884 eV,     .9179 Ry                                         
                                                                                
   TITEL  = PAW_PBE H 15Jun2001                                                 
   LULTRA =        F    use ultrasoft PP ?                                      
   IUNSCR =        0    unscreen: 0-lin 1-nonlin 2-no                           
   RPACOR =     .000    partial core radius                                     
   POMASS =    1.000; ZVAL   =    1.000    mass and valenz                      
   RCORE  =    1.100    outmost cutoff radius                                   
   RWIGS  =     .700; RWIGS  =     .370    wigner-seitz radius (au A)           
   ENMAX  =  250.000; ENMIN  =  200.000 eV                                      
   RCLOC  =     .701    cutoff for local pot                                    
   LCOR   =        T    correct aug charges                                     
   LPAW   =        T    paw PP                                                  
   EAUG   =  400.000                                                            
   RMAX   =    2.174    core radius for proj-oper                               
   RAUG   =    1.200    factor for augmentation sphere                          
   RDEP   =    1.112    radius for radial grids                                 
   QCUT   =   -5.749; QGAM   =   11.498    optimization parameters              
                                                                                
   Description                                                                  
     l     E      TYP  RCUT    TYP  RCUT                                        
     0   .000     23  1.100                                                     
     0   .500     23  1.100                                                     
     1  -.300     23  1.100                                                     
  local pseudopotential read in
  atomic valenz-charges read in
  non local Contribution for L=           0  read in
    real space projection operators read in
  non local Contribution for L=           0  read in
    real space projection operators read in
  non local Contribution for L=           1  read in
    real space projection operators read in
    PAW grid and wavefunctions read in
 
   number of l-projection  operators is LMAX  =           3
   number of lm-projection operators is LMMAX =           5
 

 ----------------------------------------------------------------------------- 
|                                                                             |
|  ADVICE TO THIS USER RUNNING 'VASP/VAMP'   (HEAR YOUR MASTER'S VOICE ...):  |
|                                                                             |
|      You have a (more or less) 'small supercell' and for smaller cells      |
|      it is recommended  to use the reciprocal-space projection scheme!      |
|      The real space optimization is not  efficient for small cells and it   |
|      is also less accurate ...                                              |
|      Therefore set LREAL=.FALSE. in the  INCAR file                         |
|                                                                             |
 ----------------------------------------------------------------------------- 

 Optimization of the real space projectors (new method)

 maximal supplied QI-value         = 16.25
 optimisation between [QCUT,QGAM] = [  7.96, 16.09] = [ 17.76, 72.49] Ry 
 Optimized for a Real-space Cutoff    1.70 Angstroem

   l    n(q)    QCUT    max X(q) W(low)/X(q) W(high)/X(q)  e(spline) 
   2      7     7.963     4.977    0.65E-04    0.90E-04    0.59E-07
   2      7     7.963    13.467    0.48E-03    0.73E-03    0.12E-06
   0      8     7.963    13.303    0.22E-04    0.12E-04    0.51E-08
   0      8     7.963    44.613    0.10E-03    0.16E-03    0.47E-07
   1      8     7.963     5.276    0.66E-04    0.10E-04    0.22E-07
   1      8     7.963     7.322    0.38E-03    0.18E-03    0.17E-06
 Optimization of the real space projectors (new method)

 maximal supplied QI-value         = 34.20
 optimisation between [QCUT,QGAM] = [  7.87, 16.08] = [ 17.33, 72.37] Ry 
 Optimized for a Real-space Cutoff    1.85 Angstroem

   l    n(q)    QCUT    max X(q) W(low)/X(q) W(high)/X(q)  e(spline) 
   0      9     7.867     4.436    0.44E-04    0.71E-04    0.23E-06
   0      9     7.867    15.341    0.29E-03    0.73E-03    0.99E-06
   1      8     7.867     4.196    0.27E-03    0.13E-02    0.91E-06
 PAW_PBE Cu 05Jan2001                   :
 energy of atom  1       EATOM=-1390.9800
 kinetic energy error for atom=    0.0930 (will be added to EATOM!!)
 PAW_PBE H 15Jun2001                    :
 energy of atom  2       EATOM=  -12.4884
 kinetic energy error for atom=    0.0868 (will be added to EATOM!!)
 
 
 POSCAR: Cu  H                                   
  positions in cartesian coordinates
  velocities in cartesian coordinates
 exchange correlation table for  LEXCH =        8
   RHO(1)=    0.500       N(1)  =     2000
   RHO(2)=  100.500       N(2)  =     4000
 


--------------------------------------------------------------------------------------------------------


 ion  position               nearest neighbor table
   1  0.000  0.000  0.396-   2 2.57   2 2.57   2 2.57
   2  0.333  0.333  0.465-   3 2.57   1 2.57   3 2.57   1 2.57   3 2.57   1 2.57
   3  0.667  0.667  0.535-   4 2.57   2 2.57   2 2.57   4 2.57   2 2.57   4 2.57
   4  0.000  0.000  0.604-   5 1.80   3 2.57   3 2.57   3 2.57
   5  0.022  0.955  0.663-   4 1.80
 
  LATTYP: Found a hexagonal cell.
 ALAT       =     2.5738686835
 C/A-ratio  =    11.7739747694
  
  Lattice vectors:
  
 A1 = (   1.2869343418,  -2.2290356659,   0.0000000000)
 A2 = (  -2.5738686835,   0.0000000000,   0.0000000000)
 A3 = (   0.0000000000,   0.0000000000, -30.3046649396)


Analysis of symmetry for initial positions (statically):
=====================================================================
 Subroutine PRICEL returns:
 Original cell was already a primitive cell.
 

 Routine SETGRP: Setting up the symmetry group for a 
 hexagonal supercell.


 Subroutine GETGRP returns: Found  2 space group operations
 (whereof  2 operations were pure point group operations)
 out of a pool of 24 trial point group operations.


The static configuration has the point symmetry C_1h.


Analysis of symmetry for dynamics (positions and initial velocities):
=====================================================================
 Subroutine PRICEL returns:
 Original cell was already a primitive cell.
 

 Routine SETGRP: Setting up the symmetry group for a 
 hexagonal supercell.


 Subroutine GETGRP returns: Found  2 space group operations
 (whereof  2 operations were pure point group operations)
 out of a pool of 24 trial point group operations.


The dynamic configuration has the point symmetry C_1h.


 Subroutine INISYM returns: Found  2 space group operations
 (whereof  2 operations are pure point group operations),
 and found     1 'primitive' translations

 
 
 KPOINTS: k-density: 4.0                          

Automatic generation of k-mesh.
Space group operators:
 irot       det(A)        alpha          n_x          n_y          n_z        tau_x        tau_y        tau_z
    1     1.000000     0.000001     1.000000     0.000000     0.000000     0.000000     0.000000     0.000000
    2    -1.000000   180.000000     1.000000     0.000000     0.000000     0.000000     0.000000     0.000000
 
 Subroutine IBZKPT returns following result:
 ===========================================
 
 Found     31 irreducible k-points:
 
 Following reciprocal coordinates:
            Coordinates               Weight
  0.000000  0.000000  0.000000      1.000000
  0.100000  0.000000  0.000000      4.000000
  0.200000 -0.000000  0.000000      4.000000
  0.300000 -0.000000  0.000000      4.000000
  0.400000 -0.000000  0.000000      4.000000
  0.500000 -0.000000  0.000000      2.000000
  0.000000  0.100000  0.000000      2.000000
  0.200000  0.100000  0.000000      2.000000
  0.300000  0.100000  0.000000      4.000000
  0.400000  0.100000  0.000000      4.000000
  0.500000  0.100000  0.000000      4.000000
 -0.400000  0.100000  0.000000      4.000000
 -0.300000  0.100000  0.000000      4.000000
 -0.200000  0.100000  0.000000      4.000000
 -0.100000  0.100000  0.000000      4.000000
  0.000000  0.200000  0.000000      2.000000
  0.400000  0.200000  0.000000      2.000000
  0.500000  0.200000  0.000000      4.000000
 -0.400000  0.200000  0.000000      4.000000
 -0.300000  0.200000  0.000000      4.000000
 -0.200000  0.200000  0.000000      4.000000
 -0.100000  0.200000  0.000000      4.000000
  0.000000  0.300000  0.000000      2.000000
 -0.400000  0.300000  0.000000      2.000000
 -0.300000  0.300000  0.000000      4.000000
 -0.200000  0.300000  0.000000      4.000000
 -0.100000  0.300000  0.000000      4.000000
  0.000000  0.400000  0.000000      2.000000
 -0.200000  0.400000  0.000000      2.000000
 -0.100000  0.400000  0.000000      4.000000
  0.000000  0.500000  0.000000      1.000000
 
 Following cartesian coordinates:
            Coordinates               Weight
  0.000000  0.000000  0.000000      1.000000
  0.038852 -0.022431  0.000000      4.000000
  0.077704 -0.044862  0.000000      4.000000
  0.116556 -0.067294  0.000000      4.000000
  0.155408 -0.089725  0.000000      4.000000
  0.194260 -0.112156  0.000000      2.000000
  0.000000  0.044862  0.000000      2.000000
  0.077704 -0.000000  0.000000      2.000000
  0.116556 -0.022431  0.000000      4.000000
  0.155408 -0.044862  0.000000      4.000000
  0.194260 -0.067294  0.000000      4.000000
 -0.155408  0.134587  0.000000      4.000000
 -0.116556  0.112156  0.000000      4.000000
 -0.077704  0.089725  0.000000      4.000000
 -0.038852  0.067294  0.000000      4.000000
  0.000000  0.089725  0.000000      2.000000
  0.155408  0.000000  0.000000      2.000000
  0.194260 -0.022431  0.000000      4.000000
 -0.155408  0.179450  0.000000      4.000000
 -0.116556  0.157019  0.000000      4.000000
 -0.077704  0.134587  0.000000      4.000000
 -0.038852  0.112156  0.000000      4.000000
  0.000000  0.134587  0.000000      2.000000
 -0.155408  0.224312  0.000000      2.000000
 -0.116556  0.201881  0.000000      4.000000
 -0.077704  0.179450  0.000000      4.000000
 -0.038852  0.157019  0.000000      4.000000
  0.000000  0.179450  0.000000      2.000000
 -0.077704  0.224312  0.000000      2.000000
 -0.038852  0.201881  0.000000      4.000000
  0.000000  0.224312  0.000000      1.000000
 


--------------------------------------------------------------------------------------------------------




 Dimension of arrays:
   k-points           NKPTS =     31   k-points in BZ     NKDIM =     31   number of bands    NBANDS=     28
   number of dos      NEDOS =   2401   number of ions     NIONS =      5
   non local maximal  LDIM  =      6   non local SUM 2l+1 LMDIM =     18
   total plane-waves  NPLWV =  12000
   max r-space proj   IRMAX =   1888   max aug-charges    IRDMAX=   2622
   dimension x,y,z NGX =    10 NGY =   10 NGZ =  120
   dimension x,y,z NGXF=    20 NGYF=   20 NGZF=  240
   support grid    NGXF=    20 NGYF=   20 NGZF=  240
   ions per type =               4   1
   NGX,Y,Z   is equivalent  to a cutoff of   6.46,  6.46,  6.58 a.u.
   NGXF,Y,Z  is equivalent  to a cutoff of  12.92, 12.92, 13.17 a.u.

 SYSTEM =  unknown system                          
 POSCAR =  Cu  H                                   

 Startparameter for this run:
   NWRITE =      2    write-flag & timer
   PREC   = normal    normal or accurate (medium, high low for compatibility)
   ISTART =      0    job   : 0-new  1-cont  2-samecut
   ICHARG =      2    charge: 1-file 2-atom 10-const
   ISPIN  =      1    spin polarized calculation?
   LNONCOLLINEAR =      F non collinear calculations
   LSORBIT =      F    spin-orbit coupling
   INIWAV =      1    electr: 0-lowe 1-rand  2-diag
   LASPH  =      F    aspherical Exc in radial PAW
   METAGGA=      F    non-selfconsistent MetaGGA calc.

 Electronic Relaxation 1
   ENCUT  =  250.0 eV  18.37 Ry    4.29 a.u.   3.32  3.32 39.07*2*pi/ulx,y,z
   ENINI  =  250.0     initial cutoff
   ENAUG  =  516.5 eV  augmentation charge cutoff
   NELM   =     60;   NELMIN=  4; NELMDL= -5     # of ELM steps 
   EDIFF  = 0.1E-05   stopping-criterion for ELM
   LREAL  =      T    real-space projection
   NLSPLINE    = F    spline interpolate recip. space projectors
   LCOMPAT=      F    compatible to vasp.4.4
   GGA_COMPAT  = T    GGA compatible to vasp.4.4-vasp.4.6
   LMAXPAW     = -100 max onsite density
   LMAXMIX     =    2 max onsite mixed and CHGCAR
   VOSKOWN=      0    Vosko Wilk Nusair interpolation
   ROPT   =   -0.00050  -0.00050
 Ionic relaxation
   EDIFFG = 0.1E-04   stopping-criterion for IOM
   NSW    =      0    number of steps for IOM
   NBLOCK =      1;   KBLOCK =      1    inner block; outer block 
   IBRION =     -1    ionic relax: 0-MD 1-quasi-New 2-CG
   NFREE  =      0    steps in history (QN), initial steepest desc. (CG)
   ISIF   =      2    stress and relaxation
   IWAVPR =     10    prediction:  0-non 1-charg 2-wave 3-comb
   ISYM   =      2    0-nonsym 1-usesym 2-fastsym
   LCORR  =      T    Harris-Foulkes like correction to forces

   POTIM  = 0.5000    time-step for ionic-motion
   TEIN   =    0.0    initial temperature
   TEBEG  =    0.0;   TEEND  =   0.0 temperature during run
   SMASS  =  -3.00    Nose mass-parameter (am)
   estimated Nose-frequenzy (Omega)   =  0.10E-29 period in steps =****** mass=  -0.151E-27a.u.
   SCALEE = 1.0000    scale energy and forces
   NPACO  =    256;   APACO  = 16.0  distance and # of slots for P.C.
   PSTRESS=    0.0 pullay stress

  Mass of Ions in am
   POMASS =  63.55  1.00
  Ionic Valenz
   ZVAL   =  11.00  1.00
  Atomic Wigner-Seitz radii
   RWIGS  =  -1.00 -1.00
  virtual crystal weights 
   VCA    =   1.00  1.00
   NELECT =      45.0000    total number of electrons
   NUPDOWN=      -1.0000    fix difference up-down

 DOS related values:
   EMIN   = -17.00;   EMAX   =  7.00  energy-range for DOS
   EFERMI =   0.00
   ISMEAR =     0;   SIGMA  =   0.10  broadening in eV -4-tet -1-fermi 0-gaus

 Electronic relaxation 2 (details)
   IALGO  =     68    algorithm
   LDIAG  =      T    sub-space diagonalisation (order eigenvalues)
   LSUBROT=      F    optimize rotation matrix (better conditioning)
   TURBO    =      0    0=normal 1=particle mesh
   IRESTART =      0    0=no restart 2=restart with 2 vectors
   NREBOOT  =      0    no. of reboots
   NMIN     =      0    reboot dimension
   EREF     =   0.00    reference energy to select bands
   IMIX   =      4    mixing-type and parameters
     AMIX     =   0.40;   BMIX     =  1.00
     AMIX_MAG =   1.60;   BMIX_MAG =  1.00
     AMIN     =   0.10
     WC   =   100.;   INIMIX=   1;  MIXPRE=   1;  MAXMIX= -45

 Intra band minimization:
   WEIMIN = 0.0000     energy-eigenvalue tresh-hold
   EBREAK =  0.89E-08  absolut break condition
   DEPER  =   0.30     relativ break condition  

   TIME   =   0.40     timestep for ELM

  volume/ion in A,a.u.               =      34.77       234.66
  Fermi-wavevector in a.u.,A,eV,Ry     =   1.043297  1.971546 14.809520  1.088469
  Thomas-Fermi vector in A             =   2.178000
 
 Write flags
   LWAVE        =      F    write WAVECAR
   LDOWNSAMPLE  =      F    k-point downsampling of WAVECAR
   LCHARG       =      T    write CHGCAR
   LVTOT        =      F    write LOCPOT, total local potential
   LVHAR        =      F    write LOCPOT, Hartree potential only
   LELF         =      T    write electronic localiz. function (ELF)
   LORBIT       =     11    0 simple, 1 ext, 2 COOP (PROOUT), +10 PAW based schemes


 Dipole corrections
   LMONO  =      F    monopole corrections only (constant potential shift)
   LDIPOL =      F    correct potential (dipole corrections)
   IDIPOL =      0    1-x, 2-y, 3-z, 4-all directions 
   EPSILON=  1.0000000 bulk dielectric constant

 Exchange correlation treatment:
   GGA     =    --    GGA type
   LEXCH   =     8    internal setting for exchange type
   VOSKOWN=      0    Vosko Wilk Nusair interpolation
   LHFCALC =     F    Hartree Fock is set to
   LHFONE  =     F    Hartree Fock one center treatment
   AEXX    =    0.0000 exact exchange contribution

 Linear response parameters
   LEPSILON=     F    determine dielectric tensor
   LRPA    =     F    only Hartree local field effects (RPA)
   LNABLA  =     F    use nabla operator in PAW spheres
   LVEL    =     F    velocity operator in full k-point grid
   LINTERFAST=   F  fast interpolation
   KINTER  =     0    interpolate to denser k-point grid
   CSHIFT  =0.1000    complex shift for real part using Kramers Kronig
   OMEGAMAX=  -1.0    maximum frequency
   DEG_THRESHOLD= 0.2000000E-02 threshold for treating states as degnerate
   RTIME   =   -0.100 relaxation time in fs
  (WPLASMAI=    0.000 imaginary part of plasma frequency in eV, 0.658/RTIME)
   DFIELD  = 0.0000000 0.0000000 0.0000000 field for delta impulse in time
 
 Orbital magnetization related:
   ORBITALMAG=     F  switch on orbital magnetization
   LCHIMAG   =     F  perturbation theory with respect to B field
   DQ        =  0.001000  dq finite difference perturbation B field
   LLRAUG    =     F  two centre corrections for induced B field



--------------------------------------------------------------------------------------------------------


 Static calculation
 charge density and potential will be updated during run
 non-spin polarized calculation
 RMM-DIIS sequential band-by-band and
  variant of blocked Davidson during initial phase
 perform sub-space diagonalisation
    before iterative eigenvector-optimisation
 modified Broyden-mixing scheme, WC =      100.0
 initial mixing is a Kerker type mixing with AMIX =  0.4000 and BMIX =      1.0000
 Hartree-type preconditioning will be used
 using additional bands            5
 real space projection scheme for non local part
 use partial core corrections
 calculate Harris-corrections to forces 
   (improved forces if not selfconsistent)
 use gradient corrections 
 use of overlap-Matrix (Vanderbilt PP)
 Gauss-broadening in eV      SIGMA  =   0.10


--------------------------------------------------------------------------------------------------------


  energy-cutoff  :      250.00
  volume of cell :      173.87
      direct lattice vectors                 reciprocal lattice vectors
     2.573868684  0.000000000  0.000000000     0.388520209 -0.224312248  0.000000000
     1.286934342  2.229035666  0.000000000     0.000000000  0.448624495  0.000000000
     0.000000000  0.000000000 30.304664940     0.000000000  0.000000000  0.032998220

  length of vectors
     2.573868684  2.573868684 30.304664940     0.448624495  0.448624495  0.032998220


 
 k-points in units of 2pi/SCALE and weight: k-density: 4.0                          
   0.00000000  0.00000000  0.00000000       0.010
   0.03885202 -0.02243122  0.00000000       0.040
   0.07770404 -0.04486245  0.00000000       0.040
   0.11655606 -0.06729367  0.00000000       0.040
   0.15540808 -0.08972490  0.00000000       0.040
   0.19426010 -0.11215612  0.00000000       0.020
   0.00000000  0.04486245  0.00000000       0.020
   0.07770404 -0.00000000  0.00000000       0.020
   0.11655606 -0.02243122  0.00000000       0.040
   0.15540808 -0.04486245  0.00000000       0.040
   0.19426010 -0.06729367  0.00000000       0.040
  -0.15540808  0.13458735  0.00000000       0.040
  -0.11655606  0.11215612  0.00000000       0.040
  -0.07770404  0.08972490  0.00000000       0.040
  -0.03885202  0.06729367  0.00000000       0.040
   0.00000000  0.08972490  0.00000000       0.020
   0.15540808  0.00000000  0.00000000       0.020
   0.19426010 -0.02243122  0.00000000       0.040
  -0.15540808  0.17944980  0.00000000       0.040
  -0.11655606  0.15701857  0.00000000       0.040
  -0.07770404  0.13458735  0.00000000       0.040
  -0.03885202  0.11215612  0.00000000       0.040
   0.00000000  0.13458735  0.00000000       0.020
  -0.15540808  0.22431225  0.00000000       0.020
  -0.11655606  0.20188102  0.00000000       0.040
  -0.07770404  0.17944980  0.00000000       0.040
  -0.03885202  0.15701857  0.00000000       0.040
   0.00000000  0.17944980  0.00000000       0.020
  -0.07770404  0.22431225  0.00000000       0.020
  -0.03885202  0.20188102  0.00000000       0.040
   0.00000000  0.22431225  0.00000000       0.010
 
 k-points in reciprocal lattice and weights: k-density: 4.0                          
   0.00000000  0.00000000  0.00000000       0.010
   0.10000000  0.00000000  0.00000000       0.040
   0.20000000 -0.00000000  0.00000000       0.040
   0.30000000 -0.00000000  0.00000000       0.040
   0.40000000 -0.00000000  0.00000000       0.040
   0.50000000 -0.00000000  0.00000000       0.020
   0.00000000  0.10000000  0.00000000       0.020
   0.20000000  0.10000000  0.00000000       0.020
   0.30000000  0.10000000  0.00000000       0.040
   0.40000000  0.10000000  0.00000000       0.040
   0.50000000  0.10000000  0.00000000       0.040
  -0.40000000  0.10000000  0.00000000       0.040
  -0.30000000  0.10000000  0.00000000       0.040
  -0.20000000  0.10000000  0.00000000       0.040
  -0.10000000  0.10000000  0.00000000       0.040
   0.00000000  0.20000000  0.00000000       0.020
   0.40000000  0.20000000  0.00000000       0.020
   0.50000000  0.20000000  0.00000000       0.040
  -0.40000000  0.20000000  0.00000000       0.040
  -0.30000000  0.20000000  0.00000000       0.040
  -0.20000000  0.20000000  0.00000000       0.040
  -0.10000000  0.20000000  0.00000000       0.040
   0.00000000  0.30000000  0.00000000       0.020
  -0.40000000  0.30000000  0.00000000       0.020
  -0.30000000  0.30000000  0.00000000       0.040
  -0.20000000  0.30000000  0.00000000       0.040
  -0.10000000  0.30000000  0.00000000       0.040
   0.00000000  0.40000000  0.00000000       0.020
  -0.20000000  0.40000000  0.00000000       0.020
  -0.10000000  0.40000000  0.00000000       0.040
   0.00000000  0.50000000  0.00000000       0.010
 
 position of ions in fractional coordinates (direct lattice) 
   0.00000000  0.00000000  0.39597864
   0.33333333  0.33333333  0.46532621
   0.66666666  0.66666667  0.53467379
   0.00000000  0.00000000  0.60402136
   0.02243122  0.95513755  0.66341816
 
 position of ions in cartesian coordinates  (Angst):
   0.00000000  0.00000000 12.00000000
   1.28693434  0.74301189 14.10155498
   2.57386868  1.48602378 16.20310996
   0.00000000  0.00000000 18.30466494
   1.28693434  2.12903567 20.10466494
 


--------------------------------------------------------------------------------------------------------


 k-point  1 :   0.0000 0.0000 0.0000  plane waves:    1609
 k-point  2 :   0.1000 0.0000 0.0000  plane waves:    1589
 k-point  3 :   0.2000-0.0000 0.0000  plane waves:    1586
 k-point  4 :   0.3000-0.0000 0.0000  plane waves:    1542
 k-point  5 :   0.4000-0.0000 0.0000  plane waves:    1568
 k-point  6 :   0.5000-0.0000 0.0000  plane waves:    1570
 k-point  7 :   0.0000 0.1000 0.0000  plane waves:    1589
 k-point  8 :   0.2000 0.1000 0.0000  plane waves:    1579
 k-point  9 :   0.3000 0.1000 0.0000  plane waves:    1569
 k-point 10 :   0.4000 0.1000 0.0000  plane waves:    1552
 k-point 11 :   0.5000 0.1000 0.0000  plane waves:    1549
 k-point 12 :  -0.4000 0.1000 0.0000  plane waves:    1549
 k-point 13 :  -0.3000 0.1000 0.0000  plane waves:    1552
 k-point 14 :  -0.2000 0.1000 0.0000  plane waves:    1569
 k-point 15 :  -0.1000 0.1000 0.0000  plane waves:    1579
 k-point 16 :   0.0000 0.2000 0.0000  plane waves:    1586
 k-point 17 :   0.4000 0.2000 0.0000  plane waves:    1545
 k-point 18 :   0.5000 0.2000 0.0000  plane waves:    1549
 k-point 19 :  -0.4000 0.2000 0.0000  plane waves:    1546
 k-point 20 :  -0.3000 0.2000 0.0000  plane waves:    1549
 k-point 21 :  -0.2000 0.2000 0.0000  plane waves:    1545
 k-point 22 :  -0.1000 0.2000 0.0000  plane waves:    1569
 k-point 23 :   0.0000 0.3000 0.0000  plane waves:    1542
 k-point 24 :  -0.4000 0.3000 0.0000  plane waves:    1547
 k-point 25 :  -0.3000 0.3000 0.0000  plane waves:    1547
 k-point 26 :  -0.2000 0.3000 0.0000  plane waves:    1549
 k-point 27 :  -0.1000 0.3000 0.0000  plane waves:    1552
 k-point 28 :   0.0000 0.4000 0.0000  plane waves:    1568
 k-point 29 :  -0.2000 0.4000 0.0000  plane waves:    1546
 k-point 30 :  -0.1000 0.4000 0.0000  plane waves:    1549
 k-point 31 :   0.0000 0.5000 0.0000  plane waves:    1570

 maximum and minimum number of plane-waves per node :       808      767

 maximum number of plane-waves:      1609
 maximum index in each direction: 
   IXMAX=    3   IYMAX=    3   IZMAX=   39
   IXMIN=   -3   IYMIN=   -3   IZMIN=  -39


 real space projection operators:
  total allocation   :        839.52 KBytes
  max/ min on nodes  :        422.66        416.86


 parallel 3D FFT for wavefunctions:
    minimum data exchange during FFTs selected (reduces bandwidth)
 parallel 3D FFT for charge:
    minimum data exchange during FFTs selected (reduces bandwidth)


 total amount of memory used by VASP MPI-rank0    39168. kBytes
=======================================================================

   base      :      30000. kBytes
   nonlr-proj:        675. kBytes
   fftplans  :        995. kBytes
   grid      :       1592. kBytes
   one-center:         46. kBytes
   wavefun   :       5860. kBytes
 
     INWAV:  cpu time    0.0000: real time    0.0000
 Broyden mixing: mesh for mixing (old mesh)
   NGX =  7   NGY =  7   NGZ = 79
  (NGX  = 20   NGY  = 20   NGZ  =240)
  gives a total of   3871 points

 initial charge density was supplied:
 charge density of overlapping atoms calculated
 number of electron      45.0000000 magnetization 
 keeping initial charge density in first step


--------------------------------------------------------------------------------------------------------


 Maximum index for non-local projection operator          884
 Maximum index for augmentation-charges          593 (set IRDMAX)


--------------------------------------------------------------------------------------------------------


 First call to EWALD:  gamma=   0.318
 Maximum number of real-space cells 6x 6x 1
 Maximum number of reciprocal cells 2x 2x13

    FEWALD:  cpu time    0.0020: real time    0.0016


--------------------------------------- Iteration      1(   1)  ---------------------------------------


    POTLOK:  cpu time    0.0160: real time    0.0486
    SETDIJ:  cpu time    0.0040: real time    0.0043
     EDDAV:  cpu time    0.5939: real time    0.5993
       DOS:  cpu time    0.0050: real time    0.0056
    --------------------------------------------
      LOOP:  cpu time    0.6189: real time    0.6578

 eigenvalue-minimisations  :  1800
 total energy-change (2. order) : 0.1942704E+03  (-0.1385771E+04)
 number of electron      45.0000000 magnetization 
 augmentation part       45.0000000 magnetization 

 Free energy of the ion-electron system (eV)
  ---------------------------------------------------
  alpha Z        PSCENC =       120.87645803
  Ewald energy   TEWEN  =     37628.60337540
  -Hartree energ DENC   =    -42755.46996362
  -exchange      EXHF   =         0.00000000
  -V(xc)+E(xc)   XCENC  =       176.86186436
  PAW double counting   =      4328.99049516    -4905.09836044
  entropy T*S    EENTRO =        -0.00883124
  eigenvalues    EBANDS =        23.56573178
  atomic energy  EATOM  =      5575.94961827
  Solvation  Ediel_sol  =         0.00000000
  ---------------------------------------------------
  free energy    TOTEN  =       194.27038770 eV

  energy without entropy =      194.27921894  energy(sigma->0) =      194.27480332


--------------------------------------------------------------------------------------------------------




--------------------------------------- Iteration      1(   2)  ---------------------------------------


     EDDAV:  cpu time    0.5949: real time    0.5948
       DOS:  cpu time    0.0060: real time    0.0059
    --------------------------------------------
      LOOP:  cpu time    0.6009: real time    0.6008

 eigenvalue-minimisations  :  1824
 total energy-change (2. order) :-0.2043414E+03  (-0.1981282E+03)
 number of electron      45.0000000 magnetization 
 augmentation part       45.0000000 magnetization 

 Free energy of the ion-electron system (eV)
  ---------------------------------------------------
  alpha Z        PSCENC =       120.87645803
  Ewald energy   TEWEN  =     37628.60337540
  -Hartree energ DENC   =    -42755.46996362
  -exchange      EXHF   =         0.00000000
  -V(xc)+E(xc)   XCENC  =       176.86186436
  PAW double counting   =      4328.99049516    -4905.09836044
  entropy T*S    EENTRO =        -0.01911544
  eigenvalues    EBANDS =      -180.76534173
  atomic energy  EATOM  =      5575.94961827
  Solvation  Ediel_sol  =         0.00000000
  ---------------------------------------------------
  free energy    TOTEN  =       -10.07097001 eV

  energy without entropy =      -10.05185457  energy(sigma->0) =      -10.06141229


--------------------------------------------------------------------------------------------------------




--------------------------------------- Iteration      1(   3)  ---------------------------------------


     EDDAV:  cpu time    0.6159: real time    0.6184
       DOS:  cpu time    0.0060: real time    0.0059
    --------------------------------------------
      LOOP:  cpu time    0.6219: real time    0.6243

 eigenvalue-minimisations  :  1900
 total energy-change (2. order) :-0.1005605E+02  (-0.9762976E+01)
 number of electron      45.0000000 magnetization 
 augmentation part       45.0000000 magnetization 

 Free energy of the ion-electron system (eV)
  ---------------------------------------------------
  alpha Z        PSCENC =       120.87645803
  Ewald energy   TEWEN  =     37628.60337540
  -Hartree energ DENC   =    -42755.46996362
  -exchange      EXHF   =         0.00000000
  -V(xc)+E(xc)   XCENC  =       176.86186436
  PAW double counting   =      4328.99049516    -4905.09836044
  entropy T*S    EENTRO =        -0.02035610
  eigenvalues    EBANDS =      -190.82015580
  atomic energy  EATOM  =      5575.94961827
  Solvation  Ediel_sol  =         0.00000000
  ---------------------------------------------------
  free energy    TOTEN  =       -20.12702474 eV

  energy without entropy =      -20.10666864  energy(sigma->0) =      -20.11684669


--------------------------------------------------------------------------------------------------------




--------------------------------------- Iteration      1(   4)  ---------------------------------------


     EDDAV:  cpu time    0.6279: real time    0.6278
       DOS:  cpu time    0.0050: real time    0.0059
    --------------------------------------------
      LOOP:  cpu time    0.6329: real time    0.6338

 eigenvalue-minimisations  :  1948
 total energy-change (2. order) :-0.1218993E+00  (-0.1214155E+00)
 number of electron      45.0000000 magnetization 
 augmentation part       45.0000000 magnetization 

 Free energy of the ion-electron system (eV)
  ---------------------------------------------------
  alpha Z        PSCENC =       120.87645803
  Ewald energy   TEWEN  =     37628.60337540
  -Hartree energ DENC   =    -42755.46996362
  -exchange      EXHF   =         0.00000000
  -V(xc)+E(xc)   XCENC  =       176.86186436
  PAW double counting   =      4328.99049516    -4905.09836044
  entropy T*S    EENTRO =        -0.02021418
  eigenvalues    EBANDS =      -190.94219707
  atomic energy  EATOM  =      5575.94961827
  Solvation  Ediel_sol  =         0.00000000
  ---------------------------------------------------
  free energy    TOTEN  =       -20.24892409 eV

  energy without entropy =      -20.22870991  energy(sigma->0) =      -20.23881700


--------------------------------------------------------------------------------------------------------




--------------------------------------- Iteration      1(   5)  ---------------------------------------


     EDDAV:  cpu time    0.6489: real time    0.6499
       DOS:  cpu time    0.0060: real time    0.0058
    CHARGE:  cpu time    0.0340: real time    0.0347
    MIXING:  cpu time    0.0010: real time    0.0008
    --------------------------------------------
      LOOP:  cpu time    0.6899: real time    0.6913

 eigenvalue-minimisations  :  2028
 total energy-change (2. order) :-0.1117375E-02  (-0.1117328E-02)
 number of electron      45.0000036 magnetization 
 augmentation part       26.4837298 magnetization 

 Broyden mixing:
  rms(total) = 0.15643E+01    rms(broyden)= 0.15636E+01
  rms(prec ) = 0.16351E+01
  weight for this iteration     100.00

 Free energy of the ion-electron system (eV)
  ---------------------------------------------------
  alpha Z        PSCENC =       120.87645803
  Ewald energy   TEWEN  =     37628.60337540
  -Hartree energ DENC   =    -42755.46996362
  -exchange      EXHF   =         0.00000000
  -V(xc)+E(xc)   XCENC  =       176.86186436
  PAW double counting   =      4328.99049516    -4905.09836044
  entropy T*S    EENTRO =        -0.02021393
  eigenvalues    EBANDS =      -190.94331470
  atomic energy  EATOM  =      5575.94961827
  Solvation  Ediel_sol  =         0.00000000
  ---------------------------------------------------
  free energy    TOTEN  =       -20.25004146 eV

  energy without entropy =      -20.22982754  energy(sigma->0) =      -20.23993450


--------------------------------------------------------------------------------------------------------




--------------------------------------- Iteration      1(   6)  ---------------------------------------


    POTLOK:  cpu time    0.0110: real time    0.0118
    SETDIJ:  cpu time    0.0040: real time    0.0032
    EDDIAG:  cpu time    0.1180: real time    0.1184
  RMM-DIIS:  cpu time    0.3669: real time    0.3671
    ORTHCH:  cpu time    0.0150: real time    0.0148
       DOS:  cpu time    0.0060: real time    0.0059
    CHARGE:  cpu time    0.0330: real time    0.0339
    MIXING:  cpu time    0.0010: real time    0.0007
    --------------------------------------------
      LOOP:  cpu time    0.5549: real time    0.5559

 eigenvalue-minimisations  :  1931
 total energy-change (2. order) :-0.1800546E+00  (-0.5093458E+01)
 number of electron      45.0000035 magnetization 
 augmentation part       30.3455466 magnetization 

 Broyden mixing:
  rms(total) = 0.10337E+01    rms(broyden)= 0.10330E+01
  rms(prec ) = 0.12200E+01
  weight for this iteration     100.00

 eigenvalues of (default mixing * dielectric matrix)
  average eigenvalue GAMMA=   0.6086
  0.6086

 Free energy of the ion-electron system (eV)
  ---------------------------------------------------
  alpha Z        PSCENC =       120.87645803
  Ewald energy   TEWEN  =     37628.60337540
  -Hartree energ DENC   =    -42595.98225378
  -exchange      EXHF   =         0.00000000
  -V(xc)+E(xc)   XCENC  =       171.37897082
  PAW double counting   =      4185.69673888    -4723.28213095
  entropy T*S    EENTRO =        -0.01308037
  eigenvalues    EBANDS =      -383.65779240
  atomic energy  EATOM  =      5575.94961827
  Solvation  Ediel_sol  =         0.00000000
  ---------------------------------------------------
  free energy    TOTEN  =       -20.43009610 eV

  energy without entropy =      -20.41701573  energy(sigma->0) =      -20.42355592


--------------------------------------------------------------------------------------------------------




--------------------------------------- Iteration      1(   7)  ---------------------------------------


    POTLOK:  cpu time    0.0120: real time    0.0148
    SETDIJ:  cpu time    0.0040: real time    0.0032
    EDDIAG:  cpu time    0.1180: real time    0.1186
  RMM-DIIS:  cpu time    0.3689: real time    0.3682
    ORTHCH:  cpu time    0.0140: real time    0.0150
       DOS:  cpu time    0.0060: real time    0.0061
    CHARGE:  cpu time    0.0350: real time    0.0344
    MIXING:  cpu time    0.0010: real time    0.0005
    --------------------------------------------
      LOOP:  cpu time    0.5589: real time    0.5608

 eigenvalue-minimisations  :  1921
 total energy-change (2. order) : 0.2857298E+01  (-0.1001335E+01)
 number of electron      45.0000036 magnetization 
 augmentation part       28.5553215 magnetization 

 Broyden mixing:
  rms(total) = 0.61062E+00    rms(broyden)= 0.60987E+00
  rms(prec ) = 0.10005E+01
  weight for this iteration     100.00

 eigenvalues of (default mixing * dielectric matrix)
  average eigenvalue GAMMA=   0.3978
  0.6312  0.1643

 Free energy of the ion-electron system (eV)
  ---------------------------------------------------
  alpha Z        PSCENC =       120.87645803
  Ewald energy   TEWEN  =     37628.60337540
  -Hartree energ DENC   =    -42687.43808052
  -exchange      EXHF   =         0.00000000
  -V(xc)+E(xc)   XCENC  =       173.14515694
  PAW double counting   =      4297.24151480    -4861.07516872
  entropy T*S    EENTRO =        -0.02129667
  eigenvalues    EBANDS =      -264.85437590
  atomic energy  EATOM  =      5575.94961827
  Solvation  Ediel_sol  =         0.00000000
  ---------------------------------------------------
  free energy    TOTEN  =       -17.57279836 eV

  energy without entropy =      -17.55150170  energy(sigma->0) =      -17.56215003


--------------------------------------------------------------------------------------------------------




--------------------------------------- Iteration      1(   8)  ---------------------------------------


    POTLOK:  cpu time    0.0110: real time    0.0114
    SETDIJ:  cpu time    0.0030: real time    0.0032
    EDDIAG:  cpu time    0.1180: real time    0.1183
  RMM-DIIS:  cpu time    0.3629: real time    0.3627
    ORTHCH:  cpu time    0.0150: real time    0.0148
       DOS:  cpu time    0.0060: real time    0.0060
    CHARGE:  cpu time    0.0340: real time    0.0340
    MIXING:  cpu time    0.0000: real time    0.0005
    --------------------------------------------
      LOOP:  cpu time    0.5499: real time    0.5509

 eigenvalue-minimisations  :  1904
 total energy-change (2. order) : 0.1373292E+01  (-0.6024778E-01)
 number of electron      45.0000038 magnetization 
 augmentation part       28.7937122 magnetization 

 Broyden mixing:
  rms(total) = 0.23662E+00    rms(broyden)= 0.23518E+00
  rms(prec ) = 0.26194E+00
  weight for this iteration     100.00

 eigenvalues of (default mixing * dielectric matrix)
  average eigenvalue GAMMA=   0.5010
  0.8234  0.5096  0.1701

 Free energy of the ion-electron system (eV)
  ---------------------------------------------------
  alpha Z        PSCENC =       120.87645803
  Ewald energy   TEWEN  =     37628.60337540
  -Hartree energ DENC   =    -42683.56124910
  -exchange      EXHF   =         0.00000000
  -V(xc)+E(xc)   XCENC  =       173.13406797
  PAW double counting   =      4304.29269917    -4870.06997171
  entropy T*S    EENTRO =        -0.01387141
  eigenvalues    EBANDS =      -265.41063288
  atomic energy  EATOM  =      5575.94961827
  Solvation  Ediel_sol  =         0.00000000
  ---------------------------------------------------
  free energy    TOTEN  =       -16.19950627 eV

  energy without entropy =      -16.18563485  energy(sigma->0) =      -16.19257056


--------------------------------------------------------------------------------------------------------




--------------------------------------- Iteration      1(   9)  ---------------------------------------


    POTLOK:  cpu time    0.0120: real time    0.0131
    SETDIJ:  cpu time    0.0040: real time    0.0033
    EDDIAG:  cpu time    0.1170: real time    0.1177
  RMM-DIIS:  cpu time    0.3589: real time    0.3588
    ORTHCH:  cpu time    0.0150: real time    0.0149
       DOS:  cpu time    0.0060: real time    0.0059
    CHARGE:  cpu time    0.0340: real time    0.0340
    MIXING:  cpu time    0.0010: real time    0.0006
    --------------------------------------------
      LOOP:  cpu time    0.5479: real time    0.5482

 eigenvalue-minimisations  :  1874
 total energy-change (2. order) : 0.1028770E+00  (-0.1710278E-01)
 number of electron      45.0000037 magnetization 
 augmentation part       28.7938539 magnetization 

 Broyden mixing:
  rms(total) = 0.11200E+00    rms(broyden)= 0.11190E+00
  rms(prec ) = 0.15060E+00
  weight for this iteration     100.00

 eigenvalues of (default mixing * dielectric matrix)
  average eigenvalue GAMMA=   0.6019
  1.2152  0.1995  0.5549  0.4379

 Free energy of the ion-electron system (eV)
  ---------------------------------------------------
  alpha Z        PSCENC =       120.87645803
  Ewald energy   TEWEN  =     37628.60337540
  -Hartree energ DENC   =    -42680.55427511
  -exchange      EXHF   =         0.00000000
  -V(xc)+E(xc)   XCENC  =       173.08419510
  PAW double counting   =      4322.13780434    -4891.01506658
  entropy T*S    EENTRO =        -0.01221026
  eigenvalues    EBANDS =      -265.16652849
  atomic energy  EATOM  =      5575.94961827
  Solvation  Ediel_sol  =         0.00000000
  ---------------------------------------------------
  free energy    TOTEN  =       -16.09662931 eV

  energy without entropy =      -16.08441905  energy(sigma->0) =      -16.09052418


--------------------------------------------------------------------------------------------------------




--------------------------------------- Iteration      1(  10)  ---------------------------------------


    POTLOK:  cpu time    0.0110: real time    0.0118
    SETDIJ:  cpu time    0.0030: real time    0.0032
    EDDIAG:  cpu time    0.1180: real time    0.1178
  RMM-DIIS:  cpu time    0.3599: real time    0.3598
    ORTHCH:  cpu time    0.0150: real time    0.0149
       DOS:  cpu time    0.0060: real time    0.0059
    CHARGE:  cpu time    0.0340: real time    0.0342
    MIXING:  cpu time    0.0010: real time    0.0012
    --------------------------------------------
      LOOP:  cpu time    0.5479: real time    0.5489

 eigenvalue-minimisations  :  1906
 total energy-change (2. order) : 0.1395409E-01  (-0.4825039E-02)
 number of electron      45.0000038 magnetization 
 augmentation part       28.7303746 magnetization 

 Broyden mixing:
  rms(total) = 0.11152E+00    rms(broyden)= 0.11141E+00
  rms(prec ) = 0.12923E+00
  weight for this iteration     100.00

 eigenvalues of (default mixing * dielectric matrix)
  average eigenvalue GAMMA=   0.7090
  1.9082  0.5838  0.5838  0.1982  0.2709

 Free energy of the ion-electron system (eV)
  ---------------------------------------------------
  alpha Z        PSCENC =       120.87645803
  Ewald energy   TEWEN  =     37628.60337540
  -Hartree energ DENC   =    -42685.89589946
  -exchange      EXHF   =         0.00000000
  -V(xc)+E(xc)   XCENC  =       172.97179700
  PAW double counting   =      4345.29562132    -4917.47100934
  entropy T*S    EENTRO =        -0.01490537
  eigenvalues    EBANDS =      -256.39773108
  atomic energy  EATOM  =      5575.94961827
  Solvation  Ediel_sol  =         0.00000000
  ---------------------------------------------------
  free energy    TOTEN  =       -16.08267522 eV

  energy without entropy =      -16.06776985  energy(sigma->0) =      -16.07522253


--------------------------------------------------------------------------------------------------------




--------------------------------------- Iteration      1(  11)  ---------------------------------------


    POTLOK:  cpu time    0.0110: real time    0.0137
    SETDIJ:  cpu time    0.0040: real time    0.0032
    EDDIAG:  cpu time    0.1170: real time    0.1180
  RMM-DIIS:  cpu time    0.3539: real time    0.3527
    ORTHCH:  cpu time    0.0140: real time    0.0149
       DOS:  cpu time    0.0060: real time    0.0059
    CHARGE:  cpu time    0.0340: real time    0.0341
    MIXING:  cpu time    0.0010: real time    0.0006
    --------------------------------------------
      LOOP:  cpu time    0.5409: real time    0.5431

 eigenvalue-minimisations  :  1866
 total energy-change (2. order) : 0.2545784E-01  (-0.3016825E-02)
 number of electron      45.0000037 magnetization 
 augmentation part       28.7416694 magnetization 

 Broyden mixing:
  rms(total) = 0.45805E-01    rms(broyden)= 0.45784E-01
  rms(prec ) = 0.53372E-01
  weight for this iteration     100.00

 eigenvalues of (default mixing * dielectric matrix)
  average eigenvalue GAMMA=   0.7319
  2.0188  0.7143  0.7143  0.4880  0.1988  0.2572

 Free energy of the ion-electron system (eV)
  ---------------------------------------------------
  alpha Z        PSCENC =       120.87645803
  Ewald energy   TEWEN  =     37628.60337540
  -Hartree energ DENC   =    -42684.84241681
  -exchange      EXHF   =         0.00000000
  -V(xc)+E(xc)   XCENC  =       172.86909319
  PAW double counting   =      4361.56429207    -4935.85487002
  entropy T*S    EENTRO =        -0.01318688
  eigenvalues    EBANDS =      -255.20958063
  atomic energy  EATOM  =      5575.94961827
  Solvation  Ediel_sol  =         0.00000000
  ---------------------------------------------------
  free energy    TOTEN  =       -16.05721738 eV

  energy without entropy =      -16.04403050  energy(sigma->0) =      -16.05062394


--------------------------------------------------------------------------------------------------------




--------------------------------------- Iteration      1(  12)  ---------------------------------------


    POTLOK:  cpu time    0.0110: real time    0.0116
    SETDIJ:  cpu time    0.0040: real time    0.0033
    EDDIAG:  cpu time    0.1180: real time    0.1181
  RMM-DIIS:  cpu time    0.3579: real time    0.3576
    ORTHCH:  cpu time    0.0140: real time    0.0149
       DOS:  cpu time    0.0060: real time    0.0059
    CHARGE:  cpu time    0.0340: real time    0.0340
    MIXING:  cpu time    0.0010: real time    0.0007
    --------------------------------------------
      LOOP:  cpu time    0.5459: real time    0.5460

 eigenvalue-minimisations  :  1890
 total energy-change (2. order) : 0.3972857E-02  (-0.9106968E-03)
 number of electron      45.0000037 magnetization 
 augmentation part       28.7732837 magnetization 

 Broyden mixing:
  rms(total) = 0.23066E-01    rms(broyden)= 0.23038E-01
  rms(prec ) = 0.25626E-01
  weight for this iteration     100.00

 eigenvalues of (default mixing * dielectric matrix)
  average eigenvalue GAMMA=   0.8147
  2.4097  1.1487  0.7198  0.5457  0.4104  0.1985  0.2702

 Free energy of the ion-electron system (eV)
  ---------------------------------------------------
  alpha Z        PSCENC =       120.87645803
  Ewald energy   TEWEN  =     37628.60337540
  -Hartree energ DENC   =    -42684.32968043
  -exchange      EXHF   =         0.00000000
  -V(xc)+E(xc)   XCENC  =       172.79823732
  PAW double counting   =      4367.87250517    -4942.67755914
  entropy T*S    EENTRO =        -0.01233406
  eigenvalues    EBANDS =      -255.13386509
  atomic energy  EATOM  =      5575.94961827
  Solvation  Ediel_sol  =         0.00000000
  ---------------------------------------------------
  free energy    TOTEN  =       -16.05324452 eV

  energy without entropy =      -16.04091046  energy(sigma->0) =      -16.04707749


--------------------------------------------------------------------------------------------------------




--------------------------------------- Iteration      1(  13)  ---------------------------------------


    POTLOK:  cpu time    0.0110: real time    0.0134
    SETDIJ:  cpu time    0.0040: real time    0.0032
    EDDIAG:  cpu time    0.1170: real time    0.1179
  RMM-DIIS:  cpu time    0.3619: real time    0.3612
    ORTHCH:  cpu time    0.0150: real time    0.0149
       DOS:  cpu time    0.0060: real time    0.0060
    CHARGE:  cpu time    0.0340: real time    0.0341
    MIXING:  cpu time    0.0010: real time    0.0007
    --------------------------------------------
      LOOP:  cpu time    0.5499: real time    0.5513

 eigenvalue-minimisations  :  1895
 total energy-change (2. order) : 0.9360119E-03  (-0.3094767E-03)
 number of electron      45.0000037 magnetization 
 augmentation part       28.7924560 magnetization 

 Broyden mixing:
  rms(total) = 0.18236E-01    rms(broyden)= 0.18217E-01
  rms(prec ) = 0.29735E-01
  weight for this iteration     100.00

 eigenvalues of (default mixing * dielectric matrix)
  average eigenvalue GAMMA=   0.8360
  2.4485  1.1994  0.9850  0.6709  0.5137  0.4061  0.1986  0.2658

 Free energy of the ion-electron system (eV)
  ---------------------------------------------------
  alpha Z        PSCENC =       120.87645803
  Ewald energy   TEWEN  =     37628.60337540
  -Hartree energ DENC   =    -42685.29750691
  -exchange      EXHF   =         0.00000000
  -V(xc)+E(xc)   XCENC  =       172.73323661
  PAW double counting   =      4374.75890991    -4950.14163409
  entropy T*S    EENTRO =        -0.01224573
  eigenvalues    EBANDS =      -253.52251999
  atomic energy  EATOM  =      5575.94961827
  Solvation  Ediel_sol  =         0.00000000
  ---------------------------------------------------
  free energy    TOTEN  =       -16.05230851 eV

  energy without entropy =      -16.04006278  energy(sigma->0) =      -16.04618564


--------------------------------------------------------------------------------------------------------




--------------------------------------- Iteration      1(  14)  ---------------------------------------


    POTLOK:  cpu time    0.0110: real time    0.0115
    SETDIJ:  cpu time    0.0030: real time    0.0032
    EDDIAG:  cpu time    0.1180: real time    0.1179
  RMM-DIIS:  cpu time    0.3619: real time    0.3612
    ORTHCH:  cpu time    0.0140: real time    0.0149
       DOS:  cpu time    0.0060: real time    0.0060
    CHARGE:  cpu time    0.0340: real time    0.0340
    MIXING:  cpu time    0.0010: real time    0.0007
    --------------------------------------------
      LOOP:  cpu time    0.5489: real time    0.5495

 eigenvalue-minimisations  :  1908
 total energy-change (2. order) : 0.9662408E-03  (-0.5890941E-04)
 number of electron      45.0000037 magnetization 
 augmentation part       28.7843219 magnetization 

 Broyden mixing:
  rms(total) = 0.95624E-02    rms(broyden)= 0.95051E-02
  rms(prec ) = 0.13051E-01
  weight for this iteration     100.00

 eigenvalues of (default mixing * dielectric matrix)
  average eigenvalue GAMMA=   0.9113
  2.2267  2.2267  0.8988  0.8988  0.6049  0.1986  0.4886  0.2634  0.3950

 Free energy of the ion-electron system (eV)
  ---------------------------------------------------
  alpha Z        PSCENC =       120.87645803
  Ewald energy   TEWEN  =     37628.60337540
  -Hartree energ DENC   =    -42687.37889222
  -exchange      EXHF   =         0.00000000
  -V(xc)+E(xc)   XCENC  =       172.73280553
  PAW double counting   =      4375.68590196    -4951.12441911
  entropy T*S    EENTRO =        -0.01297021
  eigenvalues    EBANDS =      -251.38321991
  atomic energy  EATOM  =      5575.94961827
  Solvation  Ediel_sol  =         0.00000000
  ---------------------------------------------------
  free energy    TOTEN  =       -16.05134227 eV

  energy without entropy =      -16.03837205  energy(sigma->0) =      -16.04485716


--------------------------------------------------------------------------------------------------------




--------------------------------------- Iteration      1(  15)  ---------------------------------------


    POTLOK:  cpu time    0.0120: real time    0.0132
    SETDIJ:  cpu time    0.0030: real time    0.0032
    EDDIAG:  cpu time    0.1180: real time    0.1180
  RMM-DIIS:  cpu time    0.3519: real time    0.3522
    ORTHCH:  cpu time    0.0140: real time    0.0148
       DOS:  cpu time    0.0060: real time    0.0060
    CHARGE:  cpu time    0.0350: real time    0.0342
    MIXING:  cpu time    0.0010: real time    0.0008
    --------------------------------------------
      LOOP:  cpu time    0.5409: real time    0.5424

 eigenvalue-minimisations  :  1827
 total energy-change (2. order) : 0.1080758E-03  (-0.8931217E-05)
 number of electron      45.0000037 magnetization 
 augmentation part       28.7859690 magnetization 

 Broyden mixing:
  rms(total) = 0.56749E-02    rms(broyden)= 0.56490E-02
  rms(prec ) = 0.87728E-02
  weight for this iteration     100.00

 eigenvalues of (default mixing * dielectric matrix)
  average eigenvalue GAMMA=   0.9967
  2.6356  2.6356  0.9791  0.8632  0.8632  0.6382  0.4924  0.1986  0.2637  0.3978

 Free energy of the ion-electron system (eV)
  ---------------------------------------------------
  alpha Z        PSCENC =       120.87645803
  Ewald energy   TEWEN  =     37628.60337540
  -Hartree energ DENC   =    -42688.76853262
  -exchange      EXHF   =         0.00000000
  -V(xc)+E(xc)   XCENC  =       172.74730200
  PAW double counting   =      4374.98107330    -4950.21562284
  entropy T*S    EENTRO =        -0.01280174
  eigenvalues    EBANDS =      -250.21210399
  atomic energy  EATOM  =      5575.94961827
  Solvation  Ediel_sol  =         0.00000000
  ---------------------------------------------------
  free energy    TOTEN  =       -16.05123419 eV

  energy without entropy =      -16.03843246  energy(sigma->0) =      -16.04483333


--------------------------------------------------------------------------------------------------------




--------------------------------------- Iteration      1(  16)  ---------------------------------------


    POTLOK:  cpu time    0.0110: real time    0.0119
    SETDIJ:  cpu time    0.0040: real time    0.0032
    EDDIAG:  cpu time    0.1180: real time    0.1187
  RMM-DIIS:  cpu time    0.3549: real time    0.3546
    ORTHCH:  cpu time    0.0150: real time    0.0150
       DOS:  cpu time    0.0060: real time    0.0059
    CHARGE:  cpu time    0.0340: real time    0.0344
    MIXING:  cpu time    0.0010: real time    0.0009
    --------------------------------------------
      LOOP:  cpu time    0.5439: real time    0.5447

 eigenvalue-minimisations  :  1833
 total energy-change (2. order) :-0.6959708E-06  (-0.2059258E-04)
 number of electron      45.0000037 magnetization 
 augmentation part       28.7835031 magnetization 

 Broyden mixing:
  rms(total) = 0.23984E-02    rms(broyden)= 0.23252E-02
  rms(prec ) = 0.30419E-02
  weight for this iteration     100.00

 eigenvalues of (default mixing * dielectric matrix)
  average eigenvalue GAMMA=   1.0321
  3.0987  2.5341  1.3316  0.9145  0.9145  0.6018  0.6018  0.1986  0.4954  0.2637
  0.3984

 Free energy of the ion-electron system (eV)
  ---------------------------------------------------
  alpha Z        PSCENC =       120.87645803
  Ewald energy   TEWEN  =     37628.60337540
  -Hartree energ DENC   =    -42690.54454900
  -exchange      EXHF   =         0.00000000
  -V(xc)+E(xc)   XCENC  =       172.75528197
  PAW double counting   =      4375.68106213    -4950.94145323
  entropy T*S    EENTRO =        -0.01280307
  eigenvalues    EBANDS =      -248.41822538
  atomic energy  EATOM  =      5575.94961827
  Solvation  Ediel_sol  =         0.00000000
  ---------------------------------------------------
  free energy    TOTEN  =       -16.05123489 eV

  energy without entropy =      -16.03843182  energy(sigma->0) =      -16.04483335


--------------------------------------------------------------------------------------------------------




--------------------------------------- Iteration      1(  17)  ---------------------------------------


    POTLOK:  cpu time    0.0120: real time    0.0129
    SETDIJ:  cpu time    0.0030: real time    0.0032
    EDDIAG:  cpu time    0.1190: real time    0.1191
  RMM-DIIS:  cpu time    0.3449: real time    0.3440
    ORTHCH:  cpu time    0.0140: real time    0.0149
       DOS:  cpu time    0.0060: real time    0.0060
    CHARGE:  cpu time    0.0340: real time    0.0342
    MIXING:  cpu time    0.0010: real time    0.0009
    --------------------------------------------
      LOOP:  cpu time    0.5339: real time    0.5352

 eigenvalue-minimisations  :  1790
 total energy-change (2. order) :-0.1697603E-03  (-0.6300412E-05)
 number of electron      45.0000037 magnetization 
 augmentation part       28.7851636 magnetization 

 Broyden mixing:
  rms(total) = 0.11931E-02    rms(broyden)= 0.10665E-02
  rms(prec ) = 0.15433E-02
  weight for this iteration     100.00
  WARNING: grid for Broyden might be to small

 eigenvalues of (default mixing * dielectric matrix)
  average eigenvalue GAMMA=   1.2227
  4.0820  2.8357  2.2341  1.0236  0.9301  0.9301  0.6404  0.6404  0.1986  0.4952
  0.2637  0.3982

 Free energy of the ion-electron system (eV)
  ---------------------------------------------------
  alpha Z        PSCENC =       120.87645803
  Ewald energy   TEWEN  =     37628.60337540
  -Hartree energ DENC   =    -42691.59757313
  -exchange      EXHF   =         0.00000000
  -V(xc)+E(xc)   XCENC  =       172.75301437
  PAW double counting   =      4375.52252615    -4950.77342915
  entropy T*S    EENTRO =        -0.01283968
  eigenvalues    EBANDS =      -247.37255492
  atomic energy  EATOM  =      5575.94961827
  Solvation  Ediel_sol  =         0.00000000
  ---------------------------------------------------
  free energy    TOTEN  =       -16.05140465 eV

  energy without entropy =      -16.03856497  energy(sigma->0) =      -16.04498481


--------------------------------------------------------------------------------------------------------




--------------------------------------- Iteration      1(  18)  ---------------------------------------


    POTLOK:  cpu time    0.0120: real time    0.0115
    SETDIJ:  cpu time    0.0030: real time    0.0032
    EDDIAG:  cpu time    0.1180: real time    0.1190
  RMM-DIIS:  cpu time    0.3080: real time    0.3082
    ORTHCH:  cpu time    0.0150: real time    0.0148
       DOS:  cpu time    0.0060: real time    0.0059
    CHARGE:  cpu time    0.0340: real time    0.0341
    MIXING:  cpu time    0.0010: real time    0.0009
    --------------------------------------------
      LOOP:  cpu time    0.4969: real time    0.4976

 eigenvalue-minimisations  :  1633
 total energy-change (2. order) :-0.1480451E-03  (-0.4048557E-05)
 number of electron      45.0000037 magnetization 
 augmentation part       28.7850059 magnetization 

 Broyden mixing:
  rms(total) = 0.72193E-03    rms(broyden)= 0.48567E-03
  rms(prec ) = 0.69449E-03
  weight for this iteration     100.00
  WARNING: grid for Broyden might be to small

 eigenvalues of (default mixing * dielectric matrix)
  average eigenvalue GAMMA=   1.3260
  4.7982  3.0314  2.4222  1.5177  0.9950  0.9225  0.9225  0.6364  0.6364  0.1986
  0.4953  0.2637  0.3982

 Free energy of the ion-electron system (eV)
  ---------------------------------------------------
  alpha Z        PSCENC =       120.87645803
  Ewald energy   TEWEN  =     37628.60337540
  -Hartree energ DENC   =    -42692.58371280
  -exchange      EXHF   =         0.00000000
  -V(xc)+E(xc)   XCENC  =       172.75478123
  PAW double counting   =      4375.05703366    -4950.31017263
  entropy T*S    EENTRO =        -0.01284144
  eigenvalues    EBANDS =      -246.38609241
  atomic energy  EATOM  =      5575.94961827
  Solvation  Ediel_sol  =         0.00000000
  ---------------------------------------------------
  free energy    TOTEN  =       -16.05155269 eV

  energy without entropy =      -16.03871125  energy(sigma->0) =      -16.04513197


--------------------------------------------------------------------------------------------------------




--------------------------------------- Iteration      1(  19)  ---------------------------------------


    POTLOK:  cpu time    0.0110: real time    0.0129
    SETDIJ:  cpu time    0.0040: real time    0.0032
    EDDIAG:  cpu time    0.1170: real time    0.1177
  RMM-DIIS:  cpu time    0.2820: real time    0.2807
    ORTHCH:  cpu time    0.0130: real time    0.0149
       DOS:  cpu time    0.0060: real time    0.0059
    CHARGE:  cpu time    0.0340: real time    0.0340
    MIXING:  cpu time    0.0020: real time    0.0010
    --------------------------------------------
      LOOP:  cpu time    0.4689: real time    0.4705

 eigenvalue-minimisations  :  1418
 total energy-change (2. order) :-0.4680533E-04  (-0.8648765E-06)
 number of electron      45.0000037 magnetization 
 augmentation part       28.7851258 magnetization 

 Broyden mixing:
  rms(total) = 0.75554E-03    rms(broyden)= 0.53439E-03
  rms(prec ) = 0.70736E-03
  weight for this iteration     100.00
  WARNING: grid for Broyden might be to small

 eigenvalues of (default mixing * dielectric matrix)
  average eigenvalue GAMMA=   1.4910
  5.8546  3.5958  2.5718  2.1782  1.2111  0.9829  0.9263  0.9263  0.6353  0.6353
  0.1986  0.2637  0.4953  0.3982

 Free energy of the ion-electron system (eV)
  ---------------------------------------------------
  alpha Z        PSCENC =       120.87645803
  Ewald energy   TEWEN  =     37628.60337540
  -Hartree energ DENC   =    -42693.00679552
  -exchange      EXHF   =         0.00000000
  -V(xc)+E(xc)   XCENC  =       172.75360539
  PAW double counting   =      4375.13091197    -4950.40246443
  entropy T*S    EENTRO =        -0.01285547
  eigenvalues    EBANDS =      -245.94345314
  atomic energy  EATOM  =      5575.94961827
  Solvation  Ediel_sol  =         0.00000000
  ---------------------------------------------------
  free energy    TOTEN  =       -16.05159950 eV

  energy without entropy =      -16.03874403  energy(sigma->0) =      -16.04517177


--------------------------------------------------------------------------------------------------------




--------------------------------------- Iteration      1(  20)  ---------------------------------------


    POTLOK:  cpu time    0.0110: real time    0.0114
    SETDIJ:  cpu time    0.0040: real time    0.0032
    EDDIAG:  cpu time    0.1170: real time    0.1178
  RMM-DIIS:  cpu time    0.2400: real time    0.2395
    ORTHCH:  cpu time    0.0140: real time    0.0150
       DOS:  cpu time    0.0060: real time    0.0060
    CHARGE:  cpu time    0.0350: real time    0.0342
    MIXING:  cpu time    0.0010: real time    0.0010
    --------------------------------------------
      LOOP:  cpu time    0.4279: real time    0.4281

 eigenvalue-minimisations  :  1164
 total energy-change (2. order) :-0.4495001E-04  (-0.2919453E-06)
 number of electron      45.0000037 magnetization 
 augmentation part       28.7852363 magnetization 

 Broyden mixing:
  rms(total) = 0.58865E-03    rms(broyden)= 0.24799E-03
  rms(prec ) = 0.28787E-03
  weight for this iteration     100.00
  WARNING: grid for Broyden might be to small

 eigenvalues of (default mixing * dielectric matrix)
  average eigenvalue GAMMA=   1.5876
  6.2739  4.0603  2.5887  2.5887  1.6993  1.1595  0.9264  0.9264  0.9644  0.6353
  0.6353  0.1986  0.2637  0.4953  0.3982

 Free energy of the ion-electron system (eV)
  ---------------------------------------------------
  alpha Z        PSCENC =       120.87645803
  Ewald energy   TEWEN  =     37628.60337540
  -Hartree energ DENC   =    -42693.30881744
  -exchange      EXHF   =         0.00000000
  -V(xc)+E(xc)   XCENC  =       172.75371823
  PAW double counting   =      4375.19929170    -4950.46773065
  entropy T*S    EENTRO =        -0.01284979
  eigenvalues    EBANDS =      -245.64470820
  atomic energy  EATOM  =      5575.94961827
  Solvation  Ediel_sol  =         0.00000000
  ---------------------------------------------------
  free energy    TOTEN  =       -16.05164445 eV

  energy without entropy =      -16.03879466  energy(sigma->0) =      -16.04521955


--------------------------------------------------------------------------------------------------------




--------------------------------------- Iteration      1(  21)  ---------------------------------------


    POTLOK:  cpu time    0.0110: real time    0.0115
    SETDIJ:  cpu time    0.0040: real time    0.0033
    EDDIAG:  cpu time    0.1180: real time    0.1182
  RMM-DIIS:  cpu time    0.2360: real time    0.2359
    ORTHCH:  cpu time    0.0140: real time    0.0150
       DOS:  cpu time    0.0060: real time    0.0060
    CHARGE:  cpu time    0.0340: real time    0.0340
    MIXING:  cpu time    0.0020: real time    0.0011
    --------------------------------------------
      LOOP:  cpu time    0.4249: real time    0.4249

 eigenvalue-minimisations  :  1092
 total energy-change (2. order) :-0.2161836E-04  (-0.8568747E-07)
 number of electron      45.0000037 magnetization 
 augmentation part       28.7849792 magnetization 

 Broyden mixing:
  rms(total) = 0.57973E-03    rms(broyden)= 0.22625E-03
  rms(prec ) = 0.27263E-03
  weight for this iteration     100.00
  WARNING: grid for Broyden might be to small

 eigenvalues of (default mixing * dielectric matrix)
  average eigenvalue GAMMA=   1.6578
  6.9452  4.5251  2.6555  2.6555  1.9943  1.2841  0.9245  0.9245  1.0455  0.9434
  0.6353  0.6353  0.1986  0.2637  0.4953  0.3982

 Free energy of the ion-electron system (eV)
  ---------------------------------------------------
  alpha Z        PSCENC =       120.87645803
  Ewald energy   TEWEN  =     37628.60337540
  -Hartree energ DENC   =    -42693.44122141
  -exchange      EXHF   =         0.00000000
  -V(xc)+E(xc)   XCENC  =       172.75444660
  PAW double counting   =      4375.20651504    -4950.46924548
  entropy T*S    EENTRO =        -0.01285769
  eigenvalues    EBANDS =      -245.51875482
  atomic energy  EATOM  =      5575.94961827
  Solvation  Ediel_sol  =         0.00000000
  ---------------------------------------------------
  free energy    TOTEN  =       -16.05166607 eV

  energy without entropy =      -16.03880837  energy(sigma->0) =      -16.04523722


--------------------------------------------------------------------------------------------------------




--------------------------------------- Iteration      1(  22)  ---------------------------------------


    POTLOK:  cpu time    0.0110: real time    0.0129
    SETDIJ:  cpu time    0.0040: real time    0.0032
    EDDIAG:  cpu time    0.1170: real time    0.1177
  RMM-DIIS:  cpu time    0.2340: real time    0.2333
    ORTHCH:  cpu time    0.0140: real time    0.0148
       DOS:  cpu time    0.0060: real time    0.0060
    CHARGE:  cpu time    0.0340: real time    0.0338
    MIXING:  cpu time    0.0010: real time    0.0011
    --------------------------------------------
      LOOP:  cpu time    0.4209: real time    0.4228

 eigenvalue-minimisations  :  1068
 total energy-change (2. order) :-0.1196878E-04  (-0.4177636E-07)
 number of electron      45.0000037 magnetization 
 augmentation part       28.7850107 magnetization 

 Broyden mixing:
  rms(total) = 0.57087E-03    rms(broyden)= 0.20238E-03
  rms(prec ) = 0.23289E-03
  weight for this iteration     100.00
  WARNING: grid for Broyden might be to small

 eigenvalues of (default mixing * dielectric matrix)
  average eigenvalue GAMMA=   1.7385
  7.6535  4.9162  2.9331  2.6327  2.4260  1.4769  0.9266  0.9266  1.0754  0.9807
  0.9807  0.1986  0.2637  0.6353  0.6353  0.3982  0.4953

 Free energy of the ion-electron system (eV)
  ---------------------------------------------------
  alpha Z        PSCENC =       120.87645803
  Ewald energy   TEWEN  =     37628.60337540
  -Hartree energ DENC   =    -42693.48623587
  -exchange      EXHF   =         0.00000000
  -V(xc)+E(xc)   XCENC  =       172.75447240
  PAW double counting   =      4375.20947386    -4950.47300697
  entropy T*S    EENTRO =        -0.01285328
  eigenvalues    EBANDS =      -245.47297987
  atomic energy  EATOM  =      5575.94961827
  Solvation  Ediel_sol  =         0.00000000
  ---------------------------------------------------
  free energy    TOTEN  =       -16.05167804 eV

  energy without entropy =      -16.03882476  energy(sigma->0) =      -16.04525140


--------------------------------------------------------------------------------------------------------




--------------------------------------- Iteration      1(  23)  ---------------------------------------


    POTLOK:  cpu time    0.0120: real time    0.0114
    SETDIJ:  cpu time    0.0030: real time    0.0032
    EDDIAG:  cpu time    0.1180: real time    0.1177
  RMM-DIIS:  cpu time    0.2250: real time    0.2247
    ORTHCH:  cpu time    0.0140: real time    0.0149
       DOS:  cpu time    0.0060: real time    0.0059
    CHARGE:  cpu time    0.0340: real time    0.0338
    MIXING:  cpu time    0.0010: real time    0.0011
    --------------------------------------------
      LOOP:  cpu time    0.4129: real time    0.4127

 eigenvalue-minimisations  :   999
 total energy-change (2. order) :-0.5151202E-05  (-0.1853006E-07)
 number of electron      45.0000037 magnetization 
 augmentation part       28.7850837 magnetization 

 Broyden mixing:
  rms(total) = 0.55871E-03    rms(broyden)= 0.16509E-03
  rms(prec ) = 0.16765E-03
  weight for this iteration     100.00
  WARNING: grid for Broyden might be to small

 eigenvalues of (default mixing * dielectric matrix)
  average eigenvalue GAMMA=   1.8367
  8.2953  5.4907  3.4167  2.5846  2.4091  2.0524  1.3950  0.1986  0.2637  0.3982
  0.4953  0.6353  0.6353  0.9265  0.9265  1.0068  1.0068  0.9233

 Free energy of the ion-electron system (eV)
  ---------------------------------------------------
  alpha Z        PSCENC =       120.87645803
  Ewald energy   TEWEN  =     37628.60337540
  -Hartree energ DENC   =    -42693.50188422
  -exchange      EXHF   =         0.00000000
  -V(xc)+E(xc)   XCENC  =       172.75422618
  PAW double counting   =      4375.19216820    -4950.45646451
  entropy T*S    EENTRO =        -0.01285510
  eigenvalues    EBANDS =      -245.45632544
  atomic energy  EATOM  =      5575.94961827
  Solvation  Ediel_sol  =         0.00000000
  ---------------------------------------------------
  free energy    TOTEN  =       -16.05168319 eV

  energy without entropy =      -16.03882809  energy(sigma->0) =      -16.04525564


--------------------------------------------------------------------------------------------------------




--------------------------------------- Iteration      1(  24)  ---------------------------------------


    POTLOK:  cpu time    0.0120: real time    0.0114
    SETDIJ:  cpu time    0.0030: real time    0.0032
    EDDIAG:  cpu time    0.1170: real time    0.1177
  RMM-DIIS:  cpu time    0.2060: real time    0.2050
    ORTHCH:  cpu time    0.0140: real time    0.0150
       DOS:  cpu time    0.0060: real time    0.0059
    CHARGE:  cpu time    0.0340: real time    0.0340
    MIXING:  cpu time    0.0020: real time    0.0012
    --------------------------------------------
      LOOP:  cpu time    0.3939: real time    0.3935

 eigenvalue-minimisations  :   741
 total energy-change (2. order) :-0.1604933E-05  (-0.3857820E-08)
 number of electron      45.0000037 magnetization 
 augmentation part       28.7850552 magnetization 

 Broyden mixing:
  rms(total) = 0.55739E-03    rms(broyden)= 0.16061E-03
  rms(prec ) = 0.16133E-03
  weight for this iteration     100.00
  WARNING: grid for Broyden might be to small

 eigenvalues of (default mixing * dielectric matrix)
  average eigenvalue GAMMA=   1.8741
  8.3774  5.8936  3.4783  2.8985  2.5793  2.2449  1.5190  0.1986  0.2637  0.3982
  0.4953  0.6353  0.6353  0.9272  0.9272  1.1762  1.0250  1.0250  0.9099

 Free energy of the ion-electron system (eV)
  ---------------------------------------------------
  alpha Z        PSCENC =       120.87645803
  Ewald energy   TEWEN  =     37628.60337540
  -Hartree energ DENC   =    -42693.51220182
  -exchange      EXHF   =         0.00000000
  -V(xc)+E(xc)   XCENC  =       172.75425426
  PAW double counting   =      4375.19356940    -4950.45831379
  entropy T*S    EENTRO =        -0.01285523
  eigenvalues    EBANDS =      -245.44558930
  atomic energy  EATOM  =      5575.94961827
  Solvation  Ediel_sol  =         0.00000000
  ---------------------------------------------------
  free energy    TOTEN  =       -16.05168479 eV

  energy without entropy =      -16.03882956  energy(sigma->0) =      -16.04525718


--------------------------------------------------------------------------------------------------------




--------------------------------------- Iteration      1(  25)  ---------------------------------------


    POTLOK:  cpu time    0.0110: real time    0.0132
    SETDIJ:  cpu time    0.0040: real time    0.0032
    EDDIAG:  cpu time    0.1170: real time    0.1176
  RMM-DIIS:  cpu time    0.1760: real time    0.1759
    ORTHCH:  cpu time    0.0140: real time    0.0149
       DOS:  cpu time    0.0060: real time    0.0060
    --------------------------------------------
      LOOP:  cpu time    0.3279: real time    0.3308

 eigenvalue-minimisations  :   284
 total energy-change (2. order) :-0.1110466E-06  (-0.1788161E-09)
 number of electron      45.0000037 magnetization 
 augmentation part       28.7850552 magnetization 

 Free energy of the ion-electron system (eV)
  ---------------------------------------------------
  alpha Z        PSCENC =       120.87645803
  Ewald energy   TEWEN  =     37628.60337540
  -Hartree energ DENC   =    -42693.51409082
  -exchange      EXHF   =         0.00000000
  -V(xc)+E(xc)   XCENC  =       172.75420215
  PAW double counting   =      4375.19410276    -4950.45884393
  entropy T*S    EENTRO =        -0.01285502
  eigenvalues    EBANDS =      -245.44365176
  atomic energy  EATOM  =      5575.94961827
  Solvation  Ediel_sol  =         0.00000000
  ---------------------------------------------------
  free energy    TOTEN  =       -16.05168490 eV

  energy without entropy =      -16.03882989  energy(sigma->0) =      -16.04525740


--------------------------------------------------------------------------------------------------------




 average (electrostatic) potential at core
  the test charge radii are     1.0053  0.5201
  (the norm of the test charge is              1.0000)
       1 -46.0420       2 -46.2501       3 -46.2621       4 -46.2285       5 -38.4721
 
 
 
 E-fermi :  -2.6499     XC(G=0):  -4.5384     alpha+bet : -2.7756


 k-point     1 :       0.0000    0.0000    0.0000
  band No.  band energies     occupation 
      1     -11.2839      2.00000
      2     -10.1421      2.00000
      3      -8.6673      2.00000
      4      -7.6871      2.00000
      5      -6.9988      2.00000
      6      -5.6519      2.00000
      7      -5.5675      2.00000
      8      -5.5216      2.00000
      9      -5.5211      2.00000
     10      -5.4818      2.00000
     11      -5.4804      2.00000
     12      -5.3520      2.00000
     13      -5.3505      2.00000
     14      -5.2525      2.00000
     15      -5.2518      2.00000
     16      -5.0757      2.00000
     17      -4.7711      2.00000
     18      -4.7698      2.00000
     19      -4.6713      2.00000
     20      -4.6707      2.00000
     21      -4.4374      2.00000
     22      -4.4348      2.00000
     23      -4.2401      2.00000
     24      -4.2386      2.00000
     25      -3.2157      2.00000
     26       0.1455      0.00000
     27       1.7580      0.00000
     28       2.3786      0.00000

 k-point     2 :       0.1000    0.0000    0.0000
  band No.  band energies     occupation 
      1     -10.9705      2.00000
      2      -9.8421      2.00000
      3      -8.3898      2.00000
      4      -7.4625      2.00000
      5      -6.8700      2.00000
      6      -5.7527      2.00000
      7      -5.6662      2.00000
      8      -5.6096      2.00000
      9      -5.4668      2.00000
     10      -5.4147      2.00000
     11      -5.4057      2.00000
     12      -5.4043      2.00000
     13      -5.3484      2.00000
     14      -5.2524      2.00000
     15      -5.2493      2.00000
[...]
      3      -7.0216      2.00000
      4      -6.6087      2.00000
      5      -6.3993      2.00000
      6      -6.2714      2.00000
      7      -5.9791      2.00000
      8      -5.7806      2.00000
      9      -5.6210      2.00000
     10      -5.4281      2.00000
     11      -5.3146      2.00000
     12      -5.2670      2.00000
     13      -5.1068      2.00000
     14      -4.9904      2.00000
     15      -4.9283      2.00000
     16      -4.7524      2.00000
     17      -4.6239      2.00000
     18      -4.5877      2.00000
     19      -4.5220      2.00000
     20      -4.4416      2.00000
     21      -4.3918      2.00000
     22      -4.2113      2.00000
     23      -3.9904      2.00000
     24      -2.4488      0.00447
     25      -0.0977      0.00000
     26       2.5405      0.00000
     27       4.4112      0.00000
     28       5.0312      0.00000

 k-point    24 :      -0.4000    0.3000    0.0000
  band No.  band energies     occupation 
      1      -6.5753      2.00000
      2      -6.5495      2.00000
      3      -6.4676      2.00000
      4      -6.3277      2.00000
      5      -6.3033      2.00000
      6      -6.1971      2.00000
      7      -6.0981      2.00000
      8      -5.7602      2.00000
      9      -5.7074      2.00000
     10      -5.4440      2.00000
     11      -5.3803      2.00000
     12      -5.3051      2.00000
     13      -5.2640      2.00000
     14      -5.0633      2.00000
     15      -4.8348      2.00000
     16      -4.7854      2.00000
     17      -4.7008      2.00000
     18      -4.3824      2.00000
     19      -4.2954      2.00000
     20      -4.2301      2.00000
     21      -1.8611      0.00000
     22      -0.7272      0.00000
     23       0.2114      0.00000
     24       1.5498      0.00000
     25       2.1407      0.00000
     26       2.2384      0.00000
     27       3.1132      0.00000
     28       3.4505      0.00000

 k-point    25 :      -0.3000    0.3000    0.0000
  band No.  band energies     occupation 
      1      -6.5766      2.00000
      2      -6.5524      2.00000
      3      -6.4678      2.00000
      4      -6.3230      2.00000
      5      -6.3050      2.00000
      6      -6.1950      2.00000
      7      -6.0991      2.00000
      8      -5.7625      2.00000
      9      -5.7046      2.00000
     10      -5.4466      2.00000
     11      -5.3856      2.00000
     12      -5.3061      2.00000
     13      -5.2641      2.00000
     14      -5.0435      2.00000
     15      -4.8381      2.00000
     16      -4.7931      2.00000
     17      -4.7005      2.00000
     18      -4.3829      2.00000
     19      -4.2953      2.00000
     20      -4.2291      2.00000
     21      -1.8636      0.00000
     22      -0.7276      0.00000
     23       0.2129      0.00000
     24       1.5588      0.00000
     25       2.1465      0.00000
     26       2.2545      0.00000
     27       3.1128      0.00000
     28       3.4250      0.00000

 k-point    26 :      -0.2000    0.3000    0.0000
  band No.  band energies     occupation 
      1      -7.0635      2.00000
      2      -6.8756      2.00000
      3      -6.6458      2.00000
      4      -6.4759      2.00000
      5      -6.2765      2.00000
      6      -6.1485      2.00000
      7      -6.0143      2.00000
      8      -5.8027      2.00000
      9      -5.7012      2.00000
     10      -5.4345      2.00000
     11      -5.3421      2.00000
     12      -5.3052      2.00000
     13      -5.1954      2.00000
     14      -5.0541      2.00000
     15      -4.8854      2.00000
     16      -4.7303      2.00000
     17      -4.6154      2.00000
     18      -4.4427      2.00000
     19      -4.2330      2.00000
     20      -4.1368      2.00000
     21      -2.8578      1.99672
     22      -2.6587      1.09919
     23      -1.8479      0.00000
     24      -0.1877      0.00000
     25       1.9225      0.00000
     26       3.0549      0.00000
     27       4.0965      0.00000
     28       5.3032      0.00000

 k-point    27 :      -0.1000    0.3000    0.0000
  band No.  band energies     occupation 
      1      -7.9230      2.00000
      2      -7.3696      2.00000
      3      -6.8501      2.00000
      4      -6.5780      2.00000
      5      -6.3642      2.00000
      6      -6.2511      2.00000
      7      -5.9730      2.00000
      8      -5.8012      2.00000
      9      -5.5616      2.00000
     10      -5.4643      2.00000
     11      -5.3283      2.00000
     12      -5.2500      2.00000
     13      -5.0972      2.00000
     14      -4.9686      2.00000
     15      -4.8525      2.00000
     16      -4.6602      2.00000
     17      -4.5817      2.00000
     18      -4.4079      2.00000
     19      -4.3075      2.00000
     20      -4.2211      2.00000
     21      -3.9788      2.00000
     22      -3.8561      2.00000
     23      -3.3006      2.00000
     24      -1.6279      0.00000
     25       0.8007      0.00000
     26       3.3289      0.00000
     27       4.3113      0.00000
     28       5.3617      0.00000

 k-point    28 :       0.0000    0.4000    0.0000
  band No.  band energies     occupation 
      1      -7.6168      2.00000
      2      -7.2912      2.00000
      3      -6.9367      2.00000
      4      -6.7248      2.00000
      5      -6.5695      2.00000
      6      -6.3359      2.00000
      7      -5.8829      2.00000
      8      -5.7186      2.00000
      9      -5.5466      2.00000
     10      -5.4007      2.00000
     11      -5.2102      2.00000
     12      -5.0168      2.00000
     13      -4.8292      2.00000
     14      -4.5880      2.00000
     15      -4.5260      2.00000
     16      -4.3389      2.00000
     17      -4.3148      2.00000
     18      -4.2383      2.00000
     19      -4.1946      2.00000
     20      -4.1218      2.00000
     21      -4.0981      2.00000
     22      -3.6203      2.00000
     23      -3.0404      2.00000
     24      -1.3160      0.00000
     25       0.7787      0.00000
     26       2.4359      0.00000
     27       3.3620      0.00000
     28       4.7330      0.00000

 k-point    29 :      -0.2000    0.4000    0.0000
  band No.  band energies     occupation 
      1      -6.8421      2.00000
      2      -6.8137      2.00000
      3      -6.5444      2.00000
      4      -6.4612      2.00000
      5      -6.3638      2.00000
      6      -6.1807      2.00000
      7      -6.0427      2.00000
      8      -5.7486      2.00000
      9      -5.6653      2.00000
     10      -5.4617      2.00000
     11      -5.3636      2.00000
     12      -5.1036      2.00000
     13      -5.0435      2.00000
     14      -4.9566      2.00000
     15      -4.8484      2.00000
     16      -4.6582      2.00000
     17      -4.5299      2.00000
     18      -4.3244      2.00000
     19      -4.2993      2.00000
     20      -4.1996      2.00000
     21      -1.9807      0.00000
     22      -0.9784      0.00000
     23      -0.5293      0.00000
     24       0.0400      0.00000
     25       0.5889      0.00000
     26       2.2011      0.00000
     27       3.3923      0.00000
     28       4.8412      0.00000

 k-point    30 :      -0.1000    0.4000    0.0000
  band No.  band energies     occupation 
      1      -7.2358      2.00000
      2      -7.0888      2.00000
      3      -6.7822      2.00000
      4      -6.6914      2.00000
      5      -6.5509      2.00000
      6      -6.3284      2.00000
      7      -5.8892      2.00000
      8      -5.6788      2.00000
      9      -5.5795      2.00000
     10      -5.4271      2.00000
     11      -5.2953      2.00000
     12      -4.9725      2.00000
     13      -4.8490      2.00000
     14      -4.7002      2.00000
     15      -4.5686      2.00000
     16      -4.4554      2.00000
     17      -4.3535      2.00000
     18      -4.2980      2.00000
     19      -4.2100      2.00000
     20      -4.1286      2.00000
     21      -2.8459      1.99443
     22      -2.5039      0.03899
     23      -1.9347      0.00000
     24      -0.6547      0.00000
     25       0.2221      0.00000
     26       1.9755      0.00000
     27       3.1288      0.00000
     28       4.4294      0.00000

 k-point    31 :       0.0000    0.5000    0.0000
  band No.  band energies     occupation 
      1      -7.3160      2.00000
      2      -7.1818      2.00000
      3      -6.8590      2.00000
      4      -6.7698      2.00000
      5      -6.7136      2.00000
      6      -6.3981      2.00000
      7      -5.8385      2.00000
      8      -5.6580      2.00000
      9      -5.5742      2.00000
     10      -5.4354      2.00000
     11      -5.0698      2.00000
     12      -5.0336      2.00000
     13      -4.6844      2.00000
     14      -4.5742      2.00000
     15      -4.3117      2.00000
     16      -4.2870      2.00000
     17      -4.2047      2.00000
     18      -4.1531      2.00000
     19      -4.0977      2.00000
     20      -3.9840      2.00000
     21      -2.8898      1.99931
     22      -2.2223      0.00000
     23      -1.7492      0.00000
     24      -1.2362      0.00000
     25      -0.9875      0.00000
     26       1.6698      0.00000
     27       2.7634      0.00000
     28       4.2101      0.00000


--------------------------------------------------------------------------------------------------------


 soft charge-density along one line, spin component           1
         0         1         2         3         4         5         6         7         8         9
 total charge-density along one line
 
 pseudopotential strength for first ion, spin component:           1
-11.027   0.000   0.000  -0.004   0.000   1.824  -0.000  -0.000
  0.000 -10.986   0.000   0.000  -0.005  -0.000   1.805  -0.000
  0.000   0.000 -10.981  -0.000  -0.000  -0.000  -0.000   1.802
 -0.004   0.000  -0.000 -10.985  -0.000   0.002  -0.000   0.000
  0.000  -0.005  -0.000  -0.000 -11.027  -0.000   0.002   0.000
  1.824  -0.000  -0.000   0.002  -0.000   0.738   0.000   0.000
 -0.000   1.805  -0.000  -0.000   0.002   0.000   0.747   0.000
 -0.000  -0.000   1.802   0.000   0.000   0.000   0.000   0.748
  0.002  -0.000   0.000   1.805   0.000  -0.001   0.000  -0.000
 -0.000   0.002   0.000   0.000   1.824   0.000  -0.001  -0.000
 -0.000  -0.000  -0.007   0.000  -0.000  -0.000   0.000   0.002
  0.000   0.000   0.000  -0.000   0.000  -0.000  -0.000  -0.000
  0.000  -0.009  -0.000  -0.000   0.000  -0.000   0.006   0.000
 -0.000   0.000  -0.010   0.000  -0.000  -0.000  -0.000   0.005
  0.000  -0.000  -0.000  -0.009   0.000  -0.000  -0.000  -0.000
 -0.000   0.005   0.000   0.000  -0.000   0.000  -0.002  -0.000
  0.000   0.000   0.005   0.000   0.000  -0.000  -0.000  -0.003
 -0.000   0.000   0.000   0.005  -0.000   0.000  -0.000  -0.000
 total augmentation occupancy for first ion, spin component:           1
  1.925   0.000   0.000  -0.003   0.000  -0.001   0.000   0.000   0.010   0.000   0.000   0.000   0.000   0.000   0.007   0.000
  0.000   1.934   0.000   0.000  -0.003   0.000  -0.037  -0.000   0.000   0.010  -0.000  -0.000  -0.001  -0.000   0.000  -0.004
  0.000   0.000   1.937   0.000  -0.000   0.000  -0.000  -0.027   0.000   0.000   0.017   0.038  -0.000   0.034   0.000   0.000
 -0.003   0.000   0.000   1.934   0.000   0.010   0.000   0.000  -0.037   0.000   0.000   0.000   0.000   0.000  -0.002   0.000
  0.000  -0.003  -0.000   0.000   1.925   0.000   0.010   0.000   0.000  -0.001   0.000  -0.000   0.006   0.000   0.000  -0.001
 -0.001   0.000   0.000   0.010   0.000   0.058   0.000   0.000   0.001   0.000   0.000   0.000   0.000   0.000   0.004   0.000
  0.000  -0.037  -0.000   0.000   0.010   0.000   0.039   0.000   0.000   0.001   0.000   0.000   0.029   0.000   0.000  -0.002
  0.000  -0.000  -0.027   0.000   0.000   0.000   0.000   0.056   0.000  -0.000  -0.081   0.014   0.000   0.042   0.000  -0.000
  0.010   0.000   0.000  -0.037   0.000   0.001   0.000   0.000   0.039   0.000   0.000   0.000   0.000   0.000   0.030   0.000
  0.000   0.010   0.000   0.000  -0.001   0.000   0.001  -0.000   0.000   0.058  -0.000  -0.000   0.004  -0.000   0.000  -0.000
  0.000  -0.000   0.017   0.000   0.000   0.000   0.000  -0.081   0.000  -0.000   1.233  -0.279   0.000   0.064   0.000  -0.000
  0.000  -0.000   0.038   0.000  -0.000   0.000   0.000   0.014   0.000  -0.000  -0.279   0.107   0.000  -0.045   0.000   0.000
  0.000  -0.001  -0.000   0.000   0.006   0.000   0.029   0.000   0.000   0.004   0.000   0.000   0.165   0.000   0.000  -0.010
  0.000  -0.000   0.034   0.000   0.000   0.000   0.000   0.042   0.000  -0.000   0.064  -0.045   0.000   0.093   0.000  -0.000
  0.007   0.000   0.000  -0.002   0.000   0.004   0.000   0.000   0.030   0.000   0.000   0.000   0.000   0.000   0.166   0.000
  0.000  -0.004   0.000   0.000  -0.001   0.000  -0.002  -0.000   0.000  -0.000  -0.000   0.000  -0.010  -0.000   0.000   0.001
  0.000  -0.000  -0.008   0.000   0.000   0.000   0.000  -0.002   0.000   0.000  -0.013   0.005  -0.000  -0.006   0.000   0.000
 -0.001   0.000   0.000  -0.004   0.000  -0.000   0.000   0.000  -0.002   0.000   0.000   0.000   0.000   0.000  -0.010   0.000


------------------------ aborting loop because EDIFF is reached ----------------------------------------


 


 total charge     
 
# of ion       s       p       d       tot
------------------------------------------
    1        0.453   0.281   9.221   9.954
    2        0.444   0.364   9.216  10.025
    3        0.445   0.379   9.202  10.026
    4        0.446   0.340   9.183   9.969
    5        0.404   0.005   0.000   0.409
--------------------------------------------------
tot          2.193   1.368  36.821  40.382
 
    CHARGE:  cpu time    0.0330: real time    0.0337
    FORLOC:  cpu time    0.0020: real time    0.0014
    FORNL :  cpu time    0.1750: real time    0.1753
    STRESS:  cpu time    0.5299: real time    0.5294
    FORCOR:  cpu time    0.0110: real time    0.0117
    FORHAR:  cpu time    0.0040: real time    0.0031
    MIXING:  cpu time    0.0010: real time    0.0012
    OFIELD:  cpu time    0.0000: real time    0.0000

  FORCE on cell =-STRESS in cart. coord.  units (eV):
  Direction    XX          YY          ZZ          XY          YZ          ZX
  --------------------------------------------------------------------------------------
  Alpha Z   120.87646   120.87646   120.87646
  Ewald   40535.00339 40535.14524-43441.54887    -0.00000    -1.72171     0.00000
  Hartree 41855.86352 41855.84113-41018.19342     0.00003    -0.66787    -0.00001
  E(xc)    -252.54794  -252.54143  -252.77472    -0.00247    -0.01020     0.00017
  Local  -82658.40827-82658.44657 84192.05138     0.00533     2.24833    -0.00100
  n-local  -156.18321  -156.22319  -156.71623     2.55832    -0.02472     0.09242
  augment   225.93335   225.91589   225.85157    -0.01263     0.06729     0.00324
  Kinetic   323.78382   323.72957   322.39758   -10.66535     0.14105     0.21898
  Fock        0.00000     0.00000     0.00000     0.00000     0.00000     0.00000
  -------------------------------------------------------------------------------------
  Total      -5.67887    -5.70290    -8.05624     0.00000     0.03216     0.00000
  in kB     -52.33111   -52.55249   -74.23869     0.00000     0.29633     0.00000
  external pressure =      -59.71 kB  Pullay stress =        0.00 kB


 VOLUME and BASIS-vectors are now :
 -----------------------------------------------------------------------------
  energy-cutoff  :      250.00
  volume of cell :      173.87
      direct lattice vectors                 reciprocal lattice vectors
     2.573868684  0.000000000  0.000000000     0.388520209 -0.224312248  0.000000000
     1.286934342  2.229035666  0.000000000     0.000000000  0.448624495  0.000000000
     0.000000000  0.000000000 30.304664940     0.000000000  0.000000000  0.032998220

  length of vectors
     2.573868684  2.573868684 30.304664940     0.448624495  0.448624495  0.032998220


 FORCES acting on ions
    electron-ion (+dipol)            ewald-force                    non-local-force                 convergence-correction
 -----------------------------------------------------------------------------------------------
   -.250E-03 0.177E-01 0.420E+04   -.367E-07 0.133E-06 -.420E+04   0.000E+00 -.202E-01 -.119E+01   0.398E-09 0.393E-06 -.149E-03
   -.482E-04 -.541E-02 0.148E+04   0.102E-09 -.350E-05 -.148E+04   0.239E-17 0.555E-02 -.109E+01   0.257E-10 -.194E-05 -.132E-02
   0.417E-04 -.304E-01 -.125E+04   0.110E-06 -.107E-02 0.125E+04   0.173E-17 0.331E-01 -.304E+00   -.595E-11 0.388E-06 -.403E-02
   0.216E-03 -.135E+01 -.396E+04   -.730E-07 0.959E+00 0.396E+04   0.000E+00 0.377E+00 -.232E+01   0.851E-09 0.434E-05 -.336E-02
   -.176E-04 0.923E+00 -.474E+03   -.533E-10 -.958E+00 0.474E+03   0.173E-17 0.461E-01 -.111E+01   -.544E-10 -.678E-06 0.144E-05
 -----------------------------------------------------------------------------------------------
   -.581E-04 -.442E+00 0.603E+01   -.150E-12 0.336E-13 0.909E-12   0.585E-17 0.442E+00 -.602E+01   0.121E-08 0.250E-05 -.885E-02
 
 
 POSITION                                       TOTAL-FORCE (eV/Angst)
 -----------------------------------------------------------------------------------
      0.00000      0.00000     12.00000        -0.000000     -0.002500      0.096558
      1.28693      0.74301     14.10155        -0.000000      0.000101     -0.004124
      2.57387      1.48602     16.20311        -0.000000      0.001620     -0.012177
      0.00000      0.00000     18.30466         0.000000     -0.010988      1.452137
      1.28693      2.12904     20.10466        -0.000000      0.011767     -1.532394
 -----------------------------------------------------------------------------------
    total drift:                               -0.000058      0.000154      0.000218


--------------------------------------------------------------------------------------------------------



  FREE ENERGIE OF THE ION-ELECTRON SYSTEM (eV)
  ---------------------------------------------------
  free  energy   TOTEN  =       -16.05168490 eV

  energy  without entropy=      -16.03882989  energy(sigma->0) =      -16.04525740
 


--------------------------------------------------------------------------------------------------------


    POTLOK:  cpu time    0.0140: real time    0.0146


--------------------------------------------------------------------------------------------------------


     LOOP+:  cpu time   13.9919: real time   14.1460
    4ORBIT:  cpu time    0.0000: real time    0.0000
 


 total charge     
 
# of ion       s       p       d       tot
------------------------------------------
    1        0.453   0.281   9.221   9.954
    2        0.444   0.364   9.216  10.025
    3        0.445   0.379   9.202  10.026
    4        0.446   0.340   9.183   9.969
    5        0.404   0.005   0.000   0.409
--------------------------------------------------
tot          2.193   1.368  36.821  40.382
 

 total amount of memory used by VASP MPI-rank0    39168. kBytes
=======================================================================

   base      :      30000. kBytes
   nonlr-proj:        675. kBytes
   fftplans  :        995. kBytes
   grid      :       1592. kBytes
   one-center:         46. kBytes
   wavefun   :       5860. kBytes
 
  
  
 General timing and accounting informations for this job:
 ========================================================
  
                  Total CPU time used (sec):       15.358
                            User time (sec):       15.117
                          System time (sec):        0.241
                         Elapsed time (sec):       16.995
  
                   Maximum memory used (kb):       39664.
                   Average memory used (kb):           0.
  
                          Minor page faults:        17153
                          Major page faults:          190
                 Voluntary context switches:         3187
