PROCAR lm decomposed
# of k-points:   31         # of bands:   28         # of ions:    5

 k-point     1 :    0.00000000 0.00000000 0.00000000     weight = 0.01000000

band     1 # energy  -11.28387270 # occ.  2.00000000
 
ion      s     py     pz     px    dxy    dyz    dz2    dxz  x2-y2    tot
    1  0.059  0.000  0.006  0.000  0.000  0.000  0.000  0.000  0.000  0.066
    2  0.212  0.000  0.001  0.000  0.000  0.000  0.000  0.000  0.000  0.213
    3  0.220  0.000  0.001  0.000  0.000  0.000  0.000  0.000  0.000  0.221
    4  0.076  0.000  0.005  0.000  0.000  0.000  0.000  0.000  0.000  0.081
    5  0.003  0.000  0.000  0.000  0.000  0.000  0.000  0.000  0.000  0.003
tot    0.569  0.000  0.014  0.000  0.000  0.000  0.001  0.000  0.000  0.584
 
band     2 # energy  -10.14213645 # occ.  2.00000000
 
ion      s     py     pz     px    dxy    dyz    dz2    dxz  x2-y2    tot
    1  0.147  0.000  0.007  0.000  0.000  0.000  0.003  0.000  0.000  0.158
    2  0.103  0.000  0.015  0.000  0.000  0.000  0.004  0.000  0.000  0.122
    3  0.058  0.000  0.022  0.000  0.000  0.000  0.002  0.000  0.000  0.082
    4  0.188  0.000  0.002  0.000  0.000  0.000  0.002  0.000  0.000  0.192
    5  0.016  0.000  0.000  0.000  0.000  0.000  0.000  0.000  0.000  0.016
tot    0.512  0.000  0.045  0.000  0.000  0.000  0.012  0.000  0.000  0.569
 
band     3 # energy   -8.66734075 # occ.  2.00000000
 
ion      s     py     pz     px    dxy    dyz    dz2    dxz  x2-y2    tot
    1  0.147  0.000  0.000  0.000  0.000  0.000  0.040  0.000  0.000  0.186
    2  0.014  0.000  0.035  0.000  0.000  0.000  0.006  0.000  0.000  0.055
    3  0.086  0.000  0.016  0.000  0.000  0.000  0.034  0.000  0.000  0.136
    4  0.114  0.000  0.013  0.000  0.000  0.000  0.019  0.000  0.000  0.147
    5  0.043  0.000  0.000  0.000  0.000  0.000  0.000  0.000  0.000  0.043
tot    0.404  0.000  0.065  0.000  0.000  0.000  0.098  0.000  0.000  0.567
 
band     4 # energy   -7.68710591 # occ.  2.00000000
 
ion      s     py     pz     px    dxy    dyz    dz2    dxz  x2-y2    tot
    1  0.071  0.000  0.005  0.000  0.000  0.000  0.110  0.000  0.000  0.185
    2  0.082  0.000  0.000  0.000  0.000  0.000  0.227  0.000  0.000  0.309
    3  0.049  0.000  0.005  0.000  0.000  0.000  0.137  0.000  0.000  0.191
    4  0.008  0.000  0.015  0.000  0.000  0.000  0.008  0.000  0.000  0.031
    5  0.019  0.000  0.000  0.000  0.000  0.000  0.000  0.000  0.000  0.019
tot    0.228  0.000  0.026  0.000  0.000  0.000  0.482  0.000  0.000  0.736
 
band     5 # energy   -6.99880186 # occ.  2.00000000
 
ion      s     py     pz     px    dxy    dyz    dz2    dxz  x2-y2    tot
    1  0.000  0.000  0.000  0.000  0.000  0.000  0.000  0.000  0.000  0.000
    2  0.000  0.000  0.000  0.000  0.000  0.000  0.001  0.000  0.000  0.002
    3  0.000  0.000  0.004  0.000  0.000  0.000  0.058  0.000  0.000  0.062
    4  0.018  0.000  0.031  0.000  0.000  0.000  0.470  0.000  0.000  0.519
    5  0.116  0.000  0.001  0.000  0.000  0.000  0.000  0.000  0.000  0.116
tot    0.134  0.000  0.035  0.000  0.000  0.000  0.530  0.000  0.000  0.700
 
band     6 # energy   -5.65192181 # occ.  2.00000000
 
ion      s     py     pz     px    dxy    dyz    dz2    dxz  x2-y2    tot
    1  0.002  0.000  0.000  0.000  0.000  0.000  0.027  0.000  0.000  0.029
    2  0.000  0.000  0.011  0.000  0.000  0.000  0.135  0.000  0.000  0.147
    3  0.003  0.000  0.000  0.000  0.000  0.000  0.631  0.000  0.000  0.635
    4  0.001  0.000  0.007  0.000  0.000  0.000  0.118  0.000  0.000  0.126
    5  0.001  0.000  0.000  0.000  0.000  0.000  0.000  0.000  0.000  0.001
tot    0.007  0.000  0.019  0.000  0.000  0.000  0.911  0.000  0.000  0.937
 
band     7 # energy   -5.56753645 # occ.  2.00000000
 
ion      s     py     pz     px    dxy    dyz    dz2    dxz  x2-y2    tot
    1  0.000  0.000  0.007  0.000  0.000  0.000  0.390  0.000  0.000  0.397
    2  0.004  0.000  0.003  0.000  0.000  0.000  0.451  0.000  0.000  0.458
    3  0.002  0.000  0.010  0.000  0.000  0.000  0.002  0.000  0.000  0.014
    4  0.000  0.000  0.008  0.000  0.000  0.000  0.045  0.000  0.000  0.053
    5  0.003  0.000  0.000  0.000  0.000  0.000  0.000  0.000  0.000  0.003
tot    0.010  0.000  0.027  0.000  0.000  0.000  0.889  0.000  0.000  0.926
 
band     8 # energy   -5.52161510 # occ.  2.00000000
 
ion      s     py     pz     px    dxy    dyz    dz2    dxz  x2-y2    tot
    1  0.000  0.000  0.000  0.000  0.021  0.001  0.000  0.005  0.003  0.030
    2  0.000  0.000  0.000  0.000  0.325  0.002  0.000  0.012  0.048  0.387
    3  0.000  0.000  0.000  0.000  0.403  0.002  0.000  0.012  0.059  0.475
    4  0.000  0.000  0.000  0.000  0.052  0.001  0.000  0.011  0.007  0.071
    5  0.000  0.000  0.000  0.000  0.000  0.000  0.000  0.000  0.000  0.000
tot    0.000  0.000  0.000  0.000  0.801  0.006  0.000  0.040  0.117  0.964
 
band     9 # energy   -5.52111606 # occ.  2.00000000
 
ion      s     py     pz     px    dxy    dyz    dz2    dxz  x2-y2    tot
    1  0.000  0.000  0.000  0.000  0.003  0.006  0.000  0.001  0.021  0.030
    2  0.000  0.000  0.000  0.000  0.047  0.012  0.000  0.002  0.328  0.390
    3  0.000  0.000  0.000  0.000  0.059  0.012  0.000  0.002  0.402  0.475
    4  0.000  0.000  0.000  0.000  0.008  0.010  0.000  0.002  0.050  0.069
    5  0.000  0.000  0.000  0.000  0.000  0.000  0.000  0.000  0.000  0.000
tot    0.000  0.000  0.000  0.000  0.117  0.040  0.000  0.006  0.801  0.964
 
band    10 # energy   -5.48175511 # occ.  2.00000000
 
ion      s     py     pz     px    dxy    dyz    dz2    dxz  x2-y2    tot
    1  0.000  0.000  0.000  0.000  0.000  0.022  0.000  0.000  0.002  0.025
    2  0.000  0.000  0.000  0.000  0.005  0.063  0.000  0.001  0.389  0.458
    3  0.000  0.000  0.000  0.000  0.005  0.081  0.000  0.001  0.347  0.434
    4  0.000  0.000  0.000  0.000  0.000  0.034  0.000  0.000  0.017  0.051
    5  0.000  0.000  0.000  0.000  0.000  0.000  0.000  0.000  0.000  0.000
tot    0.000  0.000  0.000  0.000  0.010  0.200  0.000  0.003  0.755  0.968
 
band    11 # energy   -5.48042720 # occ.  2.00000000
 
ion      s     py     pz     px    dxy    dyz    dz2    dxz  x2-y2    tot
    1  0.000  0.000  0.000  0.000  0.002  0.000  0.000  0.022  0.000  0.025
    2  0.000  0.000  0.000  0.000  0.396  0.001  0.000  0.063  0.005  0.465
    3  0.000  0.000  0.000  0.000  0.346  0.001  0.000  0.080  0.005  0.431
    4  0.000  0.000  0.000  0.000  0.014  0.000  0.000  0.033  0.000  0.047
    5  0.000  0.000  0.000  0.000  0.000  0.000  0.000  0.000  0.000  0.000
tot    0.000  0.000  0.000  0.000  0.758  0.003  0.000  0.197  0.010  0.968
 
band    12 # energy   -5.35199824 # occ.  2.00000000
 
ion      s     py     pz     px    dxy    dyz    dz2    dxz  x2-y2    tot
    1  0.000  0.000  0.000  0.000  0.001  0.002  0.000  0.000  0.044  0.046
    2  0.000  0.000  0.000  0.000  0.001  0.006  0.000  0.000  0.096  0.104
    3  0.000  0.000  0.000  0.000  0.000  0.037  0.000  0.001  0.000  0.038
    4  0.000  0.000  0.000  0.000  0.012  0.004  0.000  0.000  0.765  0.781
    5  0.000  0.000  0.000  0.000  0.000  0.000  0.000  0.000  0.000  0.000
tot    0.000  0.000  0.000  0.000  0.014  0.049  0.000  0.001  0.905  0.968
 
band    13 # energy   -5.35051550 # occ.  2.00000000
 
ion      s     py     pz     px    dxy    dyz    dz2    dxz  x2-y2    tot
    1  0.000  0.000  0.000  0.000  0.047  0.000  0.000  0.002  0.001  0.049
    2  0.000  0.000  0.000  0.000  0.091  0.000  0.000  0.008  0.001  0.100
    3  0.000  0.000  0.000  0.000  0.000  0.001  0.000  0.037  0.000  0.038
    4  0.000  0.000  0.000  0.000  0.766  0.000  0.000  0.003  0.011  0.780
    5  0.000  0.000  0.000  0.000  0.000  0.000  0.000  0.000  0.000  0.000
tot    0.000  0.000  0.000  0.000  0.904  0.001  0.000  0.049  0.014  0.968
 
band    14 # energy   -5.25251388 # occ.  2.00000000
 
ion      s     py     pz     px    dxy    dyz    dz2    dxz  x2-y2    tot
    1  0.000  0.000  0.000  0.000  0.049  0.006  0.000  0.000  0.751  0.808
    2  0.000  0.000  0.000  0.000  0.000  0.054  0.000  0.004  0.006  0.065
    3  0.000  0.000  0.000  0.000  0.003  0.000  0.000  0.000  0.047  0.050
    4  0.000  0.000  0.000  0.000  0.003  0.004  0.000  0.000  0.039  0.046
    5  0.000  0.000  0.000  0.000  0.000  0.000  0.000  0.000  0.000  0.000
tot    0.000  0.000  0.000  0.000  0.056  0.065  0.000  0.004  0.843  0.969
 
band    15 # energy   -5.25181762 # occ.  2.00000000
 
ion      s     py     pz     px    dxy    dyz    dz2    dxz  x2-y2    tot
    1  0.000  0.000  0.000  0.000  0.749  0.000  0.000  0.006  0.050  0.805
    2  0.000  0.000  0.000  0.000  0.007  0.004  0.000  0.054  0.000  0.064
    3  0.000  0.000  0.000  0.000  0.048  0.000  0.000  0.000  0.003  0.051
    4  0.000  0.000  0.000  0.000  0.042  0.000  0.000  0.004  0.003  0.049
    5  0.000  0.000  0.000  0.000  0.000  0.000  0.000  0.000  0.000  0.000
tot    0.000  0.000  0.000  0.000  0.845  0.004  0.000  0.064  0.056  0.969
 
band    16 # energy   -5.07574976 # occ.  2.00000000
 
ion      s     py     pz     px    dxy    dyz    dz2    dxz  x2-y2    tot
    1  0.024  0.000  0.001  0.000  0.000  0.000  0.303  0.000  0.000  0.328
    2  0.013  0.000  0.035  0.000  0.000  0.000  0.048  0.000  0.000  0.096
    3  0.000  0.000  0.074  0.000  0.000  0.000  0.004  0.000  0.000  0.078
    4  0.009  0.000  0.037  0.000  0.000  0.000  0.172  0.000  0.000  0.219
    5  0.018  0.000  0.000  0.000  0.000  0.000  0.000  0.000  0.000  0.018
tot    0.064  0.000  0.146  0.000  0.000  0.000  0.527  0.000  0.000  0.739
 
band    17 # energy   -4.77108535 # occ.  2.00000000
 
ion      s     py     pz     px    dxy    dyz    dz2    dxz  x2-y2    tot
    1  0.000  0.000  0.000  0.000  0.034  0.000  0.000  0.004  0.000  0.038
    2  0.000  0.000  0.000  0.000  0.062  0.001  0.000  0.144  0.000  0.207
    3  0.000  0.000  0.000  0.000  0.083  0.002  0.000  0.415  0.000  0.500
    4  0.000  0.000  0.000  0.000  0.060  0.001  0.000  0.179  0.000  0.240
    5  0.000  0.000  0.000  0.000  0.000  0.000  0.000  0.000  0.000  0.000
tot    0.000  0.000  0.000  0.000  0.238  0.003  0.000  0.742  0.001  0.984
 
band    18 # energy   -4.76978209 # occ.  2.00000000
 
ion      s     py     pz     px    dxy    dyz    dz2    dxz  x2-y2    tot
    1  0.000  0.000  0.000  0.000  0.000  0.004  0.000  0.000  0.035  0.040
    2  0.000  0.000  0.000  0.000  0.000  0.150  0.000  0.001  0.062  0.213
    3  0.000  0.000  0.000  0.000  0.000  0.413  0.000  0.002  0.082  0.498
    4  0.000  0.000  0.000  0.000  0.000  0.170  0.000  0.001  0.063  0.234
    5  0.000  0.000  0.000  0.000  0.000  0.000  0.000  0.000  0.000  0.000
tot    0.000  0.000  0.000  0.000  0.001  0.737  0.000  0.003  0.242  0.984
 
band    19 # energy   -4.67125944 # occ.  2.00000000
 
ion      s     py     pz     px    dxy    dyz    dz2    dxz  x2-y2    tot
    1  0.000  0.000  0.000  0.000  0.001  0.145  0.000  0.001  0.054  0.201
    2  0.000  0.000  0.000  0.000  0.000  0.410  0.000  0.004  0.009  0.423
    3  0.000  0.000  0.000  0.000  0.000  0.020  0.000  0.000  0.000  0.021
    4  0.000  0.000  0.000  0.000  0.000  0.332  0.000  0.003  0.003  0.338
    5  0.000  0.000  0.000  0.000  0.000  0.000  0.000  0.000  0.000  0.000
tot    0.000  0.000  0.000  0.000  0.001  0.907  0.000  0.009  0.066  0.983
 
band    20 # energy   -4.67068620 # occ.  2.00000000
 
ion      s     py     pz     px    dxy    dyz    dz2    dxz  x2-y2    tot
    1  0.000  0.000  0.000  0.000  0.055  0.001  0.000  0.146  0.001  0.203
    2  0.000  0.000  0.000  0.000  0.009  0.004  0.000  0.417  0.000  0.431
    3  0.000  0.000  0.000  0.000  0.000  0.000  0.000  0.019  0.000  0.019
    4  0.000  0.000  0.000  0.000  0.002  0.003  0.000  0.325  0.000  0.330
    5  0.000  0.000  0.000  0.000  0.000  0.000  0.000  0.000  0.000  0.000
tot    0.000  0.000  0.000  0.000  0.066  0.009  0.000  0.907  0.001  0.984
 
band    21 # energy   -4.43736679 # occ.  2.00000000
 
ion      s     py     pz     px    dxy    dyz    dz2    dxz  x2-y2    tot
    1  0.000  0.000  0.000  0.000  0.000  0.317  0.000  0.000  0.001  0.318
    2  0.000  0.000  0.000  0.000  0.000  0.005  0.000  0.000  0.000  0.006
    3  0.000  0.000  0.000  0.000  0.000  0.272  0.000  0.000  0.012  0.284
    4  0.000  0.000  0.000  0.000  0.000  0.370  0.000  0.000  0.008  0.379
    5  0.000  0.000  0.000  0.000  0.000  0.000  0.000  0.000  0.000  0.000
tot    0.000  0.000  0.000  0.000  0.000  0.964  0.000  0.000  0.021  0.987
 
band    22 # energy   -4.43479462 # occ.  2.00000000
 
ion      s     py     pz     px    dxy    dyz    dz2    dxz  x2-y2    tot
    1  0.000  0.000  0.000  0.000  0.001  0.000  0.000  0.319  0.000  0.320
    2  0.000  0.000  0.000  0.000  0.000  0.000  0.000  0.005  0.000  0.005
    3  0.000  0.000  0.000  0.000  0.012  0.000  0.000  0.270  0.000  0.282
    4  0.000  0.000  0.000  0.000  0.009  0.000  0.000  0.370  0.000  0.379
    5  0.000  0.000  0.000  0.000  0.000  0.000  0.000  0.000  0.000  0.000
tot    0.000  0.000  0.000  0.000  0.022  0.000  0.000  0.964  0.000  0.987
 
band    23 # energy   -4.24010711 # occ.  2.00000000
 
ion      s     py     pz     px    dxy    dyz    dz2    dxz  x2-y2    tot
    1  0.000  0.000  0.000  0.000  0.000  0.479  0.000  0.001  0.007  0.487
    2  0.000  0.000  0.000  0.000  0.000  0.271  0.000  0.000  0.023  0.294
    3  0.000  0.000  0.000  0.000  0.000  0.144  0.000  0.000  0.010  0.154
    4  0.000  0.000  0.000  0.000  0.000  0.052  0.000  0.000  0.003  0.056
    5  0.000  0.000  0.000  0.000  0.000  0.000  0.000  0.000  0.000  0.000
tot    0.000  0.000  0.000  0.000  0.000  0.945  0.000  0.002  0.043  0.990
 
band    24 # energy   -4.23862685 # occ.  2.00000000
 
ion      s     py     pz     px    dxy    dyz    dz2    dxz  x2-y2    tot
    1  0.000  0.000  0.000  0.000  0.007  0.001  0.000  0.476  0.000  0.484
    2  0.000  0.000  0.000  0.000  0.023  0.000  0.000  0.270  0.000  0.293
    3  0.000  0.000  0.000  0.000  0.010  0.000  0.000  0.145  0.000  0.156
    4  0.000  0.000  0.000  0.000  0.004  0.000  0.000  0.054  0.000  0.057
    5  0.000  0.000  0.000  0.000  0.000  0.000  0.000  0.000  0.000  0.000
tot    0.000  0.000  0.000  0.000  0.043  0.002  0.000  0.945  0.000  0.990
 
band    25 # energy   -3.21570189 # occ.  2.00000000
 
ion      s     py     pz     px    dxy    dyz    dz2    dxz  x2-y2    tot
    1  0.023  0.000  0.148  0.000  0.000  0.000  0.036  0.000  0.000  0.207
    2  0.018  0.000  0.072  0.000  0.000  0.000  0.028  0.000  0.000  0.117
    3  0.015  0.000  0.027  0.000  0.000  0.000  0.023  0.000  0.000  0.064
    4  0.013  0.000  0.004  0.000  0.000  0.000  0.028  0.000  0.000  0.046
    5  0.006  0.000  0.000  0.000  0.000  0.000  0.000  0.000  0.000  0.006
tot    0.074  0.000  0.251  0.000  0.000  0.000  0.115  0.000  0.000  0.440
 
band    26 # energy    0.14547619 # occ.  0.00000000
 
ion      s     py     pz     px    dxy    dyz    dz2    dxz  x2-y2    tot
    1  0.004  0.000  0.012  0.000  0.000  0.000  0.005  0.000  0.000  0.021
    2  0.017  0.000  0.016  0.000  0.000  0.000  0.016  0.000  0.000  0.049
    3  0.044  0.000  0.026  0.000  0.000  0.000  0.039  0.000  0.000  0.108
    4  0.093  0.000  0.042  0.000  0.000  0.000  0.096  0.000  0.000  0.231
    5  0.037  0.000  0.005  0.000  0.000  0.000  0.000  0.000  0.000  0.042
tot    0.195  0.000  0.101  0.000  0.000  0.000  0.155  0.000  0.000  0.452
 
band    27 # energy    1.75795555 # occ.  0.00000000
 
ion      s     py     pz     px    dxy    dyz    dz2    dxz  x2-y2    tot
    1  0.018  0.000  0.003  0.000  0.000  0.000  0.018  0.000  0.000  0.039
    2  0.009  0.000  0.005  0.000  0.000  0.000  0.008  0.000  0.000  0.021
    3  0.002  0.000  0.006  0.000  0.000  0.000  0.002  0.000  0.000  0.009
    4  0.000  0.000  0.006  0.000  0.000  0.000  0.000  0.000  0.000  0.007
    5  0.000  0.000  0.000  0.000  0.000  0.000  0.000  0.000  0.000  0.000
tot    0.029  0.000  0.020  0.000  0.000  0.000  0.028  0.000  0.000  0.076
 
band    28 # energy    2.37863117 # occ.  0.00000000
 
ion      s     py     pz     px    dxy    dyz    dz2    dxz  x2-y2    tot
    1  0.001  0.000  0.002  0.000  0.000  0.000  0.001  0.000  0.000  0.003
    2  0.000  0.000  0.002  0.000  0.000  0.000  0.000  0.000  0.000  0.002
    3  0.002  0.000  0.001  0.000  0.000  0.000  0.002  0.000  0.000  0.005
    4  0.004  0.000  0.000  0.000  0.000  0.000  0.004  0.000  0.000  0.008
    5  0.004  0.000  0.000  0.000  0.000  0.000  0.000  0.000  0.000  0.004
tot    0.010  0.000  0.006  0.000  0.000  0.000  0.007  0.000  0.000  0.022
 

 k-point     2 :    0.10000000 0.00000000 0.00000000     weight = 0.04000000

band     1 # energy  -10.97052210 # occ.  2.00000000
 
ion      s     py     pz     px    dxy    dyz    dz2    dxz  x2-y2    tot
    1  0.057  0.000  0.006  0.001  0.000  0.000  0.000  0.000  0.000  0.066
    2  0.206  0.001  0.001  0.004  0.000  0.000  0.000  0.000  0.000  0.213
    3  0.214  0.002  0.001  0.005  0.000  0.000  0.000  0.000  0.000  0.221
    4  0.074  0.001  0.005  0.002  0.000  0.000  0.000  0.000  0.000  0.082
    5  0.003  0.000  0.000  0.000  0.000  0.000  0.000  0.000  0.000  0.003
tot    0.553  0.004  0.014  0.012  0.000  0.000  0.000  0.001  0.000  0.584
 
band     2 # energy   -9.84210379 # occ.  2.00000000
 
ion      s     py     pz     px    dxy    dyz    dz2    dxz  x2-y2    tot
    1  0.141  0.001  0.007  0.003  0.000  0.000  0.003  0.001  0.000  0.157
    2  0.100  0.001  0.015  0.002  0.000  0.000  0.004  0.001  0.000  0.123
    3  0.056  0.000  0.021  0.001  0.000  0.001  0.002  0.002  0.000  0.084
    4  0.182  0.001  0.002  0.004  0.000  0.000  0.001  0.000  0.000  0.190
    5  0.016  0.000  0.000  0.000  0.000  0.000  0.000  0.000  0.000  0.016
tot    0.495  0.004  0.045  0.011  0.000  0.001  0.010  0.004  0.000  0.570
 
band     3 # energy   -8.38984269 # occ.  2.00000000
 
ion      s     py     pz     px    dxy    dyz    dz2    dxz  x2-y2    tot
    1  0.139  0.001  0.000  0.004  0.000  0.000  0.038  0.000  0.000  0.182
    2  0.013  0.000  0.036  0.000  0.000  0.002  0.005  0.005  0.000  0.060
    3  0.082  0.001  0.016  0.002  0.000  0.001  0.033  0.002  0.000  0.137
    4  0.109  0.001  0.013  0.003  0.000  0.000  0.017  0.001  0.000  0.145
    5  0.045  0.000  0.000  0.000  0.000  0.000  0.000  0.000  0.000  0.045
tot    0.387  0.003  0.065  0.009  0.001  0.003  0.093  0.008  0.000  0.569
 
band     4 # energy   -7.46246614 # occ.  2.00000000
 
ion      s     py     pz     px    dxy    dyz    dz2    dxz  x2-y2    tot
    1  0.065  0.001  0.004  0.002  0.001  0.000  0.112  0.000  0.000  0.186
    2  0.072  0.001  0.000  0.003  0.001  0.000  0.237  0.000  0.000  0.315
    3  0.043  0.001  0.005  0.002  0.001  0.000  0.142  0.001  0.000  0.195
    4  0.007  0.000  0.014  0.000  0.000  0.001  0.009  0.002  0.000  0.033
    5  0.018  0.000  0.000  0.000  0.000  0.000  0.000  0.000  0.000  0.018
tot    0.206  0.003  0.024  0.008  0.002  0.001  0.499  0.003  0.001  0.747
 
band     5 # energy   -6.87003122 # occ.  2.00000000
 
ion      s     py     pz     px    dxy    dyz    dz2    dxz  x2-y2    tot
    1  0.000  0.000  0.000  0.000  0.000  0.000  0.000  0.000  0.000  0.000
    2  0.000  0.000  0.000  0.000  0.000  0.000  0.001  0.000  0.000  0.001
    3  0.000  0.000  0.004  0.000  0.002  0.000  0.062  0.000  0.001  0.069
    4  0.015  0.001  0.029  0.002  0.001  0.004  0.475  0.010  0.000  0.536
    5  0.109  0.000  0.001  0.000  0.000  0.000  0.000  0.000  0.000  0.110
tot    0.125  0.001  0.034  0.002  0.002  0.004  0.538  0.010  0.001  0.717
 
band     6 # energy   -5.75274484 # occ.  2.00000000
 
ion      s     py     pz     px    dxy    dyz    dz2    dxz  x2-y2    tot
    1  0.001  0.000  0.002  0.000  0.006  0.001  0.135  0.002  0.002  0.149
    2  0.001  0.000  0.009  0.000  0.104  0.022  0.022  0.066  0.035  0.257
    3  0.002  0.000  0.001  0.000  0.024  0.007  0.332  0.020  0.008  0.394
    4  0.001  0.000  0.006  0.000  0.013  0.003  0.097  0.007  0.004  0.132
    5  0.001  0.000  0.000  0.000  0.000  0.000  0.000  0.000  0.000  0.001
tot    0.006  0.000  0.018  0.001  0.146  0.032  0.586  0.095  0.049  0.933
 
band     7 # energy   -5.66616134 # occ.  2.00000000
 
ion      s     py     pz     px    dxy    dyz    dz2    dxz  x2-y2    tot
    1  0.003  0.000  0.002  0.000  0.021  0.001  0.046  0.004  0.007  0.085
    2  0.002  0.000  0.004  0.000  0.036  0.001  0.393  0.002  0.012  0.451
    3  0.000  0.000  0.014  0.000  0.045  0.030  0.118  0.091  0.015  0.314
    4  0.001  0.000  0.005  0.000  0.038  0.000  0.011  0.001  0.013  0.070
    5  0.004  0.000  0.000  0.000  0.000  0.000  0.000  0.000  0.000  0.004
tot    0.011  0.000  0.026  0.001  0.140  0.033  0.568  0.098  0.047  0.923
 
band     8 # energy   -5.60964047 # occ.  2.00000000
 
ion      s     py     pz     px    dxy    dyz    dz2    dxz  x2-y2    tot
    1  0.000  0.000  0.001  0.000  0.021  0.002  0.020  0.007  0.007  0.059
    2  0.000  0.000  0.001  0.000  0.195  0.010  0.003  0.031  0.065  0.305
    3  0.000  0.000  0.001  0.001  0.357  0.004  0.002  0.013  0.119  0.498
    4  0.000  0.000  0.000  0.000  0.050  0.005  0.006  0.015  0.016  0.092
    5  0.000  0.000  0.000  0.000  0.000  0.000  0.000  0.000  0.000  0.000
tot    0.001  0.000  0.002  0.001  0.624  0.022  0.031  0.066  0.208  0.954
 
band     9 # energy   -5.46684994 # occ.  2.00000000
 
ion      s     py     pz     px    dxy    dyz    dz2    dxz  x2-y2    tot
    1  0.001  0.000  0.002  0.000  0.010  0.013  0.038  0.037  0.004  0.105
    2  0.002  0.000  0.000  0.000  0.235  0.006  0.069  0.016  0.083  0.413
    3  0.001  0.000  0.010  0.000  0.119  0.001  0.052  0.003  0.043  0.228
    4  0.000  0.000  0.008  0.000  0.012  0.022  0.081  0.062  0.005  0.191
    5  0.002  0.000  0.000  0.000  0.000  0.000  0.000  0.000  0.000  0.002
tot    0.006  0.000  0.020  0.001  0.377  0.042  0.240  0.118  0.134  0.938
 
band    10 # energy   -5.41469219 # occ.  2.00000000
 
ion      s     py     pz     px    dxy    dyz    dz2    dxz  x2-y2    tot
    1  0.000  0.000  0.000  0.000  0.004  0.006  0.000  0.002  0.021  0.034
    2  0.000  0.000  0.000  0.000  0.074  0.021  0.000  0.006  0.233  0.333
    3  0.000  0.000  0.000  0.000  0.126  0.011  0.000  0.004  0.378  0.521
    4  0.000  0.000  0.000  0.000  0.019  0.019  0.000  0.006  0.033  0.077
    5  0.000  0.000  0.000  0.000  0.000  0.000  0.000  0.000  0.000  0.000
tot    0.000  0.001  0.000  0.000  0.224  0.057  0.000  0.019  0.665  0.966
 
band    11 # energy   -5.40569567 # occ.  2.00000000
 
ion      s     py     pz     px    dxy    dyz    dz2    dxz  x2-y2    tot
    1  0.000  0.000  0.000  0.000  0.083  0.006  0.010  0.003  0.041  0.142
    2  0.000  0.000  0.000  0.000  0.127  0.039  0.011  0.007  0.047  0.231
    3  0.000  0.000  0.000  0.000  0.019  0.061  0.021  0.003  0.045  0.150
    4  0.000  0.000  0.001  0.000  0.245  0.008  0.008  0.002  0.177  0.441
    5  0.000  0.000  0.000  0.000  0.000  0.000  0.000  0.000  0.000  0.000
tot    0.001  0.000  0.001  0.001  0.474  0.114  0.049  0.015  0.309  0.964
 
band    12 # energy   -5.40433336 # occ.  2.00000000
 
ion      s     py     pz     px    dxy    dyz    dz2    dxz  x2-y2    tot
    1  0.000  0.000  0.000  0.000  0.051  0.013  0.005  0.005  0.005  0.080
    2  0.000  0.000  0.000  0.000  0.026  0.032  0.005  0.041  0.257  0.361
    3  0.000  0.000  0.000  0.000  0.049  0.041  0.008  0.057  0.146  0.301
    4  0.000  0.000  0.000  0.000  0.190  0.018  0.004  0.008  0.005  0.225
    5  0.000  0.000  0.000  0.000  0.000  0.000  0.000  0.000  0.000  0.000
tot    0.000  0.001  0.000  0.000  0.316  0.103  0.022  0.111  0.413  0.967
 
band    13 # energy   -5.34843054 # occ.  2.00000000
 
ion      s     py     pz     px    dxy    dyz    dz2    dxz  x2-y2    tot
    1  0.004  0.000  0.002  0.000  0.064  0.000  0.290  0.001  0.021  0.383
    2  0.002  0.000  0.015  0.000  0.015  0.016  0.055  0.048  0.006  0.157
    3  0.000  0.000  0.018  0.000  0.090  0.015  0.046  0.044  0.032  0.245
    4  0.001  0.000  0.014  0.000  0.009  0.003  0.069  0.010  0.003  0.108
    5  0.006  0.000  0.000  0.000  0.000  0.000  0.000  0.000  0.000  0.006
tot    0.013  0.000  0.049  0.000  0.179  0.034  0.460  0.102  0.063  0.899
 
band    14 # energy   -5.25238599 # occ.  2.00000000
 
ion      s     py     pz     px    dxy    dyz    dz2    dxz  x2-y2    tot
    1  0.000  0.000  0.000  0.000  0.052  0.005  0.002  0.001  0.010  0.071
    2  0.000  0.000  0.000  0.000  0.031  0.007  0.001  0.002  0.112  0.153
    3  0.000  0.000  0.000  0.000  0.003  0.026  0.001  0.017  0.003  0.050
    4  0.000  0.000  0.000  0.000  0.130  0.005  0.000  0.001  0.557  0.694
    5  0.000  0.000  0.000  0.000  0.000  0.000  0.000  0.000  0.000  0.000
tot    0.000  0.001  0.001  0.000  0.215  0.043  0.004  0.021  0.683  0.969
 
band    15 # energy   -5.24929123 # occ.  2.00000000
 
ion      s     py     pz     px    dxy    dyz    dz2    dxz  x2-y2    tot
    1  0.003  0.000  0.000  0.000  0.366  0.000  0.053  0.001  0.159  0.583
    2  0.001  0.000  0.010  0.000  0.015  0.000  0.023  0.001  0.002  0.052
    3  0.000  0.000  0.011  0.000  0.008  0.018  0.017  0.029  0.005  0.087
    4  0.001  0.000  0.003  0.000  0.175  0.003  0.011  0.010  0.013  0.215
    5  0.001  0.000  0.000  0.000  0.000  0.000  0.000  0.000  0.000  0.001
tot    0.005  0.000  0.024  0.001  0.564  0.021  0.104  0.040  0.180  0.939
 
band    16 # energy   -5.15692437 # occ.  2.00000000
 
ion      s     py     pz     px    dxy    dyz    dz2    dxz  x2-y2    tot
    1  0.000  0.000  0.000  0.000  0.187  0.008  0.000  0.003  0.554  0.752
    2  0.000  0.000  0.000  0.000  0.001  0.059  0.000  0.020  0.002  0.081
    3  0.000  0.000  0.000  0.000  0.018  0.001  0.000  0.000  0.052  0.070
    4  0.000  0.000  0.000  0.000  0.015  0.007  0.000  0.002  0.042  0.067
    5  0.000  0.000  0.000  0.000  0.000  0.000  0.000  0.000  0.000  0.000
tot    0.000  0.001  0.000  0.000  0.220  0.075  0.000  0.025  0.650  0.970
 
band    17 # energy   -4.84026587 # occ.  2.00000000
 
ion      s     py     pz     px    dxy    dyz    dz2    dxz  x2-y2    tot
    1  0.000  0.000  0.000  0.000  0.038  0.019  0.004  0.046  0.013  0.121
    2  0.001  0.000  0.001  0.000  0.039  0.047  0.006  0.129  0.011  0.233
    3  0.001  0.000  0.001  0.000  0.056  0.052  0.003  0.223  0.013  0.349
    4  0.000  0.000  0.000  0.000  0.038  0.048  0.002  0.174  0.009  0.271
    5  0.000  0.000  0.000  0.000  0.000  0.000  0.000  0.000  0.000  0.000
tot    0.002  0.000  0.003  0.000  0.172  0.165  0.016  0.573  0.046  0.976
 
band    18 # energy   -4.81822953 # occ.  2.00000000
 
ion      s     py     pz     px    dxy    dyz    dz2    dxz  x2-y2    tot
    1  0.000  0.000  0.000  0.000  0.020  0.023  0.000  0.013  0.061  0.117
    2  0.000  0.000  0.000  0.000  0.012  0.119  0.000  0.042  0.043  0.216
    3  0.000  0.000  0.000  0.000  0.012  0.251  0.000  0.059  0.050  0.372
    4  0.000  0.000  0.000  0.000  0.018  0.147  0.000  0.042  0.069  0.275
    5  0.000  0.000  0.000  0.000  0.000  0.000  0.000  0.000  0.000  0.000
tot    0.000  0.000  0.000  0.000  0.062  0.541  0.000  0.155  0.223  0.981
 
band    19 # energy   -4.66329279 # occ.  2.00000000
 
ion      s     py     pz     px    dxy    dyz    dz2    dxz  x2-y2    tot
    1  0.001  0.000  0.003  0.000  0.017  0.151  0.004  0.137  0.025  0.338
    2  0.000  0.000  0.002  0.000  0.004  0.117  0.002  0.098  0.033  0.257
    3  0.001  0.000  0.001  0.000  0.003  0.035  0.006  0.014  0.030  0.090
    4  0.000  0.000  0.000  0.000  0.002  0.090  0.001  0.185  0.006  0.284
    5  0.000  0.000  0.000  0.000  0.000  0.000  0.000  0.000  0.000  0.000
tot    0.002  0.000  0.007  0.000  0.025  0.393  0.013  0.434  0.094  0.969
 
band    20 # energy   -4.66027813 # occ.  2.00000000
 
ion      s     py     pz     px    dxy    dyz    dz2    dxz  x2-y2    tot
    1  0.001  0.000  0.004  0.000  0.005  0.084  0.006  0.284  0.025  0.410
    2  0.000  0.000  0.004  0.000  0.036  0.134  0.002  0.019  0.002  0.197
    3  0.001  0.000  0.002  0.000  0.014  0.019  0.009  0.037  0.009  0.092
    4  0.000  0.000  0.000  0.000  0.003  0.198  0.001  0.055  0.004  0.262
    5  0.001  0.000  0.000  0.000  0.000  0.000  0.000  0.000  0.000  0.001
tot    0.003  0.000  0.010  0.000  0.059  0.436  0.019  0.394  0.040  0.961
 
band    21 # energy   -4.52471346 # occ.  2.00000000
 
ion      s     py     pz     px    dxy    dyz    dz2    dxz  x2-y2    tot
    1  0.012  0.000  0.010  0.000  0.013  0.039  0.083  0.134  0.005  0.298
    2  0.001  0.000  0.000  0.000  0.004  0.099  0.001  0.276  0.002  0.384
    3  0.001  0.000  0.001  0.000  0.005  0.000  0.017  0.003  0.002  0.029
    4  0.000  0.000  0.002  0.000  0.000  0.051  0.006  0.147  0.000  0.206
    5  0.003  0.000  0.000  0.000  0.000  0.000  0.000  0.000  0.000  0.003
tot    0.018  0.000  0.013  0.001  0.023  0.189  0.106  0.560  0.009  0.919
 
band    22 # energy   -4.43307713 # occ.  2.00000000
 
ion      s     py     pz     px    dxy    dyz    dz2    dxz  x2-y2    tot
    1  0.000  0.000  0.000  0.000  0.000  0.238  0.000  0.077  0.001  0.316
    2  0.000  0.000  0.000  0.000  0.002  0.003  0.000  0.003  0.006  0.013
    3  0.000  0.000  0.000  0.000  0.002  0.211  0.000  0.073  0.007  0.292
    4  0.000  0.000  0.000  0.000  0.003  0.266  0.000  0.089  0.008  0.365
    5  0.000  0.000  0.000  0.000  0.000  0.000  0.000  0.000  0.000  0.000
tot    0.000  0.000  0.000  0.000  0.008  0.717  0.000  0.241  0.021  0.987
 
band    23 # energy   -4.23442354 # occ.  2.00000000
 
ion      s     py     pz     px    dxy    dyz    dz2    dxz  x2-y2    tot
    1  0.000  0.000  0.000  0.000  0.002  0.335  0.000  0.112  0.007  0.456
    2  0.000  0.000  0.000  0.000  0.005  0.216  0.000  0.075  0.016  0.312
    3  0.000  0.000  0.000  0.000  0.003  0.114  0.000  0.039  0.008  0.164