<?xml version="1.0" encoding="ISO-8859-1"?>
<modeling>
 <generator>
  <i name="program" type="string">vasp </i>
  <i name="version" type="string">5.4.4.18Apr17-6-g9f103f2a35  </i>
  <i name="subversion" type="string">(build Jun 30 2017 11:15:00) complex            parallel </i>
  <i name="platform" type="string">STALLO_VASP_5.4.4 </i>
  <i name="date" type="string">2019 10 11 </i>
  <i name="time" type="string">11:19:47 </i>
 </generator>
 <incar>
  <i type="string" name="PREC">normal    ! low/normal/accurate</i>
  <i type="string" name="ALGO"> Fast      ! Algorithm for electronic re</i>
  <i type="int" name="ISPIN">     1</i>
  <i type="int" name="NELMIN">     4</i>
  <i name="EDIFF">      0.00000100</i>
  <i type="int" name="NSW">     0</i>
  <i name="ENCUT">    250.00000000</i>
  <i type="int" name="NEDOS">  2401</i>
  <i type="string" name="LREAL"> Auto      ! Projection in reciprocal sp</i>
  <i name="EMIN">    -17.00000000</i>
  <i name="EMAX">      7.00000000</i>
  <i type="int" name="ISMEAR">     0</i>
  <i name="SIGMA">      0.10000000</i>
  <i type="logical" name="LWAVE"> F  </i>
  <i type="int" name="LORBIT">    11</i>
  <i type="logical" name="LELF"> T  </i>
  <v type="int" name="KPOINT_BSE">    -1     0     0     0</v>
 </incar>
 <structure name="primitive_cell" >
  <crystal>
   <varray name="basis" >
    <v>       2.57386868       0.00000000       0.00000000 </v>
    <v>       1.28693434       2.22903567       0.00000000 </v>
    <v>       0.00000000       0.00000000      30.30466494 </v>
   </varray>
   <i name="volume">    173.86529028 </i>
   <varray name="rec_basis" >
    <v>       0.38852021      -0.22431225       0.00000000 </v>
    <v>       0.00000000       0.44862450       0.00000000 </v>
    <v>       0.00000000       0.00000000       0.03299822 </v>
   </varray>
  </crystal>
  <varray name="positions" >
   <v>       0.00000000       0.00000000       0.39597864 </v>
   <v>       0.33333333       0.33333333       0.46532621 </v>
   <v>      -0.33333334      -0.33333333      -0.46532621 </v>
   <v>       0.00000000       0.00000000      -0.39597864 </v>
   <v>       0.02243122      -0.04486245      -0.33658184 </v>
  </varray>
 </structure>
 <varray name="primitive_index" >
  <v type="int" >        1 </v>
  <v type="int" >        2 </v>
  <v type="int" >        3 </v>
  <v type="int" >        4 </v>
  <v type="int" >        5 </v>
 </varray>
 <kpoints>
  <generation param="Gamma">
   <v type="int" name="divisions">      10       10        1 </v>
   <v name="usershift">      0.00000000       0.00000000       0.00000000 </v>
   <v name="genvec1">      0.10000000       0.00000000       0.00000000 </v>
   <v name="genvec2">      0.00000000       0.10000000       0.00000000 </v>
   <v name="genvec3">      0.00000000       0.00000000       1.00000000 </v>
   <v name="shift">      0.00000000       0.00000000       0.00000000 </v>
  </generation>
  <varray name="kpointlist" >
   <v>       0.00000000       0.00000000       0.00000000 </v>
   <v>       0.10000000       0.00000000       0.00000000 </v>
   <v>       0.20000000      -0.00000000       0.00000000 </v>
   <v>       0.30000000      -0.00000000       0.00000000 </v>
   <v>       0.40000000      -0.00000000       0.00000000 </v>
   <v>       0.50000000      -0.00000000       0.00000000 </v>
   <v>       0.00000000       0.10000000       0.00000000 </v>
   <v>       0.20000000       0.10000000       0.00000000 </v>
   <v>       0.30000000       0.10000000       0.00000000 </v>
   <v>       0.40000000       0.10000000       0.00000000 </v>
   <v>       0.50000000       0.10000000       0.00000000 </v>
   <v>      -0.40000000       0.10000000       0.00000000 </v>
   <v>      -0.30000000       0.10000000       0.00000000 </v>
   <v>      -0.20000000       0.10000000       0.00000000 </v>
   <v>      -0.10000000       0.10000000       0.00000000 </v>
   <v>       0.00000000       0.20000000       0.00000000 </v>
   <v>       0.40000000       0.20000000       0.00000000 </v>
   <v>       0.50000000       0.20000000       0.00000000 </v>
   <v>      -0.40000000       0.20000000       0.00000000 </v>
   <v>      -0.30000000       0.20000000       0.00000000 </v>
   <v>      -0.20000000       0.20000000       0.00000000 </v>
   <v>      -0.10000000       0.20000000       0.00000000 </v>
   <v>       0.00000000       0.30000000       0.00000000 </v>
   <v>      -0.40000000       0.30000000       0.00000000 </v>
   <v>      -0.30000000       0.30000000       0.00000000 </v>
   <v>      -0.20000000       0.30000000       0.00000000 </v>
   <v>      -0.10000000       0.30000000       0.00000000 </v>
   <v>       0.00000000       0.40000000       0.00000000 </v>
   <v>      -0.20000000       0.40000000       0.00000000 </v>
   <v>      -0.10000000       0.40000000       0.00000000 </v>
   <v>       0.00000000       0.50000000       0.00000000 </v>
  </varray>
  <varray name="weights" >
   <v>       0.01000000 </v>
   <v>       0.04000000 </v>
   <v>       0.04000000 </v>
   <v>       0.04000000 </v>
   <v>       0.04000000 </v>
   <v>       0.02000000 </v>
   <v>       0.02000000 </v>
   <v>       0.02000000 </v>
   <v>       0.04000000 </v>
   <v>       0.04000000 </v>
   <v>       0.04000000 </v>
   <v>       0.04000000 </v>
   <v>       0.04000000 </v>
   <v>       0.04000000 </v>
   <v>       0.04000000 </v>
   <v>       0.02000000 </v>
   <v>       0.02000000 </v>
   <v>       0.04000000 </v>
   <v>       0.04000000 </v>
   <v>       0.04000000 </v>
   <v>       0.04000000 </v>
   <v>       0.04000000 </v>
   <v>       0.02000000 </v>
   <v>       0.02000000 </v>
   <v>       0.04000000 </v>
   <v>       0.04000000 </v>
   <v>       0.04000000 </v>
   <v>       0.02000000 </v>
   <v>       0.02000000 </v>
   <v>       0.04000000 </v>
   <v>       0.01000000 </v>
  </varray>
 </kpoints>
 <parameters>
  <separator name="general" >
   <i type="string" name="SYSTEM">unknown system</i>
   <i type="logical" name="LCOMPAT"> F  </i>
  </separator>
  <separator name="electronic" >
   <i type="string" name="PREC">normal</i>
   <i name="ENMAX">    250.00000000</i>
   <i name="ENAUG">    516.45600000</i>
   <i name="EDIFF">      0.00000100</i>
   <i type="int" name="IALGO">    68</i>
   <i type="int" name="IWAVPR">    10</i>
   <i type="int" name="NBANDS">    28</i>
   <i name="NELECT">     45.00000000</i>
   <i type="int" name="TURBO">     0</i>
   <i type="int" name="IRESTART">     0</i>
   <i type="int" name="NREBOOT">     0</i>
   <i type="int" name="NMIN">     0</i>
   <i name="EREF">      0.00000000</i>
   <separator name="electronic smearing" >
    <i type="int" name="ISMEAR">     0</i>
    <i name="SIGMA">      0.10000000</i>
    <i name="KSPACING">      0.50000000</i>
    <i type="logical" name="KGAMMA"> T  </i>
   </separator>
   <separator name="electronic projectors" >
    <i type="logical" name="LREAL"> T  </i>
    <v name="ROPT">     -0.00050000     -0.00050000</v>
    <i type="int" name="LMAXPAW">  -100</i>
    <i type="int" name="LMAXMIX">     2</i>
    <i type="logical" name="NLSPLINE"> F  </i>
   </separator>
   <separator name="electronic startup" >
    <i type="int" name="ISTART">     0</i>
    <i type="int" name="ICHARG">     2</i>
    <i type="int" name="INIWAV">     1</i>
   </separator>
   <separator name="electronic spin" >
    <i type="int" name="ISPIN">     1</i>
    <i type="logical" name="LNONCOLLINEAR"> F  </i>
    <v name="MAGMOM">      1.00000000      1.00000000      1.00000000      1.00000000      1.00000000</v>
    <i name="NUPDOWN">     -1.00000000</i>
    <i type="logical" name="LSORBIT"> F  </i>
    <v name="SAXIS">      0.00000000      0.00000000      1.00000000</v>
    <i type="logical" name="LSPIRAL"> F  </i>
    <v name="QSPIRAL">      0.00000000      0.00000000      0.00000000</v>
    <i type="logical" name="LZEROZ"> F  </i>
   </separator>
   <separator name="electronic exchange-correlation" >
    <i type="logical" name="LASPH"> F  </i>
    <i type="logical" name="LMETAGGA"> F  </i>
   </separator>
   <separator name="electronic convergence" >
    <i type="int" name="NELM">    60</i>
    <i type="int" name="NELMDL">    -5</i>
    <i type="int" name="NELMIN">     4</i>
    <i name="ENINI">    250.00000000</i>
    <separator name="electronic convergence detail" >
     <i type="logical" name="LDIAG"> T  </i>
     <i type="logical" name="LSUBROT"> F  </i>
     <i name="WEIMIN">      0.00000000</i>
     <i name="EBREAK">      0.00000001</i>
     <i name="DEPER">      0.30000000</i>
     <i type="int" name="NRMM">     4</i>
     <i name="TIME">      0.40000000</i>
    </separator>
   </separator>
   <separator name="electronic mixer" >
    <i name="AMIX">      0.40000000</i>
    <i name="BMIX">      1.00000000</i>
    <i name="AMIN">      0.10000000</i>
    <i name="AMIX_MAG">      1.60000000</i>
    <i name="BMIX_MAG">      1.00000000</i>
    <separator name="electronic mixer details" >
     <i type="int" name="IMIX">     4</i>
     <i type="logical" name="MIXFIRST"> F  </i>
     <i type="int" name="MAXMIX">   -45</i>
     <i name="WC">    100.00000000</i>
     <i type="int" name="INIMIX">     1</i>
     <i type="int" name="MIXPRE">     1</i>
     <i type="int" name="MREMOVE">     5</i>
    </separator>
   </separator>
   <separator name="electronic dipolcorrection" >
    <i type="logical" name="LDIPOL"> F  </i>
    <i type="logical" name="LMONO"> F  </i>
    <i type="int" name="IDIPOL">     0</i>
    <i name="EPSILON">      1.00000000</i>
    <v name="DIPOL">   -100.00000000   -100.00000000   -100.00000000</v>
    <i name="EFIELD">      0.00000000</i>
   </separator>
  </separator>
  <separator name="grids" >
   <i type="int" name="NGX">    10</i>
   <i type="int" name="NGY">    10</i>
   <i type="int" name="NGZ">   120</i>
   <i type="int" name="NGXF">    20</i>
   <i type="int" name="NGYF">    20</i>
   <i type="int" name="NGZF">   240</i>
   <i type="logical" name="ADDGRID"> F  </i>
  </separator>
  <separator name="ionic" >
   <i type="int" name="NSW">     0</i>
   <i type="int" name="IBRION">    -1</i>
   <i type="int" name="MDALGO">     0</i>
   <i type="int" name="ISIF">     2</i>
   <i name="PSTRESS">      0.00000000</i>
   <i name="EDIFFG">      0.00001000</i>
   <i type="int" name="NFREE">     0</i>
   <i name="POTIM">      0.50000000</i>
   <i name="SMASS">     -3.00000000</i>
   <i name="SCALEE">      1.00000000</i>
  </separator>
  <separator name="ionic md" >
   <i name="TEBEG">      0.00010000</i>
   <i name="TEEND">      0.00010000</i>
   <i type="int" name="NBLOCK">     1</i>
   <i type="int" name="KBLOCK">     1</i>
   <i type="int" name="NPACO">   256</i>
   <i name="APACO">     16.00000000</i>
  </separator>
  <separator name="symmetry" >
   <i type="int" name="ISYM">     2</i>
   <i name="SYMPREC">      0.00001000</i>
  </separator>
  <separator name="dos" >
   <i type="int" name="LORBIT">    11</i>
   <v name="RWIGS">     -1.00000000     -1.00000000</v>
   <i type="int" name="NEDOS">  2401</i>
   <i name="EMIN">    -17.00000000</i>
   <i name="EMAX">      7.00000000</i>
   <i name="EFERMI">      0.00000000</i>
  </separator>
  <separator name="writing" >
   <i type="int" name="NWRITE">     2</i>
   <i type="logical" name="LWAVE"> F  </i>
   <i type="logical" name="LDOWNSAMPLE"> F  </i>
   <i type="logical" name="LCHARG"> T  </i>
   <i type="logical" name="LPARD"> F  </i>
   <i type="logical" name="LVTOT"> F  </i>
   <i type="logical" name="LVHAR"> F  </i>
   <i type="logical" name="LELF"> T  </i>
   <i type="logical" name="LOPTICS"> F  </i>
   <v name="STM">      0.00000000      0.00000000      0.00000000      0.00000000      0.00000000      0.00000000      0.00000000</v>
  </separator>
  <separator name="performance" >
   <i type="int" name="NPAR">     2</i>
   <i type="int" name="NSIM">     4</i>
   <i type="int" name="NBLK">    -1</i>
   <i type="logical" name="LPLANE"> T  </i>
   <i type="logical" name="LSCALAPACK"> T  </i>
   <i type="logical" name="LSCAAWARE"> F  </i>
   <i type="logical" name="LSCALU"> F  </i>
   <i type="logical" name="LASYNC"> F  </i>
   <i type="logical" name="LORBITALREAL"> F  </i>
  </separator>
  <separator name="miscellaneous" >
   <i type="int" name="IDIOT">     3</i>
   <i type="int" name="ISPECIAL">     0</i>
   <i type="logical" name="LMUSIC"> F  </i>
   <v name="POMASS">     63.54600000      1.00000000</v>
   <v name="DARWINR">      0.00000000      0.00000000</v>
   <v name="DARWINV">      1.00000000      1.00000000</v>
   <i type="logical" name="LCORR"> T  </i>
  </separator>
  <i type="logical" name="GGA_COMPAT"> T  </i>
  <i type="logical" name="LBERRY"> F  </i>
  <i type="int" name="ICORELEVEL">     0</i>
  <i type="logical" name="LDAU"> F  </i>
  <i type="int" name="I_CONSTRAINED_M">     0</i>
  <separator name="electronic exchange-correlation" >
   <i type="string" name="GGA">--</i>
   <i type="int" name="VOSKOWN">     0</i>
   <i type="logical" name="LHFCALC"> F  </i>
   <i type="string" name="PRECFOCK"></i>
   <i type="logical" name="LSYMGRAD"> F  </i>
   <i type="logical" name="LHFONE"> F  </i>
   <i type="logical" name="LRHFCALC"> F  </i>
   <i type="logical" name="LTHOMAS"> F  </i>
   <i type="logical" name="LMODELHF"> F  </i>
   <i name="ENCUT4O">     -1.00000000</i>
   <i type="int" name="EXXOEP">     0</i>
   <i type="int" name="FOURORBIT">     0</i>
   <i name="AEXX">      0.00000000</i>
   <i name="HFALPHA">      0.00000000</i>
   <i name="MCALPHA">      0.00000000</i>
   <i name="ALDAX">      1.00000000</i>
   <i name="AGGAX">      1.00000000</i>
   <i name="ALDAC">      1.00000000</i>
   <i name="AGGAC">      1.00000000</i>
   <i type="int" name="NKREDX">     1</i>
   <i type="int" name="NKREDY">     1</i>
   <i type="int" name="NKREDZ">     1</i>
   <i type="logical" name="SHIFTRED"> F  </i>
   <i type="logical" name="ODDONLY"> F  </i>
   <i type="logical" name="EVENONLY"> F  </i>
   <i type="int" name="LMAXFOCK">     0</i>
   <i type="int" name="NMAXFOCKAE">     0</i>
   <i type="logical" name="LFOCKAEDFT"> F  </i>
   <i name="HFSCREEN">      0.00000000</i>
   <i name="HFSCREENC">      0.00000000</i>
   <i type="int" name="NBANDSGWLOW">     0</i>
  </separator>
  <separator name="vdW DFT" >
   <i type="logical" name="LUSE_VDW"> F  </i>
   <i name="Zab_VDW">     -0.84910000</i>
   <i name="PARAM1">      0.12340000</i>
   <i name="PARAM2">      1.00000000</i>
   <i name="PARAM3">      0.00000000</i>
  </separator>
  <separator name="model GW" >
   <i type="int" name="MODEL_GW">     0</i>
   <i name="MODEL_EPS0">     20.86383483</i>
   <i name="MODEL_ALPHA">      1.00000000</i>
  </separator>
  <separator name="linear response parameters" >
   <i type="logical" name="LEPSILON"> F  </i>
   <i type="logical" name="LRPA"> F  </i>
   <i type="logical" name="LNABLA"> F  </i>
   <i type="logical" name="LVEL"> F  </i>
   <i type="int" name="KINTER">     0</i>
   <i name="CSHIFT">      0.10000000</i>
   <i name="OMEGAMAX">     -1.00000000</i>
   <i name="DEG_THRESHOLD">      0.00200000</i>
   <i name="RTIME">     -0.10000000</i>
   <i name="WPLASMAI">      0.00000000</i>
   <v name="DFIELD">      0.00000000      0.00000000      0.00000000</v>
   <v name="WPLASMA">      0.00000000      0.00000000      0.00000000      0.00000000      0.00000000      0.00000000      0.00000000      0.00000000      0.00000000</v>
  </separator>
  <separator name="orbital magnetization" >
   <i type="logical" name="NUCIND"> F  </i>
   <v name="MAGPOS">      0.00000000      0.00000000      0.00000000</v>
   <i type="logical" name="LNICSALL"> T  </i>
   <i type="logical" name="ORBITALMAG"> F  </i>
   <i type="logical" name="LMAGBLOCH"> F  </i>
   <i type="logical" name="LCHIMAG"> F  </i>
   <i type="logical" name="LGAUGE"> T  </i>
   <i type="int" name="MAGATOM">     0</i>
   <v name="MAGDIPOL">      0.00000000      0.00000000      0.00000000</v>
   <v name="AVECCONST">      0.00000000      0.00000000      0.00000000</v>
  </separator>
  <separator name="response functions" >
   <i type="logical" name="LADDER"> F  </i>
   <i type="logical" name="LRPAFORCE"> F  </i>
   <i type="logical" name="LFXC"> F  </i>
   <i type="logical" name="LHARTREE"> T  </i>
   <i type="int" name="IBSE">     0</i>
   <v type="int" name="KPOINT">    -1     0     0     0</v>
   <i type="logical" name="LTCTE"> F  </i>
   <i type="logical" name="LTETE"> F  </i>
   <i type="logical" name="LTRIPLET"> F  </i>
   <i type="logical" name="LFXCEPS"> F  </i>
   <i type="logical" name="LFXHEG"> F  </i>
   <i type="int" name="NATURALO">     2</i>
   <i type="logical" name="L2ORDER"> F  </i>
   <i type="logical" name="LMP2LT"> F  </i>
   <i type="logical" name="LUSEW"> F  </i>
   <i name="ENCUTGW">     -2.00000000</i>
   <i name="ENCUTGWSOFT">     -2.00000000</i>
   <i name="ENCUTLF">     -1.00000000</i>
   <i type="int" name="LMAXMP2">    -1</i>
   <i name="SCISSOR">      0.00000000</i>
   <i type="int" name="NOMEGA">     0</i>
   <i type="int" name="NOMEGAR">     0</i>
   <i type="int" name="NBANDSGW">    -1</i>
   <i type="int" name="NBANDSO">    -1</i>
   <i type="int" name="NBANDSV">    -1</i>
   <i type="int" name="NELM">     1</i>
   <i type="int" name="NELMHF">     1</i>
   <i type="int" name="DIM">     3</i>
   <i type="int" name="ANTIRES">     0</i>
   <i name="OMEGAMAX">    -30.00000000</i>
   <i name="OMEGAMIN">    -30.00000000</i>
   <i name="OMEGATL">   -200.00000000</i>
   <i type="int" name="OMEGAGRID">   140</i>
   <i name="CSHIFT">     -0.10000000</i>
   <i type="logical" name="SELFENERGY"> F  </i>
   <i type="logical" name="LSPECTRAL"> F  </i>
   <i type="logical" name="LSPECTRALGW"> F  </i>
   <i type="logical" name="LSINGLES"> F  </i>
   <i type="logical" name="LFERMIGW"> F  </i>
   <i type="logical" name="ODDONLYGW"> F  </i>
   <i type="logical" name="EVENONLYGW"> F  </i>
   <i type="int" name="NKREDLFX">     1</i>
   <i type="int" name="NKREDLFY">     1</i>
   <i type="int" name="NKREDLFZ">     1</i>
   <i type="int" name="MAXMEM">  2800</i>
   <i type="int" name="TELESCOPE">     0</i>
   <i type="int" name="TAUPAR">     1</i>
   <i type="int" name="OMEGAPAR">    -1</i>
   <i name="LAMBDA">      1.00000000</i>
  </separator>
  <separator name="External order field" >
   <i name="OFIELD_KAPPA">      0.00000000</i>
   <v name="OFIELD_K">      0.00000000      0.00000000      0.00000000</v>
   <i name="OFIELD_Q6_NEAR">      0.00000000</i>
   <i name="OFIELD_Q6_FAR">      0.00000000</i>
   <i name="OFIELD_A">      0.00000000</i>
  </separator>
 </parameters>
 <atominfo>
  <atoms>       5 </atoms>
  <types>       2 </types>
  <array name="atoms" >
   <dimension dim="1">ion</dimension>
   <field type="string">element</field>
   <field type="int">atomtype</field>
   <set>
    <rc><c>Cu</c><c>   1</c></rc>
    <rc><c>Cu</c><c>   1</c></rc>
    <rc><c>Cu</c><c>   1</c></rc>
    <rc><c>Cu</c><c>   1</c></rc>
    <rc><c>H </c><c>   2</c></rc>
   </set>
  </array>
  <array name="atomtypes" >
   <dimension dim="1">type</dimension>
   <field type="int">atomspertype</field>
   <field type="string">element</field>
   <field>mass</field>
   <field>valence</field>
   <field type="string">pseudopotential</field>
   <set>
    <rc><c>   4</c><c>Cu</c><c>     63.54600000</c><c>     11.00000000</c><c> PAW_PBE Cu 05Jan2001                   </c></rc>
    <rc><c>   1</c><c>H </c><c>      1.00000000</c><c>      1.00000000</c><c> PAW_PBE H 15Jun2001                    </c></rc>
   </set>
  </array>
 </atominfo>
 <structure name="initialpos" >
  <crystal>
   <varray name="basis" >
    <v>       2.57386868       0.00000000       0.00000000 </v>
    <v>       1.28693434       2.22903567       0.00000000 </v>
    <v>       0.00000000       0.00000000      30.30466494 </v>
   </varray>
   <i name="volume">    173.86529028 </i>
   <varray name="rec_basis" >
    <v>       0.38852021      -0.22431225       0.00000000 </v>
    <v>       0.00000000       0.44862450       0.00000000 </v>
    <v>       0.00000000       0.00000000       0.03299822 </v>
   </varray>
  </crystal>
  <varray name="positions" >
   <v>       0.00000000       0.00000000       0.39597864 </v>
   <v>       0.33333333       0.33333333       0.46532621 </v>
   <v>       0.66666666       0.66666667       0.53467379 </v>
   <v>       0.00000000       0.00000000       0.60402136 </v>
   <v>       0.02243122       0.95513755       0.66341816 </v>
  </varray>
 </structure>
 <calculation>
  <scstep>
   <time name="dav">    0.59    0.60</time>
   <time name="total">    0.62    0.66</time>
   <energy>
    <i name="alphaZ">    120.87645803 </i>
    <i name="ewald">  37628.60337540 </i>
    <i name="hartreedc"> -42755.46996362 </i>
    <i name="XCdc">    176.86186436 </i>
    <i name="pawpsdc">   4328.99049516 </i>
    <i name="pawaedc">  -4905.09836044 </i>
    <i name="eentropy">     -0.00883124 </i>
    <i name="bandstr">     23.56573178 </i>
    <i name="atom">   5575.94961827 </i>
    <i name="e_fr_energy">    194.27038770 </i>
    <i name="e_wo_entrp">    194.27921894 </i>
    <i name="e_0_energy">    194.27480332 </i>
   </energy>
  </scstep>
  <scstep>
   <time name="dav">    0.59    0.59</time>
   <time name="total">    0.60    0.60</time>
   <energy>
    <i name="e_fr_energy">    -10.07097001 </i>
    <i name="e_wo_entrp">    -10.05185457 </i>
    <i name="e_0_energy">    -10.06141229 </i>
   </energy>
  </scstep>
  <scstep>
   <time name="dav">    0.62    0.62</time>
   <time name="total">    0.62    0.62</time>
   <energy>
    <i name="e_fr_energy">    -20.12702474 </i>
    <i name="e_wo_entrp">    -20.10666864 </i>
    <i name="e_0_energy">    -20.11684669 </i>
   </energy>
  </scstep>
  <scstep>
   <time name="dav">    0.63    0.63</time>
   <time name="total">    0.63    0.63</time>
   <energy>
    <i name="e_fr_energy">    -20.24892409 </i>
    <i name="e_wo_entrp">    -20.22870991 </i>
    <i name="e_0_energy">    -20.23881700 </i>
   </energy>
  </scstep>
  <scstep>
   <time name="dav">    0.65    0.65</time>
   <time name="total">    0.69    0.69</time>
   <energy>
    <i name="e_fr_energy">    -20.25004146 </i>
    <i name="e_wo_entrp">    -20.22982754 </i>
    <i name="e_0_energy">    -20.23993450 </i>
   </energy>
  </scstep>
  <scstep>
   <time name="diag">    0.12    0.12</time>
   <time name="diis">    0.37    0.37</time>
   <time name="orth">    0.01    0.01</time>
   <time name="total">    0.55    0.56</time>
   <energy>
    <i name="e_fr_energy">    -20.43009610 </i>
    <i name="e_wo_entrp">    -20.41701573 </i>
    <i name="e_0_energy">    -20.42355592 </i>
   </energy>
  </scstep>
  <scstep>
   <time name="diag">    0.12    0.12</time>
   <time name="diis">    0.37    0.37</time>
   <time name="orth">    0.01    0.01</time>
   <time name="total">    0.56    0.56</time>
   <energy>
    <i name="e_fr_energy">    -17.57279836 </i>
    <i name="e_wo_entrp">    -17.55150170 </i>
    <i name="e_0_energy">    -17.56215003 </i>
   </energy>
  </scstep>
  <scstep>
   <time name="diag">    0.12    0.12</time>
   <time name="diis">    0.36    0.36</time>
   <time name="orth">    0.01    0.01</time>
   <time name="total">    0.55    0.55</time>
   <energy>
    <i name="e_fr_energy">    -16.19950627 </i>
    <i name="e_wo_entrp">    -16.18563485 </i>
    <i name="e_0_energy">    -16.19257056 </i>
   </energy>
  </scstep>
  <scstep>
   <time name="diag">    0.12    0.12</time>
   <time name="diis">    0.36    0.36</time>
   <time name="orth">    0.01    0.01</time>
   <time name="total">    0.55    0.55</time>
   <energy>
    <i name="e_fr_energy">    -16.09662931 </i>
    <i name="e_wo_entrp">    -16.08441905 </i>
    <i name="e_0_energy">    -16.09052418 </i>
   </energy>
  </scstep>
  <scstep>
   <time name="diag">    0.12    0.12</time>
   <time name="diis">    0.36    0.36</time>
   <time name="orth">    0.01    0.01</time>
   <time name="total">    0.55    0.55</time>
   <energy>
    <i name="e_fr_energy">    -16.08267522 </i>
    <i name="e_wo_entrp">    -16.06776985 </i>
    <i name="e_0_energy">    -16.07522253 </i>
   </energy>
  </scstep>
  <scstep>
   <time name="diag">    0.12    0.12</time>
   <time name="diis">    0.35    0.35</time>
   <time name="orth">    0.01    0.01</time>
   <time name="total">    0.54    0.54</time>
   <energy>
    <i name="e_fr_energy">    -16.05721738 </i>
    <i name="e_wo_entrp">    -16.04403050 </i>
    <i name="e_0_energy">    -16.05062394 </i>
   </energy>
  </scstep>
  <scstep>
   <time name="diag">    0.12    0.12</time>
   <time name="diis">    0.36    0.36</time>
   <time name="orth">    0.01    0.01</time>
   <time name="total">    0.55    0.55</time>
   <energy>
    <i name="e_fr_energy">    -16.05324452 </i>
    <i name="e_wo_entrp">    -16.04091046 </i>
    <i name="e_0_energy">    -16.04707749 </i>
   </energy>
  </scstep>
  <scstep>
   <time name="diag">    0.12    0.12</time>
   <time name="diis">    0.36    0.36</time>
   <time name="orth">    0.01    0.01</time>
   <time name="total">    0.55    0.55</time>
   <energy>
    <i name="e_fr_energy">    -16.05230851 </i>
    <i name="e_wo_entrp">    -16.04006278 </i>
    <i name="e_0_energy">    -16.04618564 </i>
   </energy>
  </scstep>
  <scstep>
   <time name="diag">    0.12    0.12</time>
   <time name="diis">    0.36    0.36</time>
   <time name="orth">    0.01    0.01</time>
   <time name="total">    0.55    0.55</time>
   <energy>
    <i name="e_fr_energy">    -16.05134227 </i>
    <i name="e_wo_entrp">    -16.03837205 </i>
    <i name="e_0_energy">    -16.04485716 </i>
   </energy>
  </scstep>
  <scstep>
   <time name="diag">    0.12    0.12</time>
   <time name="diis">    0.35    0.35</time>
   <time name="orth">    0.01    0.01</time>
   <time name="total">    0.54    0.54</time>
   <energy>
    <i name="e_fr_energy">    -16.05123419 </i>
    <i name="e_wo_entrp">    -16.03843246 </i>
    <i name="e_0_energy">    -16.04483333 </i>
   </energy>
  </scstep>
  <scstep>
   <time name="diag">    0.12    0.12</time>
   <time name="diis">    0.35    0.35</time>
   <time name="orth">    0.01    0.02</time>
   <time name="total">    0.54    0.54</time>
   <energy>
    <i name="e_fr_energy">    -16.05123489 </i>
    <i name="e_wo_entrp">    -16.03843182 </i>
    <i name="e_0_energy">    -16.04483335 </i>
   </energy>
  </scstep>
  <scstep>
   <time name="diag">    0.12    0.12</time>
   <time name="diis">    0.34    0.34</time>
   <time name="orth">    0.01    0.01</time>
   <time name="total">    0.53    0.54</time>
   <energy>
    <i name="e_fr_energy">    -16.05140465 </i>
    <i name="e_wo_entrp">    -16.03856497 </i>
    <i name="e_0_energy">    -16.04498481 </i>
   </energy>
  </scstep>
  <scstep>
   <time name="diag">    0.12    0.12</time>
   <time name="diis">    0.31    0.31</time>
   <time name="orth">    0.01    0.01</time>
   <time name="total">    0.50    0.50</time>
   <energy>
    <i name="e_fr_energy">    -16.05155269 </i>
    <i name="e_wo_entrp">    -16.03871125 </i>
    <i name="e_0_energy">    -16.04513197 </i>
   </energy>
  </scstep>
  <scstep>
   <time name="diag">    0.12    0.12</time>
   <time name="diis">    0.28    0.28</time>
   <time name="orth">    0.01    0.01</time>
   <time name="total">    0.47    0.47</time>
   <energy>
    <i name="e_fr_energy">    -16.05159950 </i>
    <i name="e_wo_entrp">    -16.03874403 </i>
    <i name="e_0_energy">    -16.04517177 </i>
   </energy>
  </scstep>
  <scstep>
   <time name="diag">    0.12    0.12</time>
   <time name="diis">    0.24    0.24</time>
   <time name="orth">    0.01    0.01</time>
   <time name="total">    0.43    0.43</time>
   <energy>
    <i name="e_fr_energy">    -16.05164445 </i>
    <i name="e_wo_entrp">    -16.03879466 </i>
    <i name="e_0_energy">    -16.04521955 </i>
   </energy>
  </scstep>
  <scstep>
   <time name="diag">    0.12    0.12</time>
   <time name="diis">    0.24    0.24</time>
   <time name="orth">    0.01    0.01</time>
   <time name="total">    0.42    0.42</time>
   <energy>
    <i name="e_fr_energy">    -16.05166607 </i>
    <i name="e_wo_entrp">    -16.03880837 </i>
    <i name="e_0_energy">    -16.04523722 </i>
   </energy>
  </scstep>
  <scstep>
   <time name="diag">    0.12    0.12</time>
   <time name="diis">    0.23    0.23</time>
   <time name="orth">    0.01    0.01</time>
   <time name="total">    0.42    0.42</time>
   <energy>
    <i name="e_fr_energy">    -16.05167804 </i>
    <i name="e_wo_entrp">    -16.03882476 </i>
    <i name="e_0_energy">    -16.04525140 </i>
   </energy>
  </scstep>
  <scstep>
   <time name="diag">    0.12    0.12</time>
   <time name="diis">    0.22    0.22</time>
   <time name="orth">    0.01    0.01</time>
   <time name="total">    0.41    0.41</time>
   <energy>
    <i name="e_fr_energy">    -16.05168319 </i>
    <i name="e_wo_entrp">    -16.03882809 </i>
    <i name="e_0_energy">    -16.04525564 </i>
   </energy>
  </scstep>
  <scstep>
   <time name="diag">    0.12    0.12</time>
   <time name="diis">    0.21    0.21</time>
   <time name="orth">    0.01    0.01</time>
   <time name="total">    0.39    0.39</time>
   <energy>
    <i name="e_fr_energy">    -16.05168479 </i>
    <i name="e_wo_entrp">    -16.03882956 </i>
    <i name="e_0_energy">    -16.04525718 </i>
   </energy>
  </scstep>
  <scstep>
   <time name="diag">    0.12    0.12</time>
   <time name="diis">    0.18    0.18</time>
   <time name="orth">    0.01    0.01</time>
   <time name="total">    0.33    0.33</time>
   <energy>
    <i name="alphaZ">    120.87645803 </i>
    <i name="ewald">  37628.60337540 </i>
    <i name="hartreedc"> -42693.51409082 </i>
    <i name="XCdc">    172.75420215 </i>
    <i name="pawpsdc">   4375.19410276 </i>
    <i name="pawaedc">  -4950.45884393 </i>
    <i name="eentropy">     -0.01285502 </i>
    <i name="bandstr">   -245.44365176 </i>
    <i name="atom">   5575.94961827 </i>
    <i name="e_fr_energy">    -16.05168490 </i>
    <i name="e_wo_entrp">    -16.03882989 </i>
    <i name="e_0_energy">    -16.04525740 </i>
   </energy>
  </scstep>
  <structure>
   <crystal>
    <varray name="basis" >
     <v>       2.57386868       0.00000000       0.00000000 </v>
     <v>       1.28693434       2.22903567       0.00000000 </v>
     <v>       0.00000000       0.00000000      30.30466494 </v>
    </varray>
    <i name="volume">    173.86529028 </i>
    <varray name="rec_basis" >
     <v>       0.38852021      -0.22431225       0.00000000 </v>
     <v>       0.00000000       0.44862450       0.00000000 </v>
     <v>       0.00000000       0.00000000       0.03299822 </v>
    </varray>
   </crystal>
   <varray name="positions" >
    <v>       0.00000000       0.00000000       0.39597864 </v>
    <v>       0.33333333       0.33333333       0.46532621 </v>
    <v>       0.66666666       0.66666667       0.53467379 </v>
    <v>       0.00000000       0.00000000       0.60402136 </v>
    <v>       0.02243122       0.95513755       0.66341816 </v>
   </varray>
  </structure>
  <varray name="forces" >
   <v>      -0.00000000      -0.00250035       0.09655764 </v>
   <v>      -0.00000000       0.00010094      -0.00412363 </v>
   <v>      -0.00000000       0.00162044      -0.01217686 </v>
   <v>       0.00000000      -0.01098755       1.45213711 </v>
   <v>      -0.00000000       0.01176652      -1.53239426 </v>
  </varray>
  <varray name="stress" >
   <v>     -52.33111447       0.00000000       0.00000000 </v>
   <v>       0.00000000     -52.55248865       0.29744185 </v>
   <v>       0.00000000       0.29632972     -74.23869230 </v>
  </varray>
  <energy>
   <i name="e_fr_energy">    -16.05168490 </i>
   <i name="e_wo_entrp">    -16.04525740 </i>
   <i name="e_0_energy">     -0.01285502 </i>
  </energy>
  <time name="totalsc">   13.99   14.15</time>
  <eigenvalues>
   <array>
    <dimension dim="1">band</dimension>
    <dimension dim="2">kpoint</dimension>
    <dimension dim="3">spin</dimension>
    <field>eigene</field>
    <field>occ</field>
    <set>
     <set comment="spin 1">
      <set comment="kpoint 1">
       <r>  -11.2839    1.0000 </r>
       <r>  -10.1421    1.0000 </r>
       <r>   -8.6673    1.0000 </r>
       <r>   -7.6871    1.0000 </r>
       <r>   -6.9988    1.0000 </r>
       <r>   -5.6519    1.0000 </r>
       <r>   -5.5675    1.0000 </r>
       <r>   -5.5216    1.0000 </r>
       <r>   -5.5211    1.0000 </r>
       <r>   -5.4818    1.0000 </r>
       <r>   -5.4804    1.0000 </r>
       <r>   -5.3520    1.0000 </r>
       <r>   -5.3505    1.0000 </r>
       <r>   -5.2525    1.0000 </r>
       <r>   -5.2518    1.0000 </r>
       <r>   -5.0757    1.0000 </r>
       <r>   -4.7711    1.0000 </r>
       <r>   -4.7698    1.0000 </r>
       <r>   -4.6713    1.0000 </r>
       <r>   -4.6707    1.0000 </r>
       <r>   -4.4374    1.0000 </r>
       <r>   -4.4348    1.0000 </r>
       <r>   -4.2401    1.0000 </r>
       <r>   -4.2386    1.0000 </r>
       <r>   -3.2157    1.0000 </r>
       <r>    0.1455    0.0000 </r>
       <r>    1.7580    0.0000 </r>
       <r>    2.3786    0.0000 </r>
      </set>
      <set comment="kpoint 2">
       <r>  -10.9705    1.0000 </r>
       <r>   -9.8421    1.0000 </r>
       <r>   -8.3898    1.0000 </r>
       <r>   -7.4625    1.0000 </r>
       <r>   -6.8700    1.0000 </r>
       <r>   -5.7527    1.0000 </r>
       <r>   -5.6662    1.0000 </r>
       <r>   -5.6096    1.0000 </r>
       <r>   -5.4668    1.0000 </r>
       <r>   -5.4147    1.0000 </r>
       <r>   -5.4057    1.0000 </r>
       <r>   -5.4043    1.0000 </r>
       <r>   -5.3484    1.0000 </r>
       <r>   -5.2524    1.0000 </r>
       <r>   -5.2493    1.0000 </r>
       <r>   -5.1569    1.0000 </r>
       <r>   -4.8403    1.0000 </r>
       <r>   -4.8182    1.0000 </r>
       <r>   -4.6633    1.0000 </r>
       <r>   -4.6603    1.0000 </r>
       <r>   -4.5247    1.0000 </r>
       <r>   -4.4331    1.0000 </r>
       <r>   -4.2344    1.0000 </r>
       <r>   -4.0353    1.0000 </r>
       <r>   -2.5864    0.1849 </r>
       <r>    0.4196    0.0000 </r>
       <r>    2.0546    0.0000 </r>
       <r>    2.6932    0.0000 </r>
      </set>
      <set comment="kpoint 3">
       <r>  -10.0686    1.0000 </r>
       <r>   -9.0010    1.0000 </r>
       <r>   -7.6580    1.0000 </r>
       <r>   -6.9204    1.0000 </r>
       <r>   -6.5762    1.0000 </r>
       <r>   -6.0493    1.0000 </r>
       <r>   -5.8686    1.0000 </r>
       <r>   -5.7819    1.0000 </r>
       <r>   -5.5946    1.0000 </r>
       <r>   -5.4994    1.0000 </r>
       <r>   -5.4640    1.0000 </r>
       <r>   -5.2830    1.0000 </r>
       <r>   -5.2453    1.0000 </r>
       <r>   -5.1378    1.0000 </r>
       <r>   -5.0385    1.0000 </r>
       <r>   -5.0307    1.0000 </r>
       <r>   -4.9263    1.0000 </r>
       <r>   -4.8124    1.0000 </r>
       <r>   -4.7809    1.0000 </r>
       <r>   -4.6365    1.0000 </r>
       <r>   -4.4368    1.0000 </r>
       <r>   -4.3587    1.0000 </r>
       <r>   -4.2262    1.0000 </r>
       <r>   -3.3698    1.0000 </r>
       <r>   -1.4410    0.0000 </r>
       <r>    1.2367    0.0000 </r>
       <r>    2.9474    0.0000 </r>
       <r>    3.6291    0.0000 </r>
      </set>
      <set comment="kpoint 4">
       <r>   -8.7539    1.0000 </r>
       <r>   -7.9164    1.0000 </r>
       <r>   -7.0213    1.0000 </r>
       <r>   -6.6128    1.0000 </r>
       <r>   -6.3840    1.0000 </r>
       <r>   -6.2690    1.0000 </r>
       <r>   -5.9931    1.0000 </r>
       <r>   -5.7978    1.0000 </r>
       <r>   -5.6137    1.0000 </r>
       <r>   -5.4189    1.0000 </r>
       <r>   -5.3159    1.0000 </r>
       <r>   -5.2548    1.0000 </r>
       <r>   -5.1051    1.0000 </r>
       <r>   -4.9922    1.0000 </r>
       <r>   -4.9358    1.0000 </r>
       <r>   -4.7521    1.0000 </r>
       <r>   -4.6244    1.0000 </r>
       <r>   -4.5881    1.0000 </r>
       <r>   -4.5209    1.0000 </r>
       <r>   -4.4424    1.0000 </r>
       <r>   -4.3924    1.0000 </r>
       <r>   -4.2126    1.0000 </r>
       <r>   -3.9896    1.0000 </r>
       <r>   -2.4527    0.0026 </r>
       <r>   -0.0993    0.0000 </r>
       <r>    2.5435    0.0000 </r>
       <r>    4.4117    0.0000 </r>
       <r>    5.0295    0.0000 </r>
      </set>
      <set comment="kpoint 5">
       <r>   -7.6190    1.0000 </r>
       <r>   -7.2904    1.0000 </r>
       <r>   -6.9345    1.0000 </r>
       <r>   -6.7232    1.0000 </r>
       <r>   -6.5708    1.0000 </r>
       <r>   -6.3193    1.0000 </r>
       <r>   -5.9070    1.0000 </r>
       <r>   -5.7200    1.0000 </r>
       <r>   -5.5440    1.0000 </r>
       <r>   -5.4018    1.0000 </r>
       <r>   -5.2348    1.0000 </r>
       <r>   -5.0182    1.0000 </r>
       <r>   -4.7826    1.0000 </r>
       <r>   -4.5891    1.0000 </r>
       <r>   -4.5350    1.0000 </r>
       <r>   -4.3392    1.0000 </r>
       <r>   -4.3148    1.0000 </r>
       <r>   -4.2375    1.0000 </r>
       <r>   -4.1966    1.0000 </r>
       <r>   -4.0995    1.0000 </r>
       <r>   -4.0982    1.0000 </r>
       <r>   -3.6366    1.0000 </r>
       <r>   -3.0504    1.0000 </r>
       <r>   -1.3225    0.0000 </r>
       <r>    0.7647    0.0000 </r>
       <r>    2.4490    0.0000 </r>
       <r>    3.3923    0.0000 </r>
       <r>    4.8200    0.0000 </r>
      </set>
      <set comment="kpoint 6">
       <r>   -7.3194    1.0000 </r>
       <r>   -7.1812    1.0000 </r>
       <r>   -6.8556    1.0000 </r>
       <r>   -6.7702    1.0000 </r>
       <r>   -6.7132    1.0000 </r>
       <r>   -6.3829    1.0000 </r>
       <r>   -5.8647    1.0000 </r>
       <r>   -5.6623    1.0000 </r>
       <r>   -5.5567    1.0000 </r>
       <r>   -5.4360    1.0000 </r>
       <r>   -5.0970    1.0000 </r>
       <r>   -5.0341    1.0000 </r>
       <r>   -4.6536    1.0000 </r>
       <r>   -4.5740    1.0000 </r>
       <r>   -4.3240    1.0000 </r>
       <r>   -4.2871    1.0000 </r>
       <r>   -4.2047    1.0000 </r>
       <r>   -4.1528    1.0000 </r>
       <r>   -4.0990    1.0000 </r>
       <r>   -3.9842    1.0000 </r>
       <r>   -2.7943    0.9795 </r>
       <r>   -2.2917    0.0000 </r>
       <r>   -1.7982    0.0000 </r>
       <r>   -1.2334    0.0000 </r>
       <r>   -0.9883    0.0000 </r>
       <r>    1.6884    0.0000 </r>
       <r>    2.7987    0.0000 </r>
       <r>    4.3055    0.0000 </r>
      </set>
      <set comment="kpoint 7">
       <r>  -10.9705    1.0000 </r>
       <r>   -9.8421    1.0000 </r>
       <r>   -8.3899    1.0000 </r>
       <r>   -7.4625    1.0000 </r>
       <r>   -6.8701    1.0000 </r>
       <r>   -5.7520    1.0000 </r>
       <r>   -5.6675    1.0000 </r>
       <r>   -5.6089    1.0000 </r>
       <r>   -5.4662    1.0000 </r>
       <r>   -5.4151    1.0000 </r>
       <r>   -5.4062    1.0000 </r>
       <r>   -5.4037    1.0000 </r>
       <r>   -5.3493    1.0000 </r>
       <r>   -5.2514    1.0000 </r>
       <r>   -5.2493    1.0000 </r>
       <r>   -5.1565    1.0000 </r>
       <r>   -4.8401    1.0000 </r>
       <r>   -4.8191    1.0000 </r>
       <r>   -4.6642    1.0000 </r>
       <r>   -4.6621    1.0000 </r>
       <r>   -4.5249    1.0000 </r>
       <r>   -4.4313    1.0000 </r>
       <r>   -4.2334    1.0000 </r>
       <r>   -4.0351    1.0000 </r>
       <r>   -2.5864    0.1849 </r>
       <r>    0.4193    0.0000 </r>
       <r>    2.0546    0.0000 </r>
       <r>    2.6932    0.0000 </r>
      </set>
      <set comment="kpoint 8">
       <r>  -10.3613    1.0000 </r>
       <r>   -9.2682    1.0000 </r>
       <r>   -7.8762    1.0000 </r>
       <r>   -7.0659    1.0000 </r>
       <r>   -6.6572    1.0000 </r>
       <r>   -5.8960    1.0000 </r>
       <r>   -5.8773    1.0000 </r>
       <r>   -5.7488    1.0000 </r>
       <r>   -5.5709    1.0000 </r>
       <r>   -5.5270    1.0000 </r>
       <r>   -5.4431    1.0000 </r>
       <r>   -5.3395    1.0000 </r>
       <r>   -5.2715    1.0000 </r>
       <r>   -5.2042    1.0000 </r>
       <r>   -5.0492    1.0000 </r>
       <r>   -5.0133    1.0000 </r>
       <r>   -4.9250    1.0000 </r>
       <r>   -4.8577    1.0000 </r>
       <r>   -4.7604    1.0000 </r>
       <r>   -4.5998    1.0000 </r>
       <r>   -4.5674    1.0000 </r>
       <r>   -4.3008    1.0000 </r>
       <r>   -4.2832    1.0000 </r>
       <r>   -3.5586    1.0000 </r>
       <r>   -1.7673    0.0000 </r>
       <r>    0.9683    0.0000 </r>
       <r>    2.6500    0.0000 </r>
       <r>    3.3248    0.0000 </r>
      </set>
      <set comment="kpoint 9">
       <r>   -9.2331    1.0000 </r>
       <r>   -8.2672    1.0000 </r>
       <r>   -7.1152    1.0000 </r>
       <r>   -6.5614    1.0000 </r>
       <r>   -6.3964    1.0000 </r>
       <r>   -6.1727    1.0000 </r>
       <r>   -5.9866    1.0000 </r>
       <r>   -5.8936    1.0000 </r>
       <r>   -5.6821    1.0000 </r>
       <r>   -5.5889    1.0000 </r>
       <r>   -5.5261    1.0000 </r>
       <r>   -5.3661    1.0000 </r>
       <r>   -5.2333    1.0000 </r>
       <r>   -5.1243    1.0000 </r>
       <r>   -4.9607    1.0000 </r>
       <r>   -4.8544    1.0000 </r>
       <r>   -4.7613    1.0000 </r>
       <r>   -4.6306    1.0000 </r>
       <r>   -4.5233    1.0000 </r>
       <r>   -4.5016    1.0000 </r>
       <r>   -4.4098    1.0000 </r>
       <r>   -4.2958    1.0000 </r>
       <r>   -4.0502    1.0000 </r>
       <r>   -2.7819    0.9691 </r>
       <r>   -0.5700    0.0000 </r>
       <r>    2.0567    0.0000 </r>
       <r>    3.8427    0.0000 </r>
       <r>    4.5073    0.0000 </r>
      </set>
      <set comment="kpoint 10">
       <r>   -7.9240    1.0000 </r>
       <r>   -7.3688    1.0000 </r>
       <r>   -6.8477    1.0000 </r>
       <r>   -6.5767    1.0000 </r>
       <r>   -6.3675    1.0000 </r>
       <r>   -6.2375    1.0000 </r>
       <r>   -5.9807    1.0000 </r>
       <r>   -5.8146    1.0000 </r>
       <r>   -5.5733    1.0000 </r>
       <r>   -5.4667    1.0000 </r>
       <r>   -5.3237    1.0000 </r>
       <r>   -5.2229    1.0000 </r>
       <r>   -5.0897    1.0000 </r>
       <r>   -4.9665    1.0000 </r>
       <r>   -4.8741    1.0000 </r>
       <r>   -4.6614    1.0000 </r>
       <r>   -4.5783    1.0000 </r>
       <r>   -4.4055    1.0000 </r>
       <r>   -4.3093    1.0000 </r>
       <r>   -4.2234    1.0000 </r>
       <r>   -3.9716    1.0000 </r>
       <r>   -3.8610    1.0000 </r>
       <r>   -3.3010    1.0000 </r>
       <r>   -1.6342    0.0000 </r>
       <r>    0.7962    0.0000 </r>
       <r>    3.3313    0.0000 </r>
       <r>    4.3336    0.0000 </r>
       <r>    5.3770    0.0000 </r>
      </set>
      <set comment="kpoint 11">
       <r>   -7.2390    1.0000 </r>
       <r>   -7.0877    1.0000 </r>
       <r>   -6.7781    1.0000 </r>
       <r>   -6.6902    1.0000 </r>
       <r>   -6.5527    1.0000 </r>
       <r>   -6.3150    1.0000 </r>
       <r>   -5.9054    1.0000 </r>
       <r>   -5.6767    1.0000 </r>
       <r>   -5.5758    1.0000 </r>
       <r>   -5.4376    1.0000 </r>
       <r>   -5.3113    1.0000 </r>
       <r>   -4.9693    1.0000 </r>
       <r>   -4.8200    1.0000 </r>
       <r>   -4.7058    1.0000 </r>
       <r>   -4.5620    1.0000 </r>
       <r>   -4.4661    1.0000 </r>
       <r>   -4.3538    1.0000 </r>
       <r>   -4.2971    1.0000 </r>
       <r>   -4.2111    1.0000 </r>
       <r>   -4.1298    1.0000 </r>
       <r>   -2.7965    0.9809 </r>
       <r>   -2.5406    0.0611 </r>
       <r>   -1.9483    0.0000 </r>
       <r>   -0.6662    0.0000 </r>
       <r>    0.2038    0.0000 </r>
       <r>    1.9963    0.0000 </r>
       <r>    3.1669    0.0000 </r>
       <r>    4.4954    0.0000 </r>
      </set>
      <set comment="kpoint 12">
       <r>   -7.2392    1.0000 </r>
       <r>   -7.0877    1.0000 </r>
       <r>   -6.7783    1.0000 </r>
       <r>   -6.6905    1.0000 </r>
       <r>   -6.5530    1.0000 </r>
       <r>   -6.3137    1.0000 </r>
       <r>   -5.9076    1.0000 </r>
       <r>   -5.6730    1.0000 </r>
       <r>   -5.5785    1.0000 </r>
       <r>   -5.4396    1.0000 </r>
       <r>   -5.3063    1.0000 </r>
       <r>   -4.9812    1.0000 </r>
       <r>   -4.8123    1.0000 </r>
       <r>   -4.6973    1.0000 </r>
       <r>   -4.5697    1.0000 </r>
       <r>   -4.4617    1.0000 </r>
       <r>   -4.3563    1.0000 </r>
       <r>   -4.2979    1.0000 </r>
       <r>   -4.2106    1.0000 </r>
       <r>   -4.1287    1.0000 </r>
       <r>   -2.7919    0.9778 </r>
       <r>   -2.5479    0.0748 </r>
       <r>   -1.9484    0.0000 </r>
       <r>   -0.6636    0.0000 </r>
       <r>    0.2052    0.0000 </r>
       <r>    1.9955    0.0000 </r>
       <r>    3.1662    0.0000 </r>
       <r>    4.4950    0.0000 </r>
      </set>
      <set comment="kpoint 13">
       <r>   -7.9239    1.0000 </r>
       <r>   -7.3692    1.0000 </r>
       <r>   -6.8485    1.0000 </r>
       <r>   -6.5772    1.0000 </r>
       <r>   -6.3690    1.0000 </r>
       <r>   -6.2326    1.0000 </r>
       <r>   -5.9835    1.0000 </r>
       <r>   -5.8195    1.0000 </r>
       <r>   -5.5724    1.0000 </r>
       <r>   -5.4695    1.0000 </r>
       <r>   -5.3123    1.0000 </r>
       <r>   -5.2231    1.0000 </r>
       <r>   -5.0982    1.0000 </r>
       <r>   -4.9748    1.0000 </r>
       <r>   -4.8544    1.0000 </r>
       <r>   -4.6564    1.0000 </r>
       <r>   -4.5825    1.0000 </r>
       <r>   -4.4115    1.0000 </r>
       <r>   -4.3093    1.0000 </r>
       <r>   -4.2198    1.0000 </r>
       <r>   -3.9701    1.0000 </r>
       <r>   -3.8665    1.0000 </r>
       <r>   -3.3031    1.0000 </r>
       <r>   -1.6310    0.0000 </r>
       <r>    0.7969    0.0000 </r>
       <r>    3.3304    0.0000 </r>
       <r>    4.3334    0.0000 </r>
       <r>    5.3779    0.0000 </r>
      </set>
      <set comment="kpoint 14">
       <r>   -9.2330    1.0000 </r>
       <r>   -8.2672    1.0000 </r>
       <r>   -7.1165    1.0000 </r>
       <r>   -6.5643    1.0000 </r>
       <r>   -6.3896    1.0000 </r>
       <r>   -6.1758    1.0000 </r>
       <r>   -5.9851    1.0000 </r>
       <r>   -5.8973    1.0000 </r>
       <r>   -5.6811    1.0000 </r>
       <r>   -5.5905    1.0000 </r>
       <r>   -5.5270    1.0000 </r>
       <r>   -5.3665    1.0000 </r>
       <r>   -5.2340    1.0000 </r>
       <r>   -5.1170    1.0000 </r>
       <r>   -4.9612    1.0000 </r>
       <r>   -4.8493    1.0000 </r>
       <r>   -4.7597    1.0000 </r>
       <r>   -4.6333    1.0000 </r>
       <r>   -4.5281    1.0000 </r>
       <r>   -4.5025    1.0000 </r>
       <r>   -4.4097    1.0000 </r>
       <r>   -4.2920    1.0000 </r>
       <r>   -4.0554    1.0000 </r>
       <r>   -2.7788    0.9659 </r>
       <r>   -0.5695    0.0000 </r>
       <r>    2.0557    0.0000 </r>
       <r>    3.8427    0.0000 </r>
       <r>    4.5074    0.0000 </r>
      </set>
      <set comment="kpoint 15">
       <r>  -10.3612    1.0000 </r>
       <r>   -9.2681    1.0000 </r>
       <r>   -7.8766    1.0000 </r>
       <r>   -7.0659    1.0000 </r>
       <r>   -6.6569    1.0000 </r>
       <r>   -5.8966    1.0000 </r>
       <r>   -5.8769    1.0000 </r>
       <r>   -5.7489    1.0000 </r>
       <r>   -5.5739    1.0000 </r>
       <r>   -5.5261    1.0000 </r>
       <r>   -5.4430    1.0000 </r>
       <r>   -5.3387    1.0000 </r>
       <r>   -5.2713    1.0000 </r>
       <r>   -5.2040    1.0000 </r>
       <r>   -5.0491    1.0000 </r>
       <r>   -5.0099    1.0000 </r>
       <r>   -4.9240    1.0000 </r>
       <r>   -4.8563    1.0000 </r>
       <r>   -4.7674    1.0000 </r>
       <r>   -4.5994    1.0000 </r>
       <r>   -4.5632    1.0000 </r>
       <r>   -4.3058    1.0000 </r>
       <r>   -4.2815    1.0000 </r>
       <r>   -3.5563    1.0000 </r>
       <r>   -1.7670    0.0000 </r>
       <r>    0.9674    0.0000 </r>
       <r>    2.6500    0.0000 </r>
       <r>    3.3196    0.0000 </r>
      </set>
      <set comment="kpoint 16">
       <r>  -10.0685    1.0000 </r>
       <r>   -9.0010    1.0000 </r>
       <r>   -7.6582    1.0000 </r>
       <r>   -6.9189    1.0000 </r>
       <r>   -6.5823    1.0000 </r>
       <r>   -6.0440    1.0000 </r>
       <r>   -5.8693    1.0000 </r>
       <r>   -5.7782    1.0000 </r>
       <r>   -5.5977    1.0000 </r>
       <r>   -5.4983    1.0000 </r>
       <r>   -5.4649    1.0000 </r>
       <r>   -5.2813    1.0000 </r>
       <r>   -5.2469    1.0000 </r>
       <r>   -5.1384    1.0000 </r>
       <r>   -5.0390    1.0000 </r>
       <r>   -5.0301    1.0000 </r>
       <r>   -4.9252    1.0000 </r>
       <r>   -4.8145    1.0000 </r>
       <r>   -4.7823    1.0000 </r>
       <r>   -4.6370    1.0000 </r>
       <r>   -4.4347    1.0000 </r>
       <r>   -4.3604    1.0000 </r>
       <r>   -4.2251    1.0000 </r>
       <r>   -3.3673    1.0000 </r>
       <r>   -1.4406    0.0000 </r>
       <r>    1.2355    0.0000 </r>
       <r>    2.9474    0.0000 </r>
       <r>    3.6293    0.0000 </r>
      </set>
      <set comment="kpoint 17">
       <r>   -8.0433    1.0000 </r>
       <r>   -7.3685    1.0000 </r>
       <r>   -6.7216    1.0000 </r>
       <r>   -6.3687    1.0000 </r>
       <r>   -6.2738    1.0000 </r>
       <r>   -6.1116    1.0000 </r>
       <r>   -5.9882    1.0000 </r>
       <r>   -5.8688    1.0000 </r>
       <r>   -5.7674    1.0000 </r>
       <r>   -5.6280    1.0000 </r>
       <r>   -5.5749    1.0000 </r>
       <r>   -5.3838    1.0000 </r>
       <r>   -5.2754    1.0000 </r>
       <r>   -5.2014    1.0000 </r>
       <r>   -4.9339    1.0000 </r>
       <r>   -4.7434    1.0000 </r>
       <r>   -4.6582    1.0000 </r>
       <r>   -4.5101    1.0000 </r>
       <r>   -4.2974    1.0000 </r>
       <r>   -4.2285    1.0000 </r>
       <r>   -3.9034    1.0000 </r>
       <r>   -3.8434    1.0000 </r>
       <r>   -3.2899    1.0000 </r>
       <r>   -1.7134    0.0000 </r>
       <r>    0.7091    0.0000 </r>
       <r>    3.3852    0.0000 </r>
       <r>    5.3003    0.0000 </r>
       <r>    5.8418    0.0000 </r>
      </set>
      <set comment="kpoint 18">
       <r>   -7.0653    1.0000 </r>
       <r>   -6.8729    1.0000 </r>
       <r>   -6.6427    1.0000 </r>
       <r>   -6.4755    1.0000 </r>
       <r>   -6.2779    1.0000 </r>
       <r>   -6.1419    1.0000 </r>
       <r>   -6.0181    1.0000 </r>
       <r>   -5.8077    1.0000 </r>
       <r>   -5.7060    1.0000 </r>
       <r>   -5.4383    1.0000 </r>
       <r>   -5.3308    1.0000 </r>
       <r>   -5.3068    1.0000 </r>
       <r>   -5.1875    1.0000 </r>
       <r>   -5.0649    1.0000 </r>
       <r>   -4.8921    1.0000 </r>
       <r>   -4.7250    1.0000 </r>
       <r>   -4.6164    1.0000 </r>
       <r>   -4.4394    1.0000 </r>
       <r>   -4.2343    1.0000 </r>
       <r>   -4.1382    1.0000 </r>
       <r>   -2.8486    0.9975 </r>
       <r>   -2.6622    0.5691 </r>
       <r>   -1.8505    0.0000 </r>
       <r>   -0.1972    0.0000 </r>
       <r>    1.9037    0.0000 </r>
       <r>    3.0721    0.0000 </r>
       <r>    4.1315    0.0000 </r>
       <r>    5.3362    0.0000 </r>
      </set>
      <set comment="kpoint 19">
       <r>   -6.8454    1.0000 </r>
       <r>   -6.8114    1.0000 </r>
       <r>   -6.5401    1.0000 </r>
       <r>   -6.4575    1.0000 </r>
       <r>   -6.3700    1.0000 </r>
       <r>   -6.1707    1.0000 </r>
       <r>   -6.0486    1.0000 </r>
       <r>   -5.7494    1.0000 </r>
       <r>   -5.6629    1.0000 </r>
       <r>   -5.4816    1.0000 </r>
       <r>   -5.3690    1.0000 </r>
       <r>   -5.0706    1.0000 </r>
       <r>   -5.0518    1.0000 </r>
       <r>   -4.9542    1.0000 </r>
       <r>   -4.8599    1.0000 </r>
       <r>   -4.6540    1.0000 </r>
       <r>   -4.5303    1.0000 </r>
       <r>   -4.3250    1.0000 </r>
       <r>   -4.2998    1.0000 </r>
       <r>   -4.2000    1.0000 </r>
       <r>   -1.9688    0.0000 </r>
       <r>   -0.9800    0.0000 </r>
       <r>   -0.5292    0.0000 </r>
       <r>    0.0199    0.0000 </r>
       <r>    0.5620    0.0000 </r>
       <r>    2.2270    0.0000 </r>
       <r>    3.4332    0.0000 </r>
       <r>    4.9036    0.0000 </r>
      </set>
      <set comment="kpoint 20">
       <r>   -7.0659    1.0000 </r>
       <r>   -6.8737    1.0000 </r>
       <r>   -6.6434    1.0000 </r>
       <r>   -6.4757    1.0000 </r>
       <r>   -6.2774    1.0000 </r>
       <r>   -6.1389    1.0000 </r>
       <r>   -6.0195    1.0000 </r>
       <r>   -5.8059    1.0000 </r>
       <r>   -5.7127    1.0000 </r>
       <r>   -5.4529    1.0000 </r>
       <r>   -5.3188    1.0000 </r>
       <r>   -5.2998    1.0000 </r>
       <r>   -5.1882    1.0000 </r>
       <r>   -5.0630    1.0000 </r>
       <r>   -4.8833    1.0000 </r>
       <r>   -4.7319    1.0000 </r>
       <r>   -4.6130    1.0000 </r>
       <r>   -4.4445    1.0000 </r>
       <r>   -4.2337    1.0000 </r>
       <r>   -4.1368    1.0000 </r>
       <r>   -2.8464    0.9973 </r>
       <r>   -2.6689    0.6064 </r>
       <r>   -1.8500    0.0000 </r>
       <r>   -0.1914    0.0000 </r>
       <r>    1.9072    0.0000 </r>
       <r>    3.0706    0.0000 </r>
       <r>    4.1291    0.0000 </r>
       <r>    5.3367    0.0000 </r>
      </set>
      <set comment="kpoint 21">
       <r>   -8.0429    1.0000 </r>
       <r>   -7.3692    1.0000 </r>
       <r>   -6.7235    1.0000 </r>
       <r>   -6.3692    1.0000 </r>
       <r>   -6.2737    1.0000 </r>
       <r>   -6.1118    1.0000 </r>
       <r>   -5.9890    1.0000 </r>
       <r>   -5.8682    1.0000 </r>
       <r>   -5.7686    1.0000 </r>
       <r>   -5.6271    1.0000 </r>
       <r>   -5.5753    1.0000 </r>
       <r>   -5.3989    1.0000 </r>
       <r>   -5.2533    1.0000 </r>
       <r>   -5.1972    1.0000 </r>
       <r>   -4.9428    1.0000 </r>
       <r>   -4.7304    1.0000 </r>
       <r>   -4.6593    1.0000 </r>
       <r>   -4.5187    1.0000 </r>
       <r>   -4.2965    1.0000 </r>
       <r>   -4.2264    1.0000 </r>
       <r>   -3.9038    1.0000 </r>
       <r>   -3.8469    1.0000 </r>
       <r>   -3.2919    1.0000 </r>
       <r>   -1.7082    0.0000 </r>
       <r>    0.7107    0.0000 </r>
       <r>    3.3825    0.0000 </r>
       <r>    5.2998    0.0000 </r>
       <r>    5.8458    0.0000 </r>
      </set>
      <set comment="kpoint 22">
       <r>   -9.2329    1.0000 </r>
       <r>   -8.2671    1.0000 </r>
       <r>   -7.1163    1.0000 </r>
       <r>   -6.5562    1.0000 </r>
       <r>   -6.4097    1.0000 </r>
       <r>   -6.1660    1.0000 </r>
       <r>   -5.9896    1.0000 </r>
       <r>   -5.8854    1.0000 </r>
       <r>   -5.6910    1.0000 </r>
       <r>   -5.5859    1.0000 </r>
       <r>   -5.5243    1.0000 </r>
       <r>   -5.3652    1.0000 </r>
       <r>   -5.2378    1.0000 </r>
       <r>   -5.1177    1.0000 </r>
       <r>   -4.9616    1.0000 </r>
       <r>   -4.8520    1.0000 </r>
       <r>   -4.7618    1.0000 </r>
       <r>   -4.6297    1.0000 </r>
       <r>   -4.5259    1.0000 </r>
       <r>   -4.5041    1.0000 </r>
       <r>   -4.4096    1.0000 </r>
       <r>   -4.2921    1.0000 </r>
       <r>   -4.0545    1.0000 </r>
       <r>   -2.7777    0.9647 </r>
       <r>   -0.5691    0.0000 </r>
       <r>    2.0548    0.0000 </r>
       <r>    3.8427    0.0000 </r>
       <r>    4.5071    0.0000 </r>
      </set>
      <set comment="kpoint 23">
       <r>   -8.7535    1.0000 </r>
       <r>   -7.9164    1.0000 </r>
       <r>   -7.0216    1.0000 </r>
       <r>   -6.6087    1.0000 </r>
       <r>   -6.3993    1.0000 </r>
       <r>   -6.2714    1.0000 </r>
       <r>   -5.9791    1.0000 </r>
       <r>   -5.7806    1.0000 </r>
       <r>   -5.6210    1.0000 </r>
       <r>   -5.4281    1.0000 </r>
       <r>   -5.3146    1.0000 </r>
       <r>   -5.2670    1.0000 </r>
       <r>   -5.1068    1.0000 </r>
       <r>   -4.9904    1.0000 </r>
       <r>   -4.9283    1.0000 </r>
       <r>   -4.7524    1.0000 </r>
       <r>   -4.6239    1.0000 </r>
       <r>   -4.5877    1.0000 </r>
       <r>   -4.5220    1.0000 </r>
       <r>   -4.4416    1.0000 </r>
       <r>   -4.3918    1.0000 </r>
       <r>   -4.2113    1.0000 </r>
       <r>   -3.9904    1.0000 </r>
       <r>   -2.4488    0.0022 </r>
       <r>   -0.0977    0.0000 </r>
       <r>    2.5405    0.0000 </r>
       <r>    4.4112    0.0000 </r>
       <r>    5.0312    0.0000 </r>
      </set>
      <set comment="kpoint 24">
       <r>   -6.5753    1.0000 </r>
       <r>   -6.5495    1.0000 </r>
       <r>   -6.4676    1.0000 </r>
       <r>   -6.3277    1.0000 </r>
       <r>   -6.3033    1.0000 </r>
       <r>   -6.1971    1.0000 </r>
       <r>   -6.0981    1.0000 </r>
       <r>   -5.7602    1.0000 </r>
       <r>   -5.7074    1.0000 </r>
       <r>   -5.4440    1.0000 </r>
       <r>   -5.3803    1.0000 </r>
       <r>   -5.3051    1.0000 </r>
       <r>   -5.2640    1.0000 </r>
       <r>   -5.0633    1.0000 </r>
       <r>   -4.8348    1.0000 </r>
       <r>   -4.7854    1.0000 </r>
       <r>   -4.7008    1.0000 </r>
       <r>   -4.3824    1.0000 </r>
       <r>   -4.2954    1.0000 </r>
       <r>   -4.2301    1.0000 </r>
       <r>   -1.8611    0.0000 </r>
       <r>   -0.7272    0.0000 </r>
       <r>    0.2114    0.0000 </r>
       <r>    1.5498    0.0000 </r>
       <r>    2.1407    0.0000 </r>
       <r>    2.2384    0.0000 </r>
       <r>    3.1132    0.0000 </r>
       <r>    3.4505    0.0000 </r>
      </set>
      <set comment="kpoint 25">
       <r>   -6.5766    1.0000 </r>
       <r>   -6.5524    1.0000 </r>
       <r>   -6.4678    1.0000 </r>
       <r>   -6.3230    1.0000 </r>
       <r>   -6.3050    1.0000 </r>
       <r>   -6.1950    1.0000 </r>
       <r>   -6.0991    1.0000 </r>
       <r>   -5.7625    1.0000 </r>
       <r>   -5.7046    1.0000 </r>
       <r>   -5.4466    1.0000 </r>
       <r>   -5.3856    1.0000 </r>
       <r>   -5.3061    1.0000 </r>
       <r>   -5.2641    1.0000 </r>
       <r>   -5.0435    1.0000 </r>
       <r>   -4.8381    1.0000 </r>
       <r>   -4.7931    1.0000 </r>
       <r>   -4.7005    1.0000 </r>
       <r>   -4.3829    1.0000 </r>
       <r>   -4.2953    1.0000 </r>
       <r>   -4.2291    1.0000 </r>
       <r>   -1.8636    0.0000 </r>
       <r>   -0.7276    0.0000 </r>
       <r>    0.2129    0.0000 </r>
       <r>    1.5588    0.0000 </r>
       <r>    2.1465    0.0000 </r>
       <r>    2.2545    0.0000 </r>
       <r>    3.1128    0.0000 </r>
       <r>    3.4250    0.0000 </r>
      </set>
      <set comment="kpoint 26">
       <r>   -7.0635    1.0000 </r>
       <r>   -6.8756    1.0000 </r>
       <r>   -6.6458    1.0000 </r>
       <r>   -6.4759    1.0000 </r>
       <r>   -6.2765    1.0000 </r>
       <r>   -6.1485    1.0000 </r>
       <r>   -6.0143    1.0000 </r>
       <r>   -5.8027    1.0000 </r>
       <r>   -5.7012    1.0000 </r>
       <r>   -5.4345    1.0000 </r>
       <r>   -5.3421    1.0000 </r>
       <r>   -5.3052    1.0000 </r>
       <r>   -5.1954    1.0000 </r>
       <r>   -5.0541    1.0000 </r>
       <r>   -4.8854    1.0000 </r>
       <r>   -4.7303    1.0000 </r>
       <r>   -4.6154    1.0000 </r>
       <r>   -4.4427    1.0000 </r>
       <r>   -4.2330    1.0000 </r>
       <r>   -4.1368    1.0000 </r>
       <r>   -2.8578    0.9984 </r>
       <r>   -2.6587    0.5496 </r>
       <r>   -1.8479    0.0000 </r>
       <r>   -0.1877    0.0000 </r>
       <r>    1.9225    0.0000 </r>
       <r>    3.0549    0.0000 </r>
       <r>    4.0965    0.0000 </r>
       <r>    5.3032    0.0000 </r>
      </set>
      <set comment="kpoint 27">
       <r>   -7.9230    1.0000 </r>
       <r>   -7.3696    1.0000 </r>
       <r>   -6.8501    1.0000 </r>
       <r>   -6.5780    1.0000 </r>
       <r>   -6.3642    1.0000 </r>
       <r>   -6.2511    1.0000 </r>
       <r>   -5.9730    1.0000 </r>
       <r>   -5.8012    1.0000 </r>
       <r>   -5.5616    1.0000 </r>
       <r>   -5.4643    1.0000 </r>
       <r>   -5.3283    1.0000 </r>
       <r>   -5.2500    1.0000 </r>
       <r>   -5.0972    1.0000 </r>
       <r>   -4.9686    1.0000 </r>
       <r>   -4.8525    1.0000 </r>
       <r>   -4.6602    1.0000 </r>
       <r>   -4.5817    1.0000 </r>
       <r>   -4.4079    1.0000 </r>
       <r>   -4.3075    1.0000 </r>
       <r>   -4.2211    1.0000 </r>
       <r>   -3.9788    1.0000 </r>
       <r>   -3.8561    1.0000 </r>
       <r>   -3.3006    1.0000 </r>
       <r>   -1.6279    0.0000 </r>
       <r>    0.8007    0.0000 </r>
       <r>    3.3289    0.0000 </r>
       <r>    4.3113    0.0000 </r>
       <r>    5.3617    0.0000 </r>
      </set>
      <set comment="kpoint 28">
       <r>   -7.6168    1.0000 </r>
       <r>   -7.2912    1.0000 </r>
       <r>   -6.9367    1.0000 </r>
       <r>   -6.7248    1.0000 </r>
       <r>   -6.5695    1.0000 </r>
       <r>   -6.3359    1.0000 </r>
       <r>   -5.8829    1.0000 </r>
       <r>   -5.7186    1.0000 </r>
       <r>   -5.5466    1.0000 </r>
       <r>   -5.4007    1.0000 </r>
       <r>   -5.2102    1.0000 </r>
       <r>   -5.0168    1.0000 </r>
       <r>   -4.8292    1.0000 </r>
       <r>   -4.5880    1.0000 </r>
       <r>   -4.5260    1.0000 </r>
       <r>   -4.3389    1.0000 </r>
       <r>   -4.3148    1.0000 </r>
       <r>   -4.2383    1.0000 </r>
       <r>   -4.1946    1.0000 </r>
       <r>   -4.1218    1.0000 </r>
       <r>   -4.0981    1.0000 </r>
       <r>   -3.6203    1.0000 </r>
       <r>   -3.0404    1.0000 </r>
       <r>   -1.3160    0.0000 </r>
       <r>    0.7787    0.0000 </r>
       <r>    2.4359    0.0000 </r>
       <r>    3.3620    0.0000 </r>
       <r>    4.7330    0.0000 </r>
      </set>
      <set comment="kpoint 29">
       <r>   -6.8421    1.0000 </r>
       <r>   -6.8137    1.0000 </r>
       <r>   -6.5444    1.0000 </r>
       <r>   -6.4612    1.0000 </r>
       <r>   -6.3638    1.0000 </r>
       <r>   -6.1807    1.0000 </r>
       <r>   -6.0427    1.0000 </r>
       <r>   -5.7486    1.0000 </r>
       <r>   -5.6653    1.0000 </r>
       <r>   -5.4617    1.0000 </r>
       <r>   -5.3636    1.0000 </r>
       <r>   -5.1036    1.0000 </r>
       <r>   -5.0435    1.0000 </r>
       <r>   -4.9566    1.0000 </r>
       <r>   -4.8484    1.0000 </r>
       <r>   -4.6582    1.0000 </r>
       <r>   -4.5299    1.0000 </r>
       <r>   -4.3244    1.0000 </r>
       <r>   -4.2993    1.0000 </r>
       <r>   -4.1996    1.0000 </r>
       <r>   -1.9807    0.0000 </r>
       <r>   -0.9784    0.0000 </r>
       <r>   -0.5293    0.0000 </r>
       <r>    0.0400    0.0000 </r>
       <r>    0.5889    0.0000 </r>
       <r>    2.2011    0.0000 </r>
       <r>    3.3923    0.0000 </r>
       <r>    4.8412    0.0000 </r>
      </set>
      <set comment="kpoint 30">
       <r>   -7.2358    1.0000 </r>
       <r>   -7.0888    1.0000 </r>
       <r>   -6.7822    1.0000 </r>
       <r>   -6.6914    1.0000 </r>
       <r>   -6.5509    1.0000 </r>
       <r>   -6.3284    1.0000 </r>
       <r>   -5.8892    1.0000 </r>
       <r>   -5.6788    1.0000 </r>
       <r>   -5.5795    1.0000 </r>
       <r>   -5.4271    1.0000 </r>
       <r>   -5.2953    1.0000 </r>
       <r>   -4.9725    1.0000 </r>
       <r>   -4.8490    1.0000 </r>
       <r>   -4.7002    1.0000 </r>
       <r>   -4.5686    1.0000 </r>
       <r>   -4.4554    1.0000 </r>
       <r>   -4.3535    1.0000 </r>
       <r>   -4.2980    1.0000 </r>
       <r>   -4.2100    1.0000 </r>
       <r>   -4.1286    1.0000 </r>
       <r>   -2.8459    0.9972 </r>
       <r>   -2.5039    0.0195 </r>
       <r>   -1.9347    0.0000 </r>
       <r>   -0.6547    0.0000 </r>
       <r>    0.2221    0.0000 </r>
       <r>    1.9755    0.0000 </r>
       <r>    3.1288    0.0000 </r>
       <r>    4.4294    0.0000 </r>
      </set>
      <set comment="kpoint 31">
       <r>   -7.3160    1.0000 </r>
       <r>   -7.1818    1.0000 </r>
       <r>   -6.8590    1.0000 </r>
       <r>   -6.7698    1.0000 </r>
       <r>   -6.7136    1.0000 </r>
       <r>   -6.3981    1.0000 </r>
       <r>   -5.8385    1.0000 </r>
       <r>   -5.6580    1.0000 </r>
       <r>   -5.5742    1.0000 </r>
       <r>   -5.4354    1.0000 </r>
       <r>   -5.0698    1.0000 </r>
       <r>   -5.0336    1.0000 </r>
       <r>   -4.6844    1.0000 </r>
       <r>   -4.5742    1.0000 </r>
       <r>   -4.3117    1.0000 </r>
       <r>   -4.2870    1.0000 </r>
       <r>   -4.2047    1.0000 </r>
       <r>   -4.1531    1.0000 </r>
       <r>   -4.0977    1.0000 </r>
       <r>   -3.9840    1.0000 </r>
       <r>   -2.8898    0.9997 </r>
       <r>   -2.2223    0.0000 </r>
       <r>   -1.7492    0.0000 </r>
       <r>   -1.2362    0.0000 </r>
       <r>   -0.9875    0.0000 </r>
       <r>    1.6698    0.0000 </r>
       <r>    2.7634    0.0000 </r>
       <r>    4.2101    0.0000 </r>
      </set>
     </set>
    </set>
   </array>
  </eigenvalues>
  <separator name="orbital magnetization" >
   <v name="MAGDIPOLOUT">      0.00000000      0.00000000      0.00000000</v>
  </separator>
  <dos>
   <i name="efermi">     -2.64985154 </i>
   <total>
    <array>
     <dimension dim="1">gridpoints</dimension>
     <dimension dim="2">spin</dimension>
     <field>energy</field>
     <field>total</field>
     <field>integrated</field>
     <set>
      <set comment="spin 1">
       <r>   -17.0000     0.0000     0.0000 </r>
       <r>   -16.9900     0.0000     0.0000 </r>
       <r>   -16.9800     0.0000     0.0000 </r>
       <r>   -16.9700     0.0000     0.0000 </r>
       <r>   -16.9600     0.0000     0.0000 </r>
       <r>   -16.9500     0.0000     0.0000 </r>
       <r>   -16.9400     0.0000     0.0000 </r>
       <r>   -16.9300     0.0000     0.0000 </r>
       <r>   -16.9200     0.0000     0.0000 </r>
       <r>   -16.9100     0.0000     0.0000 </r>
       <r>   -16.9000     0.0000     0.0000 </r>
       <r>   -16.8900     0.0000     0.0000 </r>
       <r>   -16.8800     0.0000     0.0000 </r>
       <r>   -16.8700     0.0000     0.0000 </r>
       <r>   -16.8600     0.0000     0.0000 </r>
       <r>   -16.8500     0.0000     0.0000 </r>
       <r>   -16.8400     0.0000     0.0000 </r>
       <r>   -16.8300     0.0000     0.0000 </r>
       <r>   -16.8200     0.0000     0.0000 </r>
       <r>   -16.8100     0.0000     0.0000 </r>
       <r>   -16.8000     0.0000     0.0000 </r>
       <r>   -16.7900     0.0000     0.0000 </r>
       <r>   -16.7800     0.0000     0.0000 </r>
       <r>   -16.7700     0.0000     0.0000 </r>
       <r>   -16.7600     0.0000     0.0000 </r>
       <r>   -16.7500     0.0000     0.0000 </r>
       <r>   -16.7400     0.0000     0.0000 </r>
       <r>   -16.7300     0.0000     0.0000 </r>
       <r>   -16.7200     0.0000     0.0000 </r>
       <r>   -16.7100     0.0000     0.0000 </r>
       <r>   -16.7000     0.0000     0.0000 </r>
       <r>   -16.6900     0.0000     0.0000 </r>
       <r>   -16.6800     0.0000     0.0000 </r>
       <r>   -16.6700     0.0000     0.0000 </r>
       <r>   -16.6600     0.0000     0.0000 </r>
       <r>   -16.6500     0.0000     0.0000 </r>
       <r>   -16.6400     0.0000     0.0000 </r>
       <r>   -16.6300     0.0000     0.0000 </r>
       <r>   -16.6200     0.0000     0.0000 </r>
       <r>   -16.6100     0.0000     0.0000 </r>
       <r>   -16.6000     0.0000     0.0000 </r>
       <r>   -16.5900     0.0000     0.0000 </r>
       <r>   -16.5800     0.0000     0.0000 </r>
       <r>   -16.5700     0.0000     0.0000 </r>
       <r>   -16.5600     0.0000     0.0000 </r>
       <r>   -16.5500     0.0000     0.0000 </r>
       <r>   -16.5400     0.0000     0.0000 </r>
       <r>   -16.5300     0.0000     0.0000 </r>
       <r>   -16.5200     0.0000     0.0000 </r>
       <r>   -16.5100     0.0000     0.0000 </r>
       <r>   -16.5000     0.0000     0.0000 </r>
       <r>   -16.4900     0.0000     0.0000 </r>
       <r>   -16.4800     0.0000     0.0000 </r>
       <r>   -16.4700     0.0000     0.0000 </r>
       <r>   -16.4600     0.0000     0.0000 </r>
       <r>   -16.4500     0.0000     0.0000 </r>
       <r>   -16.4400     0.0000     0.0000 </r>
       <r>   -16.4300     0.0000     0.0000 </r>
       <r>   -16.4200     0.0000     0.0000 </r>
       <r>   -16.4100     0.0000     0.0000 </r>
       <r>   -16.4000     0.0000     0.0000 </r>
       <r>   -16.3900     0.0000     0.0000 </r>
       <r>   -16.3800     0.0000     0.0000 </r>
       <r>   -16.3700     0.0000     0.0000 </r>
       <r>   -16.3600     0.0000     0.0000 </r>
       <r>   -16.3500     0.0000     0.0000 </r>
       <r>   -16.3400     0.0000     0.0000 </r>
       <r>   -16.3300     0.0000     0.0000 </r>
       <r>   -16.3200     0.0000     0.0000 </r>
       <r>   -16.3100     0.0000     0.0000 </r>
       <r>   -16.3000     0.0000     0.0000 </r>
       <r>   -16.2900     0.0000     0.0000 </r>
       <r>   -16.2800     0.0000     0.0000 </r>
       <r>   -16.2700     0.0000     0.0000 </r>
       <r>   -16.2600     0.0000     0.0000 </r>
       <r>   -16.2500     0.0000     0.0000 </r>
       <r>   -16.2400     0.0000     0.0000 </r>
       <r>   -16.2300     0.0000     0.0000 </r>
       <r>   -16.2200     0.0000     0.0000 </r>
       <r>   -16.2100     0.0000     0.0000 </r>
       <r>   -16.2000     0.0000     0.0000 </r>
       <r>   -16.1900     0.0000     0.0000 </r>
       <r>   -16.1800     0.0000     0.0000 </r>
       <r>   -16.1700     0.0000     0.0000 </r>
       <r>   -16.1600     0.0000     0.0000 </r>
       <r>   -16.1500     0.0000     0.0000 </r>
       <r>   -16.1400     0.0000     0.0000 </r>
       <r>   -16.1300     0.0000     0.0000 </r>
       <r>   -16.1200     0.0000     0.0000 </r>
       <r>   -16.1100     0.0000     0.0000 </r>
       <r>   -16.1000     0.0000     0.0000 </r>
       <r>   -16.0900     0.0000     0.0000 </r>
       <r>   -16.0800     0.0000     0.0000 </r>
       <r>   -16.0700     0.0000     0.0000 </r>
       <r>   -16.0600     0.0000     0.0000 </r>
       <r>   -16.0500     0.0000     0.0000 </r>
       <r>   -16.0400     0.0000     0.0000 </r>
       <r>   -16.0300     0.0000     0.0000 </r>
       <r>   -16.0200     0.0000     0.0000 </r>
       <r>   -16.0100     0.0000     0.0000 </r>
       <r>   -16.0000     0.0000     0.0000 </r>
       <r>   -15.9900     0.0000     0.0000 </r>
       <r>   -15.9800     0.0000     0.0000 </r>
       <r>   -15.9700     0.0000     0.0000 </r>
       <r>   -15.9600     0.0000     0.0000 </r>
       <r>   -15.9500     0.0000     0.0000 </r>
       <r>   -15.9400     0.0000     0.0000 </r>
       <r>   -15.9300     0.0000     0.0000 </r>
       <r>   -15.9200     0.0000     0.0000 </r>
       <r>   -15.9100     0.0000     0.0000 </r>
       <r>   -15.9000     0.0000     0.0000 </r>
       <r>   -15.8900     0.0000     0.0000 </r>
       <r>   -15.8800     0.0000     0.0000 </r>
       <r>   -15.8700     0.0000     0.0000 </r>
       <r>   -15.8600     0.0000     0.0000 </r>
       <r>   -15.8500     0.0000     0.0000 </r>
       <r>   -15.8400     0.0000     0.0000 </r>
       <r>   -15.8300     0.0000     0.0000 </r>
       <r>   -15.8200     0.0000     0.0000 </r>
       <r>   -15.8100     0.0000     0.0000 </r>
       <r>   -15.8000     0.0000     0.0000 </r>
       <r>   -15.7900     0.0000     0.0000 </r>
       <r>   -15.7800     0.0000     0.0000 </r>
       <r>   -15.7700     0.0000     0.0000 </r>
       <r>   -15.7600     0.0000     0.0000 </r>
       <r>   -15.7500     0.0000     0.0000 </r>
       <r>   -15.7400     0.0000     0.0000 </r>
       <r>   -15.7300     0.0000     0.0000 </r>
       <r>   -15.7200     0.0000     0.0000 </r>
       <r>   -15.7100     0.0000     0.0000 </r>
       <r>   -15.7000     0.0000     0.0000 </r>
       <r>   -15.6900     0.0000     0.0000 </r>
       <r>   -15.6800     0.0000     0.0000 </r>
       <r>   -15.6700     0.0000     0.0000 </r>
       <r>   -15.6600     0.0000     0.0000 </r>
       <r>   -15.6500     0.0000     0.0000 </r>
       <r>   -15.6400     0.0000     0.0000 </r>
       <r>   -15.6300     0.0000     0.0000 </r>
       <r>   -15.6200     0.0000     0.0000 </r>
       <r>   -15.6100     0.0000     0.0000 </r>
       <r>   -15.6000     0.0000     0.0000 </r>
       <r>   -15.5900     0.0000     0.0000 </r>
       <r>   -15.5800     0.0000     0.0000 </r>
       <r>   -15.5700     0.0000     0.0000 </r>
       <r>   -15.5600     0.0000     0.0000 </r>
       <r>   -15.5500     0.0000     0.0000 </r>
       <r>   -15.5400     0.0000     0.0000 </r>
       <r>   -15.5300     0.0000     0.0000 </r>
       <r>   -15.5200     0.0000     0.0000 </r>
       <r>   -15.5100     0.0000     0.0000 </r>
       <r>   -15.5000     0.0000     0.0000 </r>
       <r>   -15.4900     0.0000     0.0000 </r>
       <r>   -15.4800     0.0000     0.0000 </r>
       <r>   -15.4700     0.0000     0.0000 </r>
       <r>   -15.4600     0.0000     0.0000 </r>
       <r>   -15.4500     0.0000     0.0000 </r>
       <r>   -15.4400     0.0000     0.0000 </r>
       <r>   -15.4300     0.0000     0.0000 </r>
       <r>   -15.4200     0.0000     0.0000 </r>
       <r>   -15.4100     0.0000     0.0000 </r>
       <r>   -15.4000     0.0000     0.0000 </r>
       <r>   -15.3900     0.0000     0.0000 </r>
       <r>   -15.3800     0.0000     0.0000 </r>
       <r>   -15.3700     0.0000     0.0000 </r>
       <r>   -15.3600     0.0000     0.0000 </r>
       <r>   -15.3500     0.0000     0.0000 </r>
       <r>   -15.3400     0.0000     0.0000 </r>
       <r>   -15.3300     0.0000     0.0000 </r>
       <r>   -15.3200     0.0000     0.0000 </r>
       <r>   -15.3100     0.0000     0.0000 </r>
       <r>   -15.3000     0.0000     0.0000 </r>
       <r>   -15.2900     0.0000     0.0000 </r>
       <r>   -15.2800     0.0000     0.0000 </r>
       <r>   -15.2700     0.0000     0.0000 </r>
       <r>   -15.2600     0.0000     0.0000 </r>
       <r>   -15.2500     0.0000     0.0000 </r>
       <r>   -15.2400     0.0000     0.0000 </r>
       <r>   -15.2300     0.0000     0.0000 </r>
       <r>   -15.2200     0.0000     0.0000 </r>
       <r>   -15.2100     0.0000     0.0000 </r>
       <r>   -15.2000     0.0000     0.0000 </r>
       <r>   -15.1900     0.0000     0.0000 </r>
       <r>   -15.1800     0.0000     0.0000 </r>
       <r>   -15.1700     0.0000     0.0000 </r>
       <r>   -15.1600     0.0000     0.0000 </r>
       <r>   -15.1500     0.0000     0.0000 </r>
       <r>   -15.1400     0.0000     0.0000 </r>
       <r>   -15.1300     0.0000     0.0000 </r>
       <r>   -15.1200     0.0000     0.0000 </r>
       <r>   -15.1100     0.0000     0.0000 </r>
       <r>   -15.1000     0.0000     0.0000 </r>
       <r>   -15.0900     0.0000     0.0000 </r>
       <r>   -15.0800     0.0000     0.0000 </r>
       <r>   -15.0700     0.0000     0.0000 </r>
       <r>   -15.0600     0.0000     0.0000 </r>
       <r>   -15.0500     0.0000     0.0000 </r>
       <r>   -15.0400     0.0000     0.0000 </r>
       <r>   -15.0300     0.0000     0.0000 </r>
       <r>   -15.0200     0.0000     0.0000 </r>
       <r>   -15.0100     0.0000     0.0000 </r>
       <r>   -15.0000     0.0000     0.0000 </r>
       <r>   -14.9900     0.0000     0.0000 </r>
       <r>   -14.9800     0.0000     0.0000 </r>
       <r>   -14.9700     0.0000     0.0000 </r>
       <r>   -14.9600     0.0000     0.0000 </r>
       <r>   -14.9500     0.0000     0.0000 </r>
       <r>   -14.9400     0.0000     0.0000 </r>
       <r>   -14.9300     0.0000     0.0000 </r>
       <r>   -14.9200     0.0000     0.0000 </r>
       <r>   -14.9100     0.0000     0.0000 </r>
       <r>   -14.9000     0.0000     0.0000 </r>
       <r>   -14.8900     0.0000     0.0000 </r>
       <r>   -14.8800     0.0000     0.0000 </r>
       <r>   -14.8700     0.0000     0.0000 </r>
       <r>   -14.8600     0.0000     0.0000 </r>
       <r>   -14.8500     0.0000     0.0000 </r>
       <r>   -14.8400     0.0000     0.0000 </r>
       <r>   -14.8300     0.0000     0.0000 </r>
       <r>   -14.8200     0.0000     0.0000 </r>
       <r>   -14.8100     0.0000     0.0000 </r>
       <r>   -14.8000     0.0000     0.0000 </r>
       <r>   -14.7900     0.0000     0.0000 </r>
       <r>   -14.7800     0.0000     0.0000 </r>
       <r>   -14.7700     0.0000     0.0000 </r>
       <r>   -14.7600     0.0000     0.0000 </r>
       <r>   -14.7500     0.0000     0.0000 </r>
       <r>   -14.7400     0.0000     0.0000 </r>
       <r>   -14.7300     0.0000     0.0000 </r>
       <r>   -14.7200     0.0000     0.0000 </r>
       <r>   -14.7100     0.0000     0.0000 </r>
       <r>   -14.7000     0.0000     0.0000 </r>
       <r>   -14.6900     0.0000     0.0000 </r>
       <r>   -14.6800     0.0000     0.0000 </r>
       <r>   -14.6700     0.0000     0.0000 </r>
       <r>   -14.6600     0.0000     0.0000 </r>
       <r>   -14.6500     0.0000     0.0000 </r>
       <r>   -14.6400     0.0000     0.0000 </r>
       <r>   -14.6300     0.0000     0.0000 </r>
       <r>   -14.6200     0.0000     0.0000 </r>
       <r>   -14.6100     0.0000     0.0000 </r>
       <r>   -14.6000     0.0000     0.0000 </r>
       <r>   -14.5900     0.0000     0.0000 </r>
       <r>   -14.5800     0.0000     0.0000 </r>
       <r>   -14.5700     0.0000     0.0000 </r>
       <r>   -14.5600     0.0000     0.0000 </r>
       <r>   -14.5500     0.0000     0.0000 </r>
       <r>   -14.5400     0.0000     0.0000 </r>
       <r>   -14.5300     0.0000     0.0000 </r>
       <r>   -14.5200     0.0000     0.0000 </r>
       <r>   -14.5100     0.0000     0.0000 </r>
       <r>   -14.5000     0.0000     0.0000 </r>
       <r>   -14.4900     0.0000     0.0000 </r>
       <r>   -14.4800     0.0000     0.0000 </r>
       <r>   -14.4700     0.0000     0.0000 </r>
       <r>   -14.4600     0.0000     0.0000 </r>
       <r>   -14.4500     0.0000     0.0000 </r>
       <r>   -14.4400     0.0000     0.0000 </r>
       <r>   -14.4300     0.0000     0.0000 </r>
       <r>   -14.4200     0.0000     0.0000 </r>
       <r>   -14.4100     0.0000     0.0000 </r>
       <r>   -14.4000     0.0000     0.0000 </r>
       <r>   -14.3900     0.0000     0.0000 </r>
       <r>   -14.3800     0.0000     0.0000 </r>
       <r>   -14.3700     0.0000     0.0000 </r>
       <r>   -14.3600     0.0000     0.0000 </r>
       <r>   -14.3500     0.0000     0.0000 </r>
       <r>   -14.3400     0.0000     0.0000 </r>
       <r>   -14.3300     0.0000     0.0000 </r>
       <r>   -14.3200     0.0000     0.0000 </r>
       <r>   -14.3100     0.0000     0.0000 </r>
       <r>   -14.3000     0.0000     0.0000 </r>
       <r>   -14.2900     0.0000     0.0000 </r>
       <r>   -14.2800     0.0000     0.0000 </r>
       <r>   -14.2700     0.0000     0.0000 </r>
       <r>   -14.2600     0.0000     0.0000 </r>
       <r>   -14.2500     0.0000     0.0000 </r>
       <r>   -14.2400     0.0000     0.0000 </r>
       <r>   -14.2300     0.0000     0.0000 </r>
       <r>   -14.2200     0.0000     0.0000 </r>
       <r>   -14.2100     0.0000     0.0000 </r>
       <r>   -14.2000     0.0000     0.0000 </r>
       <r>   -14.1900     0.0000     0.0000 </r>
       <r>   -14.1800     0.0000     0.0000 </r>
       <r>   -14.1700     0.0000     0.0000 </r>
       <r>   -14.1600     0.0000     0.0000 </r>
       <r>   -14.1500     0.0000     0.0000 </r>
       <r>   -14.1400     0.0000     0.0000 </r>
       <r>   -14.1300     0.0000     0.0000 </r>
       <r>   -14.1200     0.0000     0.0000 </r>
       <r>   -14.1100     0.0000     0.0000 </r>
       <r>   -14.1000     0.0000     0.0000 </r>
       <r>   -14.0900     0.0000     0.0000 </r>
       <r>   -14.0800     0.0000     0.0000 </r>
       <r>   -14.0700     0.0000     0.0000 </r>
       <r>   -14.0600     0.0000     0.0000 </r>
       <r>   -14.0500     0.0000     0.0000 </r>
       <r>   -14.0400     0.0000     0.0000 </r>
       <r>   -14.0300     0.0000     0.0000 </r>
       <r>   -14.0200     0.0000     0.0000 </r>
       <r>   -14.0100     0.0000     0.0000 </r>
       <r>   -14.0000     0.0000     0.0000 </r>
       <r>   -13.9900     0.0000     0.0000 </r>
       <r>   -13.9800     0.0000     0.0000 </r>
       <r>   -13.9700     0.0000     0.0000 </r>
[...]
        <r>  0.0000  0.0004  0.0000  0.0001  0.0613  0.0079  0.0161  0.0349  0.0023 </r>
        <r>  0.0001  0.0003  0.0002  0.0001  0.0516  0.0029  0.0002  0.0124  0.0002 </r>
        <r>  0.0003  0.0000  0.0000  0.0000  0.0000  0.0000  0.0000  0.0000  0.0000 </r>
       </set>
       <set comment="band 19">
        <r>  0.0007  0.0014  0.0003  0.0000  0.1403  0.0070  0.0670  0.0207  0.0060 </r>
        <r>  0.0000  0.0000  0.0002  0.0000  0.0222  0.0701  0.0102  0.0108  0.0012 </r>
        <r>  0.0001  0.0000  0.0000  0.0000  0.1059  0.0113  0.1801  0.0002  0.0246 </r>
        <r>  0.0002  0.0003  0.0001  0.0000  0.2777  0.0244  0.0002  0.0024  0.0021 </r>
        <r>  0.0004  0.0000  0.0000  0.0000  0.0000  0.0000  0.0000  0.0000  0.0000 </r>
       </set>
       <set comment="band 20">
        <r>  0.0013  0.0021  0.0004  0.0000  0.3425  0.0116  0.0721  0.0083  0.0118 </r>
        <r>  0.0000  0.0001  0.0002  0.0000  0.1260  0.0113  0.1408  0.0124  0.0357 </r>
        <r>  0.0000  0.0002  0.0001  0.0000  0.0796  0.0101  0.0386  0.0197  0.0127 </r>
        <r>  0.0000  0.0001  0.0004  0.0000  0.0294  0.0018  0.0011  0.0136  0.0021 </r>
        <r>  0.0007  0.0000  0.0000  0.0000  0.0000  0.0000  0.0000  0.0000  0.0000 </r>
       </set>
       <set comment="band 21">
        <r>  0.0065  0.0162  0.0024  0.0001  0.0236  0.0090  0.0245  0.0010  0.0127 </r>
        <r>  0.0184  0.0489  0.0031  0.0004  0.0519  0.0040  0.0246  0.0009  0.0258 </r>
        <r>  0.0170  0.0635  0.0041  0.0004  0.0664  0.0002  0.0105  0.0012  0.0156 </r>
        <r>  0.0199  0.0426  0.0135  0.0003  0.0518  0.0032  0.0479  0.0021  0.0267 </r>
        <r>  0.0595  0.0002  0.0001  0.0000  0.0000  0.0000  0.0000  0.0000  0.0000 </r>
       </set>
       <set comment="band 22">
        <r>  0.0088  0.0195  0.0018  0.0002  0.0172  0.0045  0.0129  0.0006  0.0121 </r>
        <r>  0.0167  0.0372  0.0003  0.0004  0.0251  0.0002  0.0123  0.0001  0.0196 </r>
        <r>  0.0165  0.0134  0.0010  0.0004  0.0094  0.0084  0.0369  0.0001  0.0314 </r>
        <r>  0.0394  0.0231  0.0153  0.0004  0.0207  0.0079  0.1225  0.0009  0.0553 </r>
        <r>  0.1220  0.0002  0.0000  0.0000  0.0000  0.0000  0.0000  0.0000  0.0000 </r>
       </set>
       <set comment="band 23">
        <r>  0.0325  0.0950  0.0012  0.0010  0.0441  0.0049  0.0057  0.0009  0.0244 </r>
        <r>  0.0163  0.0234  0.0190  0.0004  0.0095  0.0220  0.0185  0.0043  0.0176 </r>
        <r>  0.0200  0.0728  0.0084  0.0008  0.0284  0.0088  0.0050  0.0028  0.0132 </r>
        <r>  0.0073  0.0319  0.0236  0.0004  0.0122  0.0144  0.0110  0.0031  0.0059 </r>
        <r>  0.0537  0.0001  0.0000  0.0000  0.0000  0.0000  0.0000  0.0000  0.0000 </r>
       </set>
       <set comment="band 24">
        <r>  0.0144  0.1223  0.0088  0.0005  0.0218  0.0011  0.0109  0.0013  0.0063 </r>
        <r>  0.0040  0.0696  0.0188  0.0001  0.0109  0.0113  0.0131  0.0028  0.0037 </r>
        <r>  0.0076  0.0068  0.0309  0.0001  0.0010  0.0201  0.0067  0.0038  0.0050 </r>
        <r>  0.0014  0.1159  0.0056  0.0004  0.0184  0.0028  0.0200  0.0005  0.0017 </r>
        <r>  0.0332  0.0004  0.0000  0.0000  0.0000  0.0000  0.0000  0.0000  0.0000 </r>
       </set>
       <set comment="band 25">
        <r>  0.0111  0.0338  0.0094  0.0002  0.0038  0.0018  0.0092  0.0010  0.0096 </r>
        <r>  0.0181  0.0845  0.0139  0.0003  0.0084  0.0007  0.0257  0.0015  0.0228 </r>
        <r>  0.0209  0.1101  0.0170  0.0004  0.0109  0.0005  0.0329  0.0018  0.0287 </r>
        <r>  0.0157  0.0885  0.0090  0.0003  0.0090  0.0010  0.0238  0.0010  0.0175 </r>
        <r>  0.0104  0.0005  0.0000  0.0000  0.0000  0.0000  0.0000  0.0000  0.0000 </r>
       </set>
       <set comment="band 26">
        <r>  0.0845  0.0275  0.0096  0.0021  0.0016  0.0097  0.0094  0.0004  0.0401 </r>
        <r>  0.1324  0.0058  0.0006  0.0042  0.0003  0.0358  0.0064  0.0000  0.0600 </r>
        <r>  0.0929  0.0069  0.0025  0.0030  0.0004  0.0388  0.0049  0.0000  0.0434 </r>
        <r>  0.0412  0.0220  0.0095  0.0011  0.0012  0.0046  0.0051  0.0003  0.0201 </r>
        <r>  0.0020  0.0003  0.0000  0.0000  0.0000  0.0000  0.0000  0.0000  0.0000 </r>
       </set>
       <set comment="band 27">
        <r>  0.1683  0.0170  0.0349  0.0049  0.0007  0.0153  0.0050  0.0009  0.0633 </r>
        <r>  0.0056  0.0183  0.0286  0.0003  0.0009  0.0046  0.0007  0.0008  0.0007 </r>
        <r>  0.0672  0.0097  0.0010  0.0028  0.0005  0.0160  0.0009  0.0000  0.0259 </r>
        <r>  0.0402  0.0179  0.0037  0.0015  0.0008  0.0150  0.0015  0.0001  0.0160 </r>
        <r>  0.0046  0.0007  0.0001  0.0000  0.0000  0.0000  0.0000  0.0000  0.0000 </r>
       </set>
       <set comment="band 28">
        <r>  0.0306  0.0337  0.0485  0.0007  0.0012  0.0222  0.0016  0.0012  0.0120 </r>
        <r>  0.0662  0.0055  0.0046  0.0036  0.0002  0.0445  0.0002  0.0001  0.0250 </r>
        <r>  0.0051  0.0255  0.0379  0.0003  0.0010  0.0169  0.0013  0.0008  0.0005 </r>
        <r>  0.1159  0.0033  0.0017  0.0059  0.0001  0.0091  0.0001  0.0000  0.0417 </r>
        <r>  0.0106  0.0011  0.0009  0.0000  0.0000  0.0000  0.0000  0.0000  0.0000 </r>
       </set>
      </set>
      <set comment="kpoint 31">
       <set comment="band 1">
        <r>  0.0088  0.0026  0.0019  0.0000  0.0000  0.0228  0.0062  0.0000  0.0221 </r>
        <r>  0.0518  0.0010  0.0005  0.0000  0.0000  0.0509  0.0193  0.0000  0.2001 </r>
        <r>  0.0537  0.0005  0.0003  0.0000  0.0000  0.0696  0.0210  0.0000  0.2080 </r>
        <r>  0.0153  0.0026  0.0017  0.0000  0.0000  0.0253  0.0143  0.0000  0.0390 </r>
        <r>  0.0018  0.0000  0.0000  0.0000  0.0000  0.0000  0.0000  0.0000  0.0000 </r>
       </set>
       <set comment="band 2">
        <r>  0.0012  0.0038  0.0000  0.0000  0.0000  0.0424  0.0005  0.0000  0.0122 </r>
        <r>  0.0196  0.0018  0.0000  0.0000  0.0000  0.1600  0.0002  0.0000  0.1477 </r>
        <r>  0.0234  0.0010  0.0000  0.0000  0.0000  0.1715  0.0000  0.0000  0.1683 </r>
        <r>  0.0020  0.0046  0.0000  0.0000  0.0000  0.0660  0.0003  0.0000  0.0170 </r>
        <r>  0.0002  0.0000  0.0000  0.0000  0.0000  0.0000  0.0000  0.0000  0.0000 </r>
       </set>
       <set comment="band 3">
        <r>  0.0066  0.0004  0.0017  0.0000  0.0000  0.0062  0.0128  0.0000  0.0096 </r>
        <r>  0.0118  0.0001  0.0021  0.0000  0.0000  0.0418  0.0216  0.0000  0.2443 </r>
        <r>  0.0013  0.0083  0.0029  0.0000  0.0000  0.1344  0.0172  0.0000  0.0687 </r>
        <r>  0.0408  0.0004  0.0014  0.0000  0.0000  0.0145  0.0237  0.0000  0.1860 </r>
        <r>  0.0073  0.0000  0.0001  0.0000  0.0000  0.0000  0.0000  0.0000  0.0000 </r>
       </set>
       <set comment="band 4">
        <r>  0.0192  0.0025  0.0014  0.0000  0.0000  0.0441  0.0006  0.0000  0.1333 </r>
        <r>  0.0019  0.0044  0.0006  0.0000  0.0000  0.1482  0.0086  0.0000  0.0005 </r>
        <r>  0.0022  0.0059  0.0000  0.0000  0.0000  0.0003  0.0514  0.0000  0.1601 </r>
        <r>  0.0127  0.0002  0.0001  0.0000  0.0000  0.0074  0.0216  0.0000  0.2462 </r>
        <r>  0.0005  0.0000  0.0000  0.0000  0.0000  0.0000  0.0000  0.0000  0.0000 </r>
       </set>
       <set comment="band 5">
        <r>  0.0297  0.0004  0.0003  0.0000  0.0000  0.0051  0.0127  0.0000  0.4066 </r>
        <r>  0.0024  0.0084  0.0007  0.0000  0.0000  0.0001  0.0712  0.0000  0.0212 </r>
        <r>  0.0057  0.0006  0.0011  0.0000  0.0000  0.0431  0.0547  0.0000  0.0008 </r>
        <r>  0.0054  0.0028  0.0000  0.0000  0.0000  0.0688  0.0137  0.0000  0.1264 </r>
        <r>  0.0000  0.0000  0.0000  0.0000  0.0000  0.0000  0.0000  0.0000  0.0000 </r>
       </set>
       <set comment="band 6">
        <r>  0.0001  0.0047  0.0013  0.0000  0.0000  0.1480  0.0452  0.0000  0.0817 </r>
        <r>  0.0010  0.0031  0.0032  0.0000  0.0000  0.1354  0.0514  0.0000  0.0204 </r>
        <r>  0.0003  0.0087  0.0050  0.0000  0.0000  0.0501  0.0146  0.0000  0.0057 </r>
        <r>  0.0001  0.0029  0.0003  0.0000  0.0000  0.1819  0.0733  0.0000  0.0564 </r>
        <r>  0.0029  0.0000  0.0001  0.0000  0.0000  0.0000  0.0000  0.0000  0.0000 </r>
       </set>
       <set comment="band 7">
        <r>  0.0001  0.0008  0.0001  0.0000  0.0000  0.2423  0.0049  0.0000  0.0134 </r>
        <r>  0.0004  0.0082  0.0056  0.0000  0.0000  0.0388  0.0090  0.0000  0.0003 </r>
        <r>  0.0000  0.0042  0.0059  0.0000  0.0000  0.1128  0.0256  0.0000  0.0254 </r>
        <r>  0.0000  0.0002  0.0002  0.0000  0.0000  0.3219  0.0488  0.0000  0.0378 </r>
        <r>  0.0004  0.0001  0.0000  0.0000  0.0000  0.0000  0.0000  0.0000  0.0000 </r>
       </set>
       <set comment="band 8">
        <r>  0.0006  0.0001  0.0000  0.0000  0.0000  0.1673  0.0010  0.0000  0.0197 </r>
        <r>  0.0001  0.0077  0.0017  0.0000  0.0000  0.0616  0.0322  0.0000  0.0590 </r>
        <r>  0.0003  0.0072  0.0001  0.0000  0.0000  0.0039  0.1524  0.0000  0.1013 </r>
        <r>  0.0031  0.0003  0.0003  0.0000  0.0000  0.0070  0.2456  0.0000  0.0346 </r>
        <r>  0.0172  0.0000  0.0004  0.0000  0.0000  0.0000  0.0000  0.0000  0.0000 </r>
       </set>
       <set comment="band 9">
        <r>  0.0001  0.0000  0.0012  0.0000  0.0000  0.0008  0.0754  0.0000  0.0683 </r>
        <r>  0.0026  0.0053  0.0028  0.0000  0.0000  0.0664  0.2066  0.0000  0.0440 </r>
        <r>  0.0000  0.0171  0.0008  0.0000  0.0000  0.1151  0.0029  0.0000  0.0066 </r>
        <r>  0.0105  0.0005  0.0021  0.0000  0.0000  0.0102  0.2242  0.0000  0.0074 </r>
        <r>  0.0307  0.0000  0.0005  0.0000  0.0000  0.0000  0.0000  0.0000  0.0000 </r>
       </set>
       <set comment="band 10">
        <r>  0.0000  0.0000  0.0000  0.0004  0.0004  0.0000  0.0000  0.0624  0.0000 </r>
        <r>  0.0000  0.0000  0.0000  0.0001  0.0018  0.0000  0.0000  0.3421  0.0000 </r>
        <r>  0.0000  0.0000  0.0000  0.0000  0.0021  0.0000  0.0000  0.4180  0.0000 </r>
        <r>  0.0000  0.0000  0.0000  0.0005  0.0006  0.0000  0.0000  0.1357  0.0000 </r>
        <r>  0.0000  0.0000  0.0000  0.0000  0.0000  0.0000  0.0000  0.0000  0.0000 </r>
       </set>
       <set comment="band 11">
        <r>  0.0099  0.0008  0.0015  0.0000  0.0000  0.0335  0.3247  0.0000  0.0000 </r>
        <r>  0.0001  0.0407  0.0039  0.0000  0.0000  0.0003  0.0013  0.0000  0.0006 </r>
        <r>  0.0067  0.0000  0.0042  0.0000  0.0000  0.0092  0.2822  0.0000  0.0083 </r>
        <r>  0.0021  0.0037  0.0018  0.0000  0.0000  0.0982  0.0389  0.0000  0.0231 </r>
        <r>  0.0069  0.0001  0.0001  0.0000  0.0000  0.0000  0.0000  0.0000  0.0000 </r>
       </set>
       <set comment="band 12">
        <r>  0.0000  0.0000  0.0000  0.0004  0.0008  0.0000  0.0000  0.2290  0.0000 </r>
        <r>  0.0000  0.0000  0.0000  0.0006  0.0004  0.0000  0.0000  0.2743  0.0000 </r>
        <r>  0.0000  0.0000  0.0000  0.0013  0.0001  0.0000  0.0000  0.1004  0.0000 </r>
        <r>  0.0000  0.0000  0.0000  0.0002  0.0004  0.0000  0.0000  0.3624  0.0000 </r>
        <r>  0.0000  0.0000  0.0000  0.0001  0.0000  0.0000  0.0000  0.0000  0.0000 </r>
       </set>
       <set comment="band 13">
        <r>  0.0003  0.0145  0.0000  0.0000  0.0000  0.1510  0.0454  0.0000  0.0018 </r>
        <r>  0.0027  0.0004  0.0000  0.0000  0.0000  0.0476  0.3445  0.0000  0.0133 </r>
        <r>  0.0000  0.0131  0.0000  0.0000  0.0000  0.1368  0.0184  0.0000  0.0017 </r>
        <r>  0.0003  0.0073  0.0076  0.0000  0.0000  0.0384  0.0436  0.0000  0.0079 </r>
        <r>  0.0182  0.0000  0.0002  0.0000  0.0000  0.0000  0.0000  0.0000  0.0000 </r>
       </set>
       <set comment="band 14">
        <r>  0.0000  0.0000  0.0000  0.0000  0.0000  0.0000  0.0000  0.3552  0.0000 </r>
        <r>  0.0000  0.0000  0.0000  0.0013  0.0001  0.0000  0.0000  0.0152  0.0000 </r>
        <r>  0.0000  0.0000  0.0000  0.0006  0.0010  0.0000  0.0000  0.2233  0.0000 </r>
        <r>  0.0000  0.0000  0.0000  0.0001  0.0015  0.0000  0.0000  0.3822  0.0000 </r>
        <r>  0.0000  0.0000  0.0000  0.0001  0.0000  0.0000  0.0000  0.0000  0.0000 </r>
       </set>
       <set comment="band 15">
        <r>  0.0026  0.0013  0.0011  0.0000  0.0000  0.0044  0.3453  0.0000  0.0395 </r>
        <r>  0.0004  0.0014  0.0000  0.0000  0.0000  0.0999  0.0885  0.0000  0.0433 </r>
        <r>  0.0003  0.0002  0.0022  0.0000  0.0000  0.0018  0.2251  0.0000  0.0430 </r>
        <r>  0.0000  0.0088  0.0016  0.0000  0.0000  0.0330  0.0076  0.0000  0.0095 </r>
        <r>  0.0020  0.0001  0.0000  0.0000  0.0000  0.0000  0.0000  0.0000  0.0000 </r>
       </set>
       <set comment="band 16">
        <r>  0.0000  0.0000  0.0000  0.0002  0.0022  0.0000  0.0000  0.2856  0.0000 </r>
        <r>  0.0000  0.0000  0.0000  0.0000  0.0724  0.0000  0.0000  0.3016  0.0000 </r>
        <r>  0.0000  0.0000  0.0000  0.0001  0.0466  0.0000  0.0000  0.1971  0.0000 </r>
        <r>  0.0000  0.0000  0.0000  0.0002  0.0069  0.0000  0.0000  0.0766  0.0000 </r>
        <r>  0.0000  0.0000  0.0000  0.0000  0.0000  0.0000  0.0000  0.0000  0.0000 </r>
       </set>
       <set comment="band 17">
        <r>  0.0000  0.0000  0.0000  0.0000  0.0029  0.0000  0.0000  0.0011  0.0000 </r>
        <r>  0.0000  0.0000  0.0000  0.0000  0.3492  0.0000  0.0000  0.0012  0.0000 </r>
        <r>  0.0000  0.0000  0.0000  0.0000  0.6071  0.0000  0.0000  0.0011  0.0000 </r>
        <r>  0.0000  0.0000  0.0000  0.0000  0.0296  0.0000  0.0000  0.0015  0.0000 </r>
        <r>  0.0000  0.0000  0.0000  0.0000  0.0000  0.0000  0.0000  0.0000  0.0000 </r>
       </set>
       <set comment="band 18">
        <r>  0.0000  0.0000  0.0000  0.0000  0.0165  0.0000  0.0000  0.0327  0.0000 </r>
        <r>  0.0000  0.0000  0.0000  0.0000  0.5262  0.0000  0.0000  0.0215  0.0000 </r>
        <r>  0.0000  0.0000  0.0000  0.0000  0.2270  0.0000  0.0000  0.0150  0.0000 </r>
        <r>  0.0000  0.0000  0.0000  0.0000  0.1451  0.0000  0.0000  0.0100  0.0000 </r>
        <r>  0.0000  0.0000  0.0000  0.0000  0.0000  0.0000  0.0000  0.0000  0.0000 </r>
       </set>
       <set comment="band 19">
        <r>  0.0000  0.0000  0.0000  0.0000  0.0059  0.0000  0.0000  0.0080  0.0000 </r>
        <r>  0.0000  0.0000  0.0000  0.0000  0.0273  0.0000  0.0000  0.0116  0.0000 </r>
        <r>  0.0000  0.0000  0.0000  0.0000  0.1090  0.0000  0.0000  0.0170  0.0000 </r>
        <r>  0.0000  0.0000  0.0000  0.0000  0.8097  0.0000  0.0000  0.0061  0.0000 </r>
        <r>  0.0000  0.0000  0.0000  0.0000  0.0000  0.0000  0.0000  0.0000  0.0000 </r>
       </set>
       <set comment="band 20">
        <r>  0.0000  0.0000  0.0000  0.0000  0.9656  0.0000  0.0000  0.0015  0.0000 </r>
        <r>  0.0000  0.0000  0.0000  0.0000  0.0167  0.0000  0.0000  0.0064  0.0000 </r>
        <r>  0.0000  0.0000  0.0000  0.0000  0.0012  0.0000  0.0000  0.0021  0.0000 </r>
        <r>  0.0000  0.0000  0.0000  0.0000  0.0007  0.0000  0.0000  0.0005  0.0000 </r>
        <r>  0.0000  0.0000  0.0000  0.0000  0.0000  0.0000  0.0000  0.0000  0.0000 </r>
       </set>
       <set comment="band 21">
        <r>  0.0022  0.0493  0.0036  0.0000  0.0000  0.0199  0.0396  0.0000  0.0118 </r>
        <r>  0.0014  0.0873  0.0124  0.0000  0.0000  0.0060  0.0144  0.0000  0.0052 </r>
        <r>  0.0003  0.1403  0.0068  0.0000  0.0000  0.0002  0.0020  0.0000  0.0020 </r>
        <r>  0.0000  0.0614  0.0253  0.0000  0.0000  0.0107  0.0039  0.0000  0.0000 </r>
        <r>  0.0627  0.0002  0.0001  0.0000  0.0000  0.0000  0.0000  0.0000  0.0000 </r>
       </set>
       <set comment="band 22">
        <r>  0.0027  0.0355  0.0025  0.0000  0.0000  0.0044  0.0130  0.0000  0.0070 </r>
        <r>  0.0023  0.0554  0.0008  0.0000  0.0000  0.0011  0.0075  0.0000  0.0050 </r>
        <r>  0.0033  0.0012  0.0038  0.0000  0.0000  0.0112  0.0131  0.0000  0.0045 </r>
        <r>  0.0349  0.0000  0.0234  0.0000  0.0000  0.0048  0.1649  0.0000  0.0588 </r>
        <r>  0.1932  0.0000  0.0000  0.0000  0.0000  0.0000  0.0000  0.0000  0.0000 </r>
       </set>
       <set comment="band 23">
        <r>  0.0017  0.0813  0.0012  0.0000  0.0000  0.0031  0.0044  0.0000  0.0031 </r>
        <r>  0.0319  0.0385  0.0001  0.0000  0.0000  0.0113  0.0590  0.0000  0.0484 </r>
        <r>  0.0294  0.0575  0.0000  0.0000  0.0000  0.0087  0.0528  0.0000  0.0456 </r>
        <r>  0.0180  0.0903  0.0003  0.0000  0.0000  0.0058  0.0413  0.0000  0.0244 </r>
        <r>  0.0242  0.0004  0.0000  0.0000  0.0000  0.0000  0.0000  0.0000  0.0000 </r>
       </set>
       <set comment="band 24">
        <r>  0.0090  0.1129  0.0045  0.0000  0.0000  0.0002  0.0111  0.0000  0.0124 </r>
        <r>  0.0413  0.0231  0.0045  0.0000  0.0000  0.0062  0.0424  0.0000  0.0481 </r>
        <r>  0.0434  0.0288  0.0069  0.0000  0.0000  0.0058  0.0439  0.0000  0.0509 </r>
        <r>  0.0073  0.1313  0.0084  0.0000  0.0000  0.0002  0.0060  0.0000  0.0098 </r>
        <r>  0.0014  0.0006  0.0000  0.0000  0.0000  0.0000  0.0000  0.0000  0.0000 </r>
       </set>
       <set comment="band 25">
        <r>  0.0266  0.0906  0.0115  0.0000  0.0000  0.0001  0.0254  0.0000  0.0320 </r>
        <r>  0.0000  0.0933  0.0449  0.0000  0.0000  0.0000  0.0000  0.0000  0.0000 </r>
        <r>  0.0001  0.0855  0.0437  0.0000  0.0000  0.0001  0.0000  0.0000  0.0001 </r>
        <r>  0.0204  0.0786  0.0136  0.0000  0.0000  0.0001  0.0144  0.0000  0.0232 </r>
        <r>  0.0007  0.0004  0.0000  0.0000  0.0000  0.0000  0.0000  0.0000  0.0000 </r>
       </set>
       <set comment="band 26">
        <r>  0.1010  0.0235  0.0008  0.0000  0.0000  0.0071  0.0075  0.0000  0.0468 </r>
        <r>  0.1165  0.0000  0.0043  0.0000  0.0000  0.0554  0.0058  0.0000  0.0564 </r>
        <r>  0.1257  0.0008  0.0055  0.0000  0.0000  0.0411  0.0065  0.0000  0.0600 </r>
        <r>  0.0355  0.0163  0.0077  0.0000  0.0000  0.0076  0.0020  0.0000  0.0169 </r>
        <r>  0.0018  0.0003  0.0000  0.0000  0.0000  0.0000  0.0000  0.0000  0.0000 </r>
       </set>
       <set comment="band 27">
        <r>  0.2247  0.0028  0.0280  0.0000  0.0000  0.0016  0.0044  0.0000  0.0825 </r>
        <r>  0.0077  0.0332  0.0103  0.0000  0.0000  0.0077  0.0002  0.0000  0.0025 </r>
        <r>  0.0263  0.0023  0.0079  0.0000  0.0000  0.0404  0.0001  0.0000  0.0116 </r>
        <r>  0.0666  0.0084  0.0088  0.0000  0.0000  0.0104  0.0007  0.0000  0.0267 </r>
        <r>  0.0051  0.0005  0.0001  0.0000  0.0000  0.0000  0.0000  0.0000  0.0000 </r>
       </set>
       <set comment="band 28">
        <r>  0.0152  0.0195  0.0689  0.0000  0.0000  0.0287  0.0001  0.0000  0.0036 </r>
        <r>  0.1223  0.0001  0.0088  0.0000  0.0000  0.0127  0.0001  0.0000  0.0406 </r>
        <r>  0.0136  0.0451  0.0281  0.0000  0.0000  0.0001  0.0000  0.0000  0.0044 </r>
        <r>  0.0570  0.0068  0.0004  0.0000  0.0000  0.0386  0.0001  0.0000  0.0205 </r>
        <r>  0.0065  0.0026  0.0004  0.0000  0.0000  0.0000  0.0000  0.0000  0.0000 </r>
       </set>
      </set>
     </set>
    </set>
   </array>
  </projected>
 </calculation>
 <structure name="finalpos" >
  <crystal>
   <varray name="basis" >
    <v>       2.57386868       0.00000000       0.00000000 </v>
    <v>       1.28693434       2.22903567       0.00000000 </v>
    <v>       0.00000000       0.00000000      30.30466494 </v>
   </varray>
   <i name="volume">    173.86529028 </i>
   <varray name="rec_basis" >
    <v>       0.38852021      -0.22431225       0.00000000 </v>
    <v>       0.00000000       0.44862450       0.00000000 </v>
    <v>       0.00000000       0.00000000       0.03299822 </v>
   </varray>
  </crystal>
  <varray name="positions" >
   <v>       0.00000000       0.00000000       0.39597864 </v>
   <v>       0.33333333       0.33333333       0.46532621 </v>
   <v>       0.66666666       0.66666667       0.53467379 </v>
   <v>       0.00000000       0.00000000       0.60402136 </v>
   <v>       0.02243122       0.95513755       0.66341816 </v>
  </varray>
 </structure>
</modeling>
