  20  20   0   0
  0.1957362E+02  0.3905268E-09  0.3905268E-09  0.2566844E-08  0.5000000E-15
  1.000000000000000E-004
  CAR 
 unknown system                          
      9.71876808    -35.85431911  301      0.64212821      1.00000000
    -35.854  0.0000E+00  0.0000E+00
    -35.702  0.0000E+00  0.0000E+00
    -35.550  0.0000E+00  0.0000E+00
    -35.399  0.0000E+00  0.0000E+00
    -35.247  0.0000E+00  0.0000E+00
    -35.095  0.0000E+00  0.0000E+00
    -34.943  0.0000E+00  0.0000E+00
    -34.791  0.0000E+00  0.0000E+00
    -34.639  0.0000E+00  0.0000E+00
    -34.487  0.0000E+00  0.0000E+00
    -34.335  0.0000E+00  0.0000E+00
    -34.183  0.0000E+00  0.0000E+00
    -34.031  0.0000E+00  0.0000E+00
    -33.879  0.0000E+00  0.0000E+00
    -33.728  0.0000E+00  0.2000E+01
    -33.576  0.0000E+00  0.2000E+01
    -33.424  0.0000E+00  0.2000E+01
    -33.272  0.0000E+00  0.2000E+01
    -33.120  0.0000E+00  0.2000E+01
    -32.968  0.0000E+00  0.2000E+01
    -32.816  0.0000E+00  0.2000E+01
    -32.664  0.0000E+00  0.6000E+01
    -32.512  0.0000E+00  0.8000E+01
    -32.360  0.0000E+00  0.8000E+01
    -32.208  0.0000E+00  0.8000E+01
    -32.057  0.0000E+00  0.8000E+01
    -31.905  0.0000E+00  0.8000E+01
    -31.753  0.0000E+00  0.8000E+01
    -31.601  0.0000E+00  0.8000E+01
    -31.449  0.0000E+00  0.8000E+01
    -31.297  0.0000E+00  0.8000E+01
    -31.145  0.0000E+00  0.8000E+01
    -30.993  0.0000E+00  0.8000E+01
    -30.841  0.0000E+00  0.8000E+01
    -30.689  0.0000E+00  0.8000E+01
    -30.537  0.0000E+00  0.8000E+01
    -30.386  0.0000E+00  0.8000E+01
    -30.234  0.0000E+00  0.8000E+01
    -30.082  0.0000E+00  0.8000E+01
    -29.930  0.0000E+00  0.8000E+01
    -29.778  0.0000E+00  0.8000E+01
    -29.626  0.0000E+00  0.8000E+01
    -29.474  0.0000E+00  0.8000E+01
    -29.322  0.0000E+00  0.8000E+01
    -29.170  0.0000E+00  0.8000E+01
    -29.018  0.0000E+00  0.8000E+01
    -28.866  0.0000E+00  0.8000E+01
    -28.715  0.0000E+00  0.8000E+01
    -28.563  0.0000E+00  0.8000E+01
    -28.411  0.0000E+00  0.8000E+01
    -28.259  0.0000E+00  0.8000E+01
    -28.107  0.0000E+00  0.8000E+01
    -27.955  0.0000E+00  0.8000E+01
    -27.803  0.0000E+00  0.8000E+01
    -27.651  0.0000E+00  0.8000E+01
    -27.499  0.0000E+00  0.8000E+01
    -27.347  0.0000E+00  0.8000E+01
    -27.195  0.0000E+00  0.8000E+01
    -27.044  0.0000E+00  0.8000E+01
    -26.892  0.0000E+00  0.8000E+01
    -26.740  0.0000E+00  0.8000E+01
    -26.588  0.0000E+00  0.8000E+01
    -26.436  0.0000E+00  0.8000E+01
    -26.284  0.0000E+00  0.8000E+01
    -26.132  0.0000E+00  0.8000E+01
    -25.980  0.0000E+00  0.8000E+01
    -25.828  0.0000E+00  0.8000E+01
    -25.676  0.0000E+00  0.8000E+01
    -25.524  0.0000E+00  0.8000E+01
    -25.373  0.0000E+00  0.8000E+01
    -25.221  0.0000E+00  0.8000E+01
    -25.069  0.0000E+00  0.8000E+01
    -24.917  0.0000E+00  0.8000E+01
    -24.765  0.0000E+00  0.8000E+01
    -24.613  0.0000E+00  0.8000E+01
    -24.461  0.0000E+00  0.8000E+01
    -24.309  0.0000E+00  0.8000E+01
    -24.157  0.0000E+00  0.8000E+01
    -24.005  0.0000E+00  0.8000E+01
    -23.853  0.0000E+00  0.8000E+01
    -23.701  0.0000E+00  0.8000E+01
    -23.550  0.0000E+00  0.8000E+01
    -23.398  0.0000E+00  0.8000E+01
    -23.246  0.0000E+00  0.8000E+01
    -23.094  0.0000E+00  0.8000E+01
    -22.942  0.0000E+00  0.8000E+01
    -22.790  0.0000E+00  0.8000E+01
    -22.638  0.0000E+00  0.8000E+01
    -22.486  0.0000E+00  0.8000E+01
    -22.334  0.0000E+00  0.8000E+01
    -22.182  0.0000E+00  0.8000E+01
    -22.030  0.0000E+00  0.8000E+01
    -21.879  0.0000E+00  0.8000E+01
    -21.727  0.0000E+00  0.8000E+01
    -21.575  0.0000E+00  0.8000E+01
    -21.423  0.0000E+00  0.8000E+01
    -21.271  0.0000E+00  0.8000E+01
    -21.119  0.0000E+00  0.8000E+01
    -20.967  0.0000E+00  0.8000E+01
    -20.815  0.0000E+00  0.8000E+01
    -20.663  0.0000E+00  0.8000E+01
    -20.511  0.0000E+00  0.8000E+01
    -20.359  0.0000E+00  0.8000E+01
    -20.208  0.0000E+00  0.8000E+01
    -20.056  0.0000E+00  0.8000E+01
    -19.904  0.0000E+00  0.8000E+01
    -19.752  0.0000E+00  0.8000E+01
    -19.600  0.0000E+00  0.8000E+01
    -19.448  0.0000E+00  0.8000E+01
    -19.296  0.0000E+00  0.8000E+01
    -19.144  0.0000E+00  0.8000E+01
    -18.992  0.0000E+00  0.8000E+01
    -18.840  0.0000E+00  0.8000E+01
    -18.688  0.0000E+00  0.8000E+01
    -18.537  0.0000E+00  0.8000E+01
    -18.385  0.0000E+00  0.8000E+01
    -18.233  0.0000E+00  0.8000E+01
    -18.081  0.0000E+00  0.8000E+01
    -17.929  0.0000E+00  0.8000E+01
    -17.777  0.0000E+00  0.8000E+01
    -17.625  0.7941E+01  0.8264E+01
    -17.473  0.9408E+01  0.9816E+01
    -17.321  0.7102E+01  0.1147E+02
    -17.169  0.7303E+01  0.1255E+02
    -17.017  0.1061E+02  0.1373E+02
    -16.866  0.6955E+01  0.1497E+02
    -16.714  0.6315E+01  0.1568E+02
    -16.562  0.2997E+02  0.2000E+02
    -16.410  0.2217E+02  0.2557E+02
    -16.258  0.6154E+01  0.2690E+02
    -16.106  0.8320E+01  0.2902E+02
    -15.954  0.1985E+01  0.2990E+02
    -15.802  0.7297E+01  0.3262E+02
    -15.650  0.3182E+02  0.3484E+02
    -15.498  0.1723E+00  0.3601E+02
    -15.346  0.1062E+01  0.3612E+02
    -15.195  0.2113E+01  0.3635E+02
    -15.043  0.4719E+01  0.3680E+02
    -14.891  0.1683E+02  0.3835E+02
    -14.739  0.4576E+02  0.4246E+02
    -14.587  0.2613E+02  0.4801E+02
    -14.435  0.5801E+02  0.5275E+02
    -14.283  0.5357E+01  0.5598E+02
    -14.131  0.0000E+00  0.5600E+02
    -13.979  0.0000E+00  0.5600E+02
    -13.827  0.0000E+00  0.5600E+02
    -13.675  0.0000E+00  0.5600E+02
    -13.524  0.0000E+00  0.5600E+02
    -13.372  0.0000E+00  0.5600E+02
    -13.220  0.0000E+00  0.5600E+02
    -13.068  0.0000E+00  0.5600E+02
    -12.916  0.0000E+00  0.5600E+02
    -12.764  0.0000E+00  0.5600E+02
    -12.612  0.0000E+00  0.5600E+02
    -12.460  0.0000E+00  0.5600E+02
    -12.308  0.0000E+00  0.5600E+02
    -12.156  0.0000E+00  0.5600E+02
    -12.004  0.0000E+00  0.5600E+02
    -11.852  0.0000E+00  0.5600E+02
    -11.701  0.0000E+00  0.5600E+02
    -11.549  0.0000E+00  0.5600E+02
    -11.397  0.0000E+00  0.5600E+02
    -11.245  0.0000E+00  0.5600E+02
    -11.093  0.0000E+00  0.5600E+02
    -10.941  0.0000E+00  0.5600E+02
    -10.789  0.0000E+00  0.5600E+02
    -10.637  0.0000E+00  0.5600E+02
    -10.485  0.0000E+00  0.5600E+02
    -10.333  0.0000E+00  0.5600E+02
    -10.181  0.0000E+00  0.5600E+02
    -10.030  0.0000E+00  0.5600E+02
     -9.878  0.0000E+00  0.5600E+02
     -9.726  0.0000E+00  0.5600E+02
     -9.574  0.0000E+00  0.5600E+02
     -9.422  0.0000E+00  0.5600E+02
     -9.270  0.0000E+00  0.5600E+02
     -9.118  0.0000E+00  0.5600E+02
     -8.966  0.0000E+00  0.5600E+02
     -8.814  0.0000E+00  0.5600E+02
     -8.662  0.0000E+00  0.5600E+02
     -8.510  0.0000E+00  0.5600E+02
     -8.359  0.0000E+00  0.5600E+02
     -8.207  0.0000E+00  0.5600E+02
     -8.055  0.0000E+00  0.5600E+02
     -7.903  0.0000E+00  0.5600E+02
     -7.751  0.0000E+00  0.5600E+02
     -7.599  0.0000E+00  0.5600E+02
     -7.447  0.0000E+00  0.5600E+02
     -7.295  0.0000E+00  0.5600E+02
     -7.143  0.0000E+00  0.5600E+02
     -6.991  0.0000E+00  0.5600E+02
     -6.839  0.0000E+00  0.5600E+02
     -6.688  0.0000E+00  0.5600E+02
     -6.536  0.0000E+00  0.5600E+02
     -6.384  0.0000E+00  0.5600E+02
     -6.232  0.0000E+00  0.5600E+02
     -6.080  0.0000E+00  0.5600E+02
     -5.928  0.0000E+00  0.5600E+02
     -5.776  0.0000E+00  0.5600E+02
     -5.624  0.0000E+00  0.5600E+02
     -5.472  0.0000E+00  0.5600E+02
     -5.320  0.0000E+00  0.5600E+02
     -5.168  0.0000E+00  0.5600E+02
     -5.017  0.0000E+00  0.5600E+02
     -4.865  0.0000E+00  0.5600E+02
     -4.713  0.0000E+00  0.5600E+02
     -4.561  0.2077E+01  0.5612E+02
     -4.409  0.1896E+02  0.5763E+02
     -4.257  0.1030E+02  0.6028E+02
     -4.105  0.1185E+02  0.6260E+02
     -3.953  0.1402E+02  0.6494E+02
     -3.801  0.1407E+02  0.6719E+02
     -3.649  0.1539E+02  0.6973E+02
     -3.497  0.1858E+02  0.7219E+02
     -3.346  0.1977E+02  0.7526E+02
     -3.194  0.2279E+02  0.7847E+02
     -3.042  0.2547E+02  0.8251E+02
     -2.890  0.1901E+02  0.8586E+02
     -2.738  0.1391E+02  0.8808E+02
     -2.586  0.1401E+02  0.9025E+02
     -2.434  0.1142E+02  0.9214E+02
     -2.282  0.1363E+02  0.9408E+02
     -2.130  0.1142E+02  0.9599E+02
     -1.978  0.9659E+01  0.9761E+02
     -1.826  0.9558E+01  0.9918E+02
     -1.675  0.1076E+02  0.1010E+03
     -1.523  0.1121E+02  0.1029E+03
     -1.371  0.1147E+02  0.1054E+03
     -1.219  0.1738E+02  0.1089E+03
     -1.067  0.2524E+02  0.1120E+03
     -0.915  0.1914E+02  0.1158E+03
     -0.763  0.1676E+02  0.1181E+03
     -0.611  0.2015E+02  0.1212E+03
     -0.459  0.1691E+02  0.1239E+03
     -0.307  0.1092E+02  0.1258E+03
     -0.155  0.4619E+01  0.1272E+03
     -0.003  0.1217E+01  0.1275E+03
      0.148  0.1166E+01  0.1276E+03
      0.300  0.8862E+00  0.1278E+03
      0.452  0.6386E+00  0.1279E+03
      0.604  0.0000E+00  0.1280E+03
      0.756  0.0000E+00  0.1280E+03
      0.908  0.0000E+00  0.1280E+03
      1.060  0.0000E+00  0.1280E+03
      1.212  0.0000E+00  0.1280E+03
      1.364  0.0000E+00  0.1280E+03
      1.516  0.0000E+00  0.1280E+03
      1.668  0.5066E+00  0.1280E+03
      1.819  0.3377E+01  0.1282E+03
      1.971  0.3744E+01  0.1288E+03
      2.123  0.4287E+01  0.1294E+03
      2.275  0.4128E+01  0.1300E+03
      2.427  0.8574E+01  0.1310E+03
      2.579  0.7142E+01  0.1322E+03
      2.731  0.6845E+01  0.1332E+03
      2.883  0.9124E+01  0.1344E+03
      3.035  0.1047E+02  0.1359E+03
      3.187  0.1331E+02  0.1377E+03
      3.339  0.1404E+02  0.1398E+03
      3.490  0.1627E+02  0.1426E+03
      3.642  0.1356E+02  0.1453E+03
      3.794  0.1084E+02  0.1474E+03
      3.946  0.5013E+01  0.1486E+03
      4.098  0.6768E+00  0.1491E+03
      4.250  0.6724E+00  0.1492E+03
      4.402  0.6680E+00  0.1493E+03
      4.554  0.6636E+00  0.1494E+03
      4.706  0.6592E+00  0.1495E+03
      4.858  0.6549E+00  0.1496E+03
      5.010  0.6505E+00  0.1497E+03
      5.161  0.6461E+00  0.1498E+03
      5.313  0.6708E+00  0.1499E+03
      5.465  0.7596E+00  0.1500E+03
      5.617  0.8954E+00  0.1502E+03
      5.769  0.1170E+01  0.1503E+03
      5.921  0.1271E+01  0.1505E+03
      6.073  0.1029E+01  0.1507E+03
      6.225  0.9032E+00  0.1508E+03
      6.377  0.9400E+00  0.1510E+03
      6.529  0.1021E+01  0.1511E+03
      6.681  0.1142E+01  0.1513E+03
      6.832  0.1046E+01  0.1514E+03
      6.984  0.9232E+00  0.1516E+03
      7.136  0.7234E+00  0.1517E+03
      7.288  0.4942E+00  0.1518E+03
      7.440  0.2119E+00  0.1520E+03
      7.592  0.4015E-01  0.1520E+03
      7.744  0.0000E+00  0.1520E+03
      7.896  0.0000E+00  0.1520E+03
      8.048  0.0000E+00  0.1520E+03
      8.200  0.0000E+00  0.1520E+03
      8.352  0.0000E+00  0.1520E+03
      8.503  0.0000E+00  0.1520E+03
      8.655  0.0000E+00  0.1520E+03
      8.807  0.0000E+00  0.1520E+03
      8.959  0.0000E+00  0.1520E+03
      9.111  0.0000E+00  0.1520E+03
      9.263  0.0000E+00  0.1520E+03
      9.415  0.0000E+00  0.1520E+03
      9.567  0.0000E+00  0.1520E+03
      9.719  0.0000E+00  0.1520E+03
