       N       E                     dE             d eps       ncg     rms          rms(c)
DAV:   1     0.193903571022E+04    0.19390E+04   -0.68587E+04  1520   0.206E+03
DAV:   2     0.278397600715E+03   -0.16606E+04   -0.15721E+04  1760   0.465E+02
DAV:   3    -0.160156614589E+03   -0.43855E+03   -0.42373E+03  1972   0.222E+02
DAV:   4    -0.199724596622E+03   -0.39568E+02   -0.39404E+02  1992   0.700E+01
DAV:   5    -0.201754115922E+03   -0.20295E+01   -0.20281E+01  2368   0.175E+01    0.372E+01
RMM:   6    -0.161256293864E+03    0.40498E+02   -0.28276E+02  1693   0.509E+01    0.136E+01
RMM:   7    -0.157752168550E+03    0.35041E+01   -0.12405E+01  1873   0.134E+01    0.701E+00
RMM:   8    -0.157033867645E+03    0.71830E+00   -0.32177E+00  2037   0.616E+00    0.313E+00
RMM:   9    -0.156831427024E+03    0.20244E+00   -0.13109E+00  2126   0.407E+00    0.988E-01
RMM:  10    -0.156790914981E+03    0.40512E-01   -0.24690E-01  2446   0.139E+00    0.592E-01
RMM:  11    -0.156769707568E+03    0.21207E-01   -0.14722E-01  2396   0.978E-01    0.399E-01
RMM:  12    -0.156756985234E+03    0.12722E-01   -0.53976E-02  2461   0.570E-01    0.330E-01
RMM:  13    -0.156751253857E+03    0.57314E-02   -0.21494E-02  2604   0.381E-01    0.173E-01
RMM:  14    -0.156746645862E+03    0.46080E-02   -0.23178E-02  2241   0.421E-01    0.142E-01
RMM:  15    -0.156745922317E+03    0.72355E-03   -0.59297E-03  2578   0.182E-01    0.823E-02
RMM:  16    -0.156747072264E+03   -0.11499E-02   -0.72807E-03  2332   0.205E-01    0.114E-01
RMM:  17    -0.156747529136E+03   -0.45687E-03   -0.28362E-03  2231   0.148E-01    0.292E-02
RMM:  18    -0.156748323934E+03   -0.79480E-03   -0.73801E-04  2304   0.642E-02    0.195E-02
RMM:  19    -0.156749866521E+03   -0.15426E-02   -0.53785E-04  2064   0.441E-02    0.945E-03
RMM:  20    -0.156750466292E+03   -0.59977E-03   -0.25423E-04  1765   0.292E-02    0.725E-03
RMM:  21    -0.156750754273E+03   -0.28798E-03   -0.14477E-04  1718   0.230E-02    0.503E-03
RMM:  22    -0.156750804404E+03   -0.50130E-04   -0.45289E-05  1373   0.153E-02    0.328E-03
RMM:  23    -0.156750822327E+03   -0.17924E-04   -0.24301E-05  1257   0.135E-02    0.183E-03
RMM:  24    -0.156750830236E+03   -0.79088E-05   -0.12307E-05  1140   0.106E-02
   1 F= -.15675083E+03 E0= -.15675083E+03  d E =0.000000E+00
