unknown system                          
   1.00000000000000     
     4.913700    0.000000    0.000000
    -2.456850    4.255389    0.000000
     0.000000    0.000000    5.405130
   Si   O 
     3     6
Direct
  0.469800  0.000000  0.666670
  0.000000  0.469800  0.333330
  0.530200  0.530200  0.000000
  0.414500  0.266200  0.785600
  0.733800  0.148300  0.452270
  0.851700  0.585500  0.118930
  0.148300  0.733800  0.547730
  0.266200  0.414500  0.214400
  0.585500  0.851700  0.881070
 
   64   64   72
  1.4722      1.4263      1.4131      1.4245      1.4565      1.5072      1.5752      1.6591      1.7573      1.8683    
  1.9904      2.1211      2.2572      2.3946      2.5296      2.6592      2.7815      2.8953      3.0007      3.0999    
  3.1994      3.3122      3.4571      3.6575      3.9375      4.3221      4.8396      5.5274      6.4368      7.6321    
  9.1839      11.157      13.602      16.540      19.970      23.849      28.091      32.543      36.970      41.057    
  44.438      46.757      47.735      47.240      45.322      42.196      38.195      33.694      29.044      24.525    
  20.334      16.590      13.351      10.633      8.4159      6.6516      5.2746      4.2123      3.3966      2.7734    
  2.3035      1.9595      1.7199      1.5641      1.4263      1.3791      1.3674      1.3834      1.4233      1.4860    
  1.5708      1.6764      1.8012      1.9432      2.1001      2.2686      2.4447      2.6230      2.7976      2.9635    
  3.1164      3.2535      3.3730      3.4747      3.5611      3.6401      3.7255      3.8373      3.9990      4.2351    
  4.5700      5.0312      5.6534      6.4815      7.5695      8.9730      10.739      12.896      15.444      18.355    
  21.562      24.959      28.386      31.635      34.456      36.588      37.807      37.966      37.039      35.117    
  32.394      29.124      25.571      21.973      18.516      15.336      12.516      10.097      8.0842      6.4529    
  5.1574      4.1419      3.3513      2.7395      2.2728      1.9269      1.6827      1.5219      1.4131      1.3674    
  1.3590      1.3804      1.4284      1.5027      1.6031      1.7292      1.8796      2.0520      2.2438      2.4513    
  2.6698      2.8930      3.1135      3.3238      3.5169      3.6874      3.8312      3.9458      4.0312      4.0908    
  4.1339      4.1762      4.2388      4.3461      4.5224      4.7921      5.1807      5.7190      6.4446      7.4004    
  8.6276      10.157      11.998      14.137      16.527      19.091      21.719      24.263      26.554      28.404    
  29.642      30.139      29.832      28.745      26.978      24.688      22.063      19.286      16.522      13.900    
  11.515      9.4219      7.6439      6.1746      4.9860      4.0382      3.2890      2.7018      2.2488      1.9099    
  1.6684      1.5083      1.4245      1.3834      1.3804      1.4087      1.4656      1.5515      1.6672      1.8131    
  1.9883      2.1906      2.4175      2.6651      2.9284      3.2007      3.4735      3.7370      3.9813      4.1974    
  4.3779      4.5178      4.6141      4.6675      4.6835      4.6736      4.6556      4.6526      4.6900      4.7923    
  4.9830      5.2852      5.7251      6.3326      7.1396      8.1742      9.4528      10.973      12.708      14.606    
  16.587      18.549      20.370      21.916      23.058      23.690      23.743      23.205      22.117      20.572    
  18.691      16.612      14.466      12.367      10.406      8.6453      7.1166      5.8274      4.7639      3.9002    
  3.2064      2.6553      2.2256      1.9015      1.6692      1.5151      1.4565      1.4233      1.4284      1.4656    
  1.5329      1.6311      1.7621      1.9272      2.1263      2.3578      2.6195      2.9077      3.2178      3.5430    
  3.8741      4.1998      4.5071      4.7830      5.0157      5.1959      5.3175      5.3783      5.3808      5.3335    
  5.2512      5.1550      5.0702      5.0231      5.0387      5.1389      5.3444      5.6761      6.1564      6.8071    
  7.6449      8.6750      9.8857      11.245      12.699      14.176      15.587      16.837      17.827      18.473    
  18.712      18.514      17.891      16.889      15.584      14.072      12.453      10.820      9.2529      7.8110    
  6.5310      5.4281      4.4995      3.7309      3.1031      2.5977      2.1998      1.8977      1.6810      1.5382    
  1.5072      1.4860      1.5027      1.5515      1.6311      1.7429      1.8898      2.0739      2.2960      2.5557    
  2.8512      3.1799      3.5377      3.9184      4.3131      4.7091      5.0911      5.4420      5.7446      5.9840    
  6.1490      6.2336      6.2373      6.1664      6.0336      5.8584      5.6657      5.4833      5.3389      5.2572    
  5.2587      5.3609      5.5799      5.9307      6.4265      7.0741      7.8703      8.7975      9.8219      10.894    
  11.952      12.924      13.739      14.329      14.640      14.639      14.318      13.698      12.823      11.756    
  10.568      9.3315      8.1123      6.9622      5.9172      4.9964      4.2045      3.5362      2.9812      2.5287    
  2.1697      1.8965      1.7014      1.5752      1.5752      1.5708      1.6031      1.6672      1.7621      1.8898    
  2.0537      2.2571      2.5018      2.7885      3.1166      3.4846      3.8899      4.3277      4.7894      5.2626    
  5.7299      6.1705      6.5617      6.8818      7.1126      7.2421      7.2656      7.1866      7.0165      6.7742    
  6.4850      6.1781      5.8843      5.6320      5.4455      5.3436      5.3405      5.4471      5.6723      6.0214    
  6.4939      7.0804      7.7600      8.4997      9.2562      9.9789      10.614      11.110      11.422      11.518    
  11.382      11.020      10.453      9.7207      8.8717      7.9592      7.0335      6.1378      5.3041      4.5525    
  3.8920      3.3239      2.8447      2.4499      2.1352      1.8965      1.7286      1.6246      1.6591      1.6764    
  1.7292      1.8131      1.9272      2.0739      2.2571      2.4810      2.7485      3.0615      3.4209      3.8268    
  4.2786      4.7731      5.3038      5.8586      6.4196      6.9628      7.4605      7.8835      8.2054      8.4057    
  8.4730      8.4062      8.2148      7.9177      7.5416      7.1183      6.6819      6.2655      5.8985      5.6037    
  5.3976      5.2908      5.2899      5.3979      5.6141      5.9322      6.3384      6.8103      7.3176      7.8238    
  8.2894      8.6752      8.9457      9.0730      9.0394      8.8402      8.4846      7.9944      7.4011      6.7413    
  6.0526      5.3685      4.7162      4.1146      3.5750      3.1026      2.6990      2.3640      2.0973      1.8975    
  1.7617      1.6847      1.7573      1.8012      1.8796      1.9883      2.1263      2.2960      2.5018      2.7485    
  3.0401      3.3796      3.7696      4.2121      4.7084      5.2582      5.8575      6.4959      7.1558      7.8116    
  8.4310      8.9779      9.4167      9.7167      9.8569      9.8290      9.6381      9.3025      8.8504      8.3177    
  7.7431      7.1656      6.6202      6.1357      5.7332      5.4259      5.2210      5.1206      5.1232      5.2232    
  5.4100      5.6669      5.9716      6.2964      6.6117      6.8873      7.0958      7.2141      7.2252      7.1206    
  6.9012      6.5774      6.1680      5.6971      5.1913      4.6759      4.1728      3.6988      3.2659      2.8814    
  2.5502      2.2750      2.0581      1.9002      1.8002      1.7546      1.8683      1.9432      2.0520      2.1906    
  2.3578      2.5557      2.7885      3.0615      3.3796      3.7472      4.1680      4.6458      5.1847      5.7873    
  6.4527      7.1737      7.9343      8.7087      9.4613      10.150      10.729      11.158      11.404      11.447    
  11.286      10.935      10.423      9.7895      9.0808      8.3426      7.6176      6.9418      6.3422      5.8369    
  5.4354      5.1409      4.9518      4.8628      4.8645      4.9434      5.0809      5.2550      5.4411      5.6154    
  5.7554      5.8424      5.8616      5.8037      5.6651      5.4490      5.1655      4.8294      4.4589      4.0726    
  3.6876      3.3183      2.9761      2.6696      2.4051      2.1875      2.0204      1.9060      1.8444      1.8333    
  1.9904      2.1001      2.2438      2.4175      2.6195      2.8512      3.1166      3.4209      3.7696      4.1680    
  4.6209      5.1340      5.7135      6.3653      7.0926      7.8923      8.7517      9.6461      10.539      11.382    
  12.123      12.708      13.092      13.242      13.146      12.809      12.261      11.542      10.706      9.8077    
  8.8998      8.0274      7.2257      6.5187      5.9201      5.4349      5.0625      4.7977      4.6321      4.5536    
  4.5461      4.5901      4.6642      4.7471      4.8191      4.8641      4.8694      4.8259      4.7286      4.5767    
  4.3743      4.1300      3.8556      3.5644      3.2697      2.9835      2.7162      2.4763      2.2712      2.1068    
  1.9875      1.9164      1.8943      1.9201      2.1211      2.2686      2.4513      2.6651      2.9077      3.1799    
  3.4846      3.8268      4.2121      4.6458      5.1340      5.6833      6.3020      6.9992      7.7827      8.6544    
  9.6065      10.618      11.652      12.658      13.576      14.342      14.895      15.189      15.195      14.911    
  14.357      13.576      12.625      11.571      10.477      9.4004      8.3880      7.4716      6.6705      5.9926    
  5.4381      5.0020      4.6761      4.4492      4.3069      4.2315      4.2030      4.2009      4.2064      4.2038    
  4.1815      4.1310      4.0469      3.9270      3.7720      3.5862      3.3769      3.1532      2.9252      2.7028    
  2.4951      2.3104      2.1561      2.0386      1.9631      1.9330      1.9500      2.0135      2.2572      2.4447    
  2.6698      2.9284      3.2178      3.5377      3.8899      4.2786      4.7084      5.1847      5.7135      6.3020    
  6.9600      7.6995      8.5326      9.4674      10.503      11.622      12.793      13.964      15.069      16.034    
  16.784      17.257      17.407      17.216      16.696      15.883      14.839      13.639      12.359      11.072    
  9.8376      8.7006      7.6877      6.8111      6.0722      5.4652      4.9812      4.6090      4.3352      4.1436    
  4.0151      3.9295      3.8675      3.8129      3.7533      3.6804      3.5890      3.4764      3.3423      3.1885    
  3.0191      2.8401      2.6590      2.4834      2.3212      2.1799      2.0669      1.9886      1.9507      1.9574    
  2.0109      2.1114      2.3946      2.6230      2.8930      3.2007      3.5430      3.9184      4.3277      4.7731    
  5.2582      5.7873      6.3653      6.9992      7.6995      8.4800      9.3571      10.345      11.450      12.665    
  13.962      15.291      16.584      17.759      18.729      19.412      19.746      19.693      19.250      18.445    
  17.339      16.012      14.554      13.054      11.588      10.217      8.9789      7.8935      6.9639      6.1840    
  5.5424      5.0263      4.6218      4.3136      4.0837      3.9125      3.7798      3.6680      3.5633      3.4562    
  3.3415      3.2166      3.0811      2.9360      2.7840      2.6291      2.4764      2.3317      2.2013      2.0916    
  2.0096      1.9618      1.9541      1.9914      2.0769      2.2116      2.5296      2.7976      3.1135      3.4735    
  3.8741      4.3131      4.7894      5.3038      5.8575      6.4527      7.0926      7.7827      8.5326      9.3571    
  10.275      11.308      12.469      13.761      15.164      16.635      18.107      19.493      20.694      21.613    
  22.166      22.296      21.978      21.230      20.104      18.682      17.064      15.357      13.655      12.038    
  10.560      9.2505      8.1194      7.1604      6.3594      5.6997      5.1652      4.7398      4.4064      4.1459    
  3.9380      3.7635      3.6065      3.4559      3.3053      3.1520      2.9959      2.8385      2.6822      2.5304    
  2.3869      2.2559      2.1423      2.0514      1.9892      1.9621      1.9761      2.0368      2.1482      2.3125    
  2.6592      2.9635      3.3238      3.7370      4.1998      4.7091      5.2626      5.8586      6.4959      7.1737    
  7.8923      8.6544      9.4674      10.345      11.308      12.380      13.585      14.933      16.416      18.003    
  19.630      21.212      22.641      23.808      24.608      24.960      24.819      24.181      23.087      21.616    
  19.874      17.980      16.050      14.182      12.450      10.902      9.5536      8.4039      7.4368      6.6315    
  5.9670      5.4247      4.9863      4.6332      4.3452      4.1024      3.8868      3.6849      3.4883      3.2937    
  3.1010      2.9126      2.7314      2.5612      2.4056      2.2685      2.1539      2.0662      2.0106      1.9930    
  2.0193      2.0952      2.2254      2.4129      2.7815      3.1164      3.5169      3.9813      4.5071      5.0911    
  5.7299      6.4196      7.1558      7.9343      8.7517      9.6065      10.503      11.450      12.469      13.585    
  14.825      16.210      17.745      19.410      21.154      22.897      24.533      25.939      26.997      27.602    
  27.682      27.210      26.210      24.750      22.937      20.899      18.766      16.658      14.671      12.870    
  11.289      9.9331      8.7882      7.8306      7.0341      6.3746      5.8311      5.3835      5.0116      4.6949    
  4.4140      4.1531      3.9018      3.6550      3.4124      3.1765      2.9517      2.7423      2.5529      2.3878    
  2.2511      2.1475      2.0818      2.0596      2.0865      2.1680      2.3088      2.5125      2.8953      3.2535    
  3.6874      4.1974      4.7830      5.4420      6.1705      6.9628      7.8116      8.7087      9.6461      10.618    
  11.622      12.665      13.761      14.933      16.210      17.620      19.178      20.879      22.690      24.541    
  26.336      27.950      29.253      30.120      30.454      30.199      29.357      27.979      26.166      24.046    
  21.762      19.449      17.224      15.174      13.351      11.775      10.438      9.3178      8.3841      7.6066    
  6.9586      6.4165      5.9582      5.5625      5.2091      4.8806      4.5645      4.2541      3.9481      3.6495    
  3.3633      3.0953      2.8511      2.6360      2.4550      2.3134      2.2172      2.1722      2.1843      2.2589    
  2.4002      2.6115      3.0007      3.3730      3.8312      4.3779      5.0157      5.7446      6.5617      7.4605    
  8.4310      9.4613      10.539      11.652      12.793      13.962      15.164      16.416      17.745      19.178    
  20.739      22.437      24.256      26.149      28.034      29.797      31.305      32.418      33.016      33.015    
  32.387      31.163      29.429      27.309      24.949      22.496      20.080      17.809      15.755      13.956    
  12.419      11.127      10.051      9.1539      8.4033      7.7693      7.2254      6.7478      6.3148      5.9080    
  5.5139      5.1246      4.7385      4.3587      3.9915      3.6442      3.3239      3.0370      2.7894      2.5873    
  2.4377      2.3481      2.3257      2.3764      2.5042      2.7117      3.0999      3.4747      3.9458      4.5178    
  5.1959      5.9840      6.8818      7.8835      8.9779      10.150      11.382      12.658      13.964      15.291    
  16.635      18.003      19.410      20.879      22.437      24.101      25.876      27.738      29.630      31.461    
  33.104      34.418      35.263      35.528      35.155      34.146      32.569      30.537      28.193      25.687    
  23.160      20.729      18.487      16.490      14.763      13.302      12.082      11.068      10.220      9.5010    
  8.8771      8.3193      7.8026      7.3071      6.8186      6.3298      5.8398      5.3531      4.8781      4.4246    
  4.0021      3.6186      3.2807      2.9949      2.7688      2.6111      2.5309      2.5359      2.6312      2.8189    
  3.1994      3.5611      4.0312      4.6141      5.3175      6.1490      7.1126      8.2054      9.4167      10.729    
  12.123      13.576      15.069      16.584      18.107      19.630      21.154      22.690      24.256      25.876    
  27.567      29.333      31.149      32.951      34.635      36.065      37.099      37.610      37.509      36.768    
  35.421      33.562      31.329      28.872      26.334      23.840      21.491      19.358      17.484      15.881    
  14.536      13.416      12.483      11.691      10.999      10.370      9.7724      9.1820      8.5837      7.9712    
  7.3463      6.7170      6.0961      5.4977      4.9356      4.4209      3.9619      3.5653      3.2377      2.9877    
  2.8251      2.7596      2.7984      2.9449      3.3122      3.6401      4.0908      4.6675      5.3783      6.2336    
  7.2421      8.4057      9.7167      11.158      12.708      14.342      16.034      17.759      19.493      21.212    
  22.897      24.541      26.149      27.738      29.333      30.960      32.622      34.276      35.850      37.247    
  38.347      39.024      39.173      38.736      37.709      36.150      34.163      31.878      29.445      27.004    
  24.662      22.498      20.562      18.882      17.458      16.267      15.273      14.430      13.691      13.009    
  12.342      11.660      10.943      10.185      9.3917      8.5763      7.7590      6.9620      6.2063      5.5096    
  4.8841      4.3379      3.8766      3.5062      3.2350      3.0728      3.0285      3.1078      3.4571      3.7255    
  4.1339      4.6835      5.3808      6.2373      7.2656      8.4730      9.8569      11.404      13.092      14.895    
  16.784      18.729      20.694      22.641      24.533      26.336      28.034      29.630      31.149      32.622    
  34.049      35.419      36.709      37.880      38.858      39.549      39.851      39.687      39.022      37.874    
  36.306      34.406      32.284      30.058      27.861      25.799      23.930      22.282      20.866      19.670    
  18.665      17.810      17.056      16.349      15.638      14.879      14.047      13.131      12.138      11.092    
  10.020      8.9576      7.9370      6.9868      6.1282      5.3740      4.7305      4.2009      3.7892      3.5018    
  3.3467      3.3307      3.6575      3.8373      4.1762      4.6736      5.3335      6.1664      7.1866      8.4062    
  9.8290      11.447      13.242      15.189      17.257      19.412      21.613      23.808      25.939      27.950    
  29.797      31.461      32.951      34.276      35.419      36.392      37.229      37.957      38.578      39.058    
  39.331      39.325      38.986      38.299      37.279      35.968      34.421      32.706      30.905      29.123    
  27.473      26.006      24.729      23.635      22.704      21.902      21.185      20.497      19.779      18.976    
  18.046      16.973      15.763      14.445      13.060      11.658      10.288      8.9946      7.8133      6.7677    
  5.8696      5.1221      4.5241      4.0755      3.7787      3.6382      3.9375      3.9990      4.2388      4.6556    
  5.2512      6.0336      7.0165      8.2148      9.6381      11.286      13.146      15.195      17.407      19.746    
  22.166      24.608      26.997      29.253      31.305      33.104      34.635      35.850      36.709      37.229    
  37.480      37.560      37.564      37.549      37.527      37.468      37.326      37.063      36.654      36.087    
  35.355      34.457      33.405      32.244      31.051      29.936      28.960      28.116      27.384      26.738    
  26.141      25.543      24.879      24.082      23.095      21.884      20.452      18.831      17.077      15.258    
  13.446      11.706      10.094      8.6497      7.3978      6.3467      5.4937      4.8315      4.3532      4.0554    
  4.3221      4.2351      4.3461      4.6526      5.1550      5.8584      6.7742      7.9177      9.3025      10.935    
  12.809      14.911      17.216      19.693      22.296      24.960      27.602      30.120      32.418      34.418    
  36.065      37.247      37.880      37.957      37.560      36.841      35.986      35.171      34.524      34.107    
  33.923      33.940      34.109      34.366      34.634      34.829      34.874      34.725      34.386      33.917    
  33.429      33.004      32.632      32.288      31.941      31.544      31.033      30.329      29.353      28.053    
  26.414      24.470      22.291      19.974      17.617      15.315      13.149      11.180      9.4516      7.9841    
  6.7793      5.8264      5.1088      4.6110      4.8396      4.5700      4.5224      4.6900      5.0702      5.6657    
  6.4850      7.5416      8.8504      10.423      12.261      14.357      16.696      19.250      21.978      24.819    
  27.682      30.454      33.016      35.263      37.099      38.347      38.858      38.578      37.564      35.986    
  34.104      32.218      30.601      29.454      28.886      28.919      29.509      30.558      31.921      33.420    
  34.869      36.108      37.036      37.632      37.959      38.148      38.314      38.450      38.528      38.501    
  38.300      37.831      36.990      35.690      33.894      31.626      28.972      26.062      23.039      20.038    
  17.174      14.537      12.190      10.170      8.4907      7.1423      6.1027      5.3439      5.5274      5.0312    
  4.7921      4.7923      5.0231      5.4833      6.1781      7.1183      8.3177      9.7895      11.542      13.576    
  15.883      18.445      21.230      24.181      27.210      30.199      33.015      35.528      37.610      39.024    
  39.549      39.058      37.549      35.171      32.218      29.088      26.210      23.961      22.605      22.277    
  22.992      24.653      27.069      29.971      33.048      35.998      38.579      40.654      42.208      43.343    
  44.238      45.045      45.757      46.324      46.660      46.646      46.140      45.007      43.166      40.618    
  37.457      33.853      30.012      26.135      22.393      18.913      15.783      13.057      10.758      8.8850    
  7.4145      6.3093      6.4368      5.6534      5.1807      4.9830      5.0387      5.3389      5.8843      6.6819    
  7.7431      9.0808      10.706      12.625      14.839      17.339      20.104      23.087      26.210      29.357    
  32.387      35.155      37.509      39.173      39.851      39.331      37.527      34.524      30.601      26.210    
  21.913      18.268      15.736      14.617      15.042      16.973      20.219      24.452      29.240      34.117    
  38.665      42.589      45.761      48.224      50.161      51.824      53.381      54.794      55.956      56.703    
  56.832      56.139      54.469      51.771      48.128      43.749      38.922      33.946      29.085      24.533    
  20.414      16.799      13.718      11.173      9.1410      7.5804      7.6321      6.4815      5.7190      5.2852    
  5.1389      5.2572      5.6320      6.2655      7.1656      8.3426      9.8077      11.571      13.639      16.012    
  18.682      21.616      24.750      27.979      31.163      34.146      36.768      38.736      39.687      39.325    
  37.468      34.107      29.454      23.961      18.268      13.096      9.1046      6.7965      6.4670      8.1999    
  11.870      17.145      23.516      30.362      37.063      43.118      48.237      52.371      55.685      58.475    
  61.054      63.552      65.847      67.717      68.877      69.016      67.870      65.293      61.316      56.164    
  50.209      43.890      37.610      31.681      26.299      21.563      17.507      14.124      11.385      9.2422    
  9.1839      7.5695      6.4446      5.7251      5.3444      5.2587      5.4455      5.8985      6.6202      7.6176    
  8.8998      10.477      12.359      14.554      17.064      19.874      22.937      26.166      29.429      32.569    
  35.421      37.709      39.022      38.986      37.326      33.923      28.886      22.605      15.736      9.1046    
  3.5496     -.22247     -1.7208     -.69590      2.8550      8.6773      16.257      24.871      33.707      42.026    
  49.320      55.395      60.361      64.547      68.353      72.101      75.788      79.141      81.771      83.231    
  83.102      81.089      77.110      71.352      64.249      56.389      48.374      40.701      33.702      27.541    
  22.263      17.848      14.241      11.379      11.157      8.9730      7.4004      6.3326      5.6761      5.3609    
  5.3436      5.6037      6.1357      6.9418      8.0274      9.4004      11.072      13.054      15.357      17.980    
  20.899      24.046      27.309      30.537      33.562      36.150      37.874      38.299      37.063      33.940    
  28.919      22.277      14.617      6.7965     -.22247     -5.5505     -8.4990     -8.6314     -5.7742     -.37336E-01
  8.1544      18.067      28.755      39.250      48.786      56.957      63.764      69.533      74.747      79.855    
  85.075      90.175      94.667      97.952      99.420      98.570      95.135      89.181      81.135      71.707    
  61.724      51.943      42.917      34.950      28.140      22.450      17.793      14.062      13.602      10.739    
  8.6276      7.1396      6.1564      5.5799      5.3405      5.3976      5.7332      6.3422      7.2257      8.3880    
  9.8376      11.588      13.655      16.050      18.766      21.762      24.949      28.193      31.329      34.163    
  36.306      37.279      36.654      34.109      29.509      22.992      15.042      6.4670     -1.7208     -8.4990    
 -13.001     -14.601     -12.941     -7.9450     0.12774      10.640      22.619      34.932      46.553      56.813    
  65.529      72.966      79.661      86.187      92.933      99.865      106.46      111.97      115.59      116.57    
  114.39      108.91      100.43      89.698      77.741      65.618      54.192      44.008      35.291      28.033    
  22.105      17.345      16.540      12.896      10.157      8.1742      6.8071      5.9307      5.4471      5.2908    
  5.4259      5.8369      6.5187      7.4716      8.7006      10.217      12.038      14.182      16.658      19.449    
  22.496      25.687      28.872      31.878      34.406      35.968      36.087      34.366      30.558      24.653    
  16.973      8.1999     -.69590     -8.6314     -14.601     -17.807     -17.705     -14.022     -6.8119      3.4732    
  15.955      29.450      42.733      54.860      65.400      74.473      82.608      90.482      98.639      107.27    
  115.96      123.89      130.04      133.44      133.28      129.10      120.99      109.58      96.008      81.592    
  67.570      54.830      43.835      34.678      27.225      21.254      19.970      15.444      11.998      9.4528    
  7.6449      6.4265      5.6723      5.2899      5.2210      5.4354      5.9201      6.6705      7.6877      8.9789    
  10.560      12.450      14.671      17.224      20.080      23.160      26.334      29.445      32.284      34.421    
  35.355      34.634      31.921      27.069      20.219      11.870      2.8550     -5.7742     -12.941     -17.705    
 -19.346     -17.401     -11.703     -2.4735      9.6041      23.426      37.685      51.212      63.296      73.834    
  83.260      92.293      101.62      111.63      122.15      132.37      141.16      147.38      149.94      147.94    
  141.10      129.89      115.44      99.192      82.710      67.294      53.756      42.403      33.166      25.789    
  23.849      18.355      14.137      10.973      8.6750      7.0741      6.0214      5.3979      5.1206      5.1409    
  5.4349      5.9926      6.8111      7.8935      9.2505      10.902      12.870      15.174      17.809      20.729    
  23.840      27.004      30.058      32.706      34.457      34.829      33.420      29.971      24.452      17.145    
  8.6773     -.37336E-01 -7.9450     -14.022     -17.401     -17.431     -13.734     -6.2848      4.4882      17.675    
  32.023      46.243      59.377      71.051      81.510      91.424      101.57      112.52      124.35      136.43    
  147.63      156.72      162.40      163.37      158.81      148.80      134.36      117.12      98.746      80.893    
  64.795      51.083      39.862      30.903      28.091      21.562      16.527      12.708      9.8857      7.8703    
  6.4939      5.6141      5.1232      4.9518      5.0625      5.4381      6.0722      6.9639      8.1194      9.5536    
  11.289      13.351      15.755      18.487      21.491      24.662      27.861      30.905      33.405      34.874    
  34.869      33.048      29.240      23.516      16.257      8.1544     0.12774     -6.8119     -11.703     -13.734    
 -12.322     -7.1963      1.4919      13.101      26.558      40.590      54.080      66.393      77.515      87.967    
  98.530      109.90      122.40      135.68      148.70      160.24      168.94      173.23      171.80      164.14    
  150.88      133.61      114.29      94.669      76.351      60.370      47.112      36.471      32.543      24.959    
  19.091      14.606      11.245      8.7975      7.0804      5.9322      5.2232      4.8628      4.7977      5.0020    
  5.4652      6.1840      7.1604      8.4039      9.9331      11.775      13.956      16.490      19.358      22.498    
  25.799      29.123      32.244      34.725      36.108      35.998      34.117      30.362      24.871      18.067    
  10.640      3.4732     -2.4735     -6.2848     -7.1963     -4.7024      1.3284      10.560      22.186      35.081    
  48.096      60.399      71.705      82.301      92.863      104.14      116.63      130.30      144.35      157.56    
  168.68      176.07      178.09      173.67      162.85      146.84      127.64      107.28      87.474      69.646    