   9   9   0   0
  0.1255774E+02  0.4913700E-09  0.4913700E-09  0.5405130E-09  0.5000000E-15
  1.000000000000000E-004
  CAR 
 unknown system                          
     13.66670052    -20.37282857  301      1.12880731      1.00000000
    -20.373  0.0000E+00  0.0000E+00
    -20.259  0.0000E+00  0.0000E+00
    -20.146  0.0000E+00  0.0000E+00
    -20.032  0.0000E+00  0.0000E+00
    -19.919  0.0000E+00  0.0000E+00
    -19.806  0.0000E+00  0.0000E+00
    -19.692  0.0000E+00  0.0000E+00
    -19.579  0.0000E+00  0.0000E+00
    -19.465  0.0000E+00  0.0000E+00
    -19.352  0.0000E+00  0.0000E+00
    -19.238  0.0000E+00  0.0000E+00
    -19.125  0.0000E+00  0.0000E+00
    -19.011  0.0000E+00  0.0000E+00
    -18.898  0.0000E+00  0.0000E+00
    -18.784  0.0000E+00  0.0000E+00
    -18.671  0.0000E+00  0.0000E+00
    -18.557  0.0000E+00  0.0000E+00
    -18.444  0.0000E+00  0.0000E+00
    -18.330  0.2353E+00  0.3323E-02
    -18.217  0.1299E+01  0.1104E+00
    -18.104  0.2228E+01  0.3092E+00
    -17.990  0.4000E+01  0.6622E+00
    -17.877  0.9014E+01  0.1254E+01
    -17.763  0.8230E+00  0.1976E+01
    -17.650  0.1063E+01  0.2059E+01
    -17.536  0.2049E+01  0.2232E+01
    -17.423  0.6002E+01  0.2625E+01
    -17.309  0.3416E+01  0.3574E+01
    -17.196  0.1384E+01  0.3825E+01
    -17.082  0.6638E+00  0.3934E+01
    -16.969  0.8996E+00  0.4006E+01
    -16.855  0.5679E+01  0.4307E+01
    -16.742  0.4517E+01  0.5252E+01
    -16.628  0.2208E+01  0.5595E+01
    -16.515  0.1357E+01  0.5790E+01
    -16.402  0.8473E+00  0.5916E+01
    -16.288  0.3476E+00  0.5990E+01
    -16.175  0.6903E+02  0.1101E+02
    -16.061  0.0000E+00  0.1200E+02
    -15.948  0.0000E+00  0.1200E+02
    -15.834  0.0000E+00  0.1200E+02
    -15.721  0.0000E+00  0.1200E+02
    -15.607  0.0000E+00  0.1200E+02
    -15.494  0.0000E+00  0.1200E+02
    -15.380  0.0000E+00  0.1200E+02
    -15.267  0.0000E+00  0.1200E+02
    -15.153  0.0000E+00  0.1200E+02
    -15.040  0.0000E+00  0.1200E+02
    -14.927  0.0000E+00  0.1200E+02
    -14.813  0.0000E+00  0.1200E+02
    -14.700  0.0000E+00  0.1200E+02
    -14.586  0.0000E+00  0.1200E+02
    -14.473  0.0000E+00  0.1200E+02
    -14.359  0.0000E+00  0.1200E+02
    -14.246  0.0000E+00  0.1200E+02
    -14.132  0.0000E+00  0.1200E+02
    -14.019  0.0000E+00  0.1200E+02
    -13.905  0.0000E+00  0.1200E+02
    -13.792  0.0000E+00  0.1200E+02
    -13.678  0.0000E+00  0.1200E+02
    -13.565  0.0000E+00  0.1200E+02
    -13.451  0.0000E+00  0.1200E+02
    -13.338  0.0000E+00  0.1200E+02
    -13.225  0.0000E+00  0.1200E+02
    -13.111  0.0000E+00  0.1200E+02
    -12.998  0.0000E+00  0.1200E+02
    -12.884  0.0000E+00  0.1200E+02
    -12.771  0.0000E+00  0.1200E+02
    -12.657  0.0000E+00  0.1200E+02
    -12.544  0.0000E+00  0.1200E+02
    -12.430  0.0000E+00  0.1200E+02
    -12.317  0.0000E+00  0.1200E+02
    -12.203  0.0000E+00  0.1200E+02
    -12.090  0.0000E+00  0.1200E+02
    -11.976  0.0000E+00  0.1200E+02
    -11.863  0.0000E+00  0.1200E+02
    -11.749  0.0000E+00  0.1200E+02
    -11.636  0.0000E+00  0.1200E+02
    -11.523  0.0000E+00  0.1200E+02
    -11.409  0.0000E+00  0.1200E+02
    -11.296  0.0000E+00  0.1200E+02
    -11.182  0.0000E+00  0.1200E+02
    -11.069  0.0000E+00  0.1200E+02
    -10.955  0.0000E+00  0.1200E+02
    -10.842  0.0000E+00  0.1200E+02
    -10.728  0.0000E+00  0.1200E+02
    -10.615  0.0000E+00  0.1200E+02
    -10.501  0.0000E+00  0.1200E+02
    -10.388  0.0000E+00  0.1200E+02
    -10.274  0.0000E+00  0.1200E+02
    -10.161  0.0000E+00  0.1200E+02
    -10.048  0.0000E+00  0.1200E+02
     -9.934  0.0000E+00  0.1200E+02
     -9.821  0.0000E+00  0.1200E+02
     -9.707  0.0000E+00  0.1200E+02
     -9.594  0.0000E+00  0.1200E+02
     -9.480  0.0000E+00  0.1200E+02
     -9.367  0.0000E+00  0.1200E+02
     -9.253  0.0000E+00  0.1200E+02
     -9.140  0.0000E+00  0.1200E+02
     -9.026  0.0000E+00  0.1200E+02
     -8.913  0.0000E+00  0.1200E+02
     -8.799  0.0000E+00  0.1200E+02
     -8.686  0.0000E+00  0.1200E+02
     -8.572  0.0000E+00  0.1200E+02
     -8.459  0.0000E+00  0.1200E+02
     -8.346  0.0000E+00  0.1200E+02
     -8.232  0.0000E+00  0.1200E+02
     -8.119  0.2400E+00  0.1201E+02
     -8.005  0.4180E+00  0.1206E+02
     -7.892  0.6168E+00  0.1211E+02
     -7.778  0.8276E+00  0.1220E+02
     -7.665  0.1088E+01  0.1230E+02
     -7.551  0.1503E+01  0.1245E+02
     -7.438  0.2306E+01  0.1265E+02
     -7.324  0.8709E+01  0.1313E+02
     -7.211  0.2471E+01  0.1378E+02
     -7.097  0.6337E+00  0.1394E+02
     -6.984  0.3378E+00  0.1399E+02
     -6.870  0.2061E+00  0.1402E+02
     -6.757  0.3293E+00  0.1405E+02
     -6.644  0.4889E+00  0.1410E+02
     -6.530  0.7993E+00  0.1417E+02
     -6.417  0.1330E+01  0.1429E+02
     -6.303  0.2746E+01  0.1449E+02
     -6.190  0.6567E+01  0.1503E+02
     -6.076  0.2542E+01  0.1547E+02
     -5.963  0.1426E+01  0.1569E+02
     -5.849  0.9288E+00  0.1582E+02
     -5.736  0.6308E+00  0.1591E+02
     -5.622  0.6311E+00  0.1597E+02
     -5.509  0.9140E-01  0.1600E+02
     -5.395  0.1824E+01  0.1610E+02
     -5.282  0.3685E+01  0.1641E+02
     -5.169  0.2882E+01  0.1678E+02
     -5.055  0.2892E+01  0.1711E+02
     -4.942  0.2243E+01  0.1740E+02
     -4.828  0.1560E+01  0.1761E+02
     -4.715  0.1148E+01  0.1777E+02
     -4.601  0.8114E+00  0.1788E+02
     -4.488  0.9771E+00  0.1796E+02
     -4.374  0.1097E+02  0.1827E+02
     -4.261  0.9507E+01  0.1999E+02
     -4.147  0.5848E+01  0.2084E+02
     -4.034  0.5475E+01  0.2157E+02
     -3.920  0.1585E+01  0.2210E+02
     -3.807  0.8268E+01  0.2282E+02
     -3.693  0.4429E+01  0.2356E+02
     -3.580  0.1993E+01  0.2393E+02
     -3.467  0.3027E-02  0.2400E+02
     -3.353  0.0000E+00  0.2400E+02
     -3.240  0.0000E+00  0.2400E+02
     -3.126  0.0000E+00  0.2400E+02
     -3.013  0.0000E+00  0.2400E+02
     -2.899  0.0000E+00  0.2400E+02
     -2.786  0.0000E+00  0.2400E+02
     -2.672  0.0000E+00  0.2400E+02
     -2.559  0.0000E+00  0.2400E+02
     -2.445  0.0000E+00  0.2400E+02
     -2.332  0.0000E+00  0.2400E+02
     -2.218  0.0000E+00  0.2400E+02
     -2.105  0.1154E+02  0.2445E+02
     -1.991  0.7290E+01  0.2580E+02
     -1.878  0.5362E+01  0.2646E+02
     -1.765  0.7086E+01  0.2729E+02
     -1.651  0.7701E+01  0.2802E+02
     -1.538  0.1040E+02  0.2880E+02
     -1.424  0.5360E+01  0.2971E+02
     -1.311  0.9467E+00  0.3002E+02
     -1.197  0.1600E+02  0.3066E+02
     -1.084  0.3034E+01  0.3179E+02
     -0.970  0.9935E+01  0.3223E+02
     -0.857  0.1840E+01  0.3383E+02
     -0.743  0.2808E+01  0.3405E+02
     -0.630  0.5979E+01  0.3466E+02
     -0.516  0.1124E+02  0.3556E+02
     -0.403  0.1514E+02  0.3682E+02
     -0.290  0.4828E+01  0.3765E+02
     -0.176  0.1103E+02  0.3828E+02
     -0.063  0.1037E+02  0.3956E+02
      0.051  0.6333E+01  0.4025E+02
      0.164  0.1313E+02  0.4172E+02
      0.278  0.2543E+01  0.4204E+02
      0.391  0.1300E+02  0.4310E+02
      0.505  0.4256E+01  0.4381E+02
      0.618  0.4578E+01  0.4433E+02
      0.732  0.8980E+01  0.4507E+02
      0.845  0.5177E+01  0.4612E+02
      0.959  0.8782E+01  0.4687E+02
      1.072  0.1246E+01  0.4799E+02
      1.186  0.0000E+00  0.4800E+02
      1.299  0.0000E+00  0.4800E+02
      1.412  0.0000E+00  0.4800E+02
      1.526  0.0000E+00  0.4800E+02
      1.639  0.0000E+00  0.4800E+02
      1.753  0.0000E+00  0.4800E+02
      1.866  0.0000E+00  0.4800E+02
      1.980  0.0000E+00  0.4800E+02
      2.093  0.0000E+00  0.4800E+02
      2.207  0.0000E+00  0.4800E+02
      2.320  0.0000E+00  0.4800E+02
      2.434  0.0000E+00  0.4800E+02
      2.547  0.0000E+00  0.4800E+02
      2.661  0.0000E+00  0.4800E+02
      2.774  0.0000E+00  0.4800E+02
      2.888  0.0000E+00  0.4800E+02
      3.001  0.0000E+00  0.4800E+02
      3.114  0.0000E+00  0.4800E+02
      3.228  0.0000E+00  0.4800E+02
      3.341  0.0000E+00  0.4800E+02
      3.455  0.0000E+00  0.4800E+02
      3.568  0.0000E+00  0.4800E+02
      3.682  0.0000E+00  0.4800E+02
      3.795  0.0000E+00  0.4800E+02
      3.909  0.0000E+00  0.4800E+02
      4.022  0.0000E+00  0.4800E+02
      4.136  0.0000E+00  0.4800E+02
      4.249  0.0000E+00  0.4800E+02
      4.363  0.0000E+00  0.4800E+02
      4.476  0.0000E+00  0.4800E+02
      4.589  0.0000E+00  0.4800E+02
      4.703  0.0000E+00  0.4800E+02
      4.816  0.0000E+00  0.4800E+02
      4.930  0.0000E+00  0.4800E+02
      5.043  0.0000E+00  0.4800E+02
      5.157  0.0000E+00  0.4800E+02
      5.270  0.0000E+00  0.4800E+02
      5.384  0.0000E+00  0.4800E+02
      5.497  0.0000E+00  0.4800E+02
      5.611  0.0000E+00  0.4800E+02
      5.724  0.0000E+00  0.4800E+02
      5.838  0.0000E+00  0.4800E+02
      5.951  0.0000E+00  0.4800E+02
      6.065  0.0000E+00  0.4800E+02
      6.178  0.0000E+00  0.4800E+02
      6.291  0.0000E+00  0.4800E+02
      6.405  0.0000E+00  0.4800E+02
      6.518  0.0000E+00  0.4800E+02
      6.632  0.0000E+00  0.4800E+02
      6.745  0.0000E+00  0.4800E+02
      6.859  0.0000E+00  0.4800E+02
      6.972  0.0000E+00  0.4800E+02
      7.086  0.0000E+00  0.4800E+02
      7.199  0.6099E-02  0.4800E+02
      7.313  0.3680E-01  0.4800E+02
      7.426  0.9337E-01  0.4801E+02
      7.540  0.1815E+00  0.4802E+02
      7.653  0.2368E+00  0.4805E+02
      7.767  0.2717E+00  0.4808E+02
      7.880  0.2892E+00  0.4811E+02
      7.993  0.3316E+00  0.4814E+02
      8.107  0.3785E+00  0.4818E+02
      8.220  0.4279E+00  0.4823E+02
      8.334  0.4797E+00  0.4828E+02
      8.447  0.5336E+00  0.4834E+02
      8.561  0.6457E+00  0.4841E+02
      8.674  0.7973E+00  0.4849E+02
      8.788  0.8060E+00  0.4858E+02
      8.901  0.8656E+00  0.4868E+02
      9.015  0.9271E+00  0.4878E+02
      9.128  0.9905E+00  0.4889E+02
      9.242  0.1056E+01  0.4900E+02
      9.355  0.1508E+01  0.4915E+02
      9.468  0.1448E+01  0.4932E+02
      9.582  0.1255E+01  0.4947E+02
      9.695  0.1334E+01  0.4961E+02
      9.809  0.1516E+01  0.4978E+02
      9.922  0.2140E+01  0.4997E+02
     10.036  0.1191E+01  0.5015E+02
     10.149  0.1361E+01  0.5028E+02
     10.263  0.3740E+01  0.5055E+02
     10.376  0.1221E+02  0.5142E+02
     10.490  0.3995E+01  0.5216E+02
     10.603  0.6801E+01  0.5271E+02
     10.717  0.7209E+01  0.5360E+02
     10.830  0.3815E+01  0.5428E+02
     10.944  0.2712E+01  0.5459E+02
     11.057  0.5632E+01  0.5505E+02
     11.170  0.4084E+01  0.5583E+02
     11.284  0.5719E+01  0.5628E+02
     11.397  0.5598E+01  0.5689E+02
     11.511  0.5640E+01  0.5754E+02
     11.624  0.1248E+01  0.5798E+02
     11.738  0.0000E+00  0.5800E+02
     11.851  0.0000E+00  0.5800E+02
     11.965  0.0000E+00  0.5800E+02
     12.078  0.0000E+00  0.5800E+02
     12.192  0.0000E+00  0.5800E+02
     12.305  0.0000E+00  0.5800E+02
     12.419  0.0000E+00  0.5800E+02
     12.532  0.0000E+00  0.5800E+02
     12.646  0.0000E+00  0.5800E+02
     12.759  0.0000E+00  0.5800E+02
     12.872  0.0000E+00  0.5800E+02
     12.986  0.0000E+00  0.5800E+02
     13.099  0.0000E+00  0.5800E+02
     13.213  0.0000E+00  0.5800E+02
     13.326  0.0000E+00  0.5800E+02
     13.440  0.0000E+00  0.5800E+02
     13.553  0.0000E+00  0.5800E+02
     13.667  0.0000E+00  0.5800E+02
