 vasp.5.4.1 05Feb16 (build Mar 02 2016 14:09:44) complex                        
  
 executed on   Abel-impi-ifc-cuda date 2019.09.13  10:16:21
 running on    1 total cores
 distrk:  each k-point on    1 cores,    1 groups
 distr:  one band on NCORES_PER_BAND=   1 cores,    1 groups


--------------------------------------------------------------------------------------------------------


 INCAR:
 POTCAR:   PAW_PBE Si 05Jan2001                   
 POTCAR:   PAW_PBE O 08Apr2002                    
 POTCAR:   PAW_PBE Si 05Jan2001                   
   VRHFIN =Si: s2p2                                                             
   LEXCH  = PE                                                                  
   EATOM  =   103.0669 eV,    7.5752 Ry                                         
                                                                                
   TITEL  = PAW_PBE Si 05Jan2001                                                
   LULTRA =        F    use ultrasoft PP ?                                      
   IUNSCR =        1    unscreen: 0-lin 1-nonlin 2-no                           
   RPACOR =    1.500    partial core radius                                     
   POMASS =   28.085; ZVAL   =    4.000    mass and valenz                      
   RCORE  =    1.900    outmost cutoff radius                                   
   RWIGS  =    2.480; RWIGS  =    1.312    wigner-seitz radius (au A)           
   ENMAX  =  245.345; ENMIN  =  184.009 eV                                      
   ICORE  =        2    local potential                                         
   LCOR   =        T    correct aug charges                                     
   LPAW   =        T    paw PP                                                  
   EAUG   =  322.069                                                            
   DEXC   =    -.007                                                            
   RMAX   =    2.944    core radius for proj-oper                               
   RAUG   =    1.300    factor for augmentation sphere                          
   RDEP   =    1.993    radius for radial grids                                 
   QCUT   =   -4.246; QGAM   =    8.493    optimization parameters              
                                                                                
   Description                                                                  
     l     E      TYP  RCUT    TYP  RCUT                                        
     0   .000     23  1.900                                                     
     0   .000     23  1.900                                                     
     1   .000     23  1.900                                                     
     1   .000     23  1.900                                                     
     2   .000      7  1.900                                                     
  local pseudopotential read in
  partial core-charges read in
  atomic valenz-charges read in
  non local Contribution for L=           0  read in
    real space projection operators read in
  non local Contribution for L=           0  read in
    real space projection operators read in
  non local Contribution for L=           1  read in
    real space projection operators read in
  non local Contribution for L=           1  read in
    real space projection operators read in
    PAW grid and wavefunctions read in
 
   number of l-projection  operators is LMAX  =           4
   number of lm-projection operators is LMMAX =           8
 
 POTCAR:   PAW_PBE O 08Apr2002                    
   VRHFIN =O: s2p4                                                              
   LEXCH  = PE                                                                  
   EATOM  =   432.3788 eV,   31.7789 Ry                                         
                                                                                
   TITEL  = PAW_PBE O 08Apr2002                                                 
   LULTRA =        F    use ultrasoft PP ?                                      
   IUNSCR =        0    unscreen: 0-lin 1-nonlin 2-no                           
   RPACOR =     .000    partial core radius                                     
   POMASS =   16.000; ZVAL   =    6.000    mass and valenz                      
   RCORE  =    1.520    outmost cutoff radius                                   
   RWIGS  =    1.550; RWIGS  =     .820    wigner-seitz radius (au A)           
   ENMAX  =  400.000; ENMIN  =  300.000 eV                                      
   ICORE  =        2    local potential                                         
   LCOR   =        T    correct aug charges                                     
   LPAW   =        T    paw PP                                                  
   EAUG   =  605.392                                                            
   DEXC   =     .000                                                            
   RMAX   =    2.264    core radius for proj-oper                               
   RAUG   =    1.300    factor for augmentation sphere                          
   RDEP   =    1.550    radius for radial grids                                 
   QCUT   =   -5.520; QGAM   =   11.041    optimization parameters              
                                                                                
   Description                                                                  
     l     E      TYP  RCUT    TYP  RCUT                                        
     0   .000     23  1.200                                                     
     0  -.700     23  1.200                                                     
     1   .000     23  1.520                                                     
     1   .600     23  1.520                                                     
     2   .000      7  1.500                                                     
  local pseudopotential read in
  atomic valenz-charges read in
  non local Contribution for L=           0  read in
    real space projection operators read in
  non local Contribution for L=           0  read in
    real space projection operators read in
  non local Contribution for L=           1  read in
    real space projection operators read in
  non local Contribution for L=           1  read in
    real space projection operators read in
    PAW grid and wavefunctions read in
 
   number of l-projection  operators is LMAX  =           4
   number of lm-projection operators is LMMAX =           8
 
 Optimization of the real space projectors (new method)

 maximal supplied QI-value         = 19.84
 optimisation between [QCUT,QGAM] = [ 12.90, 25.99] = [ 46.58,189.20] Ry 
 Optimized for a Real-space Cutoff    1.05 Angstroem

   l    n(q)    QCUT    max X(q) W(low)/X(q) W(high)/X(q)  e(spline) 
   0      8    12.897     8.708    0.16E-04    0.20E-05    0.81E-08
   0      8    12.897   106.241    0.30E-03    0.21E-03    0.10E-06
   1      8    12.897     5.901    0.31E-04    0.63E-04    0.15E-07
   1      8    12.897    73.241    0.19E-03    0.47E-03    0.14E-06
 Optimization of the real space projectors (new method)

 maximal supplied QI-value         = 24.76
 optimisation between [QCUT,QGAM] = [ 12.87, 25.99] = [ 46.40,189.20] Ry 
 Optimized for a Real-space Cutoff    1.02 Angstroem

   l    n(q)    QCUT    max X(q) W(low)/X(q) W(high)/X(q)  e(spline) 
   0      8    12.873     4.192    0.53E-04    0.33E-04    0.34E-07
   0      8    12.873     8.473    0.44E-03    0.42E-03    0.16E-06
   1      7    12.873     2.474    0.99E-04    0.42E-04    0.25E-07
   1      7    12.873     3.912    0.47E-03    0.35E-03    0.15E-06
 PAW_PBE Si 05Jan2001                   :
 energy of atom  1       EATOM= -103.0669
 kinetic energy error for atom=    0.0003 (will be added to EATOM!!)
 PAW_PBE O 08Apr2002                    :
 energy of atom  2       EATOM= -432.3788
 kinetic energy error for atom=    0.0129 (will be added to EATOM!!)
 
 
 POSCAR: SiO2_P3221_icsd_34644                   
  positions in direct lattice
  No initial velocities read in
 exchange correlation table for  LEXCH =        8
   RHO(1)=    0.500       N(1)  =     2000
   RHO(2)=  100.500       N(2)  =     4000
 


--------------------------------------------------------------------------------------------------------


 ion  position               nearest neighbor table
   1  0.470  0.000  0.667-   4 1.60   7 1.60   9 1.62   5 1.62   3 3.06   3 3.06   2 3.06   2 3.06

   2  0.000  0.470  0.333-   8 1.60   5 1.60   6 1.62   7 1.62   3 3.06   3 3.06   1 3.06   1 3.06

   3  0.530  0.530  0.000-   6 1.60   9 1.60   8 1.62   4 1.62   2 3.06   2 3.06   1 3.06   1 3.06

   4  0.414  0.266  0.786-   1 1.60   3 1.62
   5  0.734  0.148  0.452-   2 1.60   1 1.62
   6  0.852  0.586  0.119-   3 1.60   2 1.62
   7  0.148  0.734  0.548-   1 1.60   2 1.62
   8  0.266  0.414  0.214-   2 1.60   3 1.62
   9  0.586  0.852  0.881-   3 1.60   1 1.62
 
  LATTYP: Found a hexagonal cell.
 ALAT       =     4.9137000030
 C/A-ratio  =     1.1000122101
  
  Lattice vectors:
  
 A1 = (   4.9137000000,   0.0000000000,   0.0000000000)
 A2 = (  -2.4568500000,   4.2553890300,   0.0000000000)
 A3 = (   0.0000000000,   0.0000000000,   5.4051300000)


Analysis of symmetry for initial positions (statically):
=====================================================================
 Subroutine PRICEL returns:
 Original cell was already a primitive cell.
 

 Routine SETGRP: Setting up the symmetry group for a 
 hexagonal supercell.


 Subroutine GETGRP returns: Found  2 space group operations
 (whereof  2 operations were pure point group operations)
 out of a pool of 24 trial point group operations.


The static configuration has the point symmetry C_2 .


Analysis of symmetry for dynamics (positions and initial velocities):
=====================================================================
 Subroutine PRICEL returns:
 Original cell was already a primitive cell.
 

 Routine SETGRP: Setting up the symmetry group for a 
 hexagonal supercell.


 Subroutine GETGRP returns: Found  2 space group operations
 (whereof  2 operations were pure point group operations)
 out of a pool of 24 trial point group operations.


The dynamic configuration has the point symmetry C_2 .


 Subroutine INISYM returns: Found  2 space group operations
 (whereof  2 operations are pure point group operations),
 and found     1 'primitive' translations

 
 
 KPOINTS: k-density: 4.0                          

Automatic generation of k-mesh.
Space group operators:
 irot       det(A)        alpha          n_x          n_y          n_z        tau_x        tau_y        tau_z
    1     1.000000     0.000001     1.000000     0.000000     0.000000     0.000000     0.000000     0.000000
    2     1.000000   180.000000    -0.500000    -0.866025     0.000000     0.000000     0.000000     0.000000
 
 Subroutine IBZKPT returns following result:
 ===========================================
 
 Found     55 irreducible k-points:
 
 Following reciprocal coordinates:
            Coordinates               Weight
  0.000000  0.000000  0.000000      1.000000
  0.166667  0.000000  0.000000      4.000000
  0.333333  0.000000  0.000000      4.000000
  0.500000  0.000000  0.000000      2.000000
  0.166667  0.166667  0.000000      2.000000
  0.333333  0.166667  0.000000      4.000000
  0.500000  0.166667  0.000000      4.000000
 -0.333333  0.166667  0.000000      4.000000
 -0.166667  0.166667  0.000000      2.000000
  0.333333  0.333333  0.000000      2.000000
  0.500000  0.333333  0.000000      4.000000
 -0.333333  0.333333  0.000000      2.000000
  0.500000  0.500000  0.000000      1.000000
  0.000000  0.000000  0.200000      2.000000
  0.166667  0.000000  0.200000      4.000000
  0.333333  0.000000  0.200000      4.000000
  0.500000  0.000000  0.200000      4.000000
 -0.333333  0.000000  0.200000      4.000000
 -0.166667  0.000000  0.200000      4.000000
  0.166667  0.166667  0.200000      4.000000
  0.333333  0.166667  0.200000      4.000000
  0.500000  0.166667  0.200000      4.000000
 -0.333333  0.166667  0.200000      4.000000
 -0.166667  0.166667  0.200000      2.000000
  0.166667  0.333333  0.200000      4.000000
  0.333333  0.333333  0.200000      4.000000
  0.500000  0.333333  0.200000      4.000000
 -0.333333  0.333333  0.200000      2.000000
  0.166667  0.500000  0.200000      4.000000
  0.333333  0.500000  0.200000      4.000000
  0.500000  0.500000  0.200000      2.000000
  0.166667 -0.333333  0.200000      4.000000
  0.333333 -0.333333  0.200000      2.000000
  0.166667 -0.166667  0.200000      2.000000
  0.000000  0.000000  0.400000      2.000000
  0.166667  0.000000  0.400000      4.000000
  0.333333  0.000000  0.400000      4.000000
  0.500000  0.000000  0.400000      4.000000
 -0.333333  0.000000  0.400000      4.000000
 -0.166667  0.000000  0.400000      4.000000
  0.166667  0.166667  0.400000      4.000000
  0.333333  0.166667  0.400000      4.000000
  0.500000  0.166667  0.400000      4.000000
 -0.333333  0.166667  0.400000      4.000000
 -0.166667  0.166667  0.400000      2.000000
  0.166667  0.333333  0.400000      4.000000
  0.333333  0.333333  0.400000      4.000000
  0.500000  0.333333  0.400000      4.000000
 -0.333333  0.333333  0.400000      2.000000
  0.166667  0.500000  0.400000      4.000000
  0.333333  0.500000  0.400000      4.000000
  0.500000  0.500000  0.400000      2.000000
  0.166667 -0.333333  0.400000      4.000000
  0.333333 -0.333333  0.400000      2.000000
  0.166667 -0.166667  0.400000      2.000000
 
 Following cartesian coordinates:
            Coordinates               Weight
  0.000000  0.000000  0.000000      1.000000
  0.033919  0.019583  0.000000      4.000000
  0.067838  0.039166  0.000000      4.000000
  0.101756  0.058749  0.000000      2.000000
  0.033919  0.058749  0.000000      2.000000
  0.067838  0.078332  0.000000      4.000000
  0.101756  0.097915  0.000000      4.000000
 -0.067838  0.000000  0.000000      4.000000
 -0.033919  0.019583  0.000000      2.000000
  0.067838  0.117498  0.000000      2.000000
  0.101756  0.137081  0.000000      4.000000
 -0.067838  0.039166  0.000000      2.000000
  0.101756  0.176247  0.000000      1.000000
  0.000000  0.000000  0.037002      2.000000
  0.033919  0.019583  0.037002      4.000000
  0.067838  0.039166  0.037002      4.000000
  0.101756  0.058749  0.037002      4.000000
 -0.067838 -0.039166  0.037002      4.000000
 -0.033919 -0.019583  0.037002      4.000000
  0.033919  0.058749  0.037002      4.000000
  0.067838  0.078332  0.037002      4.000000
  0.101756  0.097915  0.037002      4.000000
 -0.067838  0.000000  0.037002      4.000000
 -0.033919  0.019583  0.037002      2.000000
  0.033919  0.097915  0.037002      4.000000
  0.067838  0.117498  0.037002      4.000000
  0.101756  0.137081  0.037002      4.000000
 -0.067838  0.039166  0.037002      2.000000
  0.033919  0.137081  0.037002      4.000000
  0.067838  0.156664  0.037002      4.000000
  0.101756  0.176247  0.037002      2.000000
  0.033919 -0.058749  0.037002      4.000000
  0.067838 -0.039166  0.037002      2.000000
  0.033919 -0.019583  0.037002      2.000000
  0.000000  0.000000  0.074004      2.000000
  0.033919  0.019583  0.074004      4.000000
  0.067838  0.039166  0.074004      4.000000
  0.101756  0.058749  0.074004      4.000000
 -0.067838 -0.039166  0.074004      4.000000
 -0.033919 -0.019583  0.074004      4.000000
  0.033919  0.058749  0.074004      4.000000
  0.067838  0.078332  0.074004      4.000000
  0.101756  0.097915  0.074004      4.000000
 -0.067838  0.000000  0.074004      4.000000
 -0.033919  0.019583  0.074004      2.000000
  0.033919  0.097915  0.074004      4.000000
  0.067838  0.117498  0.074004      4.000000
  0.101756  0.137081  0.074004      4.000000
 -0.067838  0.039166  0.074004      2.000000
  0.033919  0.137081  0.074004      4.000000
  0.067838  0.156664  0.074004      4.000000
  0.101756  0.176247  0.074004      2.000000
  0.033919 -0.058749  0.074004      4.000000
  0.067838 -0.039166  0.074004      2.000000
  0.033919 -0.019583  0.074004      2.000000
 
 TETIRR: Found    273 inequivalent tetrahedra from     1080


--------------------------------------------------------------------------------------------------------




 Dimension of arrays:
   k-points           NKPTS =     55   k-points in BZ     NKDIM =     55   number of bands    NBANDS=     29
   number of dos      NEDOS =    301   number of ions     NIONS =      9
   non local maximal  LDIM  =      4   non local SUM 2l+1 LMDIM =      8
   total plane-waves  NPLWV =  36864
   max r-space proj   IRMAX =   1638   max aug-charges    IRDMAX=  11104
   dimension x,y,z NGX =    32 NGY =   32 NGZ =   36
   dimension x,y,z NGXF=    64 NGYF=   64 NGZF=   72
   support grid    NGXF=    64 NGYF=   64 NGZF=   72
   ions per type =               3   6
 NGX,Y,Z   is equivalent  to a cutoff of  10.83, 10.83, 11.07 a.u.
 NGXF,Y,Z  is equivalent  to a cutoff of  21.65, 21.65, 22.15 a.u.


 I would recommend the setting:
   dimension x,y,z NGX =    31 NGY =   31 NGZ =   34
 SYSTEM =  unknown system                          
 POSCAR =  SiO2_P3221_icsd_34644                   

 Startparameter for this run:
   NWRITE =      2    write-flag & timer
   PREC   = normal    normal or accurate (medium, high low for compatibility)
   ISTART =      0    job   : 0-new  1-cont  2-samecut
   ICHARG =      2    charge: 1-file 2-atom 10-const
   ISPIN  =      1    spin polarized calculation?
   LNONCOLLINEAR =      F non collinear calculations
   LSORBIT =      F    spin-orbit coupling
   INIWAV =      1    electr: 0-lowe 1-rand  2-diag
   LASPH  =      F    aspherical Exc in radial PAW
   METAGGA=      F    non-selfconsistent MetaGGA calc.

 Electronic Relaxation 1
   ENCUT  =  650.0 eV  47.77 Ry    6.91 a.u.  10.21 10.21 11.24*2*pi/ulx,y,z
   ENINI  =  650.0     initial cutoff
   ENAUG  =  605.4 eV  augmentation charge cutoff
   NELM   =     60;   NELMIN=  4; NELMDL= -5     # of ELM steps 
   EDIFF  = 0.1E-04   stopping-criterion for ELM
   LREAL  =      T    real-space projection
   NLSPLINE    = F    spline interpolate recip. space projectors
   LCOMPAT=      F    compatible to vasp.4.4
   GGA_COMPAT  = T    GGA compatible to vasp.4.4-vasp.4.6
   LMAXPAW     = -100 max onsite density
   LMAXMIX     =    2 max onsite mixed and CHGCAR
   VOSKOWN=      0    Vosko Wilk Nusair interpolation
   ROPT   =   -0.00050  -0.00050
 Ionic relaxation
   EDIFFG = 0.1E-03   stopping-criterion for IOM
   NSW    =      0    number of steps for IOM
   NBLOCK =      1;   KBLOCK =      1    inner block; outer block 
   IBRION =     -1    ionic relax: 0-MD 1-quasi-New 2-CG
   NFREE  =      0    steps in history (QN), initial steepest desc. (CG)
   ISIF   =      2    stress and relaxation
   IWAVPR =     10    prediction:  0-non 1-charg 2-wave 3-comb
   ISYM   =      2    0-nonsym 1-usesym 2-fastsym
   LCORR  =      T    Harris-Foulkes like correction to forces

   POTIM  = 0.5000    time-step for ionic-motion
   TEIN   =    0.0    initial temperature
   TEBEG  =    0.0;   TEEND  =   0.0 temperature during run
   SMASS  =  -3.00    Nose mass-parameter (am)
   estimated Nose-frequenzy (Omega)   =  0.10E-29 period in steps =****** mass=  -0.552E-27a.u.
   SCALEE = 1.0000    scale energy and forces
   NPACO  =    256;   APACO  = 16.0  distance and # of slots for P.C.
   PSTRESS=    0.0 pullay stress

  Mass of Ions in am
   POMASS =  28.09 16.00
  Ionic Valenz
   ZVAL   =   4.00  6.00
  Atomic Wigner-Seitz radii
   RWIGS  =  -1.00 -1.00
  virtual crystal weights 
   VCA    =   1.00  1.00
   NELECT =      48.0000    total number of electrons
   NUPDOWN=      -1.0000    fix difference up-down

 DOS related values:
   EMIN   =  10.00;   EMAX   =-10.00  energy-range for DOS
   EFERMI =   0.00
   ISMEAR =    -5;   SIGMA  =   0.20  broadening in eV -4-tet -1-fermi 0-gaus

 Electronic relaxation 2 (details)
   IALGO  =     68    algorithm
   LDIAG  =      T    sub-space diagonalisation (order eigenvalues)
   LSUBROT=      F    optimize rotation matrix (better conditioning)
   TURBO    =      0    0=normal 1=particle mesh
   IRESTART =      0    0=no restart 2=restart with 2 vectors
   NREBOOT  =      0    no. of reboots
   NMIN     =      0    reboot dimension
   EREF     =   0.00    reference energy to select bands
   IMIX   =      4    mixing-type and parameters
     AMIX     =   0.40;   BMIX     =  1.00
     AMIX_MAG =   1.60;   BMIX_MAG =  1.00
     AMIN     =   0.10
     WC   =   100.;   INIMIX=   1;  MIXPRE=   1;  MAXMIX= -45

 Intra band minimization:
   WEIMIN = 0.0000     energy-eigenvalue tresh-hold
   EBREAK =  0.86E-07  absolut break condition
   DEPER  =   0.30     relativ break condition  

   TIME   =   0.40     timestep for ELM

  volume/ion in A,a.u.               =      12.56        84.74
  Fermi-wavevector in a.u.,A,eV,Ry     =   1.230563  2.325427 20.603106  1.514286
  Thomas-Fermi vector in A             =   2.365407
 
 Write flags
   LWAVE  =      F    write WAVECAR
   LCHARG =      T    write CHGCAR
   LVTOT  =      F    write LOCPOT, total local potential
   LVHAR  =      F    write LOCPOT, Hartree potential only
   LELF   =      F    write electronic localiz. function (ELF)
   LORBIT =      0    0 simple, 1 ext, 2 COOP (PROOUT)


 Dipole corrections
   LMONO  =      F    monopole corrections only (constant potential shift)
   LDIPOL =      F    correct potential (dipole corrections)
   IDIPOL =      0    1-x, 2-y, 3-z, 4-all directions 
   EPSILON=  1.0000000 bulk dielectric constant

 Exchange correlation treatment:
   GGA     =    --    GGA type
   LEXCH   =     8    internal setting for exchange type
   VOSKOWN=      0    Vosko Wilk Nusair interpolation
   LHFCALC =     F    Hartree Fock is set to
   LHFONE  =     F    Hartree Fock one center treatment
   AEXX    =    0.0000 exact exchange contribution

 Linear response parameters
   LEPSILON=     F    determine dielectric tensor
   LRPA    =     F    only Hartree local field effects (RPA)
   LNABLA  =     F    use nabla operator in PAW spheres
   LVEL    =     F    velocity operator in full k-point grid
   LINTERFAST=   F  fast interpolation
   KINTER  =     0    interpolate to denser k-point grid
   CSHIFT  =0.1000    complex shift for real part using Kramers Kronig
   OMEGAMAX=  -1.0    maximum frequency
   DEG_THRESHOLD= 0.2000000E-02 threshold for treating states as degnerate
   RTIME   =    0.100 relaxation time in fs

 Orbital magnetization related:
   ORBITALMAG=     F  switch on orbital magnetization
   LCHIMAG   =     F  perturbation theory with respect to B field
   DQ        =  0.001000  dq finite difference perturbation B field



--------------------------------------------------------------------------------------------------------


 Static calculation
 charge density and potential will be updated during run
 non-spin polarized calculation
 RMM-DIIS sequential band-by-band and
  variant of blocked Davidson during initial phase
 perform sub-space diagonalisation
    before iterative eigenvector-optimisation
 modified Broyden-mixing scheme, WC =      100.0
 initial mixing is a Kerker type mixing with AMIX =  0.4000 and BMIX =      1.0000
 Hartree-type preconditioning will be used
 using additional bands            5
 real space projection scheme for non local part
 use partial core corrections
 calculate Harris-corrections to forces 
   (improved forces if not selfconsistent)
 use gradient corrections 
 use of overlap-Matrix (Vanderbilt PP)
 Fermi weights with tetrahedron method with Bloechl corrections


--------------------------------------------------------------------------------------------------------


  energy-cutoff  :      650.00
  volume of cell :      113.02
      direct lattice vectors                 reciprocal lattice vectors
     4.913700000  0.000000000  0.000000000     0.203512628  0.117498070  0.000000000
    -2.456850000  4.255389030  0.000000000     0.000000000  0.234996141  0.000000000
     0.000000000  0.000000000  5.405130000     0.000000000  0.000000000  0.185009426

  length of vectors
     4.913700000  4.913700003  5.405130000     0.234996141  0.234996141  0.185009426


 
 k-points in units of 2pi/SCALE and weight: k-density: 4.0                          
   0.00000000  0.00000000  0.00000000       0.006
   0.03391877  0.01958301  0.00000000       0.022
   0.06783754  0.03916602  0.00000000       0.022
   0.10175631  0.05874904  0.00000000       0.011
   0.03391877  0.05874904  0.00000000       0.011
   0.06783754  0.07833205  0.00000000       0.022
   0.10175631  0.09791506  0.00000000       0.022
  -0.06783754  0.00000000  0.00000000       0.022
  -0.03391877  0.01958301  0.00000000       0.011
   0.06783754  0.11749807  0.00000000       0.011
   0.10175631  0.13708108  0.00000000       0.022
  -0.06783754  0.03916602  0.00000000       0.011
   0.10175631  0.17624711  0.00000000       0.006
   0.00000000  0.00000000  0.03700189       0.011
   0.03391877  0.01958301  0.03700189       0.022
   0.06783754  0.03916602  0.03700189       0.022
   0.10175631  0.05874904  0.03700189       0.022
  -0.06783754 -0.03916602  0.03700189       0.022
  -0.03391877 -0.01958301  0.03700189       0.022
   0.03391877  0.05874904  0.03700189       0.022
   0.06783754  0.07833205  0.03700189       0.022
   0.10175631  0.09791506  0.03700189       0.022
  -0.06783754  0.00000000  0.03700189       0.022
  -0.03391877  0.01958301  0.03700189       0.011
   0.03391877  0.09791506  0.03700189       0.022
   0.06783754  0.11749807  0.03700189       0.022
   0.10175631  0.13708108  0.03700189       0.022
  -0.06783754  0.03916602  0.03700189       0.011
   0.03391877  0.13708108  0.03700189       0.022
   0.06783754  0.15666409  0.03700189       0.022
   0.10175631  0.17624711  0.03700189       0.011
   0.03391877 -0.05874904  0.03700189       0.022
   0.06783754 -0.03916602  0.03700189       0.011
   0.03391877 -0.01958301  0.03700189       0.011
   0.00000000  0.00000000  0.07400377       0.011
   0.03391877  0.01958301  0.07400377       0.022
   0.06783754  0.03916602  0.07400377       0.022
   0.10175631  0.05874904  0.07400377       0.022
  -0.06783754 -0.03916602  0.07400377       0.022
  -0.03391877 -0.01958301  0.07400377       0.022
   0.03391877  0.05874904  0.07400377       0.022
   0.06783754  0.07833205  0.07400377       0.022
   0.10175631  0.09791506  0.07400377       0.022
  -0.06783754  0.00000000  0.07400377       0.022
  -0.03391877  0.01958301  0.07400377       0.011
   0.03391877  0.09791506  0.07400377       0.022
   0.06783754  0.11749807  0.07400377       0.022
   0.10175631  0.13708108  0.07400377       0.022
  -0.06783754  0.03916602  0.07400377       0.011
   0.03391877  0.13708108  0.07400377       0.022
   0.06783754  0.15666409  0.07400377       0.022
   0.10175631  0.17624711  0.07400377       0.011
   0.03391877 -0.05874904  0.07400377       0.022
   0.06783754 -0.03916602  0.07400377       0.011
   0.03391877 -0.01958301  0.07400377       0.011
 
 k-points in reciprocal lattice and weights: k-density: 4.0                          
   0.00000000  0.00000000  0.00000000       0.006
   0.16666667  0.00000000  0.00000000       0.022
   0.33333333  0.00000000  0.00000000       0.022
   0.50000000  0.00000000  0.00000000       0.011
   0.16666667  0.16666667  0.00000000       0.011
   0.33333333  0.16666667  0.00000000       0.022
   0.50000000  0.16666667  0.00000000       0.022
  -0.33333333  0.16666667  0.00000000       0.022
  -0.16666667  0.16666667  0.00000000       0.011
   0.33333333  0.33333333  0.00000000       0.011
   0.50000000  0.33333333  0.00000000       0.022
  -0.33333333  0.33333333  0.00000000       0.011
   0.50000000  0.50000000  0.00000000       0.006
   0.00000000  0.00000000  0.20000000       0.011
   0.16666667  0.00000000  0.20000000       0.022
   0.33333333  0.00000000  0.20000000       0.022
   0.50000000  0.00000000  0.20000000       0.022
  -0.33333333  0.00000000  0.20000000       0.022
  -0.16666667  0.00000000  0.20000000       0.022
   0.16666667  0.16666667  0.20000000       0.022
   0.33333333  0.16666667  0.20000000       0.022
   0.50000000  0.16666667  0.20000000       0.022
  -0.33333333  0.16666667  0.20000000       0.022
  -0.16666667  0.16666667  0.20000000       0.011
   0.16666667  0.33333333  0.20000000       0.022
   0.33333333  0.33333333  0.20000000       0.022
   0.50000000  0.33333333  0.20000000       0.022
  -0.33333333  0.33333333  0.20000000       0.011
   0.16666667  0.50000000  0.20000000       0.022
   0.33333333  0.50000000  0.20000000       0.022
   0.50000000  0.50000000  0.20000000       0.011
   0.16666667 -0.33333333  0.20000000       0.022
   0.33333333 -0.33333333  0.20000000       0.011
   0.16666667 -0.16666667  0.20000000       0.011
   0.00000000  0.00000000  0.40000000       0.011
   0.16666667  0.00000000  0.40000000       0.022
   0.33333333  0.00000000  0.40000000       0.022
   0.50000000  0.00000000  0.40000000       0.022
  -0.33333333  0.00000000  0.40000000       0.022
  -0.16666667  0.00000000  0.40000000       0.022
   0.16666667  0.16666667  0.40000000       0.022
   0.33333333  0.16666667  0.40000000       0.022
   0.50000000  0.16666667  0.40000000       0.022
  -0.33333333  0.16666667  0.40000000       0.022
  -0.16666667  0.16666667  0.40000000       0.011
   0.16666667  0.33333333  0.40000000       0.022
   0.33333333  0.33333333  0.40000000       0.022
   0.50000000  0.33333333  0.40000000       0.022
  -0.33333333  0.33333333  0.40000000       0.011
   0.16666667  0.50000000  0.40000000       0.022
   0.33333333  0.50000000  0.40000000       0.022
   0.50000000  0.50000000  0.40000000       0.011
   0.16666667 -0.33333333  0.40000000       0.022
   0.33333333 -0.33333333  0.40000000       0.011
   0.16666667 -0.16666667  0.40000000       0.011
 
 position of ions in fractional coordinates (direct lattice) 
   0.46980000  0.00000000  0.66667000
   0.00000000  0.46980000  0.33333000
   0.53020000  0.53020000  0.00000000
   0.41450000  0.26620000  0.78560000
   0.73380000  0.14830000  0.45227000
   0.85170000  0.58550000  0.11893000
   0.14830000  0.73380000  0.54773000
   0.26620000  0.41450000  0.21440000
   0.58550000  0.85170000  0.88107000
 
 position of ions in cartesian coordinates  (Angst):
   2.30845626  0.00000000  3.60343802
  -1.15422813  1.99918177  1.80169198
   1.30262187  2.25620726  0.00000000
   1.38271518  1.13278456  4.24627013
   3.24132221  0.63107419  2.44457815
   2.74651261  2.49153028  0.64283211
  -1.07413482  3.12260447  2.96055185
   0.28966261  1.76385875  1.15885987
   0.78447221  3.62431484  4.76229789
 


--------------------------------------------------------------------------------------------------------


 k-point  1 :   0.0000 0.0000 0.0000  plane waves:    4217
 k-point  2 :   0.1667 0.0000 0.0000  plane waves:    4244
 k-point  3 :   0.3333 0.0000 0.0000  plane waves:    4262
 k-point  4 :   0.5000 0.0000 0.0000  plane waves:    4292
 k-point  5 :   0.1667 0.1667 0.0000  plane waves:    4252
 k-point  6 :   0.3333 0.1667 0.0000  plane waves:    4250
 k-point  7 :   0.5000 0.1667 0.0000  plane waves:    4250
 k-point  8 :  -0.3333 0.1667 0.0000  plane waves:    4252
 k-point  9 :  -0.1667 0.1667 0.0000  plane waves:    4244
 k-point 10 :   0.3333 0.3333 0.0000  plane waves:    4242
 k-point 11 :   0.5000 0.3333 0.0000  plane waves:    4250
 k-point 12 :  -0.3333 0.3333 0.0000  plane waves:    4262
 k-point 13 :   0.5000 0.5000 0.0000  plane waves:    4292
 k-point 14 :   0.0000 0.0000 0.2000  plane waves:    4259
 k-point 15 :   0.1667 0.0000 0.2000  plane waves:    4237
 k-point 16 :   0.3333 0.0000 0.2000  plane waves:    4255
 k-point 17 :   0.5000 0.0000 0.2000  plane waves:    4256
 k-point 18 :  -0.3333 0.0000 0.2000  plane waves:    4255
 k-point 19 :  -0.1667 0.0000 0.2000  plane waves:    4237
 k-point 20 :   0.1667 0.1667 0.2000  plane waves:    4254
 k-point 21 :   0.3333 0.1667 0.2000  plane waves:    4252
 k-point 22 :   0.5000 0.1667 0.2000  plane waves:    4252
 k-point 23 :  -0.3333 0.1667 0.2000  plane waves:    4254
 k-point 24 :  -0.1667 0.1667 0.2000  plane waves:    4237
 k-point 25 :   0.1667 0.3333 0.2000  plane waves:    4252
 k-point 26 :   0.3333 0.3333 0.2000  plane waves:    4245
 k-point 27 :   0.5000 0.3333 0.2000  plane waves:    4252
 k-point 28 :  -0.3333 0.3333 0.2000  plane waves:    4255
 k-point 29 :   0.1667 0.5000 0.2000  plane waves:    4252
 k-point 30 :   0.3333 0.5000 0.2000  plane waves:    4252
 k-point 31 :   0.5000 0.5000 0.2000  plane waves:    4256
 k-point 32 :   0.1667-0.3333 0.2000  plane waves:    4254
 k-point 33 :   0.3333-0.3333 0.2000  plane waves:    4255
 k-point 34 :   0.1667-0.1667 0.2000  plane waves:    4237
 k-point 35 :   0.0000 0.0000 0.4000  plane waves:    4252
 k-point 36 :   0.1667 0.0000 0.4000  plane waves:    4260
 k-point 37 :   0.3333 0.0000 0.4000  plane waves:    4246
 k-point 38 :   0.5000 0.0000 0.4000  plane waves:    4256
 k-point 39 :  -0.3333 0.0000 0.4000  plane waves:    4246
 k-point 40 :  -0.1667 0.0000 0.4000  plane waves:    4260
 k-point 41 :   0.1667 0.1667 0.4000  plane waves:    4255
 k-point 42 :   0.3333 0.1667 0.4000  plane waves:    4254
 k-point 43 :   0.5000 0.1667 0.4000  plane waves:    4254
 k-point 44 :  -0.3333 0.1667 0.4000  plane waves:    4255
 k-point 45 :  -0.1667 0.1667 0.4000  plane waves:    4260
 k-point 46 :   0.1667 0.3333 0.4000  plane waves:    4254
 k-point 47 :   0.3333 0.3333 0.4000  plane waves:    4263
 k-point 48 :   0.5000 0.3333 0.4000  plane waves:    4254
 k-point 49 :  -0.3333 0.3333 0.4000  plane waves:    4246
 k-point 50 :   0.1667 0.5000 0.4000  plane waves:    4254
 k-point 51 :   0.3333 0.5000 0.4000  plane waves:    4254
 k-point 52 :   0.5000 0.5000 0.4000  plane waves:    4256
 k-point 53 :   0.1667-0.3333 0.4000  plane waves:    4255
 k-point 54 :   0.3333-0.3333 0.4000  plane waves:    4246
 k-point 55 :   0.1667-0.1667 0.4000  plane waves:    4260

 maximum and minimum number of plane-waves per node :      4292     4217

 maximum number of plane-waves:      4292
 maximum index in each direction: 
   IXMAX=   10   IYMAX=   10   IZMAX=   11
   IXMIN=  -10   IYMIN=  -10   IZMIN=  -11

 WARNING: aliasing errors must be expected set NGX to  42 to avoid them
 WARNING: aliasing errors must be expected set NGY to  42 to avoid them
 WARNING: aliasing errors must be expected set NGZ to  46 to avoid them
 aliasing errors are usually negligible using standard VASP settings
 and one can safely disregard these warnings

 serial   3D FFT for wavefunctions
 parallel 3D FFT for charge:
    minimum data exchange during FFTs selected (reduces bandwidth)


 total amount of memory used by VASP on root node   171205. kBytes
========================================================================

   base      :      30000. kBytes
   nonlr-proj:       1160. kBytes
   fftplans  :      10316. kBytes
   grid      :      18333. kBytes
   one-center:         27. kBytes
   wavefun   :     111369. kBytes
 
     INWAV:  cpu time    0.0000: real time    0.0003
 Broyden mixing: mesh for mixing (old mesh)
   NGX = 21   NGY = 21   NGZ = 23
  (NGX  = 64   NGY  = 64   NGZ  = 72)
  gives a total of  10143 points

 initial charge density was supplied:
 charge density of overlapping atoms calculated
 number of electron      48.0000000 magnetization 
 keeping initial charge density in first step


--------------------------------------------------------------------------------------------------------


 Maximum index for non-local projection operator         1531
 Maximum index for augmentation-charges        10569 (set IRDMAX)


--------------------------------------------------------------------------------------------------------


 First call to EWALD:  gamma=   0.367
 Maximum number of real-space cells 3x 3x 3
 Maximum number of reciprocal cells 3x 3x 3

 FEWALD executed in parallel
    FEWALD:  cpu time    0.0020: real time    0.0018


----------------------------------------- Iteration    1(   1)  ---------------------------------------


    POTLOK:  cpu time    0.1610: real time    0.1619
    SETDIJ:  cpu time    0.0140: real time    0.0146
     EDDAV:  cpu time    8.7197: real time    8.7177
 BZINTS: Fermi energy: 18.108729; 48.000000 electrons
         Band energy:  19.850991;  BLOECHL correction: -0.161429
       DOS:  cpu time    0.0160: real time    0.0165
    --------------------------------------------
      LOOP:  cpu time    8.9136: real time    8.9491

 eigenvalue-minimisations  :  3190
 total energy-change (2. order) : 0.3523181E+03  (-0.2897457E+04)
 number of electron      48.0000000 magnetization 
 augmentation part       48.0000000 magnetization 

 Free energy of the ion-electron system (eV)
  ---------------------------------------------------
  alpha Z        PSCENC =        69.72802778
  Ewald energy   TEWEN  =     -1887.20590689
  -Hartree energ DENC   =      -937.14514243
  -exchange      EXHF   =         0.00000000
  -V(xc)+E(xc)   XCENC  =       142.01294183
  PAW double counting   =      1574.92322788    -1533.24131965
  entropy T*S    EENTRO =         0.00000000
  eigenvalues    EBANDS =        19.85099133
  atomic energy  EATOM  =      2903.39527051
  Solvation  Ediel_sol  =         0.00000000
  ---------------------------------------------------
  free energy    TOTEN  =       352.31809036 eV

  energy without entropy =      352.31809036  energy(sigma->0) =      352.31809036


--------------------------------------------------------------------------------------------------------




----------------------------------------- Iteration    1(   2)  ---------------------------------------


     EDDAV:  cpu time   10.7414: real time   10.7400
 BZINTS: Fermi energy: -0.762394; 48.000000 electrons
         Band energy:-390.333659;  BLOECHL correction:  0.000000
       DOS:  cpu time    0.0040: real time    0.0033
    --------------------------------------------
      LOOP:  cpu time   10.7474: real time   10.7492

 eigenvalue-minimisations  :  4263
 total energy-change (2. order) :-0.4101847E+03  (-0.4013738E+03)
 number of electron      48.0000000 magnetization 
 augmentation part       48.0000000 magnetization 

 Free energy of the ion-electron system (eV)
  ---------------------------------------------------
  alpha Z        PSCENC =        69.72802778
  Ewald energy   TEWEN  =     -1887.20590689
  -Hartree energ DENC   =      -937.14514243
  -exchange      EXHF   =         0.00000000
  -V(xc)+E(xc)   XCENC  =       142.01294183
  PAW double counting   =      1574.92322788    -1533.24131965
  entropy T*S    EENTRO =         0.00000000
  eigenvalues    EBANDS =      -390.33365887
  atomic energy  EATOM  =      2903.39527051
  Solvation  Ediel_sol  =         0.00000000
  ---------------------------------------------------
  free energy    TOTEN  =       -57.86655984 eV

  energy without entropy =      -57.86655984  energy(sigma->0) =      -57.86655984


--------------------------------------------------------------------------------------------------------




----------------------------------------- Iteration    1(   3)  ---------------------------------------


     EDDAV:  cpu time    9.0386: real time    9.0383
 BZINTS: Fermi energy: -2.117468; 48.000000 electrons
         Band energy:-412.815225;  BLOECHL correction:  0.000000
       DOS:  cpu time    0.0030: real time    0.0027
    --------------------------------------------
      LOOP:  cpu time    9.0426: real time    9.0487

 eigenvalue-minimisations  :  3730
 total energy-change (2. order) :-0.2248157E+02  (-0.2241739E+02)
 number of electron      48.0000000 magnetization 
 augmentation part       48.0000000 magnetization 

 Free energy of the ion-electron system (eV)
  ---------------------------------------------------
  alpha Z        PSCENC =        69.72802778
  Ewald energy   TEWEN  =     -1887.20590689
  -Hartree energ DENC   =      -937.14514243
  -exchange      EXHF   =         0.00000000
  -V(xc)+E(xc)   XCENC  =       142.01294183
  PAW double counting   =      1574.92322788    -1533.24131965
  entropy T*S    EENTRO =         0.00000000
  eigenvalues    EBANDS =      -412.81522465
  atomic energy  EATOM  =      2903.39527051
  Solvation  Ediel_sol  =         0.00000000
  ---------------------------------------------------
  free energy    TOTEN  =       -80.34812561 eV

  energy without entropy =      -80.34812561  energy(sigma->0) =      -80.34812561


--------------------------------------------------------------------------------------------------------




----------------------------------------- Iteration    1(   4)  ---------------------------------------


     EDDAV:  cpu time    8.9346: real time    8.9335
 BZINTS: Fermi energy: -2.141941; 48.000000 electrons
         Band energy:-413.111019;  BLOECHL correction:  0.000000
       DOS:  cpu time    0.0020: real time    0.0027
    --------------------------------------------
      LOOP:  cpu time    8.9376: real time    8.9417

 eigenvalue-minimisations  :  3751
 total energy-change (2. order) :-0.2957941E+00  (-0.2953011E+00)
 number of electron      48.0000000 magnetization 
 augmentation part       48.0000000 magnetization 

 Free energy of the ion-electron system (eV)
  ---------------------------------------------------
  alpha Z        PSCENC =        69.72802778
  Ewald energy   TEWEN  =     -1887.20590689
  -Hartree energ DENC   =      -937.14514243
  -exchange      EXHF   =         0.00000000
  -V(xc)+E(xc)   XCENC  =       142.01294183
  PAW double counting   =      1574.92322788    -1533.24131965
  entropy T*S    EENTRO =         0.00000000
  eigenvalues    EBANDS =      -413.11101875
  atomic energy  EATOM  =      2903.39527051
  Solvation  Ediel_sol  =         0.00000000
  ---------------------------------------------------
  free energy    TOTEN  =       -80.64391972 eV

  energy without entropy =      -80.64391972  energy(sigma->0) =      -80.64391972


--------------------------------------------------------------------------------------------------------




----------------------------------------- Iteration    1(   5)  ---------------------------------------


     EDDAV:  cpu time    9.0206: real time    9.0254
 BZINTS: Fermi energy: -2.106801; 48.000000 electrons
         Band energy:-413.116676;  BLOECHL correction:  0.000000
       DOS:  cpu time    0.0030: real time    0.0033
    CHARGE:  cpu time    0.6289: real time    0.6294
    MIXING:  cpu time    0.0050: real time    0.0044
    --------------------------------------------
      LOOP:  cpu time    9.6595: real time    9.6709

 eigenvalue-minimisations  :  3695
 total energy-change (2. order) :-0.5657532E-02  (-0.5655189E-02)
 number of electron      48.0000057 magnetization 
 augmentation part        4.4745834 magnetization 

 Broyden mixing:
  rms(total) = 0.18760E+01    rms(broyden)= 0.18759E+01
  rms(prec ) = 0.34977E+01
  weight for this iteration     100.00

 Free energy of the ion-electron system (eV)
  ---------------------------------------------------
  alpha Z        PSCENC =        69.72802778
  Ewald energy   TEWEN  =     -1887.20590689
  -Hartree energ DENC   =      -937.14514243
  -exchange      EXHF   =         0.00000000
  -V(xc)+E(xc)   XCENC  =       142.01294183
  PAW double counting   =      1574.92322788    -1533.24131965
  entropy T*S    EENTRO =         0.00000000
  eigenvalues    EBANDS =      -413.11667628
  atomic energy  EATOM  =      2903.39527051
  Solvation  Ediel_sol  =         0.00000000
  ---------------------------------------------------
  free energy    TOTEN  =       -80.64957725 eV

  energy without entropy =      -80.64957725  energy(sigma->0) =      -80.64957725


--------------------------------------------------------------------------------------------------------




----------------------------------------- Iteration    1(   6)  ---------------------------------------


    POTLOK:  cpu time    0.1540: real time    0.1544
    SETDIJ:  cpu time    0.0140: real time    0.0148
    EDDIAG:  cpu time    1.5938: real time    1.5924
  RMM-DIIS:  cpu time    5.8791: real time    5.8787
    ORTHCH:  cpu time    0.1630: real time    0.1622
 BZINTS: Fermi energy:  0.671646; 48.000000 electrons
         Band energy:-299.745277;  BLOECHL correction:  0.000000
       DOS:  cpu time    0.0020: real time    0.0028
    CHARGE:  cpu time    0.6269: real time    0.6267
    MIXING:  cpu time    0.0050: real time    0.0045
    --------------------------------------------
      LOOP:  cpu time    8.4397: real time    8.5308

 eigenvalue-minimisations  :  3389
 total energy-change (2. order) : 0.9609182E+01  (-0.4214860E+01)
 number of electron      48.0000049 magnetization 
 augmentation part        3.6583655 magnetization 

 Broyden mixing:
  rms(total) = 0.51347E+00    rms(broyden)= 0.51334E+00
  rms(prec ) = 0.82186E+00
  weight for this iteration     100.00

 eigenvalues of (default mixing * dielectric matrix)
  average eigenvalue GAMMA=   0.9988
  0.9988

 Free energy of the ion-electron system (eV)
  ---------------------------------------------------
  alpha Z        PSCENC =        69.72802778
  Ewald energy   TEWEN  =     -1887.20590689
  -Hartree energ DENC   =     -1045.99226059
  -exchange      EXHF   =         0.00000000
  -V(xc)+E(xc)   XCENC  =       149.31704173
  PAW double counting   =      1883.95815690    -1844.49544786
  entropy T*S    EENTRO =         0.00000000
  eigenvalues    EBANDS =      -299.74527706
  atomic energy  EATOM  =      2903.39527051
  Solvation  Ediel_sol  =         0.00000000
  ---------------------------------------------------
  free energy    TOTEN  =       -71.04039549 eV

  energy without entropy =      -71.04039549  energy(sigma->0) =      -71.04039549


--------------------------------------------------------------------------------------------------------




----------------------------------------- Iteration    1(   7)  ---------------------------------------


    POTLOK:  cpu time    0.1550: real time    0.1566
    SETDIJ:  cpu time    0.0150: real time    0.0147
    EDDIAG:  cpu time    1.5958: real time    1.5966
  RMM-DIIS:  cpu time    6.4470: real time    6.4450
    ORTHCH:  cpu time    0.1640: real time    0.1636
 BZINTS: Fermi energy:  1.025351; 48.000000 electrons
         Band energy:-283.392067;  BLOECHL correction:  0.000000
       DOS:  cpu time    0.0030: real time    0.0028
    CHARGE:  cpu time    0.6309: real time    0.6313
    MIXING:  cpu time    0.0050: real time    0.0047
    --------------------------------------------
      LOOP:  cpu time    9.0176: real time    9.0228

 eigenvalue-minimisations  :  3671
 total energy-change (2. order) : 0.1643255E-01  (-0.1694878E+00)
 number of electron      48.0000048 magnetization 
 augmentation part        3.5466544 magnetization 

 Broyden mixing:
  rms(total) = 0.33991E+00    rms(broyden)= 0.33989E+00
  rms(prec ) = 0.48271E+00
  weight for this iteration     100.00

 eigenvalues of (default mixing * dielectric matrix)
  average eigenvalue GAMMA=   1.7432
  1.1563  2.3301

 Free energy of the ion-electron system (eV)
  ---------------------------------------------------
  alpha Z        PSCENC =        69.72802778
  Ewald energy   TEWEN  =     -1887.20590689
  -Hartree energ DENC   =     -1063.32561216
  -exchange      EXHF   =         0.00000000
  -V(xc)+E(xc)   XCENC  =       150.49333079
  PAW double counting   =      1976.42714313    -1937.14414925
  entropy T*S    EENTRO =         0.00000000
  eigenvalues    EBANDS =      -283.39206685
  atomic energy  EATOM  =      2903.39527051
  Solvation  Ediel_sol  =         0.00000000
  ---------------------------------------------------
  free energy    TOTEN  =       -71.02396294 eV

  energy without entropy =      -71.02396294  energy(sigma->0) =      -71.02396294


--------------------------------------------------------------------------------------------------------




----------------------------------------- Iteration    1(   8)  ---------------------------------------


    POTLOK:  cpu time    0.1560: real time    0.1571
    SETDIJ:  cpu time    0.0150: real time    0.0149
    EDDIAG:  cpu time    1.6148: real time    1.6133
  RMM-DIIS:  cpu time    6.3930: real time    6.3928
    ORTHCH:  cpu time    0.1630: real time    0.1626
 BZINTS: Fermi energy:  1.053845; 48.000000 electrons
         Band energy:-280.764206;  BLOECHL correction:  0.000000
       DOS:  cpu time    0.0030: real time    0.0028
    CHARGE:  cpu time    0.6309: real time    0.6296
    MIXING:  cpu time    0.0050: real time    0.0050
    --------------------------------------------
      LOOP:  cpu time    8.9816: real time    8.9849

 eigenvalue-minimisations  :  3604
 total energy-change (2. order) :-0.1661417E-01  (-0.2793776E-01)
 number of electron      48.0000048 magnetization 
 augmentation part        3.5885646 magnetization 

 Broyden mixing:
  rms(total) = 0.64886E-01    rms(broyden)= 0.64883E-01
  rms(prec ) = 0.12089E+00
  weight for this iteration     100.00

 eigenvalues of (default mixing * dielectric matrix)
  average eigenvalue GAMMA=   1.5824
  2.5620  1.0925  1.0925

 Free energy of the ion-electron system (eV)
  ---------------------------------------------------
  alpha Z        PSCENC =        69.72802778
  Ewald energy   TEWEN  =     -1887.20590689
  -Hartree energ DENC   =     -1066.38401783
  -exchange      EXHF   =         0.00000000
  -V(xc)+E(xc)   XCENC  =       150.78507415
  PAW double counting   =      2047.51837647    -2008.11319571
  entropy T*S    EENTRO =         0.00000000
  eigenvalues    EBANDS =      -280.76420560
  atomic energy  EATOM  =      2903.39527051
  Solvation  Ediel_sol  =         0.00000000
  ---------------------------------------------------
  free energy    TOTEN  =       -71.04057712 eV

  energy without entropy =      -71.04057712  energy(sigma->0) =      -71.04057712


--------------------------------------------------------------------------------------------------------




----------------------------------------- Iteration    1(   9)  ---------------------------------------


    POTLOK:  cpu time    0.1530: real time    0.1534
    SETDIJ:  cpu time    0.0150: real time    0.0148
    EDDIAG:  cpu time    1.6058: real time    1.6049
  RMM-DIIS:  cpu time    6.4790: real time    6.4788
    ORTHCH:  cpu time    0.1620: real time    0.1620
 BZINTS: Fermi energy:  1.111639; 48.000000 electrons
         Band energy:-275.830302;  BLOECHL correction:  0.000000
       DOS:  cpu time    0.0020: real time    0.0027
    CHARGE:  cpu time    0.6209: real time    0.6196
    MIXING:  cpu time    0.0050: real time    0.0051
    --------------------------------------------
      LOOP:  cpu time    9.0446: real time    9.0485

 eigenvalue-minimisations  :  3735
 total energy-change (2. order) : 0.8026995E-02  (-0.5786699E-02)
 number of electron      48.0000048 magnetization 
 augmentation part        3.5636102 magnetization 

 Broyden mixing:
  rms(total) = 0.13789E-01    rms(broyden)= 0.13785E-01
  rms(prec ) = 0.20393E-01
  weight for this iteration     100.00

 eigenvalues of (default mixing * dielectric matrix)
  average eigenvalue GAMMA=   1.8839
  2.9707  2.4891  1.0379  1.0379

 Free energy of the ion-electron system (eV)
  ---------------------------------------------------
  alpha Z        PSCENC =        69.72802778
  Ewald energy   TEWEN  =     -1887.20590689
  -Hartree energ DENC   =     -1071.58045705
  -exchange      EXHF   =         0.00000000
  -V(xc)+E(xc)   XCENC  =       151.14273044
  PAW double counting   =      2060.19115797    -2020.87307052
  entropy T*S    EENTRO =         0.00000000
  eigenvalues    EBANDS =      -275.83030236
  atomic energy  EATOM  =      2903.39527051
  Solvation  Ediel_sol  =         0.00000000
  ---------------------------------------------------
  free energy    TOTEN  =       -71.03255012 eV

  energy without entropy =      -71.03255012  energy(sigma->0) =      -71.03255012


--------------------------------------------------------------------------------------------------------




----------------------------------------- Iteration    1(  10)  ---------------------------------------


    POTLOK:  cpu time    0.1530: real time    0.1531
    SETDIJ:  cpu time    0.0150: real time    0.0151
    EDDIAG:  cpu time    1.5788: real time    1.5788
  RMM-DIIS:  cpu time    6.3860: real time    6.3897
    ORTHCH:  cpu time    0.1670: real time    0.1671
 BZINTS: Fermi energy:  1.158901; 48.000000 electrons
         Band energy:-274.530472;  BLOECHL correction:  0.000000
       DOS:  cpu time    0.0030: real time    0.0024
    CHARGE:  cpu time    0.6409: real time    0.6405
    MIXING:  cpu time    0.0060: real time    0.0057
    --------------------------------------------
      LOOP:  cpu time    8.9506: real time    8.9597

 eigenvalue-minimisations  :  3674
 total energy-change (2. order) :-0.3408006E-02  (-0.1863162E-02)
 number of electron      48.0000048 magnetization 
 augmentation part        3.5503476 magnetization 

 Broyden mixing:
  rms(total) = 0.24897E-01    rms(broyden)= 0.24896E-01
  rms(prec ) = 0.42307E-01
  weight for this iteration     100.00

 eigenvalues of (default mixing * dielectric matrix)
  average eigenvalue GAMMA=   1.6720
  2.7783  2.4563  1.0686  1.0686  0.9884

 Free energy of the ion-electron system (eV)
  ---------------------------------------------------
  alpha Z        PSCENC =        69.72802778
  Ewald energy   TEWEN  =     -1887.20590689
  -Hartree energ DENC   =     -1072.94597377
  -exchange      EXHF   =         0.00000000
  -V(xc)+E(xc)   XCENC  =       151.23081804
  PAW double counting   =      2054.55900825    -2015.26672986
  entropy T*S    EENTRO =         0.00000000
  eigenvalues    EBANDS =      -274.53047219
  atomic energy  EATOM  =      2903.39527051
  Solvation  Ediel_sol  =         0.00000000
  ---------------------------------------------------
  free energy    TOTEN  =       -71.03595813 eV

  energy without entropy =      -71.03595813  energy(sigma->0) =      -71.03595813


--------------------------------------------------------------------------------------------------------




----------------------------------------- Iteration    1(  11)  ---------------------------------------


    POTLOK:  cpu time    0.1590: real time    0.1603
    SETDIJ:  cpu time    0.0160: real time    0.0153
    EDDIAG:  cpu time    1.6537: real time    1.6532
  RMM-DIIS:  cpu time    7.0359: real time    7.0341
    ORTHCH:  cpu time    0.1700: real time    0.1702
 BZINTS: Fermi energy:  1.138604; 48.000000 electrons
         Band energy:-275.592025;  BLOECHL correction:  0.000000
       DOS:  cpu time    0.0030: real time    0.0023
    CHARGE:  cpu time    0.6409: real time    0.6416
    MIXING:  cpu time    0.0060: real time    0.0059
    --------------------------------------------
      LOOP:  cpu time    9.6855: real time    9.6895

 eigenvalue-minimisations  :  3730
 total energy-change (2. order) : 0.1538786E-02  (-0.3257350E-03)
 number of electron      48.0000048 magnetization 
 augmentation part        3.5565952 magnetization 

 Broyden mixing:
  rms(total) = 0.70416E-02    rms(broyden)= 0.70412E-02
  rms(prec ) = 0.12309E-01
  weight for this iteration     100.00

 eigenvalues of (default mixing * dielectric matrix)
  average eigenvalue GAMMA=   1.7154
  2.9366  2.4629  1.6030  0.9499  1.1700  1.1700

 Free energy of the ion-electron system (eV)
  ---------------------------------------------------
  alpha Z        PSCENC =        69.72802778
  Ewald energy   TEWEN  =     -1887.20590689
  -Hartree energ DENC   =     -1071.82985607
  -exchange      EXHF   =         0.00000000
  -V(xc)+E(xc)   XCENC  =       151.15533716
  PAW double counting   =      2052.36973663    -2013.05500328
  entropy T*S    EENTRO =         0.00000000
  eigenvalues    EBANDS =      -275.59202518
  atomic energy  EATOM  =      2903.39527051
  Solvation  Ediel_sol  =         0.00000000
  ---------------------------------------------------
  free energy    TOTEN  =       -71.03441934 eV

  energy without entropy =      -71.03441934  energy(sigma->0) =      -71.03441934


--------------------------------------------------------------------------------------------------------




----------------------------------------- Iteration    1(  12)  ---------------------------------------


    POTLOK:  cpu time    0.1610: real time    0.1612
    SETDIJ:  cpu time    0.0150: real time    0.0153
    EDDIAG:  cpu time    1.6617: real time    1.6615
  RMM-DIIS:  cpu time    6.9189: real time    6.9176
    ORTHCH:  cpu time    0.1680: real time    0.1680
 BZINTS: Fermi energy:  1.103546; 48.000000 electrons
         Band energy:-275.938646;  BLOECHL correction:  0.000000
       DOS:  cpu time    0.0030: real time    0.0028
    CHARGE:  cpu time    0.6399: real time    0.6400
    MIXING:  cpu time    0.0060: real time    0.0062
    --------------------------------------------
      LOOP:  cpu time    9.5755: real time    9.5792

 eigenvalue-minimisations  :  3715
 total energy-change (2. order) : 0.5912941E-04  (-0.1023027E-03)
 number of electron      48.0000048 magnetization 
 augmentation part        3.5602003 magnetization 

 Broyden mixing:
  rms(total) = 0.80328E-03    rms(broyden)= 0.80002E-03
  rms(prec ) = 0.12773E-02
  weight for this iteration     100.00

 eigenvalues of (default mixing * dielectric matrix)
  average eigenvalue GAMMA=   1.6958
  2.8669  2.2844  2.2844  1.0033  1.0912  1.1702  1.1702

 Free energy of the ion-electron system (eV)
  ---------------------------------------------------
  alpha Z        PSCENC =        69.72802778
  Ewald energy   TEWEN  =     -1887.20590689
  -Hartree energ DENC   =     -1071.46376426
  -exchange      EXHF   =         0.00000000
  -V(xc)+E(xc)   XCENC  =       151.12883745
  PAW double counting   =      2051.58223126    -2012.26041048
  entropy T*S    EENTRO =         0.00000000
  eigenvalues    EBANDS =      -275.93864559
  atomic energy  EATOM  =      2903.39527051
  Solvation  Ediel_sol  =         0.00000000
  ---------------------------------------------------
  free energy    TOTEN  =       -71.03436021 eV

  energy without entropy =      -71.03436021  energy(sigma->0) =      -71.03436021


--------------------------------------------------------------------------------------------------------




----------------------------------------- Iteration    1(  13)  ---------------------------------------


    POTLOK:  cpu time    0.1590: real time    0.1593
    SETDIJ:  cpu time    0.0150: real time    0.0152
    EDDIAG:  cpu time    1.6547: real time    1.6538
  RMM-DIIS:  cpu time    5.4312: real time    5.4300
    ORTHCH:  cpu time    0.1680: real time    0.1680
 BZINTS: Fermi energy:  1.128807; 48.000000 electrons
         Band energy:-275.896831;  BLOECHL correction:  0.000000
       DOS:  cpu time    0.0020: real time    0.0023
    --------------------------------------------
      LOOP:  cpu time    7.4319: real time    7.4360

 eigenvalue-minimisations  :  2771
 total energy-change (2. order) :-0.2649377E-05  (-0.2976978E-05)
 number of electron      48.0000048 magnetization 
 augmentation part        3.5602003 magnetization 

 Free energy of the ion-electron system (eV)
  ---------------------------------------------------
  alpha Z        PSCENC =        69.72802778
  Ewald energy   TEWEN  =     -1887.20590689
  -Hartree energ DENC   =     -1071.50761967
  -exchange      EXHF   =         0.00000000
  -V(xc)+E(xc)   XCENC  =       151.13157440
  PAW double counting   =      2051.76964515    -2012.44852320
  entropy T*S    EENTRO =         0.00000000
  eigenvalues    EBANDS =      -275.89683095
  atomic energy  EATOM  =      2903.39527051
  Solvation  Ediel_sol  =         0.00000000
  ---------------------------------------------------
  free energy    TOTEN  =       -71.03436286 eV

  energy without entropy =      -71.03436286  energy(sigma->0) =      -71.03436286


--------------------------------------------------------------------------------------------------------




 average (electrostatic) potential at core
  the test charge radii are     0.9892  0.7215
  (the norm of the test charge is              1.0000)
       1 -86.3824       2 -86.3824       3 -86.3824       4 -72.3935       5 -72.3934
       6 -72.3935       7 -72.3934       8 -72.3935       9 -72.3935
 
 
 
 E-fermi :   1.1288     XC(G=0):  -9.2012     alpha+bet :-10.3421


 k-point     1 :       0.0000    0.0000    0.0000
  band No.  band energies     occupation 
      1     -18.3728      2.00000
      2     -16.8361      2.00000
      3     -16.8360      2.00000
      4     -16.2014      2.00000
      5     -16.1535      2.00000
      6     -16.1534      2.00000
      7      -7.1746      2.00000
      8      -7.1745      2.00000
      9      -4.3344      2.00000
     10      -4.3285      2.00000
     11      -4.1763      2.00000
     12      -4.1762      2.00000
     13      -1.8583      2.00000
     14      -1.8583      2.00000
     15      -1.6206      2.00000
     16      -1.3608      2.00000
     17      -0.4102      2.00000
     18      -0.4102      2.00000
     19      -0.3923      2.00000
     20       0.1111      2.00000
     21       0.1112      2.00000
     22       0.4202      2.00000
     23       0.7609      2.00000
     24       0.7610      2.00000
     25       7.1213      0.00000
     26      10.3987      0.00000
     27      10.3988      0.00000
     28      10.9006      0.00000
     29      10.9006      0.00000

 k-point     2 :       0.1667    0.0000    0.0000
  band No.  band energies     occupation 
      1     -18.2913      2.00000
      2     -16.9304      2.00000
      3     -16.8241      2.00000
      4     -16.2210      2.00000
      5     -16.1706      2.00000
      6     -16.1599      2.00000
      7      -7.2122      2.00000
      8      -6.9930      2.00000
      9      -4.3745      2.00000
     10      -4.3486      2.00000
     11      -4.2771      2.00000
     12      -4.0157      2.00000
     13      -1.9834      2.00000
     14      -1.7985      2.00000
     15      -1.5907      2.00000
     16      -1.1945      2.00000
     17      -0.6837      2.00000
     18      -0.4491      2.00000
     19      -0.4037      2.00000
     20       0.0483      2.00000
     21       0.1011      2.00000
     22       0.3180      2.00000
     23       0.8241      2.00000
     24       0.8577      2.00000
     25       7.5433      0.00000
     26      10.3854      0.00000
     27      10.4456      0.00000
     28      10.9355      0.00000
     29      11.0440      0.00000

 k-point     3 :       0.3333    0.0000    0.0000
  band No.  band energies     occupation 
      1     -18.0724      2.00000
      2     -17.1896      2.00000
      3     -16.7987      2.00000
      4     -16.2442      2.00000
      5     -16.1989      2.00000
      6     -16.1790      2.00000
      7      -7.2838      2.00000
      8      -6.5736      2.00000
      9      -4.6305      2.00000
     10      -4.3823      2.00000
     11      -4.3005      2.00000
     12      -3.7135      2.00000
     13      -2.0659      2.00000
     14      -1.6902      2.00000
     15      -1.5656      2.00000
     16      -1.1985      2.00000
     17      -0.9995      2.00000
     18      -0.5802      2.00000
     19      -0.4885      2.00000
     20      -0.0031      2.00000
     21       0.0662      2.00000
     22       0.2692      2.00000
     23       0.8520      2.00000
     24       1.0012      2.00000
     25       8.5422      0.00000
     26      10.4291      0.00000
     27      10.5562      0.00000
     28      11.0580      0.00000
     29      11.4139      0.00000

 k-point     4 :       0.5000    0.0000    0.0000
  band No.  band energies     occupation 
      1     -17.8830      2.00000
      2     -17.4041      2.00000
      3     -16.7850      2.00000
      4     -16.2501      2.00000
      5     -16.2116      2.00000
      6     -16.1906      2.00000
      7      -7.3182      2.00000
      8      -6.3113      2.00000
      9      -4.8188      2.00000
     10      -4.3598      2.00000
     11      -4.3287      2.00000
     12      -3.5478      2.00000
     13      -1.9939      2.00000
     14      -1.8275      2.00000
     15      -1.5968      2.00000
     16      -1.2158      2.00000
     17      -1.0075      2.00000
     18      -0.6633      2.00000
     19      -0.5959      2.00000
     20      -0.0063      2.00000
     21       0.0591      2.00000
     22       0.2996      2.00000
     23       0.8349      2.00000
     24       1.0588      2.00000
     25       9.3796      0.00000
     26      10.1170      0.00000
     27      10.8438      0.00000
     28      10.8454      0.00000
     29      11.6474      0.00000

 k-point     5 :       0.1667    0.1667    0.0000
  band No.  band energies     occupation 
      1     -18.1386      2.00000
      2     -17.1062      2.00000
      3     -16.8126      2.00000
      4     -16.2389      2.00000
      5     -16.1959      2.00000
      6     -16.1695      2.00000
      7      -7.2763      2.00000
      8      -6.6672      2.00000
      9      -4.6383      2.00000
     10      -4.3674      2.00000
     11      -4.2253      2.00000
     12      -3.8030      2.00000
     13      -2.0329      2.00000
     14      -1.7855      2.00000
     15      -1.4859      2.00000
     16      -1.0860      2.00000
     17      -1.0783      2.00000
     18      -0.5590      2.00000
     19      -0.3611      2.00000
     20      -0.1293      2.00000
     21       0.1838      2.00000
     22       0.2291      2.00000
     23       0.8429      2.00000
     24       0.9788      2.00000
     25       8.2509      0.00000
     26      10.4280      0.00000
     27      10.5699      0.00000
     28      11.0528      0.00000
     29      11.2287      0.00000

 k-point     6 :       0.3333    0.1667    0.0000
  band No.  band energies     occupation 
      1     -17.8897      2.00000
      2     -17.3847      2.00000
      3     -16.8049      2.00000
      4     -16.2474      2.00000
      5     -16.2099      2.00000
      6     -16.1878      2.00000
      7      -7.3414      2.00000
      8      -6.2112      2.00000
      9      -5.0377      2.00000
     10      -4.3195      2.00000
     11      -4.2278      2.00000
     12      -3.5555      2.00000
     13      -1.9822      2.00000
     14      -1.7832      2.00000
     15      -1.6568      2.00000
     16      -1.1629      2.00000
     17      -1.0005      2.00000
     18      -0.6942      2.00000
     19      -0.5059      2.00000
     20      -0.1876      2.00000
     21       0.0318      2.00000
     22       0.4240      2.00000
     23       0.8014      2.00000
     24       1.0702      2.00000
     25       9.2674      0.00000
     26      10.3672      0.00000
     27      10.6840      0.00000
     28      11.1023      0.00000
     29      11.6401      0.00000

 k-point     7 :       0.5000    0.1667    0.0000
  band No.  band energies     occupation 
      1     -17.8897      2.00000
      2     -17.3847      2.00000
      3     -16.8049      2.00000
      4     -16.2474      2.00000
      5     -16.2099      2.00000
      6     -16.1878      2.00000
      7      -7.3414      2.00000
      8      -6.2113      2.00000
      9      -5.0377      2.00000
     10      -4.3195      2.00000
     11      -4.2278      2.00000
     12      -3.5555      2.00000
     13      -1.9822      2.00000
     14      -1.7832      2.00000
     15      -1.6568      2.00000
     16      -1.1628      2.00000
     17      -1.0005      2.00000
     18      -0.6942      2.00000
     19      -0.5059      2.00000
     20      -0.1876      2.00000
     21       0.0318      2.00000
     22       0.4241      2.00000
     23       0.8014      2.00000
     24       1.0702      2.00000
     25       9.2674      0.00000
     26      10.3669      0.00000
     27      10.6841      0.00000
     28      11.0890      0.00000
     29      11.5162      0.00000

 k-point     8 :      -0.3333    0.1667    0.0000
  band No.  band energies     occupation 
      1     -18.1386      2.00000
      2     -17.1062      2.00000
      3     -16.8127      2.00000
      4     -16.2390      2.00000
      5     -16.1958      2.00000
      6     -16.1694      2.00000
      7      -7.2762      2.00000
      8      -6.6673      2.00000
      9      -4.6383      2.00000
     10      -4.3673      2.00000
     11      -4.2254      2.00000
     12      -3.8030      2.00000
     13      -2.0330      2.00000
     14      -1.7855      2.00000
     15      -1.4858      2.00000
     16      -1.0860      2.00000
     17      -1.0783      2.00000
     18      -0.5590      2.00000
     19      -0.3611      2.00000
     20      -0.1293      2.00000
     21       0.1837      2.00000
     22       0.2291      2.00000
     23       0.8429      2.00000
     24       0.9788      2.00000
     25       8.2509      0.00000
     26      10.4280      0.00000
     27      10.5699      0.00000
     28      11.0529      0.00000
     29      11.2244      0.00000

 k-point     9 :      -0.1667    0.1667    0.0000
  band No.  band energies     occupation 
      1     -18.2913      2.00000
      2     -16.9303      2.00000
      3     -16.8242      2.00000
      4     -16.2211      2.00000
      5     -16.1705      2.00000
      6     -16.1599      2.00000
      7      -7.2121      2.00000
      8      -6.9931      2.00000
      9      -4.3745      2.00000
     10      -4.3486      2.00000
     11      -4.2771      2.00000
     12      -4.0157      2.00000
     13      -1.9835      2.00000
     14      -1.7985      2.00000
     15      -1.5907      2.00000
     16      -1.1945      2.00000
     17      -0.6837      2.00000
     18      -0.4491      2.00000
     19      -0.4037      2.00000
     20       0.0482      2.00000
     21       0.1012      2.00000
     22       0.3180      2.00000
     23       0.8241      2.00000
     24       0.8578      2.00000
     25       7.5433      0.00000
     26      10.3854      0.00000
     27      10.4456      0.00000
     28      10.9355      0.00000
     29      11.0440      0.00000

 k-point    10 :       0.3333    0.3333    0.0000
  band No.  band energies     occupation 
      1     -17.6378      2.00000
      2     -17.6377      2.00000
      3     -16.8189      2.00000
      4     -16.2463      2.00000
      5     -16.2022      2.00000
      6     -16.2021      2.00000
      7      -7.3790      2.00000
      8      -5.6406      2.00000
      9      -5.6406      2.00000
     10      -4.2369      2.00000
     11      -4.2369      2.00000
     12      -3.4612      2.00000
     13      -1.8526      2.00000
     14      -1.8526      2.00000
     15      -1.8018      2.00000
     16      -0.9757      2.00000
     17      -0.9757      2.00000
     18      -0.8197      2.00000
     19      -0.6229      2.00000
     20      -0.1451      2.00000
     21      -0.1451      2.00000
     22       0.6598      2.00000
     23       0.6599      2.00000
     24       1.1015      2.00000
     25      10.0510      0.00000
     26      10.0511      0.00000
     27      10.5393      0.00000
     28      11.5039      0.00000
     29      11.6270      0.00000

 k-point    11 :       0.5000    0.3333    0.0000
  band No.  band energies     occupation 
      1     -17.8896      2.00000
      2     -17.3848      2.00000
      3     -16.8049      2.00000
      4     -16.2475      2.00000
      5     -16.2099      2.00000
      6     -16.1877      2.00000
      7      -7.3414      2.00000
      8      -6.2113      2.00000
      9      -5.0377      2.00000
     10      -4.3195      2.00000
     11      -4.2278      2.00000
     12      -3.5555      2.00000
     13      -1.9822      2.00000
     14      -1.7833      2.00000
     15      -1.6568      2.00000
     16      -1.1629      2.00000
     17      -1.0005      2.00000
     18      -0.6942      2.00000
     19      -0.5059      2.00000
     20      -0.1877      2.00000
     21       0.0318      2.00000
     22       0.4241      2.00000
     23       0.8015      2.00000
     24       1.0702      2.00000
     25       9.2674      0.00000
     26      10.3670      0.00000
     27      10.6842      0.00000
     28      11.0923      0.00000
     29      11.5577      0.00000

 k-point    12 :      -0.3333    0.3333    0.0000
  band No.  band energies     occupation 
      1     -18.0723      2.00000
      2     -17.1896      2.00000
      3     -16.7987      2.00000
      4     -16.2443      2.00000
      5     -16.1989      2.00000
      6     -16.1789      2.00000
      7      -7.2838      2.00000
      8      -6.5736      2.00000
      9      -4.6305      2.00000
     10      -4.3823      2.00000
     11      -4.3004      2.00000
     12      -3.7135      2.00000
     13      -2.0660      2.00000
     14      -1.6902      2.00000
     15      -1.5656      2.00000
     16      -1.1986      2.00000
     17      -0.9994      2.00000
     18      -0.5802      2.00000
     19      -0.4884      2.00000
     20      -0.0031      2.00000
     21       0.0663      2.00000
     22       0.2692      2.00000
     23       0.8520      2.00000
     24       1.0012      2.00000
     25       8.5422      0.00000
     26      10.4290      0.00000
     27      10.5562      0.00000
     28      11.0656      0.00000
     29      11.3966      0.00000

 k-point    13 :       0.5000    0.5000    0.0000
  band No.  band energies     occupation 
      1     -17.8829      2.00000
      2     -17.4042      2.00000
      3     -16.7850      2.00000
      4     -16.2502      2.00000
      5     -16.2117      2.00000
      6     -16.1904      2.00000
      7      -7.3182      2.00000
      8      -6.3114      2.00000
      9      -4.8189      2.00000
     10      -4.3597      2.00000
     11      -4.3287      2.00000
     12      -3.5478      2.00000
     13      -1.9939      2.00000
     14      -1.8275      2.00000
     15      -1.5969      2.00000
     16      -1.2158      2.00000
     17      -1.0075      2.00000
     18      -0.6633      2.00000
     19      -0.5958      2.00000
     20      -0.0063      2.00000
     21       0.0592      2.00000
     22       0.2996      2.00000
     23       0.8349      2.00000
     24       1.0588      2.00000
     25       9.3796      0.00000
     26      10.1170      0.00000
     27      10.8438      0.00000
     28      10.8452      0.00000
     29      11.6268      0.00000

 k-point    14 :       0.0000    0.0000    0.2000
  band No.  band energies     occupation 
      1     -18.2943      2.00000
      2     -17.2851      2.00000
      3     -16.4516      2.00000
      4     -16.1991      2.00000
      5     -16.1691      2.00000
      6     -16.1384      2.00000
      7      -7.8475      2.00000
      8      -6.3474      2.00000
      9      -4.4942      2.00000
     10      -4.4178      2.00000
     11      -4.3689      2.00000
     12      -3.8710      2.00000
     13      -1.9424      2.00000
     14      -1.6637      2.00000
     15      -1.5628      2.00000
     16      -1.2310      2.00000
     17      -0.6034      2.00000
     18      -0.4825      2.00000
     19      -0.4224      2.00000
     20      -0.2822      2.00000
     21       0.0792      2.00000
     22       0.5206      2.00000
     23       0.8112      2.00000
     24       0.9708      2.00000
     25       7.5154      0.00000
     26      10.2556      0.00000
     27      10.4198      0.00000
     28      10.5216      0.00000
     29      11.2245      0.00000

 k-point    15 :       0.1667    0.0000    0.2000
  band No.  band energies     occupation 
      1     -18.2171      2.00000
      2     -17.2843      2.00000
      3     -16.5348      2.00000
      4     -16.2141      2.00000
      5     -16.1883      2.00000
      6     -16.1496      2.00000
      7      -7.7026      2.00000
      8      -6.3556      2.00000
      9      -4.6724      2.00000
     10      -4.3759      2.00000
     11      -4.1796      2.00000
     12      -3.9205      2.00000
     13      -2.0424      2.00000
     14      -1.6477      2.00000
     15      -1.5269      2.00000
     16      -1.1533      2.00000
     17      -0.8329      2.00000
     18      -0.4965      2.00000
     19      -0.3932      2.00000
     20      -0.2382      2.00000
     21       0.1621      2.00000
     22       0.4169      2.00000
     23       0.7527      2.00000
     24       1.0124      2.00000
     25       7.8913      0.00000
     26      10.2694      0.00000
     27      10.5117      0.00000
     28      10.6066      0.00000
     29      11.3203      0.00000

 k-point    16 :       0.3333    0.0000    0.2000
  band No.  band energies     occupation 
      1     -18.0154      2.00000
      2     -17.3244      2.00000
      3     -16.7210      2.00000
      4     -16.2416      2.00000
      5     -16.2145      2.00000
      6     -16.1693      2.00000
      7      -7.4095      2.00000
      8      -6.3275      2.00000
      9      -4.9075      2.00000
     10      -4.3347      2.00000
     11      -4.0986      2.00000
     12      -3.8245      2.00000
     13      -2.1376      2.00000
     14      -1.7104      2.00000
     15      -1.4732      2.00000
     16      -1.2105      2.00000
     17      -0.8946      2.00000
     18      -0.6014      2.00000
     19      -0.4906      2.00000
     20      -0.0534      2.00000
     21       0.1615      2.00000
     22       0.2813      2.00000
     23       0.7952      2.00000
     24       0.9676      2.00000
     25       8.8071      0.00000
     26      10.3216      0.00000
     27      10.5751      0.00000
     28      11.0915      0.00000
     29      11.6139      0.00000

 k-point    17 :       0.5000    0.0000    0.2000
  band No.  band energies     occupation 
      1     -17.8605      2.00000
      2     -17.3930      2.00000
      3     -16.8316      2.00000
      4     -16.2505      2.00000
      5     -16.2162      2.00000
      6     -16.1818      2.00000
      7      -7.2706      2.00000
      8      -6.2721      2.00000
      9      -5.0432      2.00000
     10      -4.3562      2.00000
     11      -4.1041      2.00000
     12      -3.6710      2.00000
     13      -2.0459      2.00000
     14      -1.9450      2.00000
     15      -1.4697      2.00000
     16      -1.2606      2.00000
     17      -0.8442      2.00000
     18      -0.7243      2.00000
     19      -0.4200      2.00000
     20      -0.0721      2.00000
     21       0.1408      2.00000
     22       0.3334      2.00000
     23       0.7221      2.00000
     24       0.9981      2.00000
     25       9.5729      0.00000
     26      10.1828      0.00000
     27      10.6870      0.00000
     28      11.1623      0.00000
     29      11.6452      0.00000

 k-point    18 :      -0.3333    0.0000    0.2000
  band No.  band energies     occupation 
      1     -18.0191      2.00000
      2     -17.3043      2.00000
      3     -16.7544      2.00000
      4     -16.2338      2.00000
      5     -16.1935      2.00000
      6     -16.1807      2.00000
      7      -7.4131      2.00000
      8      -6.3288      2.00000
      9      -4.9092      2.00000
     10      -4.3739      2.00000
     11      -4.0755      2.00000
     12      -3.7750      2.00000
     13      -2.0733      2.00000
     14      -1.7019      2.00000
     15      -1.5264      2.00000
     16      -1.3889      2.00000
     17      -0.9242      2.00000
     18      -0.4998      2.00000
     19      -0.3464      2.00000
     20      -0.0893      2.00000
     21       0.0637      2.00000
     22       0.3952      2.00000
     23       0.6373      2.00000
     24       1.0610      2.00000
     25       8.7733      0.00000
     26      10.3811      0.00000
     27      10.7678      0.00000
[...]
      8      -5.6337      2.00000
      9      -5.0477      2.00000
     10      -4.4325      2.00000
     11      -4.3350      2.00000
     12      -3.6884      2.00000
     13      -1.9246      2.00000
     14      -1.6427      2.00000
     15      -1.4933      2.00000
     16      -1.1197      2.00000
     17      -0.9425      2.00000
     18      -0.5698      2.00000
     19      -0.5226      2.00000
     20      -0.3212      2.00000
     21      -0.0178      2.00000
     22       0.6535      2.00000
     23       0.9065      2.00000
     24       0.9362      2.00000
     25       8.7751      0.00000
     26       9.7842      0.00000
     27      10.3730      0.00000
     28      10.5689      0.00000
     29      11.3190      0.00000

 k-point    46 :       0.1667    0.3333    0.4000
  band No.  band energies     occupation 
      1     -17.8166      2.00000
      2     -17.3926      2.00000
      3     -16.8830      2.00000
      4     -16.2666      2.00000
      5     -16.2066      2.00000
      6     -16.1837      2.00000
      7      -7.1819      2.00000
      8      -6.1624      2.00000
      9      -5.3697      2.00000
     10      -4.2399      2.00000
     11      -3.9674      2.00000
     12      -3.8659      2.00000
     13      -2.1466      2.00000
     14      -1.9610      2.00000
     15      -1.4680      2.00000
     16      -1.0927      2.00000
     17      -0.9267      2.00000
     18      -0.5882      2.00000
     19      -0.1592      2.00000
     20       0.0240      2.00000
     21       0.1871      2.00000
     22       0.2963      2.00000
     23       0.5371      2.00000
     24       0.8313      2.00000
     25       9.8654      0.00000
     26      10.5304      0.00000
     27      10.7987      0.00000
     28      11.1259      0.00000
     29      11.3139      0.00000

 k-point    47 :       0.3333    0.3333    0.4000
  band No.  band energies     occupation 
      1     -17.7808      2.00000
      2     -17.2638      2.00000
      3     -17.0442      2.00000
      4     -16.2773      2.00000
      5     -16.2199      2.00000
      6     -16.1922      2.00000
      7      -6.8670      2.00000
      8      -6.3824      2.00000
      9      -5.4803      2.00000
     10      -4.1812      2.00000
     11      -3.9246      2.00000
     12      -3.9236      2.00000
     13      -2.1848      2.00000
     14      -1.7447      2.00000
     15      -1.7292      2.00000
     16      -0.8866      2.00000
     17      -0.8629      2.00000
     18      -0.8565      2.00000
     19       0.0158      2.00000
     20       0.0324      2.00000
     21       0.1979      2.00000
     22       0.4210      2.00000
     23       0.4427      2.00000
     24       0.6495      2.00000
     25      10.1478      0.00000
     26      10.7066      0.00000
     27      10.9531      0.00000
     28      11.2820      0.00000
     29      11.3520      0.00000

 k-point    48 :       0.5000    0.3333    0.4000
  band No.  band energies     occupation 
      1     -17.8143      2.00000
      2     -17.3997      2.00000
      3     -16.8752      2.00000
      4     -16.2695      2.00000
      5     -16.2076      2.00000
      6     -16.1829      2.00000
      7      -7.1811      2.00000
      8      -6.1610      2.00000
      9      -5.3719      2.00000
     10      -4.2309      2.00000
     11      -3.9646      2.00000
     12      -3.8831      2.00000
     13      -2.1526      2.00000
     14      -1.9555      2.00000
     15      -1.4609      2.00000
     16      -1.0947      2.00000
     17      -0.8794      2.00000
     18      -0.6370      2.00000
     19      -0.1536      2.00000
     20      -0.0348      2.00000
     21       0.1925      2.00000
     22       0.3687      2.00000
     23       0.5584      2.00000
     24       0.7876      2.00000
     25       9.9223      0.00000
     26      10.4300      0.00000
     27      10.7291      0.00000
     28      11.1506      0.00000
     29      11.4688      0.00000

 k-point    49 :      -0.3333    0.3333    0.4000
  band No.  band energies     occupation 
      1     -17.8769      2.00000
      2     -17.5386      2.00000
      3     -16.6587      2.00000
      4     -16.2545      2.00000
      5     -16.1969      2.00000
      6     -16.1657      2.00000
      7      -7.5421      2.00000
      8      -5.9332      2.00000
      9      -5.2311      2.00000
     10      -4.3132      2.00000
     11      -4.0596      2.00000
     12      -3.8238      2.00000
     13      -2.1046      2.00000
     14      -1.9216      2.00000
     15      -1.3491      2.00000
     16      -1.1839      2.00000
     17      -0.9430      2.00000
     18      -0.4843      2.00000
     19      -0.3513      2.00000
     20      -0.1420      2.00000
     21       0.1218      2.00000
     22       0.4576      2.00000
     23       0.6831      2.00000
     24       0.8812      2.00000
     25       9.5003      0.00000
     26      10.0820      0.00000
     27      10.6271      0.00000
     28      10.8031      0.00000
     29      11.6376      0.00000

 k-point    50 :       0.1667    0.5000    0.4000
  band No.  band energies     occupation 
      1     -17.8143      2.00000
      2     -17.3997      2.00000
      3     -16.8752      2.00000
      4     -16.2694      2.00000
      5     -16.2076      2.00000
      6     -16.1830      2.00000
      7      -7.1811      2.00000
      8      -6.1609      2.00000
      9      -5.3719      2.00000
     10      -4.2310      2.00000
     11      -3.9646      2.00000
     12      -3.8831      2.00000
     13      -2.1526      2.00000
     14      -1.9555      2.00000
     15      -1.4609      2.00000
     16      -1.0947      2.00000
     17      -0.8794      2.00000
     18      -0.6370      2.00000
     19      -0.1536      2.00000
     20      -0.0348      2.00000
     21       0.1926      2.00000
     22       0.3686      2.00000
     23       0.5584      2.00000
     24       0.7875      2.00000
     25       9.9224      0.00000
     26      10.4299      0.00000
     27      10.7271      0.00000
     28      11.1426      0.00000
     29      11.5718      0.00000

 k-point    51 :       0.3333    0.5000    0.4000
  band No.  band energies     occupation 
      1     -17.8165      2.00000
      2     -17.3927      2.00000
      3     -16.8831      2.00000
      4     -16.2666      2.00000
      5     -16.2066      2.00000
      6     -16.1836      2.00000
      7      -7.1819      2.00000
      8      -6.1625      2.00000
      9      -5.3698      2.00000
     10      -4.2398      2.00000
     11      -3.9674      2.00000
     12      -3.8659      2.00000
     13      -2.1466      2.00000
     14      -1.9610      2.00000
     15      -1.4680      2.00000
     16      -1.0927      2.00000
     17      -0.9267      2.00000
     18      -0.5883      2.00000
     19      -0.1592      2.00000
     20       0.0239      2.00000
     21       0.1871      2.00000
     22       0.2963      2.00000
     23       0.5372      2.00000
     24       0.8314      2.00000
     25       9.8654      0.00000
     26      10.5305      0.00000
     27      10.7985      0.00000
     28      11.1322      0.00000
     29      11.3525      0.00000

 k-point    52 :       0.5000    0.5000    0.4000
  band No.  band energies     occupation 
      1     -17.8207      2.00000
      2     -17.3744      2.00000
      3     -16.9067      2.00000
      4     -16.2718      2.00000
      5     -16.1991      2.00000
      6     -16.1756      2.00000
      7      -7.1875      2.00000
      8      -6.2065      2.00000
      9      -5.2824      2.00000
     10      -4.2845      2.00000
     11      -3.9204      2.00000
     12      -3.8872      2.00000
     13      -2.1142      2.00000
     14      -2.0853      2.00000
     15      -1.3605      2.00000
     16      -1.1049      2.00000
     17      -0.9513      2.00000
     18      -0.5125      2.00000
     19      -0.2097      2.00000
     20      -0.0640      2.00000
     21       0.1295      2.00000
     22       0.4124      2.00000
     23       0.4688      2.00000
     24       0.9095      2.00000
     25       9.9985      0.00000
     26      10.3860      0.00000
     27      10.7502      0.00000
     28      11.0613      0.00000
     29      11.4762      0.00000

 k-point    53 :       0.1667   -0.3333    0.4000
  band No.  band energies     occupation 
      1     -17.9099      2.00000
      2     -17.5820      2.00000
      3     -16.5722      2.00000
      4     -16.2387      2.00000
      5     -16.1926      2.00000
      6     -16.1669      2.00000
      7      -7.6796      2.00000
      8      -5.8249      2.00000
      9      -5.2274      2.00000
     10      -4.3120      2.00000
     11      -4.1515      2.00000
     12      -3.7695      2.00000
     13      -2.0605      2.00000
     14      -1.8400      2.00000
     15      -1.3872      2.00000
     16      -1.2444      2.00000
     17      -0.9357      2.00000
     18      -0.4971      2.00000
     19      -0.3555      2.00000
     20      -0.1464      2.00000
     21       0.0880      2.00000
     22       0.4569      2.00000
     23       0.7431      2.00000
     24       0.9081      2.00000
     25       9.2316      0.00000
     26      10.0938      0.00000
     27      10.5314      0.00000
     28      10.9187      0.00000
     29      11.2967      0.00000

 k-point    54 :       0.3333   -0.3333    0.4000
  band No.  band energies     occupation 
      1     -17.8825      2.00000
      2     -17.5263      2.00000
      3     -16.6763      2.00000
      4     -16.2474      2.00000
      5     -16.1887      2.00000
      6     -16.1698      2.00000
      7      -7.5439      2.00000
      8      -5.9378      2.00000
      9      -5.2252      2.00000
     10      -4.3341      2.00000
     11      -4.0603      2.00000
     12      -3.7849      2.00000
     13      -2.0815      2.00000
     14      -1.9448      2.00000
     15      -1.3191      2.00000
     16      -1.2549      2.00000
     17      -1.0039      2.00000
     18      -0.4108      2.00000
     19      -0.3001      2.00000
     20      -0.1106      2.00000
     21       0.1333      2.00000
     22       0.3277      2.00000
     23       0.6319      2.00000
     24       0.9804      2.00000
     25       9.3827      0.00000
     26      10.3575      0.00000
     27      10.5579      0.00000
     28      11.0827      0.00000
     29      11.2520      0.00000

 k-point    55 :       0.1667   -0.1667    0.4000
  band No.  band energies     occupation 
      1     -18.0064      2.00000
      2     -17.6724      2.00000
      3     -16.3558      2.00000
      4     -16.2111      2.00000
      5     -16.1823      2.00000
      6     -16.1449      2.00000
      7      -8.0286      2.00000
      8      -5.6349      2.00000
      9      -5.0471      2.00000
     10      -4.4289      2.00000
     11      -4.3435      2.00000
     12      -3.6770      2.00000
     13      -1.9177      2.00000
     14      -1.6399      2.00000
     15      -1.4909      2.00000
     16      -1.1486      2.00000
     17      -0.9748      2.00000
     18      -0.5671      2.00000
     19      -0.4505      2.00000
     20      -0.3458      2.00000
     21      -0.0175      2.00000
     22       0.6517      2.00000
     23       0.8164      2.00000
     24       1.0218      2.00000
     25       8.7492      0.00000
     26       9.8394      0.00000
     27      10.3318      0.00000
     28      10.6871      0.00000
     29      11.2043      0.00000


--------------------------------------------------------------------------------------------------------


 soft charge-density along one line, spin component           1
         0         1         2         3         4         5         6         7         8         9
 total charge-density along one line
 
 pseudopotential strength for first ion, spin component:           1
 18.756   0.002  -0.000   0.000  -0.000  -0.000  -0.000   0.000
  0.002   0.006  -0.000  -0.000   0.000   0.000   0.000  -0.000
 -0.000  -0.000   4.218   0.001  -0.000  -0.003  -0.000   0.000
  0.000  -0.000   0.001   4.218  -0.000  -0.000  -0.003   0.000
 -0.000   0.000  -0.000  -0.000   4.218   0.000   0.000  -0.003
 -0.000   0.000  -0.003  -0.000   0.000   0.005   0.000  -0.000
 -0.000   0.000  -0.000  -0.003   0.000   0.000   0.005  -0.000
  0.000  -0.000   0.000   0.000  -0.003  -0.000  -0.000   0.005
 total augmentation occupancy for first ion, spin component:           1
  1.167  -1.629   0.000   0.000  -0.005  -0.000  -0.000   0.025
 -1.629   3.556  -0.000  -0.000   0.041   0.000   0.000  -0.082
  0.000  -0.000   1.030   0.016  -0.000  -1.184  -0.026   0.000
  0.000  -0.000   0.016   1.001  -0.000  -0.024  -1.173   0.000
 -0.005   0.041  -0.000  -0.000   0.973   0.000   0.000  -1.171
 -0.000   0.000  -1.184  -0.024   0.000   1.684   0.052  -0.000
 -0.000   0.000  -0.026  -1.173   0.000   0.052   1.672  -0.000
  0.025  -0.082   0.000   0.000  -1.171  -0.000  -0.000   1.678


------------------------ aborting loop because EDIFF is reached ----------------------------------------


    CHARGE:  cpu time    0.6439: real time    0.6440
    FORLOC:  cpu time    0.0200: real time    0.0207
    FORNL :  cpu time    2.6686: real time    2.6674
    STRESS:  cpu time    8.0228: real time    8.0207
    FORCOR:  cpu time    0.1620: real time    0.1625
    FORHAR:  cpu time    0.0430: real time    0.0424
    MIXING:  cpu time    0.0060: real time    0.0064
    OFIELD:  cpu time    0.0000: real time    0.0000

  FORCE on cell =-STRESS in cart. coord.  units (eV):
  Direction    XX          YY          ZZ          XY          YZ          ZX
  --------------------------------------------------------------------------------------
  Alpha Z    69.72803    69.72803    69.72803
  Ewald    -646.24789  -646.25516  -594.70673    -0.00630     0.00069    -0.00119
  Hartree   347.19792   347.19752   377.16788    -0.00035     0.00076    -0.00131
  E(xc)    -225.65569  -225.65566  -225.59317     0.00002    -0.00000     0.00000
  Local    -418.44872  -418.44244  -499.27939     0.00544    -0.00157     0.00272
  n-local   -51.00190   -51.11347   -51.00954     0.03110    -0.04240    -0.02501
  augment    27.15442    27.15466    27.05662     0.00020     0.00001    -0.00002
  Kinetic   902.93022   903.46948   901.39486    -0.15506     0.03043     0.01707
  Fock        0.00000     0.00000     0.00000     0.00000     0.00000     0.00000
  -------------------------------------------------------------------------------------
  Total       5.87034     5.86900     4.75856    -0.00116     0.00010    -0.00017
  in kB      83.21846    83.19947    67.45780    -0.01644     0.00140    -0.00243
  external pressure =       77.96 kB  Pullay stress =        0.00 kB


 VOLUME and BASIS-vectors are now :
 -----------------------------------------------------------------------------
  energy-cutoff  :      650.00
  volume of cell :      113.02
      direct lattice vectors                 reciprocal lattice vectors
     4.913700000  0.000000000  0.000000000     0.203512628  0.117498070  0.000000000
    -2.456850000  4.255389030  0.000000000     0.000000000  0.234996141  0.000000000
     0.000000000  0.000000000  5.405130000     0.000000000  0.000000000  0.185009426

  length of vectors
     4.913700000  4.913700003  5.405130000     0.234996141  0.234996141  0.185009426


 FORCES acting on ions
    electron-ion (+dipol)            ewald-force                    non-local-force                 convergence-correction
 -----------------------------------------------------------------------------------------------
   -.120E+01 0.449E-02 -.543E-03   0.812E+00 -.379E-02 0.176E-03   0.792E+00 -.111E-02 -.711E-04   0.261E-03 0.586E-05 0.246E-04
   0.601E+00 -.103E+01 0.543E-03   -.410E+00 0.702E+00 -.176E-03   -.397E+00 0.685E+00 0.711E-04   -.126E-03 0.229E-03 -.246E-04
   0.599E+00 0.104E+01 0.557E-06   -.408E+00 -.706E+00 -.197E-06   -.396E+00 -.687E+00 0.000E+00   -.126E-03 -.218E-03 0.169E-11
   0.723E+02 0.723E+01 0.302E+02   -.907E+02 -.616E+01 -.401E+02   0.179E+02 -.767E+00 0.994E+01   0.343E-02 0.856E-03 0.143E-02
   -.424E+02 0.590E+02 0.302E+02   0.507E+02 -.755E+02 -.401E+02   -.827E+01 0.159E+02 0.994E+01   -.239E-02 0.256E-02 0.146E-02
   -.299E+02 -.662E+02 0.302E+02   0.400E+02 0.816E+02 -.401E+02   -.960E+01 -.151E+02 0.994E+01   -.102E-02 -.336E-02 0.141E-02
   0.723E+02 -.724E+01 -.302E+02   -.907E+02 0.616E+01 0.401E+02   0.179E+02 0.766E+00 -.994E+01   0.341E-02 -.789E-03 -.146E-02
   -.299E+02 0.662E+02 -.302E+02   0.400E+02 -.816E+02 0.401E+02   -.960E+01 0.151E+02 -.994E+01   -.972E-03 0.340E-02 -.143E-02
   -.424E+02 -.590E+02 -.302E+02   0.507E+02 0.755E+02 0.401E+02   -.827E+01 -.159E+02 -.994E+01   -.240E-02 -.256E-02 -.141E-02
 -----------------------------------------------------------------------------------------------
   0.259E-02 0.448E-02 0.720E-06   -.711E-14 -.142E-13 0.000E+00   -.266E-02 -.461E-02 0.355E-14   0.671E-04 0.116E-03 0.226E-13
 
 
 POSITION                                       TOTAL-FORCE (eV/Angst)
 -----------------------------------------------------------------------------------
      2.30846      0.00000      3.60344         0.409631     -0.000405     -0.000413
     -1.15423      1.99918      1.80169        -0.205166      0.354548      0.000413
      1.30262      2.25621      0.00000        -0.205019     -0.355104      0.000000
      1.38272      1.13278      4.24627        -0.518671      0.309379      0.079522
      3.24132      0.63107      2.44458        -0.008392     -0.603262      0.079123
      2.74651      2.49153      0.64283         0.527360      0.294353      0.079485
     -1.07413      3.12260      2.96055        -0.518244     -0.308899     -0.079123
      0.28966      1.76386      1.15886         0.527265     -0.294493     -0.079522
      0.78447      3.62431      4.76230        -0.008763      0.603884     -0.079485
 -----------------------------------------------------------------------------------
    total drift:                               -0.000006     -0.000011      0.000001


--------------------------------------------------------------------------------------------------------



  FREE ENERGIE OF THE ION-ELECTRON SYSTEM (eV)
  ---------------------------------------------------
  free  energy   TOTEN  =       -71.03436286 eV

  energy  without entropy=      -71.03436286  energy(sigma->0) =      -71.03436286
 


--------------------------------------------------------------------------------------------------------


    POTLOK:  cpu time    0.1740: real time    0.1737


--------------------------------------------------------------------------------------------------------


     LOOP+:  cpu time  130.4652: real time  130.7086
    4ORBIT:  cpu time    0.0000: real time    0.0003
 BZINTS: Fermi energy:  1.128807; 48.000000 electrons
         Band energy:-275.896831;  BLOECHL correction:  0.000000

 total amount of memory used by VASP on root node   171205. kBytes
========================================================================

   base      :      30000. kBytes
   nonlr-proj:       1160. kBytes
   fftplans  :      10316. kBytes
   grid      :      18333. kBytes
   one-center:         27. kBytes
   wavefun   :     111369. kBytes
 
  
  
 General timing and accounting informations for this job:
 ========================================================
  
                  Total CPU time used (sec):      132.871
                            User time (sec):      132.638
                          System time (sec):        0.233
                         Elapsed time (sec):      133.503
  
                   Maximum memory used (kb):      186708.
                   Average memory used (kb):           0.
  
                          Minor page faults:        86144
                          Major page faults:           83
                 Voluntary context switches:         1800
