<?xml version="1.0" encoding="ISO-8859-1"?>
<modeling>
 <generator>
  <i name="program" type="string">vasp </i>
  <i name="version" type="string">5.4.1  </i>
  <i name="subversion" type="string">05Feb16 (build Mar 02 2016 14:09:44) complex                          parallel </i>
  <i name="platform" type="string">Abel-impi-ifc-cuda </i>
  <i name="date" type="string">2019 09 13 </i>
  <i name="time" type="string">10:16:21 </i>
 </generator>
 <incar>
  <i type="string" name="PREC">normal    ! low/normal/accurate</i>
  <i type="string" name="ALGO"> Fast      ! Algorithm for electronic re</i>
  <i type="int" name="ISPIN">     1</i>
  <i type="int" name="NELMIN">     4</i>
  <i name="EDIFF">      0.00001000</i>
  <i type="int" name="NSW">     0</i>
  <i name="ENCUT">    650.00000000</i>
  <i type="string" name="LREAL"> Auto      ! Projection in reciprocal sp</i>
  <i type="int" name="ISMEAR">    -5</i>
  <i name="SIGMA">      0.20000000</i>
  <i type="logical" name="LWAVE"> F  </i>
  <v type="int" name="KPOINT_BSE">    -1     0     0     0</v>
 </incar>
 <kpoints>
  <generation param="Gamma">
   <v type="int" name="divisions">       6        6        5 </v>
   <v name="usershift">      0.00000000       0.00000000       0.00000000 </v>
   <v name="genvec1">      0.16666667       0.00000000       0.00000000 </v>
   <v name="genvec2">      0.00000000       0.16666667       0.00000000 </v>
   <v name="genvec3">      0.00000000       0.00000000       0.20000000 </v>
   <v name="shift">      0.00000000       0.00000000       0.00000000 </v>
  </generation>
  <varray name="kpointlist" >
   <v>       0.00000000       0.00000000       0.00000000 </v>
   <v>       0.16666667       0.00000000       0.00000000 </v>
   <v>       0.33333333       0.00000000       0.00000000 </v>
   <v>       0.50000000       0.00000000       0.00000000 </v>
   <v>       0.16666667       0.16666667       0.00000000 </v>
   <v>       0.33333333       0.16666667       0.00000000 </v>
   <v>       0.50000000       0.16666667       0.00000000 </v>
   <v>      -0.33333333       0.16666667       0.00000000 </v>
   <v>      -0.16666667       0.16666667       0.00000000 </v>
   <v>       0.33333333       0.33333333       0.00000000 </v>
   <v>       0.50000000       0.33333333       0.00000000 </v>
   <v>      -0.33333333       0.33333333       0.00000000 </v>
   <v>       0.50000000       0.50000000       0.00000000 </v>
   <v>       0.00000000       0.00000000       0.20000000 </v>
   <v>       0.16666667       0.00000000       0.20000000 </v>
   <v>       0.33333333       0.00000000       0.20000000 </v>
   <v>       0.50000000       0.00000000       0.20000000 </v>
   <v>      -0.33333333       0.00000000       0.20000000 </v>
   <v>      -0.16666667       0.00000000       0.20000000 </v>
   <v>       0.16666667       0.16666667       0.20000000 </v>
   <v>       0.33333333       0.16666667       0.20000000 </v>
   <v>       0.50000000       0.16666667       0.20000000 </v>
   <v>      -0.33333333       0.16666667       0.20000000 </v>
   <v>      -0.16666667       0.16666667       0.20000000 </v>
   <v>       0.16666667       0.33333333       0.20000000 </v>
   <v>       0.33333333       0.33333333       0.20000000 </v>
   <v>       0.50000000       0.33333333       0.20000000 </v>
   <v>      -0.33333333       0.33333333       0.20000000 </v>
   <v>       0.16666667       0.50000000       0.20000000 </v>
   <v>       0.33333333       0.50000000       0.20000000 </v>
   <v>       0.50000000       0.50000000       0.20000000 </v>
   <v>       0.16666667      -0.33333333       0.20000000 </v>
   <v>       0.33333333      -0.33333333       0.20000000 </v>
   <v>       0.16666667      -0.16666667       0.20000000 </v>
   <v>       0.00000000       0.00000000       0.40000000 </v>
   <v>       0.16666667       0.00000000       0.40000000 </v>
   <v>       0.33333333       0.00000000       0.40000000 </v>
   <v>       0.50000000       0.00000000       0.40000000 </v>
   <v>      -0.33333333       0.00000000       0.40000000 </v>
   <v>      -0.16666667       0.00000000       0.40000000 </v>
   <v>       0.16666667       0.16666667       0.40000000 </v>
   <v>       0.33333333       0.16666667       0.40000000 </v>
   <v>       0.50000000       0.16666667       0.40000000 </v>
   <v>      -0.33333333       0.16666667       0.40000000 </v>
   <v>      -0.16666667       0.16666667       0.40000000 </v>
   <v>       0.16666667       0.33333333       0.40000000 </v>
   <v>       0.33333333       0.33333333       0.40000000 </v>
   <v>       0.50000000       0.33333333       0.40000000 </v>
   <v>      -0.33333333       0.33333333       0.40000000 </v>
   <v>       0.16666667       0.50000000       0.40000000 </v>
   <v>       0.33333333       0.50000000       0.40000000 </v>
   <v>       0.50000000       0.50000000       0.40000000 </v>
   <v>       0.16666667      -0.33333333       0.40000000 </v>
   <v>       0.33333333      -0.33333333       0.40000000 </v>
   <v>       0.16666667      -0.16666667       0.40000000 </v>
  </varray>
  <varray name="weights" >
   <v>       0.00555556 </v>
   <v>       0.02222222 </v>
   <v>       0.02222222 </v>
   <v>       0.01111111 </v>
   <v>       0.01111111 </v>
   <v>       0.02222222 </v>
   <v>       0.02222222 </v>
   <v>       0.02222222 </v>
   <v>       0.01111111 </v>
   <v>       0.01111111 </v>
   <v>       0.02222222 </v>
   <v>       0.01111111 </v>
   <v>       0.00555556 </v>
   <v>       0.01111111 </v>
   <v>       0.02222222 </v>
   <v>       0.02222222 </v>
   <v>       0.02222222 </v>
   <v>       0.02222222 </v>
   <v>       0.02222222 </v>
   <v>       0.02222222 </v>
   <v>       0.02222222 </v>
   <v>       0.02222222 </v>
   <v>       0.02222222 </v>
   <v>       0.01111111 </v>
   <v>       0.02222222 </v>
   <v>       0.02222222 </v>
   <v>       0.02222222 </v>
   <v>       0.01111111 </v>
   <v>       0.02222222 </v>
   <v>       0.02222222 </v>
   <v>       0.01111111 </v>
   <v>       0.02222222 </v>
   <v>       0.01111111 </v>
   <v>       0.01111111 </v>
   <v>       0.01111111 </v>
   <v>       0.02222222 </v>
   <v>       0.02222222 </v>
   <v>       0.02222222 </v>
   <v>       0.02222222 </v>
   <v>       0.02222222 </v>
   <v>       0.02222222 </v>
   <v>       0.02222222 </v>
   <v>       0.02222222 </v>
   <v>       0.02222222 </v>
   <v>       0.01111111 </v>
   <v>       0.02222222 </v>
   <v>       0.02222222 </v>
   <v>       0.02222222 </v>
   <v>       0.01111111 </v>
   <v>       0.02222222 </v>
   <v>       0.02222222 </v>
   <v>       0.01111111 </v>
   <v>       0.02222222 </v>
   <v>       0.01111111 </v>
   <v>       0.01111111 </v>
  </varray>
  <varray name="tetrahedronlist"  type="int" >
   <v type="int" >        4        2        2        5       19 </v>
   <v type="int" >        4        1        2        2       19 </v>
   <v type="int" >        4        1        2       14       19 </v>
   <v type="int" >        4        2        5       19       20 </v>
   <v type="int" >        4        2       15       19       20 </v>
   <v type="int" >        4        2       14       15       19 </v>
   <v type="int" >        4        3        5        6       20 </v>
   <v type="int" >        4        2        3        5       20 </v>
   <v type="int" >        4        2        3       15       20 </v>
   <v type="int" >        4        3        6       20       21 </v>
   <v type="int" >        4        3       16       20       21 </v>
   <v type="int" >        4        3       15       16       20 </v>
   <v type="int" >        4        4        6        7       21 </v>
   <v type="int" >        4        3        4        6       21 </v>
   <v type="int" >        4        3        4       16       21 </v>
   <v type="int" >        4        4        7       21       22 </v>
   <v type="int" >        4        4       17       21       22 </v>
   <v type="int" >        4        4       16       17       21 </v>
   <v type="int" >        4        3        7        8       22 </v>
   <v type="int" >        4        3        4        7       22 </v>
   <v type="int" >        4        3        4       17       22 </v>
   <v type="int" >        4        3        8       22       23 </v>
   <v type="int" >        4        3       18       22       23 </v>
   <v type="int" >        4        3       17       18       22 </v>
   <v type="int" >        4        2        8        9       23 </v>
   <v type="int" >        4        2        3        8       23 </v>
   <v type="int" >        4        2        3       18       23 </v>
   <v type="int" >        4        2        9       23       24 </v>
   <v type="int" >        4        2       19       23       24 </v>
   <v type="int" >        4        2       18       19       23 </v>
   <v type="int" >        4        1        2        9       24 </v>
   <v type="int" >        4        1        2       19       24 </v>
   <v type="int" >        4        1       14       19       24 </v>
   <v type="int" >        4        3        5        6       18 </v>
   <v type="int" >        4        2        3        5       18 </v>
   <v type="int" >        4        2        5       18       19 </v>
   <v type="int" >        4        5        6       18       25 </v>
   <v type="int" >        4        5       18       20       25 </v>
   <v type="int" >        4        5       18       19       20 </v>
   <v type="int" >        4        6        6       10       25 </v>
   <v type="int" >        4        5        6        6       25 </v>
   <v type="int" >        4        5        6       20       25 </v>
   <v type="int" >        4        6       10       25       26 </v>
   <v type="int" >        4        6       21       25       26 </v>
   <v type="int" >        4        6       20       21       25 </v>
   <v type="int" >        4        7       10       11       26 </v>
   <v type="int" >        4        6        7       10       26 </v>
   <v type="int" >        4        6        7       21       26 </v>
   <v type="int" >        4        7       11       26       27 </v>
   <v type="int" >        4        7       22       26       27 </v>
   <v type="int" >        4        7       21       22       26 </v>
   <v type="int" >        4        8       11       12       27 </v>
   <v type="int" >        4        7        8       11       27 </v>
   <v type="int" >        4        7        8       22       27 </v>
   <v type="int" >        4        8       12       27       28 </v>
   <v type="int" >        4        8       23       27       28 </v>
   <v type="int" >        4        8       22       23       27 </v>
   <v type="int" >        4        8        9       12       28 </v>
   <v type="int" >        4        8        9       23       28 </v>
   <v type="int" >        4        9       23       24       28 </v>
   <v type="int" >        4        4        6        7       17 </v>
   <v type="int" >        4        3        4        6       17 </v>
   <v type="int" >        4        3        6       17       18 </v>
   <v type="int" >        4        6        7       17       29 </v>
   <v type="int" >        4        6       17       25       29 </v>
   <v type="int" >        4        6       17       18       25 </v>
   <v type="int" >        4        7       10       11       29 </v>
   <v type="int" >        4        6        7       10       29 </v>
   <v type="int" >        4        6       10       25       29 </v>
   <v type="int" >        4       10       11       29       30 </v>
   <v type="int" >        4       10       26       29       30 </v>
   <v type="int" >        4       10       25       26       29 </v>
   <v type="int" >        4       11       11       13       30 </v>
   <v type="int" >        4       10       11       11       30 </v>
   <v type="int" >        4       10       11       26       30 </v>
   <v type="int" >        4       11       13       30       31 </v>
   <v type="int" >        4       11       27       30       31 </v>
   <v type="int" >        4       11       26       27       30 </v>
   <v type="int" >        4       11       12       13       31 </v>
   <v type="int" >        4       11       12       27       31 </v>
   <v type="int" >        4       12       27       28       31 </v>
   <v type="int" >        4        3        7        8       16 </v>
   <v type="int" >        4        3        4        7       16 </v>
   <v type="int" >        4        4        7       16       17 </v>
   <v type="int" >        4        7        8       16       32 </v>
   <v type="int" >        4        7       16       29       32 </v>
   <v type="int" >        4        7       16       17       29 </v>
   <v type="int" >        4        8       11       12       32 </v>
   <v type="int" >        4        7        8       11       32 </v>
   <v type="int" >        4        7       11       29       32 </v>
   <v type="int" >        4       11       12       32       33 </v>
   <v type="int" >        4       11       30       32       33 </v>
   <v type="int" >        4       11       29       30       32 </v>
   <v type="int" >        4       11       12       13       33 </v>
   <v type="int" >        4       11       13       30       33 </v>
   <v type="int" >        4       13       30       31       33 </v>
   <v type="int" >        4        2        8        9       15 </v>
   <v type="int" >        4        2        3        8       15 </v>
   <v type="int" >        4        3        8       15       16 </v>
   <v type="int" >        4        8        9       15       34 </v>
   <v type="int" >        4        8       15       32       34 </v>
   <v type="int" >        4        8       15       16       32 </v>
   <v type="int" >        4        8        9       12       34 </v>
   <v type="int" >        4        8       12       32       34 </v>
   <v type="int" >        4       12       32       33       34 </v>
   <v type="int" >        4        1        2        9       14 </v>
   <v type="int" >        4        2        9       14       15 </v>
   <v type="int" >        4        9       14       15       34 </v>
   <v type="int" >        4       15       19       20       40 </v>
   <v type="int" >        4       14       15       19       40 </v>
   <v type="int" >        4       14       15       35       40 </v>
   <v type="int" >        4       15       20       40       41 </v>
   <v type="int" >        4       15       36       40       41 </v>
   <v type="int" >        4       15       35       36       40 </v>
   <v type="int" >        4       16       20       21       41 </v>
   <v type="int" >        4       15       16       20       41 </v>
   <v type="int" >        4       15       16       36       41 </v>
   <v type="int" >        4       16       21       41       42 </v>
   <v type="int" >        4       16       37       41       42 </v>
   <v type="int" >        4       16       36       37       41 </v>
   <v type="int" >        4       17       21       22       42 </v>
   <v type="int" >        4       16       17       21       42 </v>
   <v type="int" >        4       16       17       37       42 </v>
   <v type="int" >        4       17       22       42       43 </v>
   <v type="int" >        4       17       38       42       43 </v>
   <v type="int" >        4       17       37       38       42 </v>
   <v type="int" >        4       18       22       23       43 </v>
   <v type="int" >        4       17       18       22       43 </v>
   <v type="int" >        4       17       18       38       43 </v>
   <v type="int" >        4       18       23       43       44 </v>
   <v type="int" >        4       18       39       43       44 </v>
   <v type="int" >        4       18       38       39       43 </v>
   <v type="int" >        4       19       23       24       44 </v>
   <v type="int" >        4       18       19       23       44 </v>
   <v type="int" >        4       18       19       39       44 </v>
   <v type="int" >        4       19       24       44       45 </v>
   <v type="int" >        4       19       40       44       45 </v>
   <v type="int" >        4       19       39       40       44 </v>
   <v type="int" >        4       14       19       24       45 </v>
   <v type="int" >        4       14       19       40       45 </v>
   <v type="int" >        4       14       35       40       45 </v>
   <v type="int" >        4       18       20       25       39 </v>
   <v type="int" >        4       18       19       20       39 </v>
   <v type="int" >        4       19       20       39       40 </v>
   <v type="int" >        4       20       25       39       46 </v>
   <v type="int" >        4       20       39       41       46 </v>
   <v type="int" >        4       20       39       40       41 </v>
   <v type="int" >        4       21       25       26       46 </v>
   <v type="int" >        4       20       21       25       46 </v>
   <v type="int" >        4       20       21       41       46 </v>
   <v type="int" >        4       21       26       46       47 </v>
   <v type="int" >        4       21       42       46       47 </v>
   <v type="int" >        4       21       41       42       46 </v>
   <v type="int" >        4       22       26       27       47 </v>
   <v type="int" >        4       21       22       26       47 </v>
   <v type="int" >        4       21       22       42       47 </v>
   <v type="int" >        4       22       27       47       48 </v>
   <v type="int" >        4       22       43       47       48 </v>
   <v type="int" >        4       22       42       43       47 </v>
   <v type="int" >        4       23       27       28       48 </v>
   <v type="int" >        4       22       23       27       48 </v>
   <v type="int" >        4       22       23       43       48 </v>
   <v type="int" >        4       23       28       48       49 </v>
   <v type="int" >        4       23       44       48       49 </v>
   <v type="int" >        4       23       43       44       48 </v>
   <v type="int" >        4       23       24       28       49 </v>
   <v type="int" >        4       23       24       44       49 </v>
   <v type="int" >        4       24       44       45       49 </v>
   <v type="int" >        4       17       25       29       38 </v>
   <v type="int" >        4       17       18       25       38 </v>
   <v type="int" >        4       18       25       38       39 </v>
   <v type="int" >        4       25       29       38       50 </v>
   <v type="int" >        4       25       38       46       50 </v>
   <v type="int" >        4       25       38       39       46 </v>
   <v type="int" >        4       26       29       30       50 </v>
   <v type="int" >        4       25       26       29       50 </v>
   <v type="int" >        4       25       26       46       50 </v>
   <v type="int" >        4       26       30       50       51 </v>
   <v type="int" >        4       26       47       50       51 </v>
   <v type="int" >        4       26       46       47       50 </v>
   <v type="int" >        4       27       30       31       51 </v>
   <v type="int" >        4       26       27       30       51 </v>
   <v type="int" >        4       26       27       47       51 </v>
   <v type="int" >        4       27       31       51       52 </v>
   <v type="int" >        4       27       48       51       52 </v>
   <v type="int" >        4       27       47       48       51 </v>
   <v type="int" >        4       27       28       31       52 </v>
   <v type="int" >        4       27       28       48       52 </v>
   <v type="int" >        4       28       48       49       52 </v>
   <v type="int" >        4       16       29       32       37 </v>
   <v type="int" >        4       16       17       29       37 </v>
   <v type="int" >        4       17       29       37       38 </v>
   <v type="int" >        4       29       32       37       53 </v>
   <v type="int" >        4       29       37       50       53 </v>
   <v type="int" >        4       29       37       38       50 </v>
   <v type="int" >        4       30       32       33       53 </v>
   <v type="int" >        4       29       30       32       53 </v>
   <v type="int" >        4       29       30       50       53 </v>
   <v type="int" >        4       30       33       53       54 </v>
   <v type="int" >        4       30       51       53       54 </v>
   <v type="int" >        4       30       50       51       53 </v>
   <v type="int" >        4       30       31       33       54 </v>
   <v type="int" >        4       30       31       51       54 </v>
   <v type="int" >        4       31       51       52       54 </v>
   <v type="int" >        4       15       32       34       36 </v>
   <v type="int" >        4       15       16       32       36 </v>
   <v type="int" >        4       16       32       36       37 </v>
   <v type="int" >        4       32       34       36       55 </v>
   <v type="int" >        4       32       36       53       55 </v>
   <v type="int" >        4       32       36       37       53 </v>
   <v type="int" >        4       32       33       34       55 </v>
   <v type="int" >        4       32       33       53       55 </v>
   <v type="int" >        4       33       53       54       55 </v>
   <v type="int" >        4       14       15       34       35 </v>
   <v type="int" >        4       15       34       35       36 </v>
   <v type="int" >        4       34       35       36       55 </v>
   <v type="int" >        4       36       36       40       41 </v>
   <v type="int" >        4       35       36       36       40 </v>
   <v type="int" >        2       35       35       36       36 </v>
   <v type="int" >        2       36       36       41       41 </v>
   <v type="int" >        4       37       41       41       42 </v>
   <v type="int" >        4       36       37       41       41 </v>
   <v type="int" >        4       36       37       40       41 </v>
   <v type="int" >        4       37       41       42       46 </v>
   <v type="int" >        4       37       39       41       46 </v>
   <v type="int" >        4       37       39       40       41 </v>
   <v type="int" >        4       38       42       43       46 </v>
   <v type="int" >        4       37       38       42       46 </v>
   <v type="int" >        4       37       38       39       46 </v>
   <v type="int" >        4       38       43       46       50 </v>
   <v type="int" >        4       38       38       46       50 </v>
   <v type="int" >        4       38       38       39       46 </v>
   <v type="int" >        4       39       43       44       50 </v>
   <v type="int" >        4       38       39       43       50 </v>
   <v type="int" >        4       38       38       39       50 </v>
   <v type="int" >        4       39       44       50       53 </v>
   <v type="int" >        4       37       39       50       53 </v>
   <v type="int" >        4       37       38       39       50 </v>
   <v type="int" >        4       40       44       45       53 </v>
   <v type="int" >        4       39       40       44       53 </v>
   <v type="int" >        4       37       39       40       53 </v>
   <v type="int" >        4       40       45       53       55 </v>
   <v type="int" >        4       36       40       53       55 </v>
   <v type="int" >        4       36       37       40       53 </v>
   <v type="int" >        4       35       40       45       55 </v>
   <v type="int" >        4       35       36       40       55 </v>
   <v type="int" >        4       35       35       36       55 </v>
   <v type="int" >        4       42       42       46       47 </v>
   <v type="int" >        4       41       42       42       46 </v>
   <v type="int" >        2       41       41       42       42 </v>
   <v type="int" >        2       42       42       47       47 </v>
   <v type="int" >        4       43       47       47       48 </v>
   <v type="int" >        4       42       43       47       47 </v>
   <v type="int" >        4       42       43       46       47 </v>
   <v type="int" >        4       43       47       48       51 </v>
   <v type="int" >        4       43       47       50       51 </v>
   <v type="int" >        4       43       46       47       50 </v>
   <v type="int" >        4       44       48       49       51 </v>
   <v type="int" >        4       43       44       48       51 </v>
   <v type="int" >        4       43       44       50       51 </v>
   <v type="int" >        4       44       49       51       54 </v>
   <v type="int" >        4       44       51       53       54 </v>
   <v type="int" >        4       44       50       51       53 </v>
   <v type="int" >        4       44       45       49       54 </v>
   <v type="int" >        4       44       45       53       54 </v>
   <v type="int" >        4       45       53       54       55 </v>
   <v type="int" >        4       48       48       51       52 </v>
   <v type="int" >        4       47       48       48       51 </v>
   <v type="int" >        2       47       47       48       48 </v>
   <v type="int" >        2       48       48       52       52 </v>
   <v type="int" >        4       48       49       52       52 </v>
   <v type="int" >        4       48       49       51       52 </v>
   <v type="int" >        4       49       51       52       54 </v>
  </varray>
  <i name="volumeweight">      0.00092593 </i>
 </kpoints>
 <parameters>
  <separator name="general" >
   <i type="string" name="SYSTEM">unknown system</i>
   <i type="logical" name="LCOMPAT"> F  </i>
  </separator>
  <separator name="electronic" >
   <i type="string" name="PREC">normal</i>
   <i name="ENMAX">    650.00000000</i>
   <i name="ENAUG">    605.39200000</i>
   <i name="EDIFF">      0.00001000</i>
   <i type="int" name="IALGO">    68</i>
   <i type="int" name="IWAVPR">    10</i>
   <i type="int" name="NBANDS">    29</i>
   <i name="NELECT">     48.00000000</i>
   <i type="int" name="TURBO">     0</i>
   <i type="int" name="IRESTART">     0</i>
   <i type="int" name="NREBOOT">     0</i>
   <i type="int" name="NMIN">     0</i>
   <i name="EREF">      0.00000000</i>
   <separator name="electronic smearing" >
    <i type="int" name="ISMEAR">    -5</i>
    <i name="SIGMA">      0.20000000</i>
    <i name="KSPACING">      0.50000000</i>
    <i type="logical" name="KGAMMA"> T  </i>
   </separator>
   <separator name="electronic projectors" >
    <i type="logical" name="LREAL"> T  </i>
    <v name="ROPT">     -0.00050000     -0.00050000</v>
    <i type="int" name="LMAXPAW">  -100</i>
    <i type="int" name="LMAXMIX">     2</i>
    <i type="logical" name="NLSPLINE"> F  </i>
   </separator>
   <separator name="electronic startup" >
    <i type="int" name="ISTART">     0</i>
    <i type="int" name="ICHARG">     2</i>
    <i type="int" name="INIWAV">     1</i>
   </separator>
   <separator name="electronic spin" >
    <i type="int" name="ISPIN">     1</i>
    <i type="logical" name="LNONCOLLINEAR"> F  </i>
    <v name="MAGMOM">      1.00000000      1.00000000      1.00000000      1.00000000      1.00000000      1.00000000      1.00000000      1.00000000      1.00000000</v>
    <i name="NUPDOWN">     -1.00000000</i>
    <i type="logical" name="LSORBIT"> F  </i>
    <v name="SAXIS">      0.00000000      0.00000000      1.00000000</v>
    <i type="logical" name="LSPIRAL"> F  </i>
    <v name="QSPIRAL">      0.00000000      0.00000000      0.00000000</v>
    <i type="logical" name="LZEROZ"> F  </i>
   </separator>
   <separator name="electronic exchange-correlation" >
    <i type="logical" name="LASPH"> F  </i>
    <i type="logical" name="LMETAGGA"> F  </i>
   </separator>
   <separator name="electronic convergence" >
    <i type="int" name="NELM">    60</i>
    <i type="int" name="NELMDL">    -5</i>
    <i type="int" name="NELMIN">     4</i>
    <i name="ENINI">    650.00000000</i>
    <separator name="electronic convergence detail" >
     <i type="logical" name="LDIAG"> T  </i>
     <i type="logical" name="LSUBROT"> F  </i>
     <i name="WEIMIN">      0.00000000</i>
     <i name="EBREAK">      0.00000009</i>
     <i name="DEPER">      0.30000000</i>
     <i type="int" name="NRMM">     4</i>
     <i name="TIME">      0.40000000</i>
    </separator>
   </separator>
   <separator name="electronic mixer" >
    <i name="AMIX">      0.40000000</i>
    <i name="BMIX">      1.00000000</i>
    <i name="AMIN">      0.10000000</i>
    <i name="AMIX_MAG">      1.60000000</i>
    <i name="BMIX_MAG">      1.00000000</i>
    <separator name="electronic mixer details" >
     <i type="int" name="IMIX">     4</i>
     <i type="logical" name="MIXFIRST"> F  </i>
     <i type="int" name="MAXMIX">   -45</i>
     <i name="WC">    100.00000000</i>
     <i type="int" name="INIMIX">     1</i>
     <i type="int" name="MIXPRE">     1</i>
     <i type="int" name="MREMOVE">     5</i>
    </separator>
   </separator>
   <separator name="electronic dipolcorrection" >
    <i type="logical" name="LDIPOL"> F  </i>
    <i type="logical" name="LMONO"> F  </i>
    <i type="int" name="IDIPOL">     0</i>
    <i name="EPSILON">      1.00000000</i>
    <v name="DIPOL">   -100.00000000   -100.00000000   -100.00000000</v>
    <i name="EFIELD">      0.00000000</i>
   </separator>
  </separator>
  <separator name="grids" >
   <i type="int" name="NGX">    32</i>
   <i type="int" name="NGY">    32</i>
   <i type="int" name="NGZ">    36</i>
   <i type="int" name="NGXF">    64</i>
   <i type="int" name="NGYF">    64</i>
   <i type="int" name="NGZF">    72</i>
   <i type="logical" name="ADDGRID"> F  </i>
  </separator>
  <separator name="ionic" >
   <i type="int" name="NSW">     0</i>
   <i type="int" name="IBRION">    -1</i>
   <i type="int" name="ISIF">     2</i>
   <i name="PSTRESS">      0.00000000</i>
   <i name="EDIFFG">      0.00010000</i>
   <i type="int" name="NFREE">     0</i>
   <i name="POTIM">      0.50000000</i>
   <i name="SMASS">     -3.00000000</i>
   <i name="SCALEE">      1.00000000</i>
  </separator>
  <separator name="ionic md" >
   <i name="TEBEG">      0.00010000</i>
   <i name="TEEND">      0.00010000</i>
   <i type="int" name="NBLOCK">     1</i>
   <i type="int" name="KBLOCK">     1</i>
   <i type="int" name="NPACO">   256</i>
   <i name="APACO">     16.00000000</i>
  </separator>
  <separator name="symmetry" >
   <i type="int" name="ISYM">     2</i>
   <i name="SYMPREC">      0.00001000</i>
  </separator>
  <separator name="dos" >
   <i type="logical" name="LORBIT"> F  </i>
   <v name="RWIGS">     -1.00000000     -1.00000000</v>
   <i type="int" name="NEDOS">   301</i>
   <i name="EMIN">     10.00000000</i>
   <i name="EMAX">    -10.00000000</i>
   <i name="EFERMI">      0.00000000</i>
  </separator>
  <separator name="writing" >
   <i type="int" name="NWRITE">     2</i>
   <i type="logical" name="LWAVE"> F  </i>
   <i type="logical" name="LCHARG"> T  </i>
   <i type="logical" name="LPARD"> F  </i>
   <i type="logical" name="LVTOT"> F  </i>
   <i type="logical" name="LVHAR"> F  </i>
   <i type="logical" name="LELF"> F  </i>
   <i type="logical" name="LOPTICS"> F  </i>
   <v name="STM">      0.00000000      0.00000000      0.00000000      0.00000000      0.00000000      0.00000000      0.00000000</v>
  </separator>
  <separator name="performance" >
   <i type="int" name="NPAR">     1</i>
   <i type="int" name="NSIM">     4</i>
   <i type="int" name="NBLK">    -1</i>
   <i type="logical" name="LPLANE"> T  </i>
   <i type="logical" name="LSCALAPACK"> F  </i>
   <i type="logical" name="LSCAAWARE"> F  </i>
   <i type="logical" name="LSCALU"> F  </i>
   <i type="logical" name="LASYNC"> F  </i>
   <i type="logical" name="LORBITALREAL"> F  </i>
  </separator>
  <separator name="miscellaneous" >
   <i type="int" name="IDIOT">     3</i>
   <i type="logical" name="LMUSIC"> F  </i>
   <v name="POMASS">     28.08500000     16.00000000</v>
   <v name="DARWINR">      0.00000000      0.00000000</v>
   <v name="DARWINV">      1.00000000      1.00000000</v>
   <i type="logical" name="LCORR"> T  </i>
  </separator>
  <i type="logical" name="GGA_COMPAT"> T  </i>
  <i type="logical" name="LBERRY"> F  </i>
  <i type="int" name="ICORELEVEL">     0</i>
  <i type="logical" name="LDAU"> F  </i>
  <i type="int" name="I_CONSTRAINED_M">     0</i>
  <separator name="electronic exchange-correlation" >
   <i type="string" name="GGA">--</i>
   <i type="int" name="VOSKOWN">     0</i>
   <i type="logical" name="LHFCALC"> F  </i>
   <i type="string" name="PRECFOCK"></i>
   <i type="logical" name="LSYMGRAD"> F  </i>
   <i type="logical" name="LHFONE"> F  </i>
   <i type="logical" name="LRHFCALC"> F  </i>
   <i type="logical" name="LTHOMAS"> F  </i>
   <i type="logical" name="LMODELHF"> F  </i>
   <i name="ENCUT4O">     -1.00000000</i>
   <i type="int" name="EXXOEP">     0</i>
   <i type="int" name="FOURORBIT">     0</i>
   <i name="AEXX">      0.00000000</i>
   <i name="HFALPHA">      0.00000000</i>
   <i name="MCALPHA">      0.00000000</i>
   <i name="ALDAX">      1.00000000</i>
   <i name="AGGAX">      1.00000000</i>
   <i name="ALDAC">      1.00000000</i>
   <i name="AGGAC">      1.00000000</i>
   <i type="int" name="NKREDX">     1</i>
   <i type="int" name="NKREDY">     1</i>
   <i type="int" name="NKREDZ">     1</i>
   <i type="logical" name="SHIFTRED"> F  </i>
   <i type="logical" name="ODDONLY"> F  </i>
   <i type="logical" name="EVENONLY"> F  </i>
   <i type="int" name="LMAXFOCK">     0</i>
   <i type="int" name="NMAXFOCKAE">     0</i>
   <i type="logical" name="LFOCKAEDFT"> F  </i>
   <i name="HFSCREEN">      0.00000000</i>
   <i name="HFSCREENC">      0.00000000</i>
   <i type="int" name="NBANDSGWLOW">     0</i>
  </separator>
  <separator name="vdW DFT" >
   <i type="logical" name="LUSE_VDW"> F  </i>
   <i name="Zab_VDW">     -0.84910000</i>
   <i name="PARAM1">      0.12340000</i>
   <i name="PARAM2">      1.00000000</i>
   <i name="PARAM3">      0.00000000</i>
  </separator>
  <separator name="model GW" >
   <i type="int" name="MODEL_GW">     0</i>
   <i name="MODEL_EPS0">      7.53464495</i>
   <i name="MODEL_ALPHA">      1.00000000</i>
  </separator>
  <separator name="linear response parameters" >
   <i type="logical" name="LEPSILON"> F  </i>
   <i type="logical" name="LRPA"> F  </i>
   <i type="logical" name="LNABLA"> F  </i>
   <i type="logical" name="LVEL"> F  </i>
   <i type="int" name="KINTER">     0</i>
   <i name="CSHIFT">      0.10000000</i>
   <i name="OMEGAMAX">     -1.00000000</i>
   <i name="DEG_THRESHOLD">      0.00200000</i>
  </separator>
  <separator name="orbital magnetization" >
   <i type="logical" name="NUCIND"> F  </i>
   <v name="MAGPOS">      0.00000000      0.00000000      0.00000000</v>
   <i type="logical" name="LNICSALL"> T  </i>
   <i type="logical" name="ORBITALMAG"> F  </i>
   <i type="logical" name="LMAGBLOCH"> F  </i>
   <i type="logical" name="LCHIMAG"> F  </i>
   <i type="logical" name="LGAUGE"> T  </i>
   <i type="int" name="MAGATOM">     0</i>
   <v name="MAGDIPOL">      0.00000000      0.00000000      0.00000000</v>
   <v name="AVECCONST">      0.00000000      0.00000000      0.00000000</v>
  </separator>
  <separator name="response functions" >
   <i type="logical" name="LADDER"> F  </i>
   <i type="logical" name="LFXC"> F  </i>
   <i type="logical" name="LHARTREE"> T  </i>
   <i type="int" name="IBSE">     0</i>
   <v type="int" name="KPOINT">    -1     0     0     0</v>
   <i type="logical" name="LTCTE"> F  </i>
   <i type="logical" name="LTETE"> F  </i>
   <i type="logical" name="LTRIPLET"> F  </i>
   <i type="logical" name="LFXCEPS"> F  </i>
   <i type="logical" name="LFXHEG"> F  </i>
   <i type="int" name="NATURALO">     0</i>
   <i type="logical" name="L2ORDER"> F  </i>
   <i type="logical" name="LUSEW"> F  </i>
   <i name="ENCUTGW">     -2.00000000</i>
   <i name="ENCUTGWSOFT">     -2.00000000</i>
   <i name="ENCUTLF">     -1.00000000</i>
   <i type="int" name="LMAXMP2">    -1</i>
   <i name="SCISSOR">      0.00000000</i>
   <i type="int" name="NOMEGA">     0</i>
   <i type="int" name="NOMEGAR">     0</i>
   <i type="int" name="NBANDSGW">    -1</i>
   <i type="int" name="NBANDSO">    -1</i>
   <i type="int" name="NBANDSV">    -1</i>
   <i type="int" name="NELM">     1</i>
   <i type="int" name="NELMHF">     1</i>
   <i type="int" name="DIM">     3</i>
   <i type="int" name="ANTIRES">     0</i>
   <i name="OMEGAMAX">    -30.00000000</i>
   <i name="OMEGAMIN">    -30.00000000</i>
   <i name="OMEGATL">   -200.00000000</i>
   <i type="int" name="OMEGAGRID">     0</i>
   <i name="CSHIFT">     -0.10000000</i>
   <i type="logical" name="SELFENERGY"> F  </i>
   <i type="logical" name="LSPECTRAL"> F  </i>
   <i type="logical" name="LSPECTRALGW"> F  </i>
   <i type="logical" name="LSINGLES"> F  </i>
   <i type="logical" name="LFERMIGW"> F  </i>
   <i type="logical" name="ODDONLYGW"> F  </i>
   <i type="logical" name="EVENONLYGW"> F  </i>
   <i type="int" name="NKREDLFX">     1</i>
   <i type="int" name="NKREDLFY">     1</i>
   <i type="int" name="NKREDLFZ">     1</i>
   <i type="int" name="MAXMEM">  1800</i>
   <i type="int" name="TELESCOPE">     0</i>
   <i type="int" name="TAUPAR">     1</i>
   <i type="int" name="OMEGAPAR">    -1</i>
   <i name="LAMBDA">      1.00000000</i>
  </separator>
  <separator name="External order field" >
   <i name="OFIELD_KAPPA">      0.00000000</i>
   <v name="OFIELD_K">      0.00000000      0.00000000      0.00000000</v>
   <i name="OFIELD_Q6_NEAR">      0.00000000</i>
   <i name="OFIELD_Q6_FAR">      0.00000000</i>
   <i name="OFIELD_A">      0.00000000</i>
  </separator>
 </parameters>
 <atominfo>
  <atoms>       9 </atoms>
  <types>       2 </types>
  <array name="atoms" >
   <dimension dim="1">ion</dimension>
   <field type="string">element</field>
   <field type="int">atomtype</field>
   <set>
    <rc><c>Si</c><c>   1</c></rc>
    <rc><c>Si</c><c>   1</c></rc>
    <rc><c>Si</c><c>   1</c></rc>
    <rc><c>O </c><c>   2</c></rc>
    <rc><c>O </c><c>   2</c></rc>
    <rc><c>O </c><c>   2</c></rc>
    <rc><c>O </c><c>   2</c></rc>
    <rc><c>O </c><c>   2</c></rc>
    <rc><c>O </c><c>   2</c></rc>
   </set>
  </array>
  <array name="atomtypes" >
   <dimension dim="1">type</dimension>
   <field type="int">atomspertype</field>
   <field type="string">element</field>
   <field>mass</field>
   <field>valence</field>
   <field type="string">pseudopotential</field>
   <set>
    <rc><c>   3</c><c>Si</c><c>     28.08500000</c><c>      4.00000000</c><c> PAW_PBE Si 05Jan2001                   </c></rc>
    <rc><c>   6</c><c>O </c><c>     16.00000000</c><c>      6.00000000</c><c> PAW_PBE O 08Apr2002                    </c></rc>
   </set>
  </array>
 </atominfo>
 <structure name="initialpos" >
  <crystal>
   <varray name="basis" >
    <v>       4.91370000       0.00000000       0.00000000 </v>
    <v>      -2.45685000       4.25538903       0.00000000 </v>
    <v>       0.00000000       0.00000000       5.40513000 </v>
   </varray>
   <i name="volume">    113.01967420 </i>
   <varray name="rec_basis" >
    <v>       0.20351263       0.11749807       0.00000000 </v>
    <v>       0.00000000       0.23499614       0.00000000 </v>
    <v>       0.00000000       0.00000000       0.18500943 </v>
   </varray>
  </crystal>
  <varray name="positions" >
   <v>       0.46980000       0.00000000       0.66667000 </v>
   <v>       0.00000000       0.46980000       0.33333000 </v>
   <v>       0.53020000       0.53020000       0.00000000 </v>
   <v>       0.41450000       0.26620000       0.78560000 </v>
   <v>       0.73380000       0.14830000       0.45227000 </v>
   <v>       0.85170000       0.58550000       0.11893000 </v>
   <v>       0.14830000       0.73380000       0.54773000 </v>
   <v>       0.26620000       0.41450000       0.21440000 </v>
   <v>       0.58550000       0.85170000       0.88107000 </v>
  </varray>
 </structure>
 <calculation>
  <scstep>
   <time name="dav">    8.72    8.72</time>
   <time name="total">    8.91    8.95</time>
   <energy>
    <i name="alphaZ">     69.72802778 </i>
    <i name="ewald">  -1887.20590689 </i>
    <i name="hartreedc">   -937.14514243 </i>
    <i name="XCdc">    142.01294183 </i>
    <i name="pawpsdc">   1574.92322788 </i>
    <i name="pawaedc">  -1533.24131965 </i>
    <i name="eentropy">      0.00000000 </i>
    <i name="bandstr">     19.85099133 </i>
    <i name="atom">   2903.39527051 </i>
    <i name="e_fr_energy">    352.31809036 </i>
    <i name="e_wo_entrp">    352.31809036 </i>
    <i name="e_0_energy">    352.31809036 </i>
   </energy>
  </scstep>
  <scstep>
   <time name="dav">   10.74   10.74</time>
   <time name="total">   10.75   10.75</time>
   <energy>
    <i name="e_fr_energy">    -57.86655984 </i>
    <i name="e_wo_entrp">    -57.86655984 </i>
    <i name="e_0_energy">    -57.86655984 </i>
   </energy>
  </scstep>
  <scstep>
   <time name="dav">    9.04    9.04</time>
   <time name="total">    9.04    9.05</time>
   <energy>
    <i name="e_fr_energy">    -80.34812561 </i>
    <i name="e_wo_entrp">    -80.34812561 </i>
    <i name="e_0_energy">    -80.34812561 </i>
   </energy>
  </scstep>
  <scstep>
   <time name="dav">    8.93    8.93</time>
   <time name="total">    8.94    8.94</time>
   <energy>
    <i name="e_fr_energy">    -80.64391972 </i>
    <i name="e_wo_entrp">    -80.64391972 </i>
    <i name="e_0_energy">    -80.64391972 </i>
   </energy>
  </scstep>
  <scstep>
   <time name="dav">    9.02    9.03</time>
   <time name="total">    9.66    9.67</time>
   <energy>
    <i name="e_fr_energy">    -80.64957725 </i>
    <i name="e_wo_entrp">    -80.64957725 </i>
    <i name="e_0_energy">    -80.64957725 </i>
   </energy>
  </scstep>
  <scstep>
   <time name="diag">    1.59    1.59</time>
   <time name="diis">    5.88    5.88</time>
   <time name="orth">    0.16    0.16</time>
   <time name="total">    8.44    8.53</time>
   <energy>
    <i name="e_fr_energy">    -71.04039549 </i>
    <i name="e_wo_entrp">    -71.04039549 </i>
    <i name="e_0_energy">    -71.04039549 </i>
   </energy>
  </scstep>
  <scstep>
   <time name="diag">    1.60    1.60</time>
   <time name="diis">    6.45    6.45</time>
   <time name="orth">    0.16    0.16</time>
   <time name="total">    9.02    9.02</time>
   <energy>
    <i name="e_fr_energy">    -71.02396294 </i>
    <i name="e_wo_entrp">    -71.02396294 </i>
    <i name="e_0_energy">    -71.02396294 </i>
   </energy>
  </scstep>
  <scstep>
   <time name="diag">    1.61    1.61</time>
   <time name="diis">    6.39    6.39</time>
   <time name="orth">    0.16    0.16</time>
   <time name="total">    8.98    8.98</time>
   <energy>
    <i name="e_fr_energy">    -71.04057712 </i>
    <i name="e_wo_entrp">    -71.04057712 </i>
    <i name="e_0_energy">    -71.04057712 </i>
   </energy>
  </scstep>
  <scstep>
   <time name="diag">    1.61    1.60</time>
   <time name="diis">    6.48    6.48</time>
   <time name="orth">    0.16    0.16</time>
   <time name="total">    9.04    9.05</time>
   <energy>
    <i name="e_fr_energy">    -71.03255012 </i>
    <i name="e_wo_entrp">    -71.03255012 </i>
    <i name="e_0_energy">    -71.03255012 </i>
   </energy>
  </scstep>
  <scstep>
   <time name="diag">    1.58    1.58</time>
   <time name="diis">    6.39    6.39</time>
   <time name="orth">    0.17    0.17</time>
   <time name="total">    8.95    8.96</time>
   <energy>
    <i name="e_fr_energy">    -71.03595813 </i>
    <i name="e_wo_entrp">    -71.03595813 </i>
    <i name="e_0_energy">    -71.03595813 </i>
   </energy>
  </scstep>
  <scstep>
   <time name="diag">    1.65    1.65</time>
   <time name="diis">    7.04    7.03</time>
   <time name="orth">    0.17    0.17</time>
   <time name="total">    9.69    9.69</time>
   <energy>
    <i name="e_fr_energy">    -71.03441934 </i>
    <i name="e_wo_entrp">    -71.03441934 </i>
    <i name="e_0_energy">    -71.03441934 </i>
   </energy>
  </scstep>
  <scstep>
   <time name="diag">    1.66    1.66</time>
   <time name="diis">    6.92    6.92</time>
   <time name="orth">    0.17    0.17</time>
   <time name="total">    9.58    9.58</time>
   <energy>
    <i name="e_fr_energy">    -71.03436021 </i>
    <i name="e_wo_entrp">    -71.03436021 </i>
    <i name="e_0_energy">    -71.03436021 </i>
   </energy>
  </scstep>
  <scstep>
   <time name="diag">    1.65    1.65</time>
   <time name="diis">    5.43    5.43</time>
   <time name="orth">    0.17    0.17</time>
   <time name="total">    7.43    7.44</time>
   <energy>
    <i name="alphaZ">     69.72802778 </i>
    <i name="ewald">  -1887.20590689 </i>
    <i name="hartreedc">  -1071.50761967 </i>
    <i name="XCdc">    151.13157440 </i>
    <i name="pawpsdc">   2051.76964515 </i>
    <i name="pawaedc">  -2012.44852320 </i>
    <i name="eentropy">      0.00000000 </i>
    <i name="bandstr">   -275.89683095 </i>
    <i name="atom">   2903.39527051 </i>
    <i name="e_fr_energy">    -71.03436286 </i>
    <i name="e_wo_entrp">    -71.03436286 </i>
    <i name="e_0_energy">    -71.03436286 </i>
   </energy>
  </scstep>
  <structure>
   <crystal>
    <varray name="basis" >
     <v>       4.91370000       0.00000000       0.00000000 </v>
     <v>      -2.45685000       4.25538903       0.00000000 </v>
     <v>       0.00000000       0.00000000       5.40513000 </v>
    </varray>
    <i name="volume">    113.01967420 </i>
    <varray name="rec_basis" >
     <v>       0.20351263       0.11749807       0.00000000 </v>
     <v>       0.00000000       0.23499614       0.00000000 </v>
     <v>       0.00000000       0.00000000       0.18500943 </v>
    </varray>
   </crystal>
   <varray name="positions" >
    <v>       0.46980000       0.00000000       0.66667000 </v>
    <v>       0.00000000       0.46980000       0.33333000 </v>
    <v>       0.53020000       0.53020000       0.00000000 </v>
    <v>       0.41450000       0.26620000       0.78560000 </v>
    <v>       0.73380000       0.14830000       0.45227000 </v>
    <v>       0.85170000       0.58550000       0.11893000 </v>
    <v>       0.14830000       0.73380000       0.54773000 </v>
    <v>       0.26620000       0.41450000       0.21440000 </v>
    <v>       0.58550000       0.85170000       0.88107000 </v>
   </varray>
  </structure>
  <varray name="forces" >
   <v>       0.40963055      -0.00040489      -0.00041338 </v>
   <v>      -0.20516592       0.35454801       0.00041338 </v>
   <v>      -0.20501933      -0.35510390       0.00000000 </v>
   <v>      -0.51867067       0.30937856       0.07952213 </v>
   <v>      -0.00839246      -0.60326229       0.07912266 </v>
   <v>       0.52735990       0.29435290       0.07948483 </v>
   <v>      -0.51824423      -0.30889923      -0.07912266 </v>
   <v>       0.52726503      -0.29449270      -0.07952213 </v>
   <v>      -0.00876286       0.60388352      -0.07948483 </v>
  </varray>
  <varray name="stress" >
   <v>      83.21845619      -0.01644352      -0.00242580 </v>
   <v>      -0.01644352      83.19946898       0.00140054 </v>
   <v>      -0.00242590       0.00140060      67.45780111 </v>
  </varray>
  <energy>
   <i name="e_fr_energy">    -71.03436286 </i>
   <i name="e_wo_entrp">    -71.03436286 </i>
   <i name="e_0_energy">      0.00000000 </i>
  </energy>
  <time name="totalsc">  130.47  130.71</time>
  <eigenvalues>
   <array>
    <dimension dim="1">band</dimension>
    <dimension dim="2">kpoint</dimension>
    <dimension dim="3">spin</dimension>
    <field>eigene</field>
    <field>occ</field>
    <set>
     <set comment="spin 1">
      <set comment="kpoint 1">
       <r>  -18.3728    1.0000 </r>
       <r>  -16.8361    1.0000 </r>
       <r>  -16.8360    1.0000 </r>
       <r>  -16.2014    1.0000 </r>
       <r>  -16.1535    1.0000 </r>
       <r>  -16.1534    1.0000 </r>
       <r>   -7.1746    1.0000 </r>
       <r>   -7.1745    1.0000 </r>
       <r>   -4.3344    1.0000 </r>
       <r>   -4.3285    1.0000 </r>
       <r>   -4.1763    1.0000 </r>
       <r>   -4.1762    1.0000 </r>
       <r>   -1.8583    1.0000 </r>
       <r>   -1.8583    1.0000 </r>
       <r>   -1.6206    1.0000 </r>
       <r>   -1.3608    1.0000 </r>
       <r>   -0.4102    1.0000 </r>
       <r>   -0.4102    1.0000 </r>
       <r>   -0.3923    1.0000 </r>
       <r>    0.1111    1.0000 </r>
       <r>    0.1112    1.0000 </r>
       <r>    0.4202    1.0000 </r>
       <r>    0.7609    1.0000 </r>
       <r>    0.7610    1.0000 </r>
       <r>    7.1213    0.0000 </r>
       <r>   10.3987    0.0000 </r>
       <r>   10.3988    0.0000 </r>
       <r>   10.9006    0.0000 </r>
       <r>   10.9006    0.0000 </r>
      </set>
      <set comment="kpoint 2">
       <r>  -18.2913    1.0000 </r>
       <r>  -16.9304    1.0000 </r>
       <r>  -16.8241    1.0000 </r>
       <r>  -16.2210    1.0000 </r>
       <r>  -16.1706    1.0000 </r>
       <r>  -16.1599    1.0000 </r>
       <r>   -7.2122    1.0000 </r>
       <r>   -6.9930    1.0000 </r>
       <r>   -4.3745    1.0000 </r>
       <r>   -4.3486    1.0000 </r>
       <r>   -4.2771    1.0000 </r>
       <r>   -4.0157    1.0000 </r>
       <r>   -1.9834    1.0000 </r>
       <r>   -1.7985    1.0000 </r>
       <r>   -1.5907    1.0000 </r>
       <r>   -1.1945    1.0000 </r>
       <r>   -0.6837    1.0000 </r>
       <r>   -0.4491    1.0000 </r>
       <r>   -0.4037    1.0000 </r>
       <r>    0.0483    1.0000 </r>
       <r>    0.1011    1.0000 </r>
       <r>    0.3180    1.0000 </r>
       <r>    0.8241    1.0000 </r>
       <r>    0.8577    1.0000 </r>
       <r>    7.5433    0.0000 </r>
       <r>   10.3854    0.0000 </r>
       <r>   10.4456    0.0000 </r>
       <r>   10.9355    0.0000 </r>
       <r>   11.0440    0.0000 </r>
      </set>
      <set comment="kpoint 3">
       <r>  -18.0724    1.0000 </r>
       <r>  -17.1896    1.0000 </r>
       <r>  -16.7987    1.0000 </r>
       <r>  -16.2442    1.0000 </r>
       <r>  -16.1989    1.0000 </r>
       <r>  -16.1790    1.0000 </r>
       <r>   -7.2838    1.0000 </r>
       <r>   -6.5736    1.0000 </r>
       <r>   -4.6305    1.0000 </r>
       <r>   -4.3823    1.0000 </r>
       <r>   -4.3005    1.0000 </r>
       <r>   -3.7135    1.0000 </r>
       <r>   -2.0659    1.0000 </r>
       <r>   -1.6902    1.0000 </r>
       <r>   -1.5656    1.0000 </r>
       <r>   -1.1985    1.0000 </r>
       <r>   -0.9995    1.0000 </r>
       <r>   -0.5802    1.0000 </r>
       <r>   -0.4885    1.0000 </r>
       <r>   -0.0031    1.0000 </r>
       <r>    0.0662    1.0000 </r>
       <r>    0.2692    1.0000 </r>
       <r>    0.8520    1.0000 </r>
       <r>    1.0012    1.0000 </r>
       <r>    8.5422    0.0000 </r>
       <r>   10.4291    0.0000 </r>
       <r>   10.5562    0.0000 </r>
       <r>   11.0580    0.0000 </r>
       <r>   11.4139    0.0000 </r>
      </set>
      <set comment="kpoint 4">
       <r>  -17.8830    1.0000 </r>
       <r>  -17.4041    1.0000 </r>
       <r>  -16.7850    1.0000 </r>
       <r>  -16.2501    1.0000 </r>
       <r>  -16.2116    1.0000 </r>
       <r>  -16.1906    1.0000 </r>
       <r>   -7.3182    1.0000 </r>
       <r>   -6.3113    1.0000 </r>
       <r>   -4.8188    1.0000 </r>
       <r>   -4.3598    1.0000 </r>
       <r>   -4.3287    1.0000 </r>
       <r>   -3.5478    1.0000 </r>
       <r>   -1.9939    1.0000 </r>
       <r>   -1.8275    1.0000 </r>
       <r>   -1.5968    1.0000 </r>
       <r>   -1.2158    1.0000 </r>
       <r>   -1.0075    1.0000 </r>
       <r>   -0.6633    1.0000 </r>
       <r>   -0.5959    1.0000 </r>
       <r>   -0.0063    1.0000 </r>
       <r>    0.0591    1.0000 </r>
       <r>    0.2996    1.0000 </r>
       <r>    0.8349    1.0000 </r>
       <r>    1.0588    1.0000 </r>
       <r>    9.3796    0.0000 </r>
       <r>   10.1170    0.0000 </r>
       <r>   10.8438    0.0000 </r>
       <r>   10.8454    0.0000 </r>
       <r>   11.6474    0.0000 </r>
      </set>
      <set comment="kpoint 5">
       <r>  -18.1386    1.0000 </r>
       <r>  -17.1062    1.0000 </r>
       <r>  -16.8126    1.0000 </r>
       <r>  -16.2389    1.0000 </r>
       <r>  -16.1959    1.0000 </r>
       <r>  -16.1695    1.0000 </r>
       <r>   -7.2763    1.0000 </r>
       <r>   -6.6672    1.0000 </r>
       <r>   -4.6383    1.0000 </r>
       <r>   -4.3674    1.0000 </r>
       <r>   -4.2253    1.0000 </r>
       <r>   -3.8030    1.0000 </r>
       <r>   -2.0329    1.0000 </r>
       <r>   -1.7855    1.0000 </r>
       <r>   -1.4859    1.0000 </r>
       <r>   -1.0860    1.0000 </r>
       <r>   -1.0783    1.0000 </r>
       <r>   -0.5590    1.0000 </r>
       <r>   -0.3611    1.0000 </r>
       <r>   -0.1293    1.0000 </r>
       <r>    0.1838    1.0000 </r>
       <r>    0.2291    1.0000 </r>
       <r>    0.8429    1.0000 </r>
       <r>    0.9788    1.0000 </r>
       <r>    8.2509    0.0000 </r>
       <r>   10.4280    0.0000 </r>
       <r>   10.5699    0.0000 </r>
       <r>   11.0528    0.0000 </r>
       <r>   11.2287    0.0000 </r>
      </set>
      <set comment="kpoint 6">
       <r>  -17.8897    1.0000 </r>
       <r>  -17.3847    1.0000 </r>
       <r>  -16.8049    1.0000 </r>
       <r>  -16.2474    1.0000 </r>
       <r>  -16.2099    1.0000 </r>
       <r>  -16.1878    1.0000 </r>
       <r>   -7.3414    1.0000 </r>
       <r>   -6.2112    1.0000 </r>
       <r>   -5.0377    1.0000 </r>
       <r>   -4.3195    1.0000 </r>
       <r>   -4.2278    1.0000 </r>
       <r>   -3.5555    1.0000 </r>
       <r>   -1.9822    1.0000 </r>
       <r>   -1.7832    1.0000 </r>
       <r>   -1.6568    1.0000 </r>
       <r>   -1.1629    1.0000 </r>
       <r>   -1.0005    1.0000 </r>
       <r>   -0.6942    1.0000 </r>
       <r>   -0.5059    1.0000 </r>
       <r>   -0.1876    1.0000 </r>
       <r>    0.0318    1.0000 </r>
       <r>    0.4240    1.0000 </r>
       <r>    0.8014    1.0000 </r>
       <r>    1.0702    1.0000 </r>
       <r>    9.2674    0.0000 </r>
       <r>   10.3672    0.0000 </r>
       <r>   10.6840    0.0000 </r>
       <r>   11.1023    0.0000 </r>
       <r>   11.6401    0.0000 </r>
      </set>
      <set comment="kpoint 7">
       <r>  -17.8897    1.0000 </r>
       <r>  -17.3847    1.0000 </r>
       <r>  -16.8049    1.0000 </r>
       <r>  -16.2474    1.0000 </r>
       <r>  -16.2099    1.0000 </r>
       <r>  -16.1878    1.0000 </r>
       <r>   -7.3414    1.0000 </r>
       <r>   -6.2113    1.0000 </r>
       <r>   -5.0377    1.0000 </r>
       <r>   -4.3195    1.0000 </r>
       <r>   -4.2278    1.0000 </r>
       <r>   -3.5555    1.0000 </r>
       <r>   -1.9822    1.0000 </r>
       <r>   -1.7832    1.0000 </r>
       <r>   -1.6568    1.0000 </r>
       <r>   -1.1628    1.0000 </r>
       <r>   -1.0005    1.0000 </r>
       <r>   -0.6942    1.0000 </r>
       <r>   -0.5059    1.0000 </r>
       <r>   -0.1876    1.0000 </r>
       <r>    0.0318    1.0000 </r>
       <r>    0.4241    1.0000 </r>
       <r>    0.8014    1.0000 </r>
       <r>    1.0702    1.0000 </r>
       <r>    9.2674    0.0000 </r>
       <r>   10.3669    0.0000 </r>
       <r>   10.6841    0.0000 </r>
       <r>   11.0890    0.0000 </r>
       <r>   11.5162    0.0000 </r>
      </set>
      <set comment="kpoint 8">
       <r>  -18.1386    1.0000 </r>
       <r>  -17.1062    1.0000 </r>
       <r>  -16.8127    1.0000 </r>
       <r>  -16.2390    1.0000 </r>
       <r>  -16.1958    1.0000 </r>
       <r>  -16.1694    1.0000 </r>
       <r>   -7.2762    1.0000 </r>
       <r>   -6.6673    1.0000 </r>
       <r>   -4.6383    1.0000 </r>
       <r>   -4.3673    1.0000 </r>
       <r>   -4.2254    1.0000 </r>
       <r>   -3.8030    1.0000 </r>
       <r>   -2.0330    1.0000 </r>
       <r>   -1.7855    1.0000 </r>
       <r>   -1.4858    1.0000 </r>
       <r>   -1.0860    1.0000 </r>
       <r>   -1.0783    1.0000 </r>
       <r>   -0.5590    1.0000 </r>
       <r>   -0.3611    1.0000 </r>
       <r>   -0.1293    1.0000 </r>
       <r>    0.1837    1.0000 </r>
       <r>    0.2291    1.0000 </r>
       <r>    0.8429    1.0000 </r>
       <r>    0.9788    1.0000 </r>
       <r>    8.2509    0.0000 </r>
       <r>   10.4280    0.0000 </r>
       <r>   10.5699    0.0000 </r>
       <r>   11.0529    0.0000 </r>
       <r>   11.2244    0.0000 </r>
      </set>
      <set comment="kpoint 9">
       <r>  -18.2913    1.0000 </r>
       <r>  -16.9303    1.0000 </r>
       <r>  -16.8242    1.0000 </r>
       <r>  -16.2211    1.0000 </r>
       <r>  -16.1705    1.0000 </r>
       <r>  -16.1599    1.0000 </r>
       <r>   -7.2121    1.0000 </r>
       <r>   -6.9931    1.0000 </r>
       <r>   -4.3745    1.0000 </r>
       <r>   -4.3486    1.0000 </r>
       <r>   -4.2771    1.0000 </r>
       <r>   -4.0157    1.0000 </r>
       <r>   -1.9835    1.0000 </r>
       <r>   -1.7985    1.0000 </r>
       <r>   -1.5907    1.0000 </r>
       <r>   -1.1945    1.0000 </r>
       <r>   -0.6837    1.0000 </r>
       <r>   -0.4491    1.0000 </r>
       <r>   -0.4037    1.0000 </r>
       <r>    0.0482    1.0000 </r>
       <r>    0.1012    1.0000 </r>
       <r>    0.3180    1.0000 </r>
       <r>    0.8241    1.0000 </r>
       <r>    0.8578    1.0000 </r>
       <r>    7.5433    0.0000 </r>
       <r>   10.3854    0.0000 </r>
       <r>   10.4456    0.0000 </r>
       <r>   10.9355    0.0000 </r>
       <r>   11.0440    0.0000 </r>
      </set>
      <set comment="kpoint 10">
       <r>  -17.6378    1.0000 </r>
       <r>  -17.6377    1.0000 </r>
       <r>  -16.8189    1.0000 </r>
       <r>  -16.2463    1.0000 </r>
       <r>  -16.2022    1.0000 </r>
       <r>  -16.2021    1.0000 </r>
       <r>   -7.3790    1.0000 </r>
       <r>   -5.6406    1.0000 </r>
       <r>   -5.6406    1.0000 </r>
       <r>   -4.2369    1.0000 </r>
       <r>   -4.2369    1.0000 </r>
       <r>   -3.4612    1.0000 </r>
       <r>   -1.8526    1.0000 </r>
       <r>   -1.8526    1.0000 </r>
       <r>   -1.8018    1.0000 </r>
       <r>   -0.9757    1.0000 </r>
       <r>   -0.9757    1.0000 </r>
       <r>   -0.8197    1.0000 </r>
       <r>   -0.6229    1.0000 </r>
       <r>   -0.1451    1.0000 </r>
       <r>   -0.1451    1.0000 </r>
       <r>    0.6598    1.0000 </r>
       <r>    0.6599    1.0000 </r>
       <r>    1.1015    1.0000 </r>
       <r>   10.0510    0.0000 </r>
       <r>   10.0511    0.0000 </r>
       <r>   10.5393    0.0000 </r>
       <r>   11.5039    0.0000 </r>
       <r>   11.6270    0.0000 </r>
      </set>
      <set comment="kpoint 11">
       <r>  -17.8896    1.0000 </r>
       <r>  -17.3848    1.0000 </r>
       <r>  -16.8049    1.0000 </r>
       <r>  -16.2475    1.0000 </r>
       <r>  -16.2099    1.0000 </r>
       <r>  -16.1877    1.0000 </r>
       <r>   -7.3414    1.0000 </r>
       <r>   -6.2113    1.0000 </r>
       <r>   -5.0377    1.0000 </r>
       <r>   -4.3195    1.0000 </r>
       <r>   -4.2278    1.0000 </r>
       <r>   -3.5555    1.0000 </r>
       <r>   -1.9822    1.0000 </r>
       <r>   -1.7833    1.0000 </r>
       <r>   -1.6568    1.0000 </r>
       <r>   -1.1629    1.0000 </r>
       <r>   -1.0005    1.0000 </r>
       <r>   -0.6942    1.0000 </r>
       <r>   -0.5059    1.0000 </r>
       <r>   -0.1877    1.0000 </r>
       <r>    0.0318    1.0000 </r>
       <r>    0.4241    1.0000 </r>
       <r>    0.8015    1.0000 </r>
       <r>    1.0702    1.0000 </r>
       <r>    9.2674    0.0000 </r>
       <r>   10.3670    0.0000 </r>
       <r>   10.6842    0.0000 </r>
       <r>   11.0923    0.0000 </r>
       <r>   11.5577    0.0000 </r>
      </set>
      <set comment="kpoint 12">
       <r>  -18.0723    1.0000 </r>
       <r>  -17.1896    1.0000 </r>
       <r>  -16.7987    1.0000 </r>
       <r>  -16.2443    1.0000 </r>
       <r>  -16.1989    1.0000 </r>
       <r>  -16.1789    1.0000 </r>
       <r>   -7.2838    1.0000 </r>
       <r>   -6.5736    1.0000 </r>
       <r>   -4.6305    1.0000 </r>
       <r>   -4.3823    1.0000 </r>
       <r>   -4.3004    1.0000 </r>
       <r>   -3.7135    1.0000 </r>
       <r>   -2.0660    1.0000 </r>
       <r>   -1.6902    1.0000 </r>
       <r>   -1.5656    1.0000 </r>
       <r>   -1.1986    1.0000 </r>
       <r>   -0.9994    1.0000 </r>
       <r>   -0.5802    1.0000 </r>
       <r>   -0.4884    1.0000 </r>
       <r>   -0.0031    1.0000 </r>
       <r>    0.0663    1.0000 </r>
       <r>    0.2692    1.0000 </r>
       <r>    0.8520    1.0000 </r>
       <r>    1.0012    1.0000 </r>
       <r>    8.5422    0.0000 </r>
       <r>   10.4290    0.0000 </r>
       <r>   10.5562    0.0000 </r>
       <r>   11.0656    0.0000 </r>
       <r>   11.3966    0.0000 </r>
      </set>
      <set comment="kpoint 13">
       <r>  -17.8829    1.0000 </r>
       <r>  -17.4042    1.0000 </r>
       <r>  -16.7850    1.0000 </r>
       <r>  -16.2502    1.0000 </r>
       <r>  -16.2117    1.0000 </r>
       <r>  -16.1904    1.0000 </r>
       <r>   -7.3182    1.0000 </r>
       <r>   -6.3114    1.0000 </r>
       <r>   -4.8189    1.0000 </r>
       <r>   -4.3597    1.0000 </r>
       <r>   -4.3287    1.0000 </r>
       <r>   -3.5478    1.0000 </r>
       <r>   -1.9939    1.0000 </r>
       <r>   -1.8275    1.0000 </r>
       <r>   -1.5969    1.0000 </r>
       <r>   -1.2158    1.0000 </r>
       <r>   -1.0075    1.0000 </r>
       <r>   -0.6633    1.0000 </r>
       <r>   -0.5958    1.0000 </r>
       <r>   -0.0063    1.0000 </r>
       <r>    0.0592    1.0000 </r>
       <r>    0.2996    1.0000 </r>
       <r>    0.8349    1.0000 </r>
       <r>    1.0588    1.0000 </r>
       <r>    9.3796    0.0000 </r>
       <r>   10.1170    0.0000 </r>
       <r>   10.8438    0.0000 </r>
       <r>   10.8452    0.0000 </r>
       <r>   11.6268    0.0000 </r>
      </set>
      <set comment="kpoint 14">
       <r>  -18.2943    1.0000 </r>
       <r>  -17.2851    1.0000 </r>
       <r>  -16.4516    1.0000 </r>
       <r>  -16.1991    1.0000 </r>
       <r>  -16.1691    1.0000 </r>
       <r>  -16.1384    1.0000 </r>
       <r>   -7.8475    1.0000 </r>
       <r>   -6.3474    1.0000 </r>
       <r>   -4.4942    1.0000 </r>
       <r>   -4.4178    1.0000 </r>
       <r>   -4.3689    1.0000 </r>
       <r>   -3.8710    1.0000 </r>
       <r>   -1.9424    1.0000 </r>
       <r>   -1.6637    1.0000 </r>
       <r>   -1.5628    1.0000 </r>
       <r>   -1.2310    1.0000 </r>
       <r>   -0.6034    1.0000 </r>
       <r>   -0.4825    1.0000 </r>
       <r>   -0.4224    1.0000 </r>
       <r>   -0.2822    1.0000 </r>
       <r>    0.0792    1.0000 </r>
       <r>    0.5206    1.0000 </r>
       <r>    0.8112    1.0000 </r>
       <r>    0.9708    1.0000 </r>
       <r>    7.5154    0.0000 </r>
       <r>   10.2556    0.0000 </r>
       <r>   10.4198    0.0000 </r>
       <r>   10.5216    0.0000 </r>
       <r>   11.2245    0.0000 </r>
      </set>
      <set comment="kpoint 15">
       <r>  -18.2171    1.0000 </r>
       <r>  -17.2843    1.0000 </r>
       <r>  -16.5348    1.0000 </r>
       <r>  -16.2141    1.0000 </r>
       <r>  -16.1883    1.0000 </r>
       <r>  -16.1496    1.0000 </r>
       <r>   -7.7026    1.0000 </r>
       <r>   -6.3556    1.0000 </r>
       <r>   -4.6724    1.0000 </r>
       <r>   -4.3759    1.0000 </r>
       <r>   -4.1796    1.0000 </r>
       <r>   -3.9205    1.0000 </r>
       <r>   -2.0424    1.0000 </r>
       <r>   -1.6477    1.0000 </r>
       <r>   -1.5269    1.0000 </r>
       <r>   -1.1533    1.0000 </r>
       <r>   -0.8329    1.0000 </r>
       <r>   -0.4965    1.0000 </r>
       <r>   -0.3932    1.0000 </r>
       <r>   -0.2382    1.0000 </r>
       <r>    0.1621    1.0000 </r>
       <r>    0.4169    1.0000 </r>
       <r>    0.7527    1.0000 </r>
       <r>    1.0124    1.0000 </r>
       <r>    7.8913    0.0000 </r>
       <r>   10.2694    0.0000 </r>
       <r>   10.5117    0.0000 </r>
       <r>   10.6066    0.0000 </r>
       <r>   11.3203    0.0000 </r>
      </set>
      <set comment="kpoint 16">
       <r>  -18.0154    1.0000 </r>
       <r>  -17.3244    1.0000 </r>
       <r>  -16.7210    1.0000 </r>
       <r>  -16.2416    1.0000 </r>
       <r>  -16.2145    1.0000 </r>
       <r>  -16.1693    1.0000 </r>
       <r>   -7.4095    1.0000 </r>
       <r>   -6.3275    1.0000 </r>
       <r>   -4.9075    1.0000 </r>
       <r>   -4.3347    1.0000 </r>
       <r>   -4.0986    1.0000 </r>
       <r>   -3.8245    1.0000 </r>
       <r>   -2.1376    1.0000 </r>
       <r>   -1.7104    1.0000 </r>
       <r>   -1.4732    1.0000 </r>
       <r>   -1.2105    1.0000 </r>
       <r>   -0.8946    1.0000 </r>
       <r>   -0.6014    1.0000 </r>
       <r>   -0.4906    1.0000 </r>
       <r>   -0.0534    1.0000 </r>
       <r>    0.1615    1.0000 </r>
       <r>    0.2813    1.0000 </r>
       <r>    0.7952    1.0000 </r>
       <r>    0.9676    1.0000 </r>
       <r>    8.8071    0.0000 </r>
       <r>   10.3216    0.0000 </r>
       <r>   10.5751    0.0000 </r>
       <r>   11.0915    0.0000 </r>
       <r>   11.6139    0.0000 </r>
      </set>
      <set comment="kpoint 17">
       <r>  -17.8605    1.0000 </r>
       <r>  -17.3930    1.0000 </r>
       <r>  -16.8316    1.0000 </r>
       <r>  -16.2505    1.0000 </r>
       <r>  -16.2162    1.0000 </r>
       <r>  -16.1818    1.0000 </r>
       <r>   -7.2706    1.0000 </r>
       <r>   -6.2721    1.0000 </r>
       <r>   -5.0432    1.0000 </r>
       <r>   -4.3562    1.0000 </r>
       <r>   -4.1041    1.0000 </r>
       <r>   -3.6710    1.0000 </r>
       <r>   -2.0459    1.0000 </r>
       <r>   -1.9450    1.0000 </r>
       <r>   -1.4697    1.0000 </r>
       <r>   -1.2606    1.0000 </r>
       <r>   -0.8442    1.0000 </r>
       <r>   -0.7243    1.0000 </r>
       <r>   -0.4200    1.0000 </r>
       <r>   -0.0721    1.0000 </r>
       <r>    0.1408    1.0000 </r>
       <r>    0.3334    1.0000 </r>
       <r>    0.7221    1.0000 </r>
       <r>    0.9981    1.0000 </r>
       <r>    9.5729    0.0000 </r>
       <r>   10.1828    0.0000 </r>
       <r>   10.6870    0.0000 </r>
       <r>   11.1623    0.0000 </r>
       <r>   11.6452    0.0000 </r>
      </set>
      <set comment="kpoint 18">
       <r>  -18.0191    1.0000 </r>
       <r>  -17.3043    1.0000 </r>
       <r>  -16.7544    1.0000 </r>
       <r>  -16.2338    1.0000 </r>
       <r>  -16.1935    1.0000 </r>
       <r>  -16.1807    1.0000 </r>
       <r>   -7.4131    1.0000 </r>
       <r>   -6.3288    1.0000 </r>
       <r>   -4.9092    1.0000 </r>
       <r>   -4.3739    1.0000 </r>
       <r>   -4.0755    1.0000 </r>
       <r>   -3.7750    1.0000 </r>
       <r>   -2.0733    1.0000 </r>
       <r>   -1.7019    1.0000 </r>
       <r>   -1.5264    1.0000 </r>
       <r>   -1.3889    1.0000 </r>
       <r>   -0.9242    1.0000 </r>
       <r>   -0.4998    1.0000 </r>
       <r>   -0.3464    1.0000 </r>
       <r>   -0.0893    1.0000 </r>
       <r>    0.0637    1.0000 </r>
       <r>    0.3952    1.0000 </r>
       <r>    0.6373    1.0000 </r>
       <r>    1.0610    1.0000 </r>
       <r>    8.7733    0.0000 </r>
       <r>   10.3811    0.0000 </r>
       <r>   10.7678    0.0000 </r>
       <r>   11.1842    0.0000 </r>
       <r>   11.3580    0.0000 </r>
      </set>
      <set comment="kpoint 19">
       <r>  -18.2177    1.0000 </r>
       <r>  -17.2803    1.0000 </r>
       <r>  -16.5459    1.0000 </r>
       <r>  -16.2128    1.0000 </r>
       <r>  -16.1778    1.0000 </r>
       <r>  -16.1536    1.0000 </r>
       <r>   -7.7036    1.0000 </r>
       <r>   -6.3557    1.0000 </r>
       <r>   -4.6767    1.0000 </r>
       <r>   -4.3770    1.0000 </r>
       <r>   -4.1938    1.0000 </r>
       <r>   -3.8920    1.0000 </r>
       <r>   -2.0157    1.0000 </r>
       <r>   -1.6650    1.0000 </r>
       <r>   -1.5214    1.0000 </r>
       <r>   -1.2041    1.0000 </r>
       <r>   -0.8760    1.0000 </r>
       <r>   -0.4112    1.0000 </r>
       <r>   -0.3821    1.0000 </r>
       <r>   -0.2586    1.0000 </r>
       <r>    0.1923    1.0000 </r>
       <r>    0.3783    1.0000 </r>
       <r>    0.7272    1.0000 </r>
       <r>    1.0419    1.0000 </r>
       <r>    7.8815    0.0000 </r>
       <r>   10.3080    0.0000 </r>
       <r>   10.5371    0.0000 </r>
       <r>   10.6558    0.0000 </r>
       <r>   11.2330    0.0000 </r>
      </set>
      <set comment="kpoint 20">
       <r>  -18.0763    1.0000 </r>
       <r>  -17.2970    1.0000 </r>
       <r>  -16.6878    1.0000 </r>
       <r>  -16.2300    1.0000 </r>
       <r>  -16.2046    1.0000 </r>
       <r>  -16.1662    1.0000 </r>
       <r>   -7.4859    1.0000 </r>
       <r>   -6.3295    1.0000 </r>
       <r>   -4.8862    1.0000 </r>
       <r>   -4.3409    1.0000 </r>
       <r>   -4.0716    1.0000 </r>
       <r>   -3.8601    1.0000 </r>
       <r>   -2.0945    1.0000 </r>
       <r>   -1.6482    1.0000 </r>
       <r>   -1.5297    1.0000 </r>
       <r>   -1.2575    1.0000 </r>
       <r>   -0.9423    1.0000 </r>
       <r>   -0.4930    1.0000 </r>
       <r>   -0.4116    1.0000 </r>
       <r>   -0.1307    1.0000 </r>
       <r>    0.1786    1.0000 </r>
       <r>    0.3092    1.0000 </r>
       <r>    0.7130    1.0000 </r>
       <r>    1.0300    1.0000 </r>
       <r>    8.5222    0.0000 </r>
       <r>   10.3276    0.0000 </r>
       <r>   10.7379    0.0000 </r>
       <r>   10.8894    0.0000 </r>
       <r>   11.3548    0.0000 </r>
      </set>
      <set comment="kpoint 21">
       <r>  -17.8622    1.0000 </r>
       <r>  -17.3912    1.0000 </r>
       <r>  -16.8283    1.0000 </r>
       <r>  -16.2491    1.0000 </r>
       <r>  -16.2247    1.0000 </r>
       <r>  -16.1784    1.0000 </r>
       <r>   -7.2837    1.0000 </r>
       <r>   -6.1884    1.0000 </r>
       <r>   -5.1846    1.0000 </r>
       <r>   -4.3189    1.0000 </r>
       <r>   -4.0716    1.0000 </r>
       <r>   -3.6893    1.0000 </r>
       <r>   -2.0904    1.0000 </r>
       <r>   -1.8128    1.0000 </r>
       <r>   -1.5869    1.0000 </r>
       <r>   -1.1307    1.0000 </r>
       <r>   -0.8979    1.0000 </r>
       <r>   -0.7056    1.0000 </r>
       <r>   -0.4194    1.0000 </r>
       <r>   -0.1367    1.0000 </r>
       <r>    0.1232    1.0000 </r>
       <r>    0.3757    1.0000 </r>
       <r>    0.7396    1.0000 </r>
       <r>    0.9723    1.0000 </r>
       <r>    9.4565    0.0000 </r>
       <r>   10.4460    0.0000 </r>
       <r>   10.6057    0.0000 </r>
       <r>   11.2117    0.0000 </r>
       <r>   11.4608    0.0000 </r>
      </set>
      <set comment="kpoint 22">
       <r>  -17.8649    1.0000 </r>
       <r>  -17.3819    1.0000 </r>
       <r>  -16.8400    1.0000 </r>
       <r>  -16.2442    1.0000 </r>
       <r>  -16.2233    1.0000 </r>
       <r>  -16.1794    1.0000 </r>
       <r>   -7.2849    1.0000 </r>
       <r>   -6.1895    1.0000 </r>
       <r>   -5.1843    1.0000 </r>
       <r>   -4.3283    1.0000 </r>
       <r>   -4.0654    1.0000 </r>
       <r>   -3.6745    1.0000 </r>
       <r>   -2.0546    1.0000 </r>
       <r>   -1.8395    1.0000 </r>
       <r>   -1.6053    1.0000 </r>
       <r>   -1.1843    1.0000 </r>
       <r>   -0.9100    1.0000 </r>
       <r>   -0.6714    1.0000 </r>
       <r>   -0.3218    1.0000 </r>
       <r>   -0.1847    1.0000 </r>
       <r>    0.0736    1.0000 </r>
       <r>    0.4572    1.0000 </r>
       <r>    0.6528    1.0000 </r>
       <r>    1.0085    1.0000 </r>
       <r>    9.4462    0.0000 </r>
       <r>   10.3545    0.0000 </r>
       <r>   10.9121    0.0000 </r>
       <r>   11.0679    0.0000 </r>
       <r>   11.4606    0.0000 </r>
      </set>
      <set comment="kpoint 23">
       <r>  -18.0763    1.0000 </r>
       <r>  -17.2971    1.0000 </r>
       <r>  -16.6879    1.0000 </r>
       <r>  -16.2301    1.0000 </r>
       <r>  -16.2046    1.0000 </r>
       <r>  -16.1661    1.0000 </r>
       <r>   -7.4859    1.0000 </r>
       <r>   -6.3295    1.0000 </r>
       <r>   -4.8862    1.0000 </r>
       <r>   -4.3409    1.0000 </r>
       <r>   -4.0716    1.0000 </r>
       <r>   -3.8600    1.0000 </r>
       <r>   -2.0945    1.0000 </r>
       <r>   -1.6482    1.0000 </r>
       <r>   -1.5296    1.0000 </r>
       <r>   -1.2574    1.0000 </r>
       <r>   -0.9423    1.0000 </r>
       <r>   -0.4930    1.0000 </r>
       <r>   -0.4116    1.0000 </r>
       <r>   -0.1307    1.0000 </r>
       <r>    0.1786    1.0000 </r>
       <r>    0.3091    1.0000 </r>
       <r>    0.7130    1.0000 </r>
       <r>    1.0301    1.0000 </r>
       <r>    8.5222    0.0000 </r>
       <r>   10.3277    0.0000 </r>
       <r>   10.7485    0.0000 </r>
       <r>   10.8998    0.0000 </r>
       <r>   11.4242    0.0000 </r>
      </set>
      <set comment="kpoint 24">
       <r>  -18.2171    1.0000 </r>
       <r>  -17.2843    1.0000 </r>
       <r>  -16.5348    1.0000 </r>
       <r>  -16.2141    1.0000 </r>
       <r>  -16.1883    1.0000 </r>
       <r>  -16.1496    1.0000 </r>
       <r>   -7.7026    1.0000 </r>
       <r>   -6.3556    1.0000 </r>
       <r>   -4.6724    1.0000 </r>
       <r>   -4.3759    1.0000 </r>
       <r>   -4.1797    1.0000 </r>
       <r>   -3.9205    1.0000 </r>
       <r>   -2.0424    1.0000 </r>
       <r>   -1.6477    1.0000 </r>
       <r>   -1.5269    1.0000 </r>
       <r>   -1.1533    1.0000 </r>
       <r>   -0.8329    1.0000 </r>
       <r>   -0.4965    1.0000 </r>
       <r>   -0.3933    1.0000 </r>
       <r>   -0.2382    1.0000 </r>
       <r>    0.1621    1.0000 </r>
       <r>    0.4168    1.0000 </r>
       <r>    0.7527    1.0000 </r>
       <r>    1.0124    1.0000 </r>
       <r>    7.8912    0.0000 </r>
       <r>   10.2694    0.0000 </r>
       <r>   10.5116    0.0000 </r>
       <r>   10.6063    0.0000 </r>
       <r>   11.3009    0.0000 </r>
      </set>
      <set comment="kpoint 25">
       <r>  -17.8649    1.0000 </r>
       <r>  -17.3819    1.0000 </r>
       <r>  -16.8400    1.0000 </r>
       <r>  -16.2442    1.0000 </r>
       <r>  -16.2233    1.0000 </r>
       <r>  -16.1795    1.0000 </r>
       <r>   -7.2849    1.0000 </r>
       <r>   -6.1895    1.0000 </r>
       <r>   -5.1843    1.0000 </r>
       <r>   -4.3283    1.0000 </r>
       <r>   -4.0654    1.0000 </r>
       <r>   -3.6745    1.0000 </r>
       <r>   -2.0546    1.0000 </r>
       <r>   -1.8395    1.0000 </r>
       <r>   -1.6053    1.0000 </r>
       <r>   -1.1843    1.0000 </r>
       <r>   -0.9099    1.0000 </r>
       <r>   -0.6714    1.0000 </r>
       <r>   -0.3219    1.0000 </r>
       <r>   -0.1848    1.0000 </r>
       <r>    0.0736    1.0000 </r>
       <r>    0.4572    1.0000 </r>
       <r>    0.6529    1.0000 </r>
       <r>    1.0085    1.0000 </r>
       <r>    9.4462    0.0000 </r>
       <r>   10.3545    0.0000 </r>
       <r>   10.9115    0.0000 </r>
       <r>   11.0678    0.0000 </r>
       <r>   11.4822    0.0000 </r>
      </set>
      <set comment="kpoint 26">
       <r>  -17.7371    1.0000 </r>
       <r>  -17.4755    1.0000 </r>
       <r>  -16.8789    1.0000 </r>
       <r>  -16.2436    1.0000 </r>
       <r>  -16.2410    1.0000 </r>
       <r>  -16.1817    1.0000 </r>
       <r>   -7.2392    1.0000 </r>
       <r>   -5.9332    1.0000 </r>
       <r>   -5.5168    1.0000 </r>
       <r>   -4.2964    1.0000 </r>
       <r>   -4.0611    1.0000 </r>
       <r>   -3.6164    1.0000 </r>
       <r>   -2.0585    1.0000 </r>
       <r>   -1.7549    1.0000 </r>
       <r>   -1.7515    1.0000 </r>
       <r>   -0.9666    1.0000 </r>
       <r>   -0.9107    1.0000 </r>
       <r>   -0.8442    1.0000 </r>
       <r>   -0.3618    1.0000 </r>
       <r>   -0.2061    1.0000 </r>
       <r>    0.0279    1.0000 </r>
       <r>    0.5751    1.0000 </r>
       <r>    0.6208    1.0000 </r>
       <r>    0.9674    1.0000 </r>
       <r>   10.0553    0.0000 </r>
       <r>   10.2558    0.0000 </r>
       <r>   10.6653    0.0000 </r>
       <r>   11.4216    0.0000 </r>
       <r>   11.5033    0.0000 </r>
      </set>
      <set comment="kpoint 27">
       <r>  -17.8622    1.0000 </r>
       <r>  -17.3913    1.0000 </r>
       <r>  -16.8284    1.0000 </r>
       <r>  -16.2491    1.0000 </r>
       <r>  -16.2247    1.0000 </r>
       <r>  -16.1783    1.0000 </r>
       <r>   -7.2837    1.0000 </r>
       <r>   -6.1884    1.0000 </r>
       <r>   -5.1846    1.0000 </r>
       <r>   -4.3189    1.0000 </r>
       <r>   -4.0716    1.0000 </r>
       <r>   -3.6892    1.0000 </r>
       <r>   -2.0904    1.0000 </r>
       <r>   -1.8128    1.0000 </r>
       <r>   -1.5870    1.0000 </r>
       <r>   -1.1306    1.0000 </r>
       <r>   -0.8979    1.0000 </r>
       <r>   -0.7056    1.0000 </r>
       <r>   -0.4194    1.0000 </r>
       <r>   -0.1367    1.0000 </r>
       <r>    0.1232    1.0000 </r>
       <r>    0.3757    1.0000 </r>
       <r>    0.7396    1.0000 </r>
       <r>    0.9723    1.0000 </r>
       <r>    9.4565    0.0000 </r>
       <r>   10.4459    0.0000 </r>
       <r>   10.6062    0.0000 </r>
       <r>   11.2134    0.0000 </r>
       <r>   11.5933    0.0000 </r>
      </set>
      <set comment="kpoint 28">
       <r>  -18.0154    1.0000 </r>
       <r>  -17.3244    1.0000 </r>
       <r>  -16.7211    1.0000 </r>
       <r>  -16.2417    1.0000 </r>
       <r>  -16.2145    1.0000 </r>
       <r>  -16.1692    1.0000 </r>
       <r>   -7.4095    1.0000 </r>
       <r>   -6.3275    1.0000 </r>
       <r>   -4.9076    1.0000 </r>
       <r>   -4.3346    1.0000 </r>
       <r>   -4.0986    1.0000 </r>
       <r>   -3.8245    1.0000 </r>
       <r>   -2.1376    1.0000 </r>
       <r>   -1.7104    1.0000 </r>
       <r>   -1.4733    1.0000 </r>
       <r>   -1.2105    1.0000 </r>
       <r>   -0.8946    1.0000 </r>
       <r>   -0.6014    1.0000 </r>
       <r>   -0.4906    1.0000 </r>
       <r>   -0.0534    1.0000 </r>
       <r>    0.1616    1.0000 </r>
       <r>    0.2813    1.0000 </r>
       <r>    0.7952    1.0000 </r>
       <r>    0.9677    1.0000 </r>
       <r>    8.8070    0.0000 </r>
       <r>   10.3215    0.0000 </r>
       <r>   10.5741    0.0000 </r>
       <r>   11.0351    0.0000 </r>
       <r>   11.4151    0.0000 </r>
      </set>
      <set comment="kpoint 29">
       <r>  -17.8622    1.0000 </r>
       <r>  -17.3913    1.0000 </r>
       <r>  -16.8283    1.0000 </r>
       <r>  -16.2491    1.0000 </r>
       <r>  -16.2247    1.0000 </r>
       <r>  -16.1784    1.0000 </r>
       <r>   -7.2837    1.0000 </r>
       <r>   -6.1884    1.0000 </r>
       <r>   -5.1846    1.0000 </r>
       <r>   -4.3189    1.0000 </r>
       <r>   -4.0716    1.0000 </r>
       <r>   -3.6892    1.0000 </r>
       <r>   -2.0904    1.0000 </r>
       <r>   -1.8128    1.0000 </r>
       <r>   -1.5870    1.0000 </r>
       <r>   -1.1306    1.0000 </r>
       <r>   -0.8979    1.0000 </r>
       <r>   -0.7056    1.0000 </r>
       <r>   -0.4194    1.0000 </r>
       <r>   -0.1367    1.0000 </r>
       <r>    0.1232    1.0000 </r>
       <r>    0.3757    1.0000 </r>
       <r>    0.7396    1.0000 </r>
       <r>    0.9723    1.0000 </r>
       <r>    9.4565    0.0000 </r>
       <r>   10.4460    0.0000 </r>
       <r>   10.6056    0.0000 </r>
       <r>   11.2109    0.0000 </r>
       <r>   11.4579    0.0000 </r>
      </set>
      <set comment="kpoint 30">
       <r>  -17.8649    1.0000 </r>
       <r>  -17.3820    1.0000 </r>
       <r>  -16.8401    1.0000 </r>
       <r>  -16.2442    1.0000 </r>
       <r>  -16.2233    1.0000 </r>
       <r>  -16.1794    1.0000 </r>
       <r>   -7.2849    1.0000 </r>
       <r>   -6.1895    1.0000 </r>
       <r>   -5.1843    1.0000 </r>
       <r>   -4.3282    1.0000 </r>
       <r>   -4.0654    1.0000 </r>
       <r>   -3.6745    1.0000 </r>
       <r>   -2.0546    1.0000 </r>
       <r>   -1.8395    1.0000 </r>
       <r>   -1.6053    1.0000 </r>
       <r>   -1.1843    1.0000 </r>
       <r>   -0.9100    1.0000 </r>
[...]
       <r>    0.9095    1.0000 </r>
       <r>    9.9985    0.0000 </r>
       <r>   10.3860    0.0000 </r>
       <r>   10.7502    0.0000 </r>
       <r>   11.0613    0.0000 </r>
       <r>   11.4762    0.0000 </r>
      </set>
      <set comment="kpoint 53">
       <r>  -17.9099    1.0000 </r>
       <r>  -17.5820    1.0000 </r>
       <r>  -16.5722    1.0000 </r>
       <r>  -16.2387    1.0000 </r>
       <r>  -16.1926    1.0000 </r>
       <r>  -16.1669    1.0000 </r>
       <r>   -7.6796    1.0000 </r>
       <r>   -5.8249    1.0000 </r>
       <r>   -5.2274    1.0000 </r>
       <r>   -4.3120    1.0000 </r>
       <r>   -4.1515    1.0000 </r>
       <r>   -3.7695    1.0000 </r>
       <r>   -2.0605    1.0000 </r>
       <r>   -1.8400    1.0000 </r>
       <r>   -1.3872    1.0000 </r>
       <r>   -1.2444    1.0000 </r>
       <r>   -0.9357    1.0000 </r>
       <r>   -0.4971    1.0000 </r>
       <r>   -0.3555    1.0000 </r>
       <r>   -0.1464    1.0000 </r>
       <r>    0.0880    1.0000 </r>
       <r>    0.4569    1.0000 </r>
       <r>    0.7431    1.0000 </r>
       <r>    0.9081    1.0000 </r>
       <r>    9.2316    0.0000 </r>
       <r>   10.0938    0.0000 </r>
       <r>   10.5314    0.0000 </r>
       <r>   10.9187    0.0000 </r>
       <r>   11.2967    0.0000 </r>
      </set>
      <set comment="kpoint 54">
       <r>  -17.8825    1.0000 </r>
       <r>  -17.5263    1.0000 </r>
       <r>  -16.6763    1.0000 </r>
       <r>  -16.2474    1.0000 </r>
       <r>  -16.1887    1.0000 </r>
       <r>  -16.1698    1.0000 </r>
       <r>   -7.5439    1.0000 </r>
       <r>   -5.9378    1.0000 </r>
       <r>   -5.2252    1.0000 </r>
       <r>   -4.3341    1.0000 </r>
       <r>   -4.0603    1.0000 </r>
       <r>   -3.7849    1.0000 </r>
       <r>   -2.0815    1.0000 </r>
       <r>   -1.9448    1.0000 </r>
       <r>   -1.3191    1.0000 </r>
       <r>   -1.2549    1.0000 </r>
       <r>   -1.0039    1.0000 </r>
       <r>   -0.4108    1.0000 </r>
       <r>   -0.3001    1.0000 </r>
       <r>   -0.1106    1.0000 </r>
       <r>    0.1333    1.0000 </r>
       <r>    0.3277    1.0000 </r>
       <r>    0.6319    1.0000 </r>
       <r>    0.9804    1.0000 </r>
       <r>    9.3827    0.0000 </r>
       <r>   10.3575    0.0000 </r>
       <r>   10.5579    0.0000 </r>
       <r>   11.0827    0.0000 </r>
       <r>   11.2520    0.0000 </r>
      </set>
      <set comment="kpoint 55">
       <r>  -18.0064    1.0000 </r>
       <r>  -17.6724    1.0000 </r>
       <r>  -16.3558    1.0000 </r>
       <r>  -16.2111    1.0000 </r>
       <r>  -16.1823    1.0000 </r>
       <r>  -16.1449    1.0000 </r>
       <r>   -8.0286    1.0000 </r>
       <r>   -5.6349    1.0000 </r>
       <r>   -5.0471    1.0000 </r>
       <r>   -4.4289    1.0000 </r>
       <r>   -4.3435    1.0000 </r>
       <r>   -3.6770    1.0000 </r>
       <r>   -1.9177    1.0000 </r>
       <r>   -1.6399    1.0000 </r>
       <r>   -1.4909    1.0000 </r>
       <r>   -1.1486    1.0000 </r>
       <r>   -0.9748    1.0000 </r>
       <r>   -0.5671    1.0000 </r>
       <r>   -0.4505    1.0000 </r>
       <r>   -0.3458    1.0000 </r>
       <r>   -0.0175    1.0000 </r>
       <r>    0.6517    1.0000 </r>
       <r>    0.8164    1.0000 </r>
       <r>    1.0218    1.0000 </r>
       <r>    8.7492    0.0000 </r>
       <r>    9.8394    0.0000 </r>
       <r>   10.3318    0.0000 </r>
       <r>   10.6871    0.0000 </r>
       <r>   11.2043    0.0000 </r>
      </set>
     </set>
    </set>
   </array>
  </eigenvalues>
  <separator name="orbital magnetization" >
   <v name="MAGDIPOLOUT">      0.00000000      0.00000000      0.00000000</v>
  </separator>
  <dos>
   <i name="efermi">      1.12880731 </i>
   <total>
    <array>
     <dimension dim="1">gridpoints</dimension>
     <dimension dim="2">spin</dimension>
     <field>energy</field>
     <field>total</field>
     <field>integrated</field>
     <set>
      <set comment="spin 1">
       <r>   -20.3728     0.0000     0.0000 </r>
       <r>   -20.2594     0.0000     0.0000 </r>
       <r>   -20.1459     0.0000     0.0000 </r>
       <r>   -20.0324     0.0000     0.0000 </r>
       <r>   -19.9190     0.0000     0.0000 </r>
       <r>   -19.8055     0.0000     0.0000 </r>
       <r>   -19.6920     0.0000     0.0000 </r>
       <r>   -19.5786     0.0000     0.0000 </r>
       <r>   -19.4651     0.0000     0.0000 </r>
       <r>   -19.3516     0.0000     0.0000 </r>
       <r>   -19.2382     0.0000     0.0000 </r>
       <r>   -19.1247     0.0000     0.0000 </r>
       <r>   -19.0112     0.0000     0.0000 </r>
       <r>   -18.8978     0.0000     0.0000 </r>
       <r>   -18.7843     0.0000     0.0000 </r>
       <r>   -18.6709     0.0000     0.0000 </r>
       <r>   -18.5574     0.0000     0.0000 </r>
       <r>   -18.4439     0.0000     0.0000 </r>
       <r>   -18.3305     0.2353     0.0033 </r>
       <r>   -18.2170     1.2992     0.1104 </r>
       <r>   -18.1035     2.2276     0.3092 </r>
       <r>   -17.9901     3.9998     0.6622 </r>
       <r>   -17.8766     9.0144     1.2543 </r>
       <r>   -17.7631     0.8230     1.9755 </r>
       <r>   -17.6497     1.0628     2.0589 </r>
       <r>   -17.5362     2.0486     2.2321 </r>
       <r>   -17.4227     6.0022     2.6253 </r>
       <r>   -17.3093     3.4161     3.5736 </r>
       <r>   -17.1958     1.3837     3.8245 </r>
       <r>   -17.0823     0.6638     3.9340 </r>
       <r>   -16.9689     0.8996     4.0063 </r>
       <r>   -16.8554     5.6792     4.3072 </r>
       <r>   -16.7419     4.5170     5.2518 </r>
       <r>   -16.6285     2.2076     5.5948 </r>
       <r>   -16.5150     1.3574     5.7897 </r>
       <r>   -16.4016     0.8473     5.9160 </r>
       <r>   -16.2881     0.3476     5.9897 </r>
       <r>   -16.1746    69.0271    11.0054 </r>
       <r>   -16.0612     0.0000    12.0000 </r>
       <r>   -15.9477     0.0000    12.0000 </r>
       <r>   -15.8342     0.0000    12.0000 </r>
       <r>   -15.7208     0.0000    12.0000 </r>
       <r>   -15.6073     0.0000    12.0000 </r>
       <r>   -15.4938     0.0000    12.0000 </r>
       <r>   -15.3804     0.0000    12.0000 </r>
       <r>   -15.2669     0.0000    12.0000 </r>
       <r>   -15.1534     0.0000    12.0000 </r>
       <r>   -15.0400     0.0000    12.0000 </r>
       <r>   -14.9265     0.0000    12.0000 </r>
       <r>   -14.8130     0.0000    12.0000 </r>
       <r>   -14.6996     0.0000    12.0000 </r>
       <r>   -14.5861     0.0000    12.0000 </r>
       <r>   -14.4726     0.0000    12.0000 </r>
       <r>   -14.3592     0.0000    12.0000 </r>
       <r>   -14.2457     0.0000    12.0000 </r>
       <r>   -14.1322     0.0000    12.0000 </r>
       <r>   -14.0188     0.0000    12.0000 </r>
       <r>   -13.9053     0.0000    12.0000 </r>
       <r>   -13.7919     0.0000    12.0000 </r>
       <r>   -13.6784     0.0000    12.0000 </r>
       <r>   -13.5649     0.0000    12.0000 </r>
       <r>   -13.4515     0.0000    12.0000 </r>
       <r>   -13.3380     0.0000    12.0000 </r>
       <r>   -13.2245     0.0000    12.0000 </r>
       <r>   -13.1111     0.0000    12.0000 </r>
       <r>   -12.9976     0.0000    12.0000 </r>
       <r>   -12.8841     0.0000    12.0000 </r>
       <r>   -12.7707     0.0000    12.0000 </r>
       <r>   -12.6572     0.0000    12.0000 </r>
       <r>   -12.5437     0.0000    12.0000 </r>
       <r>   -12.4303     0.0000    12.0000 </r>
       <r>   -12.3168     0.0000    12.0000 </r>
       <r>   -12.2033     0.0000    12.0000 </r>
       <r>   -12.0899     0.0000    12.0000 </r>
       <r>   -11.9764     0.0000    12.0000 </r>
       <r>   -11.8629     0.0000    12.0000 </r>
       <r>   -11.7495     0.0000    12.0000 </r>
       <r>   -11.6360     0.0000    12.0000 </r>
       <r>   -11.5226     0.0000    12.0000 </r>
       <r>   -11.4091     0.0000    12.0000 </r>
       <r>   -11.2956     0.0000    12.0000 </r>
       <r>   -11.1822     0.0000    12.0000 </r>
       <r>   -11.0687     0.0000    12.0000 </r>
       <r>   -10.9552     0.0000    12.0000 </r>
       <r>   -10.8418     0.0000    12.0000 </r>
       <r>   -10.7283     0.0000    12.0000 </r>
       <r>   -10.6148     0.0000    12.0000 </r>
       <r>   -10.5014     0.0000    12.0000 </r>
       <r>   -10.3879     0.0000    12.0000 </r>
       <r>   -10.2744     0.0000    12.0000 </r>
       <r>   -10.1610     0.0000    12.0000 </r>
       <r>   -10.0475     0.0000    12.0000 </r>
       <r>    -9.9340     0.0000    12.0000 </r>
       <r>    -9.8206     0.0000    12.0000 </r>
       <r>    -9.7071     0.0000    12.0000 </r>
       <r>    -9.5936     0.0000    12.0000 </r>
       <r>    -9.4802     0.0000    12.0000 </r>
       <r>    -9.3667     0.0000    12.0000 </r>
       <r>    -9.2532     0.0000    12.0000 </r>
       <r>    -9.1398     0.0000    12.0000 </r>
       <r>    -9.0263     0.0000    12.0000 </r>
       <r>    -8.9129     0.0000    12.0000 </r>
       <r>    -8.7994     0.0000    12.0000 </r>
       <r>    -8.6859     0.0000    12.0000 </r>
       <r>    -8.5725     0.0000    12.0000 </r>
       <r>    -8.4590     0.0000    12.0000 </r>
       <r>    -8.3455     0.0000    12.0000 </r>
       <r>    -8.2321     0.0000    12.0000 </r>
       <r>    -8.1186     0.2400    12.0121 </r>
       <r>    -8.0051     0.4180    12.0552 </r>
       <r>    -7.8917     0.6168    12.1137 </r>
       <r>    -7.7782     0.8276    12.1959 </r>
       <r>    -7.6647     1.0876    12.3015 </r>
       <r>    -7.5513     1.5032    12.4477 </r>
       <r>    -7.4378     2.3064    12.6538 </r>
       <r>    -7.3243     8.7093    13.1340 </r>
       <r>    -7.2109     2.4713    13.7809 </r>
       <r>    -7.0974     0.6337    13.9411 </r>
       <r>    -6.9839     0.3378    13.9943 </r>
       <r>    -6.8705     0.2061    14.0235 </r>
       <r>    -6.7570     0.3293    14.0533 </r>
       <r>    -6.6436     0.4889    14.0993 </r>
       <r>    -6.5301     0.7993    14.1704 </r>
       <r>    -6.4166     1.3301    14.2891 </r>
       <r>    -6.3032     2.7464    14.4914 </r>
       <r>    -6.1897     6.5674    15.0255 </r>
       <r>    -6.0762     2.5418    15.4736 </r>
       <r>    -5.9628     1.4259    15.6924 </r>
       <r>    -5.8493     0.9288    15.8221 </r>
       <r>    -5.7358     0.6308    15.9099 </r>
       <r>    -5.6224     0.6311    15.9717 </r>
       <r>    -5.5089     0.0914    16.0038 </r>
       <r>    -5.3954     1.8240    16.0987 </r>
       <r>    -5.2820     3.6852    16.4116 </r>
       <r>    -5.1685     2.8823    16.7793 </r>
       <r>    -5.0550     2.8915    17.1081 </r>
       <r>    -4.9416     2.2426    17.4047 </r>
       <r>    -4.8281     1.5598    17.6149 </r>
       <r>    -4.7146     1.1478    17.7673 </r>
       <r>    -4.6012     0.8114    17.8785 </r>
       <r>    -4.4877     0.9771    17.9616 </r>
       <r>    -4.3742    10.9678    18.2674 </r>
       <r>    -4.2608     9.5072    19.9863 </r>
       <r>    -4.1473     5.8475    20.8432 </r>
       <r>    -4.0339     5.4753    21.5738 </r>
       <r>    -3.9204     1.5851    22.0988 </r>
       <r>    -3.8069     8.2678    22.8186 </r>
       <r>    -3.6935     4.4289    23.5586 </r>
       <r>    -3.5800     1.9935    23.9252 </r>
       <r>    -3.4665     0.0030    24.0000 </r>
       <r>    -3.3531     0.0000    24.0000 </r>
       <r>    -3.2396     0.0000    24.0000 </r>
       <r>    -3.1261     0.0000    24.0000 </r>
       <r>    -3.0127     0.0000    24.0000 </r>
       <r>    -2.8992     0.0000    24.0000 </r>
       <r>    -2.7857     0.0000    24.0000 </r>
       <r>    -2.6723     0.0000    24.0000 </r>
       <r>    -2.5588     0.0000    24.0000 </r>
       <r>    -2.4453     0.0000    24.0000 </r>
       <r>    -2.3319     0.0000    24.0000 </r>
       <r>    -2.2184     0.0000    24.0000 </r>
       <r>    -2.1049    11.5406    24.4550 </r>
       <r>    -1.9915     7.2905    25.8011 </r>
       <r>    -1.8780     5.3622    26.4553 </r>
       <r>    -1.7646     7.0857    27.2856 </r>
       <r>    -1.6511     7.7014    28.0241 </r>
       <r>    -1.5376    10.4000    28.8048 </r>
       <r>    -1.4242     5.3598    29.7127 </r>
       <r>    -1.3107     0.9467    30.0240 </r>
       <r>    -1.1972    15.9975    30.6577 </r>
       <r>    -1.0838     3.0345    31.7931 </r>
       <r>    -0.9703     9.9353    32.2349 </r>
       <r>    -0.8568     1.8404    33.8347 </r>
       <r>    -0.7434     2.8078    34.0461 </r>
       <r>    -0.6299     5.9785    34.6575 </r>
       <r>    -0.5164    11.2418    35.5607 </r>
       <r>    -0.4030    15.1407    36.8194 </r>
       <r>    -0.2895     4.8283    37.6529 </r>
       <r>    -0.1760    11.0319    38.2833 </r>
       <r>    -0.0626    10.3729    39.5580 </r>
       <r>     0.0509     6.3333    40.2528 </r>
       <r>     0.1644    13.1261    41.7224 </r>
       <r>     0.2778     2.5426    42.0419 </r>
       <r>     0.3913    12.9993    43.1038 </r>
       <r>     0.5047     4.2556    43.8095 </r>
       <r>     0.6182     4.5779    44.3343 </r>
       <r>     0.7317     8.9795    45.0727 </r>
       <r>     0.8451     5.1766    46.1221 </r>
       <r>     0.9586     8.7823    46.8691 </r>
       <r>     1.0721     1.2455    47.9878 </r>
       <r>     1.1855     0.0000    48.0000 </r>
       <r>     1.2990     0.0000    48.0000 </r>
       <r>     1.4125     0.0000    48.0000 </r>
       <r>     1.5259     0.0000    48.0000 </r>
       <r>     1.6394     0.0000    48.0000 </r>
       <r>     1.7529     0.0000    48.0000 </r>
       <r>     1.8663     0.0000    48.0000 </r>
       <r>     1.9798     0.0000    48.0000 </r>
       <r>     2.0933     0.0000    48.0000 </r>
       <r>     2.2067     0.0000    48.0000 </r>
       <r>     2.3202     0.0000    48.0000 </r>
       <r>     2.4337     0.0000    48.0000 </r>
       <r>     2.5471     0.0000    48.0000 </r>
       <r>     2.6606     0.0000    48.0000 </r>
       <r>     2.7741     0.0000    48.0000 </r>
       <r>     2.8875     0.0000    48.0000 </r>
       <r>     3.0010     0.0000    48.0000 </r>
       <r>     3.1144     0.0000    48.0000 </r>
       <r>     3.2279     0.0000    48.0000 </r>
       <r>     3.3414     0.0000    48.0000 </r>
       <r>     3.4548     0.0000    48.0000 </r>
       <r>     3.5683     0.0000    48.0000 </r>
       <r>     3.6818     0.0000    48.0000 </r>
       <r>     3.7952     0.0000    48.0000 </r>
       <r>     3.9087     0.0000    48.0000 </r>
       <r>     4.0222     0.0000    48.0000 </r>
       <r>     4.1356     0.0000    48.0000 </r>
       <r>     4.2491     0.0000    48.0000 </r>
       <r>     4.3626     0.0000    48.0000 </r>
       <r>     4.4760     0.0000    48.0000 </r>
       <r>     4.5895     0.0000    48.0000 </r>
       <r>     4.7030     0.0000    48.0000 </r>
       <r>     4.8164     0.0000    48.0000 </r>
       <r>     4.9299     0.0000    48.0000 </r>
       <r>     5.0434     0.0000    48.0000 </r>
       <r>     5.1568     0.0000    48.0000 </r>
       <r>     5.2703     0.0000    48.0000 </r>
       <r>     5.3837     0.0000    48.0000 </r>
       <r>     5.4972     0.0000    48.0000 </r>
       <r>     5.6107     0.0000    48.0000 </r>
       <r>     5.7241     0.0000    48.0000 </r>
       <r>     5.8376     0.0000    48.0000 </r>
       <r>     5.9511     0.0000    48.0000 </r>
       <r>     6.0645     0.0000    48.0000 </r>
       <r>     6.1780     0.0000    48.0000 </r>
       <r>     6.2915     0.0000    48.0000 </r>
       <r>     6.4049     0.0000    48.0000 </r>
       <r>     6.5184     0.0000    48.0000 </r>
       <r>     6.6319     0.0000    48.0000 </r>
       <r>     6.7453     0.0000    48.0000 </r>
       <r>     6.8588     0.0000    48.0000 </r>
       <r>     6.9723     0.0000    48.0000 </r>
       <r>     7.0857     0.0000    48.0000 </r>
       <r>     7.1992     0.0061    48.0002 </r>
       <r>     7.3127     0.0368    48.0023 </r>
       <r>     7.4261     0.0934    48.0095 </r>
       <r>     7.5396     0.1815    48.0246 </r>
       <r>     7.6531     0.2368    48.0486 </r>
       <r>     7.7665     0.2717    48.0776 </r>
       <r>     7.8800     0.2892    48.1096 </r>
       <r>     7.9934     0.3316    48.1447 </r>
       <r>     8.1069     0.3785    48.1850 </r>
       <r>     8.2204     0.4279    48.2307 </r>
       <r>     8.3338     0.4797    48.2822 </r>
       <r>     8.4473     0.5336    48.3397 </r>
       <r>     8.5608     0.6457    48.4052 </r>
       <r>     8.6742     0.7973    48.4871 </r>
       <r>     8.7877     0.8060    48.5824 </r>
       <r>     8.9012     0.8656    48.6773 </r>
       <r>     9.0146     0.9271    48.7789 </r>
       <r>     9.1281     0.9905    48.8877 </r>
       <r>     9.2416     1.0556    49.0038 </r>
       <r>     9.3550     1.5076    49.1484 </r>
       <r>     9.4685     1.4483    49.3203 </r>
       <r>     9.5820     1.2552    49.4702 </r>
       <r>     9.6954     1.3336    49.6129 </r>
       <r>     9.8089     1.5157    49.7773 </r>
       <r>     9.9224     2.1396    49.9703 </r>
       <r>    10.0358     1.1914    50.1488 </r>
       <r>    10.1493     1.3612    50.2793 </r>
       <r>    10.2627     3.7401    50.5495 </r>
       <r>    10.3762    12.2119    51.4194 </r>
       <r>    10.4897     3.9953    52.1624 </r>
       <r>    10.6031     6.8013    52.7104 </r>
       <r>    10.7166     7.2086    53.5974 </r>
       <r>    10.8301     3.8154    54.2783 </r>
       <r>    10.9435     2.7115    54.5946 </r>
       <r>    11.0570     5.6325    55.0463 </r>
       <r>    11.1705     4.0844    55.8271 </r>
       <r>    11.2839     5.7188    56.2802 </r>
       <r>    11.3974     5.5978    56.8940 </r>
       <r>    11.5109     5.6399    57.5416 </r>
       <r>    11.6243     1.2479    57.9815 </r>
       <r>    11.7378     0.0000    58.0000 </r>
       <r>    11.8513     0.0000    58.0000 </r>
       <r>    11.9647     0.0000    58.0000 </r>
       <r>    12.0782     0.0000    58.0000 </r>
       <r>    12.1917     0.0000    58.0000 </r>
       <r>    12.3051     0.0000    58.0000 </r>
       <r>    12.4186     0.0000    58.0000 </r>
       <r>    12.5320     0.0000    58.0000 </r>
       <r>    12.6455     0.0000    58.0000 </r>
       <r>    12.7590     0.0000    58.0000 </r>
       <r>    12.8724     0.0000    58.0000 </r>
       <r>    12.9859     0.0000    58.0000 </r>
       <r>    13.0994     0.0000    58.0000 </r>
       <r>    13.2128     0.0000    58.0000 </r>
       <r>    13.3263     0.0000    58.0000 </r>
       <r>    13.4398     0.0000    58.0000 </r>
       <r>    13.5532     0.0000    58.0000 </r>
       <r>    13.6667     0.0000    58.0000 </r>
      </set>
     </set>
    </array>
   </total>
  </dos>
 </calculation>
 <structure name="finalpos" >
  <crystal>
   <varray name="basis" >
    <v>       4.91370000       0.00000000       0.00000000 </v>
    <v>      -2.45685000       4.25538903       0.00000000 </v>
    <v>       0.00000000       0.00000000       5.40513000 </v>
   </varray>
   <i name="volume">    113.01967420 </i>
   <varray name="rec_basis" >
    <v>       0.20351263       0.11749807       0.00000000 </v>
    <v>       0.00000000       0.23499614       0.00000000 </v>
    <v>       0.00000000       0.00000000       0.18500943 </v>
   </varray>
  </crystal>
  <varray name="positions" >
   <v>       0.46980000       0.00000000       0.66667000 </v>
   <v>       0.00000000       0.46980000       0.33333000 </v>
   <v>       0.53020000       0.53020000       0.00000000 </v>
   <v>       0.41450000       0.26620000       0.78560000 </v>
   <v>       0.73380000       0.14830000       0.45227000 </v>
   <v>       0.85170000       0.58550000       0.11893000 </v>
   <v>       0.14830000       0.73380000       0.54773000 </v>
   <v>       0.26620000       0.41450000       0.21440000 </v>
   <v>       0.58550000       0.85170000       0.88107000 </v>
  </varray>
 </structure>
</modeling>
