unknown system                          
   1.00000000000000     
     4.913700    0.000000    0.000000
    -2.456850    4.255389    0.000000
     0.000000    0.000000    5.405130
   Si   O 
     3     6
Direct
  0.469800  0.020000  0.666670
  0.000000  0.469800  0.333330
  0.530200  0.530200  0.000000
  0.414500  0.266200  0.785600
  0.733800  0.148300  0.452270
  0.851700  0.585500  0.118930
  0.148300  0.733800  0.547730
  0.266200  0.414500  0.214400
  0.585500  0.851700  0.881070
 
   56   56   64
  1.4873      1.4192      1.3984      1.4120      1.4522      1.5153      1.5997      1.7036      1.8241      1.9572    
  2.0991      2.2459      2.3939      2.5392      2.6775      2.8065      2.9278      3.0503      3.1901      3.3691    
  3.6128      3.9506      4.4204      5.0745      5.9836      7.2343      8.9188      11.122      13.908      17.317    
  21.349      25.948      30.963      36.106      40.940      44.925      47.514      48.304      47.148      44.213    
  39.920      34.826      29.477      24.309      19.608      15.520      12.094      9.3140      7.1283      5.4588    
  4.2145      3.3028      2.6422      2.1693      1.8393      1.6203      1.4350      1.3634      1.3440      1.3647    
  1.4182      1.5006      1.6105      1.7462      1.9048      2.0818      2.2716      2.4684      2.6661      2.8579    
  3.0364      3.1952      3.3306      3.4446      3.5475      3.6573      3.7974      3.9945      4.2787      4.6873    
  5.2694      6.0879      7.2151      8.7231      10.670      13.090      15.981      19.298      22.939      26.727    
  30.392      33.590      35.945      37.135      36.974      35.469      32.818      29.355      25.461      21.487    
  17.701      14.282      11.323      8.8574      6.8725      5.3224      4.1422      3.2601      2.6096      2.1365    
  1.8011      1.5746      1.4284      1.3587      1.3437      1.3727      1.4390      1.5392      1.6723      1.8371    
  2.0314      2.2510      2.4900      2.7412      2.9959      3.2447      3.4768      3.6810      3.8483      3.9741    
  4.0616      4.1232      4.1795      4.2566      4.3830      4.5900      4.9138      5.3985      6.0971      7.0668    
  8.3595      10.010      12.027      14.379      16.996      19.757      22.490      24.972      26.955      28.202    
  28.543      27.920      26.400      24.161      21.447      18.511      15.579      12.823      10.358      8.2449    
  6.5010      5.1078      4.0238      3.1971      2.5767      2.1190      1.7907      1.5669      1.4551      1.3935    
  1.3873      1.4272      1.5074      1.6252      1.7803      1.9726      2.2010      2.4624      2.7518      3.0616    
  3.3816      3.6994      4.0002      4.2679      4.4874      4.6471      4.7425      4.7791      4.7729      4.7487    
  4.7365      4.7681      4.8759      5.0941      5.4611      6.0187      6.8087      7.8646      9.2025      10.811    
  12.646      14.625      16.630      18.514      20.108      21.245      21.789      21.664      20.872      19.495    
  17.676      15.586      13.396      11.253      9.2706      7.5199      6.0362      4.8222      3.8569      3.1062    
  2.5333      2.1052      1.7956      1.5844      1.5077      1.4608      1.4685      1.5229      1.6192      1.7558    
  1.9331      2.1522      2.4137      2.7165      3.0571      3.4292      3.8222      4.2213      4.6074      4.9589    
  5.2535      5.4718      5.6009      5.6382      5.5934      5.4883      5.3541      5.2262      5.1403      5.1299    
  5.2268      5.4623      5.8671      6.4682      7.2838      8.3150      9.5395      10.906      12.337      13.728    
  14.964      15.923      16.502      16.629      16.278      15.478      14.305      12.868      11.286      9.6760    
  8.1346      6.7319      5.5099      4.4844      3.6504      2.9891      2.4766      2.0897      1.8092      1.6198    
  1.5826      1.5570      1.5842      1.6575      1.7732      1.9307      2.1315      2.3779      2.6723      3.0160    
  3.4084      3.8453      4.3173      4.8084      5.2962      5.7526      6.1475      6.4522      6.6440      6.7111    
  6.6551      6.4931      6.2553      5.9812      5.7130      5.4906      5.3479      5.3135      5.4112      5.6609    
  6.0766      6.6632      7.4117      8.2944      9.2619      10.245      11.161      11.921      12.447      12.675    
  12.572      12.140      11.414      10.458      9.3517      8.1795      7.0185      5.9301      4.9556      4.1164    
  3.4176      2.8524      2.4085      2.0718      1.8295      1.6700      1.6783      1.6806      1.7332      1.8305    
  1.9700      2.1518      2.3784      2.6535      2.9811      3.3655      3.8093      4.3117      4.8661      5.4573    
  6.0606      6.6422      7.1633      7.5845      7.8717      8.0014      7.9660      7.7753      7.4570      7.0525    
  6.6111      6.1824      5.8098      5.5271      5.3582      5.3193      5.4199      5.6633      6.0446      6.5479    
  7.1438      7.7876      8.4220      8.9835      9.4103      9.6509      9.6713      9.4598      9.0291      8.4131    
  7.6615      6.8320      5.9818      5.1607      4.4055      3.7389      3.1710      2.7035      2.3329      2.0529    
  1.8559      1.7339      1.7929      1.8299      1.9144      2.0418      2.2104      2.4213      2.6777      2.9840    
  3.3461      3.7707      4.2643      4.8307      5.4676      6.1626      6.8907      7.6144      8.2863      8.8552    
  9.2733      9.5032      9.5247      9.3389      8.9681      8.4541      7.8518      7.2211      6.6185      6.0897    
  5.6665      5.3673      5.2001      5.1657      5.2583      5.4656      5.7673      6.1339      6.5271      6.9018    
  7.2111      7.4129      7.4757      7.3831      7.1350      6.7472      6.2484      5.6753      5.0674      4.4618    
  3.8894      3.3722      2.9236      2.5504      2.2544      2.0348      1.8884      1.8100      1.9235      2.0018    
  2.1252      2.2899      2.4948      2.7415      3.0333      3.3753      3.7743      4.2391      4.7802      5.4066    
  6.1219      6.9190      7.7755      8.6522      9.4953      10.242      10.828      11.199      11.320      11.178    
  10.788      10.191      9.4456      8.6209      7.7876      7.0072      6.3255      5.7702      5.3526      5.0728    
  4.9229      4.8898      4.9560      5.0990      5.2911      5.4994      5.6885      5.8248      5.8807      5.8383    
  5.6916      5.4458      5.1160      4.7243      4.2959      3.8564      3.4297      3.0361      2.6904      2.4025    
  2.1780      2.0193      1.9264      1.8962      2.0660      2.1915      2.3611      2.5714      2.8216      3.1131    
  3.4489      3.8338      4.2746      4.7814      5.3678      6.0485      6.8345      7.7260      8.7068      9.7397    
  10.767      11.716      12.506      13.063      13.330      13.278      12.910      12.262      11.396      10.391    
  9.3297      8.2923      7.3420      6.5213      5.8511      5.3340      4.9610      4.7171      4.5842      4.5413    
  4.5649      4.6285      4.7039      4.7637      4.7839      4.7475      4.6454      4.4774      4.2504      3.9767    
  3.6721      3.3539      3.0393      2.7447      2.4844      2.2699      2.1098      2.0092      1.9698      1.9902    
  2.2161      2.3931      2.6158      2.8808      3.1868      3.5347      3.9266      4.3656      4.8571      5.4111    
  6.0432      6.7730      7.6195      8.5929      9.6861      10.868      12.083      13.249      14.274      15.059    
  15.524      15.616      15.319      14.661      13.703      12.535      11.254      9.9577      8.7292      7.6292    
  6.6929      5.9313      5.3372      4.8932      4.5779      4.3690      4.2438      4.1781      4.1475      4.1276    
  4.0968      4.0384      3.9426      3.8060      3.6312      3.4249      3.1972      2.9598      2.7252      2.5057    
  2.3134      2.1602      2.0559      2.0078      2.0192      2.0897      2.3694      2.6002      2.8814      3.2095    
  3.5830      4.0014      4.4648      4.9735      5.5302      6.1424      6.8259      7.6036      8.5021      9.5421    
  10.729      12.044      13.435      14.821      16.097      17.146      17.859      18.152      17.986      17.370    
  16.362      15.056      13.568      12.015      10.502      9.1087      7.8896      6.8679      6.0427      5.3958    
  4.9018      4.5340      4.2678      4.0798      3.9466      3.8448      3.7534      3.6553      3.5396      3.4015    
  3.2414      3.0636      2.8745      2.6823      2.4963      2.3266      2.1840      2.0790      2.0213      2.0187    
  2.0757      2.1933      2.5219      2.8060      3.1484      3.5468      3.9988      4.5026      5.0554      5.6539    
  6.2960      6.9851      7.7340      8.5664      9.5140      10.608      11.867      13.287      14.830      16.419    
  17.945      19.276      20.276      20.829      20.860      20.352      19.349      17.949      16.278      14.477    
  12.675      10.978      9.4593      8.1589      7.0853      6.2235      5.5450      5.0178      4.6123      4.3026    
  4.0650      3.8766      3.7160      3.5649      3.4107      3.2470      3.0732      2.8927      2.7103      2.5323    
  2.3660      2.2209      2.1070      2.0342      2.0109      2.0444      2.1397      2.2990      2.6689      3.0030    
  3.4066      3.8788      4.4180      5.0208      5.6816      6.3925      7.1456      7.9378      8.7761      9.6811    
  10.686      11.829      13.142      14.637      16.292      18.046      19.795      21.401      22.705      23.560    
  23.852      23.528      22.607      21.175      19.368      17.345      15.263      13.256      11.423      9.8250    
  8.4830      7.3891      6.5150      5.8230      5.2764      4.8432      4.4972      4.2150      3.9751      3.7583    
  3.5499      3.3414      3.1309      2.9210      2.7170      2.5251      2.3523      2.2071      2.0989      2.0376    
  2.0318      2.0883      2.2118      2.4051      2.8059      3.1834      3.6443      4.1900      4.8203      5.5318    
  6.3165      7.1620      8.0540      8.9815      9.9427      10.951      12.035      13.236      14.593      16.134    
  17.857      19.722      21.639      23.477      25.069      26.241      26.841      26.774      26.020      24.644    
  22.776      20.588      18.259      15.954      13.802      11.891      10.262      8.9185      7.8349      6.9700    
  6.2787      5.7206      5.2631      4.8802      4.5499      4.2527      3.9732      3.7010      3.4322      3.1688    
  2.9167      2.6836      2.4774      2.3061      2.1787      2.1053      2.0955      2.1569      2.2942      2.5100    
  2.9300      3.3402      3.8499      4.4633      5.1827      6.0060      6.9245      7.9223      8.9792      10.076    
  11.199      12.352      13.553      14.837      16.246      17.815      19.563      21.473      23.482      25.476    
  27.299      28.762      29.685      29.926      29.422      28.200      26.372      24.109      21.605      19.049    
  16.601      14.381      12.456      10.849      9.5437      8.4976      7.6588      6.9764      6.4080      5.9209    
  5.4903      5.0968      4.7251      4.3653      4.0130      3.6700      3.3425      3.0393      2.7697      2.5430    
  2.3687      2.2572      2.2189      2.2625      2.3936      2.6154      3.0429      3.4695      4.0139      4.6829    
  5.4821      6.4119      7.4646      8.6234      9.8637      11.158      12.485      13.830      15.197      16.608    
  18.095      19.695      21.438      23.331      25.343      27.394      29.351      31.035      32.248      32.814    
  32.619      31.643      29.965      27.741      25.169      22.453      19.779      17.293      15.093      13.227    
  11.697      10.466      9.4801      8.6777      8.0039      7.4150      6.8794      6.3751      5.8879      5.4100    
  4.9398      4.4814      4.0427      3.6339      3.2658      2.9499      2.6971      2.5182      2.4238      2.4230    
  2.5231      2.7287      3.1531      3.5732      4.1316      4.8372      5.6986      6.7197      7.8960      9.2118    
  10.642      12.153      13.714      15.297      16.886      18.479      20.092      21.750      23.483      25.317    
  27.252      29.250      31.219      33.012      34.436      35.293      35.425      34.761      33.331      31.265    
  28.753      26.006      23.223      20.570      18.167      16.088      14.357      12.955      11.831      10.918    
  10.150      9.4689      8.8313      8.2086      7.5849      6.9553      6.3233      5.6992      5.0968      4.5316    
  4.0184      3.5707      3.2006      2.9191      2.7361      2.6610      2.7017      2.8642      3.2764      3.6615    
  4.2063      4.9218      5.8194      6.9068      8.1837      9.6382      11.247      12.976      14.788      16.642    
  18.502      20.341      22.142      23.910      25.661      27.425      29.229      31.078      32.926      34.663    
  36.136      37.165      37.582      37.269      36.194      34.428      32.124      29.491      26.750      24.077    
  21.605      19.421      17.568      16.044      14.813      13.812      12.968      12.212      11.486      10.747    
  9.9743      9.1626      8.3213      7.4701      6.6345      5.8413      5.1144      4.4728      3.9309      3.4996    
  3.1879      3.0037      2.9534      3.0425      3.4346      3.7521      4.2503      4.9422      5.8421      6.9614    
  8.3045      9.8648      11.623      13.550      15.606      17.743      19.908      22.045      24.104      26.052    
  27.882      29.609      31.273      32.898      34.455      35.902      37.169      38.147      38.694      38.678    
  38.020      36.723      34.872      32.613      30.129      27.620      25.261      23.142      21.310      19.774    
  18.511      17.472      16.591      15.790      14.999      14.161      13.239      12.224      11.130      9.9873    
  8.8378      7.7254      6.6903      5.7643      4.9697      4.3203      3.8242      3.4854      3.3061      3.2881    
  3.6533      3.8686      4.2844      4.9149      5.7770      6.8862      8.2515      9.8721      11.736      13.818    
  16.085      18.488      20.961      23.428      25.802      28.009      30.000      31.766      33.328      34.672    
  35.786      36.703      37.460      38.062      38.458      38.551      38.247      37.494      36.304      34.742    
  32.908      30.925      28.936      27.096      25.487      24.112      22.955      21.982      21.137      20.349    
  19.540      18.637      17.585      16.361      14.978      13.479      11.928      10.391      8.9315      7.6031    
  6.4441      5.4781      4.7153      4.1563      3.7965      3.6299      3.9620      4.0377      4.3347      4.8649    
  5.6467      6.6991      8.0359      9.6623      11.573      13.751      16.171      18.790      21.542      24.335    
  27.054      29.583      31.827      33.734      35.268      36.343      36.939      37.134      37.078      36.923    
  36.770      36.634      36.463      36.187      35.755      35.144      34.351      33.382      32.264      31.072    
  29.931      28.942      28.093      27.353      26.680      26.015      25.278      24.381      23.246      21.830    
  20.135      18.218      16.166      14.081      12.062      10.189      8.5262      7.1125      5.9674      5.0924    
  4.4773      4.1057      4.3989      4.2900      4.4302      4.8226      5.4827      6.4313      7.6868      9.2599    
  11.152      13.354      15.851      18.610      21.575      24.649      27.703      30.585      33.154      35.307    
  36.925      37.825      37.932      37.326      36.228      34.950      33.790      32.955      32.526      32.479    
  32.737      33.202      33.753      34.252      34.564      34.611      34.409      34.083      33.780      33.501    
  33.213      32.860      32.360      31.609      30.496      28.947      26.944      24.548      21.881      19.098    
  16.348      13.758      11.421      9.3976      7.7220      6.4025      5.4269      4.7694      5.0164      4.6629    
  4.6024      4.8202      5.3212      6.1231      7.2469      8.7086      10.515      12.666      15.154      17.961    
  21.043      24.317      27.650      30.869      33.796      36.276      38.107      38.991      38.754      37.411    
  35.199      32.544      29.956      27.898      26.678      26.418      27.089      28.557      30.596      32.907    
  35.152      37.038      38.402      39.263      39.803      40.244      40.609      40.845      40.854      40.497    
  39.615      38.078      35.828      32.921      29.516      25.842      22.135      18.595      15.365      12.533    
  10.148      8.2240      6.7513      5.6971      5.8855      5.2060      4.8881      4.8906      5.1983      5.8176    
  6.7669      8.0651      9.7249      11.752      14.146      16.902      19.996      23.361      26.877      30.369    
  33.634      36.478      38.632      39.687      39.334      37.471      34.269      30.192      25.921      22.189    
  19.606      18.547      19.133      21.278      24.704      28.966      33.500      37.742      41.272      43.934    
  45.841      47.301      48.608      49.770      50.663      51.085      50.794      49.560      47.248      43.876    
  39.636      34.851      29.890      25.080      20.654      16.751      13.432      10.713      8.5772      6.9872    
  7.0932      5.9824      5.3318      5.0688      5.1483      5.5554      6.2973      7.3910      8.8530      10.694    
  12.921      15.536      18.533      21.871      25.453      29.116      32.650      35.836      38.378      39.771    
  39.566      37.506      33.629      28.340      22.397      16.760      12.361      9.8993      9.7551      11.997    
  16.400      22.444      29.363      36.285      42.464      47.480      51.313      54.270      56.807      59.226    
  61.427      63.128      63.953      63.515      61.529      57.914      52.853      46.769      40.213      33.715    
  27.679      22.338      17.788      14.034      11.041      8.7510      8.7322      7.0650      5.9871      5.3935    
  5.2037      5.3713      5.8824      6.7439      7.9715      9.5797      11.580      13.982      16.791      19.991    
  23.514      27.226      30.925      34.383      37.311      39.159      39.348      37.458      33.349      27.284    
  19.982      12.527      6.1221      1.8104     0.29626      1.9051      6.5836      13.871      22.895      32.510    
  41.592      49.366      55.587      60.503      64.656      68.591      72.474      75.972      78.548      79.592    
  78.576      75.215      69.594      62.189      53.753      45.108      36.936      29.664      23.471      18.367    
  14.277      11.100      10.888      8.5267      6.9116      5.9075      5.3964      5.2945      5.5567      6.1706    
  7.1433      8.4895      10.224      12.361      14.914      17.886      21.240      24.878      28.625      32.255    
  35.506      37.856      38.627      37.252      33.404      27.147      19.050      10.187      1.9259     -4.3969    
 -7.7408     -7.4703     -3.3702      4.3006      14.733      26.631      38.520      49.201      58.091      65.294    
  71.387      77.079      82.852      88.540      93.462      96.751      97.554      95.261      89.712      81.310    
  70.957      59.811      48.954      39.156      30.789      23.917      18.424      14.137      13.627      10.427    
  8.1583      6.6528      5.7579      5.3496      5.3451      5.7035      6.4151      7.4883      8.9385      10.782    
  13.037      15.719      18.819      22.276      25.955      29.652      33.125      35.951      37.417      36.839    
  33.718      27.901      19.731      10.133     0.48881     -7.6748     -13.023     -14.605     -11.895     -4.8491    
  5.9599      19.286      33.442      46.817      58.398      68.015      76.193      83.776      91.475      99.472    
  107.10      113.27      116.77      116.56      112.09      103.49      91.653      77.998      64.088      51.194    
  40.055      30.899      23.615      17.947      16.988      12.800      9.7633      7.6641      6.3160      5.5572    
  5.2644      5.3616      5.8152      6.6197      7.7850      9.3282      11.270      13.630      16.421      19.619    
  23.133      26.796      30.387      33.602      35.792      36.201      34.194      29.413      21.941      12.445    
  2.1546     -7.3661     -14.580     -18.251     -17.543     -12.073     -2.0620      11.502      26.943      42.366    
  56.315      68.221      78.424      87.812      97.309      107.40      117.72      127.04      133.86      136.72    
  134.53      126.95      114.63      99.047      82.173      65.876      51.455      39.484      29.967      22.597    
  20.974      15.645      11.735      8.9583      7.0893      5.9320      5.3247      5.1538      5.3556      5.9047    
  6.7996      8.0534      9.6866      11.722      14.182      17.072      20.349      23.897      27.527      31.004    
  33.862      35.340      34.716      31.462      25.408      16.902      6.8839     -3.2335     -11.859     -17.545    
 -19.170     -16.017     -7.9088      4.5698      19.990      36.403      52.003      65.771      77.713      88.623    
  99.560      111.29      123.82      136.08      146.39      153.01      154.28      149.09      137.59      121.25    
  102.17      82.707      64.828      49.663      37.507      28.103      25.529      18.919      14.044      10.526    
  8.0801      6.4795      5.5298      5.0812      5.0366      5.3463      5.9933      6.9819      8.3288      10.057    
  12.192      14.760      17.759      21.128      24.732      28.369      31.759      34.273      35.151      33.749    
  29.684      22.987      14.220      4.4764     -4.7948     -12.077     -16.030     -15.626     -10.289     -.13394    
  13.842      29.888      46.058      60.938      74.100      86.077      97.927      110.63      124.57      139.05    
  152.42      162.86      168.29      166.83      157.75      142.04      122.05      100.37      79.434      61.073    
  46.070      34.384      30.500      22.519      16.622      12.322      9.2670      7.1915      5.8754      5.1385    
  4.8508      4.9358      5.3589      6.1123      7.2049      8.6564      10.495      12.755      15.465      18.619    
  22.142      25.884      29.641      33.038      35.372      35.940      34.205      29.928      23.287      14.955    
  6.0480     -2.0515     -7.9226     -10.297     -8.2340     -1.3636      9.8529      24.083      39.497      54.449    
  68.082      80.536      92.689      105.62      120.00      135.60      151.05      164.55      173.98      176.93    
  171.75      158.52      139.20      116.75      93.857      72.861      55.185      41.180      35.601      26.269    
  19.347      14.266      10.600      8.0410      6.3464      5.3138      4.7854      4.6584      4.8792      5.4266    
  6.2996      7.5125      9.0925      11.079      13.518      16.446      19.851      23.648      27.676      31.720    
  35.308      37.745      38.405      36.849      32.933      26.900      19.420      11.547      4.5766     -.12919    
 -1.3529      1.7187      9.1953      20.312      33.597      47.409      60.578      72.806      84.637      97.055    
  110.93      126.46      142.71      157.98      170.36      177.38      176.76      167.58      150.90      129.43    
  106.18      83.704      64.020      48.004      40.396      29.899      22.048      16.241      12.001      8.9794    
  6.9138      5.5872      4.8232      4.4961      4.5328      4.8988      5.5839      6.5961      7.9599      9.7155    
  11.919      14.635      17.906      21.712      25.953      30.459      34.989      39.011      41.870      43.002    
  42.027      38.827      33.626      27.035      20.036      13.881      9.8976      9.2327      12.521      19.622    
  29.604      41.076      52.760      63.992      74.897      86.201      98.783      113.15      128.87      144.55    
  158.39      168.29      171.83      167.34      154.84      136.24      114.41      92.032      71.475      54.144    
  44.344      33.067      24.503      18.099      13.367      9.9381      7.5333      5.9297      4.9419      4.4282    
  4.2976      4.5025      5.0253      5.8689      7.0546      8.6222      10.633      13.168      16.306      20.088    
  24.480      29.363      34.551      39.767      44.448      47.968      49.788      49.528      47.041      42.507    
  36.497      29.972      24.177      20.407      19.689      22.456      28.392      36.558      45.807      55.271    
  64.692      74.432      85.204      97.635      111.71      126.51      140.46      151.70      158.17      157.94    
  150.21      135.85      117.08      96.439      76.411      58.785      46.902      35.396      26.464      19.672    
  14.583      10.834      8.1482      6.3032      5.1139      4.4310      4.1504      4.2128      4.5939      5.2935    
  6.3306      7.7455      9.6028      11.992      15.014      18.755      23.243      28.425      34.153      40.209    
  46.267      51.734      55.972      58.414      58.645      56.494      52.141      46.189      39.644      33.757    
  29.750      28.484      30.210      34.533      40.635      47.666      55.114      62.978      71.685      81.798    
  93.531      106.40      119.31      130.66      138.63      141.49      138.06      128.36      113.69      96.112    
  77.971      61.197      47.669      36.567      27.695      20.795      15.528      11.581      8.6951      6.6628    
  5.3064      4.4781      4.0672      4.0058      4.2634      4.8372      5.7464      7.0333      8.7657      11.038    
  13.965      17.661      22.208      27.615      33.799      40.570      47.646      54.621      60.838      65.590    
  68.259      68.416      65.937      61.102      54.637      47.624      41.297      36.746      34.642      35.097    
  37.721      41.868      46.963      52.743      59.327      67.080      76.248      86.637      97.592      107.97    
  116.29      120.97      120.78      115.24      104.87      91.100      75.858      60.960      46.502      36.396    
  28.027      21.331      16.099      12.097      9.1124      6.9616      5.4842      4.5411      4.0231      3.8578    
  4.0096      4.4732      5.2687      6.4419      8.0654      10.239      13.086      16.738      21.316      26.891    
  33.454      40.876      48.893      57.097      64.938      71.644      76.416      78.613      77.884      74.277    
  68.290      60.827      53.037      46.075      40.850      37.841      37.060      38.167      40.692      44.266    
  48.770      54.326      61.065      68.914      77.524      86.178      93.806      99.140      101.00      98.672    
  92.163      82.290      70.430      58.091      43.570      34.891      27.403      21.205      16.224      12.322    
  9.3487      7.1576      5.6133      4.5924      3.9935      3.7451      3.8090      4.1773      4.8706      5.9376    
  7.4568      9.5352      12.304      15.908      20.495      26.190      33.063      41.073      50.016      59.478    
  68.835      77.303      83.971      87.980      88.778      86.244      80.741      73.064      64.297      55.596    
  47.967      42.098      38.291      36.495      36.431      37.770      40.273      43.859      48.480      54.054    
  60.388      67.064      73.386      78.434      81.238      81.042      77.563      71.126      62.585      53.051    
  39.294      32.252      25.892      20.419      15.878      12.223      9.3697      7.2192      5.6660      4.6079    
  3.9564      3.6461      3.6396      3.9274      4.5290      5.4944      6.9068      8.8812      11.558      15.096    
  19.662      25.428      32.539      41.060      50.889      61.664      72.706      83.065      91.657      97.460    
  99.693      98.070      92.870      84.878      75.203      65.043      55.472      47.281      40.928      36.556    
  34.071      33.252      33.855      35.666      38.487      42.169      46.556      51.387      56.232      60.475    
  63.401      64.353      62.937      59.166      53.477      46.589      34.230      28.811      23.671      19.057    
  15.089      11.799      9.1638      7.1295      5.6243      4.5700      3.8949      3.5435      3.4827      3.7037    
  4.2239      5.0918      6.3924      8.2469      10.806      14.242      18.743      24.514      31.771      40.690    
  51.307      63.369      76.218      88.772      99.673      107.56      111.42      110.76      105.77      97.268    
  86.489      74.786      63.366      53.123      44.593      38.006      33.374      30.573      29.397      29.575    
  30.843      32.982      35.803      39.101      42.591      45.876      48.460      49.840      49.634      47.701    
  44.198      39.530      28.922      24.950      20.982      17.259      13.933      11.086      8.7429      6.8882    
  5.4815      4.4696      3.7986      3.4256      3.3250      3.4907      3.9389      4.7140      5.8983      7.6155    
  10.025      13.311      17.679      23.368      30.649      39.803      51.017      64.209      78.825      93.741    
  107.36      117.93      123.99      124.71      120.14      111.12      99.049      85.548      72.086      59.747    
  49.165      40.602      34.088      29.516      26.688      25.356      25.244      26.090      27.661      29.744    
  32.117      34.505      36.572      37.957      38.341      37.541      35.556      32.577      23.804      21.017    
  18.080      15.196      12.518      10.148      8.1405      6.5104      5.2425      4.3056      3.6638      3.2874    
  3.1596      3.2795      3.6631      4.3500      5.4158      6.9809      9.2076      12.289      16.448      21.943    