unknown system                          
   1.00000000000000     
     4.913700    0.000000    0.000000
    -2.456850    4.255389    0.000000
     0.000000    0.000000    5.405130
   Si   O 
     3     6
Direct
  0.469800  0.020000  0.666670
  0.000000  0.469800  0.333330
  0.530200  0.530200  0.000000
  0.414500  0.266200  0.785600
  0.733800  0.148300  0.452270
  0.851700  0.585500  0.118930
  0.148300  0.733800  0.547730
  0.266200  0.414500  0.214400
  0.585500  0.851700  0.881070
 
   56   56   64
 0.14873098021E+01 0.14192054353E+01 0.13984090650E+01 0.14120054825E+01 0.14522018923E+01
 0.15153263272E+01 0.15997194927E+01 0.17036132609E+01 0.18240697946E+01 0.19572182168E+01
 0.20990528607E+01 0.22458501246E+01 0.23939154547E+01 0.25391815755E+01 0.26775316554E+01
 0.28064586312E+01 0.29278161795E+01 0.30503199739E+01 0.31901270585E+01 0.33691247857E+01
 0.36128027258E+01 0.39506428254E+01 0.44204121287E+01 0.50744581254E+01 0.59835689430E+01
 0.72342632838E+01 0.89187970656E+01 0.11121665784E+02 0.13908153546E+02 0.17316659204E+02
 0.21348961818E+02 0.25948486412E+02 0.30963139522E+02 0.36105714516E+02 0.40940441021E+02
 0.44924765362E+02 0.47514238227E+02 0.48303509620E+02 0.47148365358E+02 0.44213185243E+02
 0.39920370904E+02 0.34825724574E+02 0.29476709040E+02 0.24309190323E+02 0.19607857217E+02
 0.15519988239E+02 0.12093585808E+02 0.93140452255E+01 0.71283143083E+01 0.54588292004E+01
 0.42144563129E+01 0.33027628439E+01 0.26421583677E+01 0.21693338925E+01 0.18393481981E+01
 0.16203052798E+01 0.14349550308E+01 0.13634000558E+01 0.13439928737E+01 0.13647378391E+01
 0.14181716001E+01 0.15006441696E+01 0.16105337460E+01 0.17462413297E+01 0.19048331503E+01
 0.20817930786E+01 0.22716165917E+01 0.24684375503E+01 0.26660980161E+01 0.28578508942E+01
 0.30364408806E+01 0.31952361319E+01 0.33305611767E+01 0.34446083269E+01 0.35475269222E+01
 0.36572883781E+01 0.37973814599E+01 0.39944646140E+01 0.42786706465E+01 0.46872784747E+01
 0.52694210597E+01 0.60878963373E+01 0.72151233793E+01 0.87231217214E+01 0.10670442755E+02
 0.13090192819E+02 0.15981009319E+02 0.19298137134E+02 0.22939490993E+02 0.26726695473E+02
 0.30392042561E+02 0.33589855201E+02 0.35945347201E+02 0.37135369607E+02 0.36974264442E+02
 0.35468932627E+02 0.32817880080E+02 0.29354561315E+02 0.25460860912E+02 0.21486679219E+02
 0.17701401570E+02 0.14281667343E+02 0.11322778616E+02 0.88574445524E+01 0.68724875184E+01
 0.53224186332E+01 0.41421898241E+01 0.32601467316E+01 0.26096377736E+01 0.21365467194E+01
 0.18010586717E+01 0.15745724957E+01 0.14283736906E+01 0.13586633943E+01 0.13437202452E+01
 0.13727365203E+01 0.14389593797E+01 0.15392054448E+01 0.16722662704E+01 0.18370799779E+01
 0.20313648568E+01 0.22509876859E+01 0.24900233789E+01 0.27411578967E+01 0.29959411969E+01
 0.32447286800E+01 0.34767504147E+01 0.36809940383E+01 0.38482509818E+01 0.39740531318E+01
 0.40615828954E+01 0.41231948575E+01 0.41795145086E+01 0.42565570709E+01 0.43830173684E+01
 0.45900347513E+01 0.49137561111E+01 0.53984772415E+01 0.60971097367E+01 0.70667653003E+01
 0.83594888230E+01 0.10010412255E+02 0.12026635461E+02 0.14378944194E+02 0.16995687485E+02
 0.19756876463E+02 0.22489679482E+02 0.24972243649E+02 0.26954930936E+02 0.28201838632E+02
 0.28543251429E+02 0.27919867048E+02 0.26399877641E+02 0.24161159018E+02 0.21446519464E+02
 0.18510846262E+02 0.15578920464E+02 0.12822996762E+02 0.10357773405E+02 0.82448970710E+01
 0.65010257291E+01 0.51077944602E+01 0.40237550150E+01 0.31971106103E+01 0.25767018637E+01
 0.21190434267E+01 0.17907090994E+01 0.15669214897E+01 0.14551111286E+01 0.13934991275E+01
 0.13873441286E+01 0.14272380304E+01 0.15073509698E+01 0.16251981165E+01 0.17803271727E+01
 0.19726237713E+01 0.22009607121E+01 0.24624017191E+01 0.27517918642E+01 0.30615565366E+01
 0.33816198921E+01 0.36994213675E+01 0.40001988771E+01 0.42679468091E+01 0.44874127801E+01
 0.46470770274E+01 0.47425173996E+01 0.47791166970E+01 0.47728865780E+01 0.47486858604E+01
 0.47365292727E+01 0.47681431458E+01 0.48758695961E+01 0.50940814360E+01 0.54610665525E+01
 0.60187433663E+01 0.68086899340E+01 0.78645846179E+01 0.92024848098E+01 0.10811318948E+02
 0.12646079540E+02 0.14624995026E+02 0.16630491924E+02 0.18514135991E+02 0.20107945126E+02
 0.21245108398E+02 0.21789153687E+02 0.21663796812E+02 0.20871930814E+02 0.19495487380E+02
 0.17676324462E+02 0.15586109360E+02 0.13395898829E+02 0.11253400940E+02 0.92705822522E+01
 0.75199168599E+01 0.60362253938E+01 0.48221869676E+01 0.38568660488E+01 0.31062331698E+01
 0.25333026013E+01 0.21051559117E+01 0.17956054449E+01 0.15844043990E+01 0.15076867900E+01
 0.14607786722E+01 0.14685013858E+01 0.15228928471E+01 0.16191990170E+01 0.17557631377E+01
 0.19330586689E+01 0.21522234104E+01 0.24137256998E+01 0.27164760163E+01 0.30571227650E+01
 0.34291914047E+01 0.38222026134E+01 0.42212501222E+01 0.46073790485E+01 0.49588677033E+01
 0.52534936559E+01 0.54717913989E+01 0.56009131044E+01 0.56382083340E+01 0.55933950903E+01
 0.54883357708E+01 0.53540963438E+01 0.52262185232E+01 0.51403044026E+01 0.51298779598E+01
 0.52267601850E+01 0.54622718641E+01 0.58670589954E+01 0.64682353748E+01 0.72837588235E+01
 0.83150006377E+01 0.95395026937E+01 0.10906491682E+02 0.12336950698E+02 0.13728372795E+02
 0.14963511667E+02 0.15923040297E+02 0.16502100734E+02 0.16628544540E+02 0.16277688218E+02
 0.15477980696E+02 0.14305221680E+02 0.12867503929E+02 0.11285884269E+02 0.96760372920E+01
 0.81346373605E+01 0.67319362667E+01 0.55099045823E+01 0.44844159817E+01 0.36503810649E+01
 0.29891293272E+01 0.24765701445E+01 0.20896534361E+01 0.18092459777E+01 0.16197662579E+01
 0.15826037900E+01 0.15570144042E+01 0.15841906557E+01 0.16574627995E+01 0.17732100237E+01
 0.19307358686E+01 0.21314769220E+01 0.23778795735E+01 0.26722925464E+01 0.30160346306E+01
 0.34084071668E+01 0.38452684869E+01 0.43172587488E+01 0.48084367224E+01 0.52961758911E+01
 0.57526230965E+01 0.61475362052E+01 0.64522060085E+01 0.66440447068E+01 0.67110525016E+01
 0.66551017061E+01 0.64930850898E+01 0.62553195146E+01 0.59811801374E+01 0.57130187276E+01
 0.54905606637E+01 0.53479028221E+01 0.53134603670E+01 0.54111764850E+01 0.56608546110E+01
 0.60765642898E+01 0.66631920929E+01 0.74117106899E+01 0.82943655937E+01 0.92619115809E+01
 0.10245047163E+02 0.11160608211E+02 0.11921211807E+02 0.12446509088E+02 0.12674619880E+02
 0.12572127320E+02 0.12140170161E+02 0.11414348972E+02 0.10458123921E+02 0.93517112355E+01
 0.81794795935E+01 0.70184862954E+01 0.59300591250E+01 0.49555623826E+01 0.41164428339E+01
 0.34175752078E+01 0.28524094721E+01 0.24084556825E+01 0.20717757666E+01 0.18294606421E+01
 0.16699951388E+01 0.16782768157E+01 0.16806125438E+01 0.17332075189E+01 0.18305163229E+01
 0.19699537752E+01 0.21517939694E+01 0.23784126601E+01 0.26534519090E+01 0.29811348999E+01
 0.33655126733E+01 0.38092520077E+01 0.43116660653E+01 0.48660855247E+01 0.54573380967E+01
 0.60605528655E+01 0.66421891054E+01 0.71633203479E+01 0.75845389735E+01 0.78716710127E+01
 0.80014296525E+01 0.79659721376E+01 0.77753291108E+01 0.74570030052E+01 0.70524909236E+01
 0.66110993453E+01 0.61824257925E+01 0.58098447150E+01 0.55270849587E+01 0.53581955116E+01
 0.53192793357E+01 0.54199447460E+01 0.56633407242E+01 0.60445863750E+01 0.65479395596E+01
 0.71438044531E+01 0.77875624708E+01 0.84220136739E+01 0.89835363240E+01 0.94103492508E+01
 0.96509318393E+01 0.96712662736E+01 0.94598198887E+01 0.90290877057E+01 0.84130921985E+01
 0.76615176944E+01 0.68319776949E+01 0.59818167131E+01 0.51607004200E+01 0.44055146660E+01
 0.37388596300E+01 0.31709979664E+01 0.27035381465E+01 0.23329292322E+01 0.20529026806E+01
 0.18559216540E+01 0.17338715369E+01 0.17929333982E+01 0.18299051738E+01 0.19143668857E+01
 0.20417874523E+01 0.22104380715E+01 0.24213476094E+01 0.26776500306E+01 0.29839506828E+01
 0.33460537411E+01 0.37706622460E+01 0.42642616739E+01 0.48306878285E+01 0.54675720383E+01
 0.61625641094E+01 0.68907181337E+01 0.76143956613E+01 0.82863062871E+01 0.88552309160E+01
 0.92732502022E+01 0.95031517914E+01 0.95247444066E+01 0.93388555050E+01 0.89680928367E+01
 0.84541098415E+01 0.78517689670E+01 0.72210854593E+01 0.66184948638E+01 0.60897430491E+01
 0.56665269176E+01 0.53672549400E+01 0.52000840386E+01 0.51656821911E+01 0.52583492266E+01
 0.54656467805E+01 0.57672602316E+01 0.61338626013E+01 0.65270747425E+01 0.69017729817E+01
 0.72110869813E+01 0.74128793889E+01 0.74757446824E+01 0.73831162238E+01 0.71349870726E+01
 0.67471861836E+01 0.62483618412E+01 0.56752709253E+01 0.50673901259E+01 0.44618402301E+01
 0.38893817128E+01 0.33721598419E+01 0.29236438724E+01 0.25503967805E+01 0.22544185743E+01
 0.20348018958E+01 0.18883876608E+01 0.18100009269E+01 0.19235452619E+01 0.20018000248E+01
 0.21251630710E+01 0.22898712654E+01 0.24948309981E+01 0.27414817919E+01 0.30332689965E+01
 0.33752545242E+01 0.37742501026E+01 0.42391260893E+01 0.47801842939E+01 0.54065945893E+01
 0.61219351069E+01 0.69189870276E+01 0.77754546566E+01 0.86522295211E+01 0.94953280566E+01
 0.10241675000E+02 0.10827735440E+02 0.11199214488E+02 0.11319904950E+02 0.11177986001E+02
 0.10788479838E+02 0.10191333660E+02 0.94456045187E+01 0.86209198938E+01 0.77876087696E+01
 0.70072026736E+01 0.63255100702E+01 0.57701570950E+01 0.53526489000E+01 0.50728082732E+01
 0.49228688427E+01 0.48898058066E+01 0.49560197955E+01 0.50990486416E+01 0.52910821026E+01
 0.54993686514E+01 0.56885465329E+01 0.58248329930E+01 0.58806822285E+01 0.58383394913E+01
 0.56916003588E+01 0.54457853312E+01 0.51160403333E+01 0.47243056250E+01 0.42958599273E+01
 0.38563867095E+01 0.34297378133E+01 0.30360558913E+01 0.26904005614E+01 0.24025479975E+01
 0.21780250396E+01 0.20193370358E+01 0.19263742831E+01 0.18962347585E+01 0.20660350702E+01
 0.21915104106E+01 0.23611257345E+01 0.25714313962E+01 0.28215955866E+01 0.31130597553E+01
 0.34489267165E+01 0.38338293616E+01 0.42746217904E+01 0.47814395060E+01 0.53678321633E+01
 0.60485369614E+01 0.68344676925E+01 0.77260258471E+01 0.87067990804E+01 0.97397111329E+01
 0.10767143968E+02 0.11715778604E+02 0.12505801728E+02 0.13062842063E+02 0.13330126676E+02
 0.13278255078E+02 0.12910498270E+02 0.12262446003E+02 0.11396172761E+02 0.10390514721E+02
 0.93297117498E+01 0.82923340524E+01 0.73419720521E+01 0.65213072252E+01 0.58510848351E+01
 0.53339812620E+01 0.49610118747E+01 0.47171433301E+01 0.45841839244E+01 0.45413329890E+01
 0.45649086202E+01 0.46284673431E+01 0.47038978032E+01 0.47636749290E+01 0.47839481084E+01
 0.47474930710E+01 0.46454499590E+01 0.44774367615E+01 0.42503859813E+01 0.39766857746E+01
 0.36721010516E+01 0.33538797490E+01 0.30393134968E+01 0.27446862071E+01 0.24843538887E+01
 0.22699331106E+01 0.21098332009E+01 0.20091700033E+01 0.19697699714E+01 0.19901671058E+01
 0.22160518956E+01 0.23931201903E+01 0.26158470442E+01 0.28807580860E+01 0.31867616390E+01
 0.35347255082E+01 0.39266456838E+01 0.43656123330E+01 0.48571255430E+01 0.54111295004E+01
 0.60431873910E+01 0.67730297718E+01 0.76195468252E+01 0.85929251083E+01 0.96861308653E+01
 0.10868404803E+02 0.12082872013E+02 0.13249477366E+02 0.14273541836E+02 0.15059029298E+02
 0.15524132243E+02 0.15615707902E+02 0.15319067207E+02 0.14660682420E+02 0.13703234136E+02
 0.12534587352E+02 0.11253855204E+02 0.99577481783E+01 0.87291847879E+01 0.76291556007E+01
 0.66928895472E+01 0.59313123124E+01 0.53372033885E+01 0.48931629762E+01 0.45778786903E+01
 0.43690447402E+01 0.42437504221E+01 0.41781219990E+01 0.41474886705E+01 0.41275883815E+01
 0.40967616775E+01 0.40384128083E+01 0.39425884392E+01 0.38060383585E+01 0.36311962065E+01
 0.34249078407E+01 0.31971807139E+01 0.29598250589E+01 0.27252180460E+01 0.25056902141E+01
 0.23134373185E+01 0.21601569553E+01 0.20559284717E+01 0.20078429252E+01 0.20192286826E+01
 0.20897365981E+01 0.23694040869E+01 0.26002075710E+01 0.28813664390E+01 0.32095348201E+01
 0.35830207209E+01 0.40014297281E+01 0.44647978483E+01 0.49735341723E+01 0.55301630316E+01
 0.61424261162E+01 0.68258703445E+01 0.76036416011E+01 0.85020500190E+01 0.95421412168E+01
 0.10729259436E+02 0.12043594489E+02 0.13434537355E+02 0.14820724123E+02 0.16096653940E+02
 0.17145804738E+02 0.17858693307E+02 0.18152332356E+02 0.17986155437E+02 0.17369945151E+02
 0.16361653730E+02 0.15056124449E+02 0.13568267339E+02 0.12015268094E+02 0.10501607088E+02
 0.91087224556E+01 0.78895608378E+01 0.68679322601E+01 0.60426950667E+01 0.53958499862E+01
 0.49017626759E+01 0.45339828766E+01 0.42678343275E+01 0.40798344823E+01 0.39465524642E+01
 0.38448054902E+01 0.37533835460E+01 0.36553322661E+01 0.35396248917E+01 0.34014888329E+01
 0.32414123657E+01 0.30635624742E+01 0.28744643995E+01 0.26822538731E+01 0.24962594031E+01
 0.23266403893E+01 0.21840195096E+01 0.20790035256E+01 0.20213438526E+01 0.20187302839E+01
 0.20757023348E+01 0.21932679741E+01 0.25218687139E+01 0.28059609326E+01 0.31484496486E+01
 0.35467620666E+01 0.39988249178E+01 0.45026093790E+01 0.50554102477E+01 0.56538844928E+01
 0.62960265356E+01 0.69851382602E+01 0.77339967412E+01 0.85664014856E+01 0.95139715986E+01
 0.10607910039E+02 0.11867378410E+02 0.13287416193E+02 0.14829666176E+02 0.16418567812E+02
 0.17944682689E+02 0.19275911437E+02 0.20276166975E+02 0.20828828024E+02 0.20859525609E+02
 0.20351584922E+02 0.19349321720E+02 0.17948583199E+02 0.16278043825E+02 0.14476975839E+02
 0.12675078953E+02 0.10977977591E+02 0.94593461466E+01 0.81588859043E+01 0.70852664246E+01
 0.62234646722E+01 0.55450022923E+01 0.50178195003E+01 0.46123255042E+01 0.43026245153E+01
 0.40649913770E+01 0.38765903513E+01 0.37159613776E+01 0.35649258890E+01 0.34106968075E+01
 0.32469608683E+01 0.30732065301E+01 0.28926657939E+01 0.27103222637E+01 0.25322501554E+01
 0.23660344449E+01 0.22209303066E+01 0.21070462487E+01 0.20341523587E+01 0.20109116122E+01
 0.20444450698E+01 0.21397391795E+01 0.22990359108E+01 0.26688722522E+01 0.30029716823E+01
 0.34066114624E+01 0.38788382735E+01 0.44180067309E+01 0.50208355157E+01 0.56816180685E+01
 0.63924716040E+01 0.71455969203E+01 0.79378321959E+01 0.87761393901E+01 0.96811471346E+01
 0.10685915063E+02 0.11828833873E+02 0.13141826099E+02 0.14636569859E+02 0.16292018742E+02
 0.18046288865E+02 0.19795390903E+02 0.21400601840E+02 0.22705326754E+02 0.23560252714E+02
 0.23852082946E+02 0.23527834516E+02 0.22606586955E+02 0.21174877655E+02 0.19368212025E+02
 0.17345448681E+02 0.15263314431E+02 0.13256174362E+02 0.11423465453E+02 0.98250022733E+01
 0.84829994265E+01 0.73891496915E+01 0.65149587844E+01 0.58230369513E+01 0.52763899754E+01
 0.48432430531E+01 0.44971840646E+01 0.42149732261E+01 0.39750592441E+01 0.37582584192E+01
 0.35498665945E+01 0.33414383529E+01 0.31309158725E+01 0.29210216578E+01 0.27169910254E+01
 0.25250588050E+01 0.23522918586E+01 0.22070506804E+01 0.20988953209E+01 0.20375725304E+01
 0.20317543538E+01 0.20882582144E+01 0.22118064466E+01 0.24050545350E+01 0.28058740649E+01
 0.31834142386E+01 0.36443052118E+01 0.41899676340E+01 0.48202767341E+01 0.55318126890E+01
 0.63165399001E+01 0.71620330479E+01 0.80540373185E+01 0.89814503968E+01 0.99426705771E+01
 0.10950871765E+02 0.12035163159E+02 0.13235685199E+02 0.14592979306E+02 0.16133920261E+02
 0.17857240585E+02 0.19721608284E+02 0.21639084079E+02 0.23476759345E+02 0.25069002096E+02
 0.26241092225E+02 0.26841303249E+02 0.26773528907E+02 0.26019673880E+02 0.24643636901E+02
 0.22776259157E+02 0.20588074168E+02 0.18259285982E+02 0.15954057501E+02 0.13802481304E+02
 0.11891175717E+02 0.10262148868E+02 0.89185152873E+01 0.78348924205E+01 0.69700037478E+01
 0.62787215178E+01 0.57206051587E+01 0.52630956728E+01 0.48802068503E+01 0.45498547064E+01
 0.42527150663E+01 0.39731685888E+01 0.37009794233E+01 0.34322224743E+01 0.31688066263E+01
 0.29166951897E+01 0.26835936809E+01 0.24773794599E+01 0.23060773633E+01 0.21786891730E+01
 0.21052560133E+01 0.20954667750E+01 0.21568706841E+01 0.22941837948E+01 0.25099770644E+01
 0.29300367926E+01 0.33402394088E+01 0.38499219883E+01 0.44632762788E+01 0.51826894951E+01
 0.60060348022E+01 0.69245004023E+01 0.79223053131E+01 0.89791738705E+01 0.10075515790E+02
 0.11199241743E+02 0.12352172870E+02 0.13553392006E+02 0.14837292906E+02 0.16245703666E+02
 0.17815404228E+02 0.19563463280E+02 0.21472941265E+02 0.23481530315E+02 0.25476320309E+02
 0.27298627359E+02 0.28762204571E+02 0.29684695513E+02 0.29926069484E+02 0.29422080300E+02
 0.28200232883E+02 0.26372456815E+02 0.24108987795E+02 0.21604732914E+02 0.19048673263E+02
 0.16601328032E+02 0.14380693619E+02 0.12456003285E+02 0.10849218136E+02 0.95436787898E+01
 0.84976127117E+01 0.76587635389E+01 0.69763588142E+01 0.64079528847E+01 0.59208869850E+01
 0.54903231796E+01 0.50967759328E+01 0.47251418529E+01 0.43652987049E+01 0.40130267802E+01
 0.36700153076E+01 0.33425446338E+01 0.30393492124E+01 0.27697468220E+01 0.25429746747E+01
 0.23686507530E+01 0.22571670408E+01 0.22188970403E+01 0.22624789049E+01 0.23936092713E+01
 0.26154121116E+01 0.30429462299E+01 0.34695055585E+01 0.40138977671E+01 0.46829441939E+01
 0.54821101189E+01 0.64118754382E+01 0.74646067003E+01 0.86233741837E+01 0.98637263763E+01
 0.11158498919E+02 0.12484574532E+02 0.13829715975E+02 0.15197411741E+02 0.16607947644E+02
 0.18094592672E+02 0.19694890191E+02 0.21438186067E+02 0.23331122561E+02 0.25343050552E+02
 0.27394157216E+02 0.29350940794E+02 0.31034912828E+02 0.32248333228E+02 0.32814183912E+02
 0.32619079129E+02 0.31643158867E+02 0.29964953262E+02 0.27740632492E+02 0.25168524232E+02
 0.22453365950E+02 0.19779330477E+02 0.17292869975E+02 0.15092875871E+02 0.13227216423E+02
 0.11696671763E+02 0.10466147523E+02 0.94801169722E+01 0.86777270256E+01 0.80039206783E+01
 0.74150270765E+01 0.68793751246E+01 0.63751197806E+01 0.58879373401E+01 0.54100181154E+01
 0.49398379365E+01 0.44814228112E+01 0.40427302522E+01 0.36338674824E+01 0.32658428626E+01
 0.29498792897E+01 0.26970660154E+01 0.25182326763E+01 0.24237741738E+01 0.24229945284E+01
 0.25230823832E+01 0.27286866142E+01 0.31530776013E+01 0.35732387686E+01 0.41316281520E+01
 0.48372337867E+01 0.56986132138E+01 0.67197441375E+01 0.78959728132E+01 0.92117895340E+01
 0.10641526971E+02 0.12153096648E+02 0.13713799484E+02 0.15296627870E+02 0.16885644491E+02
 0.18479484253E+02 0.20092102334E+02 0.21749741220E+02 0.23483400349E+02 0.25316921032E+02
 0.27251628689E+02 0.29249517262E+02 0.31219220990E+02 0.33012126468E+02 0.34436144873E+02
 0.35292537148E+02 0.35425129394E+02 0.34760759919E+02 0.33330880676E+02 0.31264706486E+02
 0.28752896825E+02 0.26006391157E+02 0.23223494712E+02 0.20569585384E+02 0.18166585726E+02
 0.16087776786E+02 0.14357167772E+02 0.12955189812E+02 0.11830996133E+02 0.10918303853E+02
 0.10150117142E+02 0.94688976654E+01 0.88312846829E+01 0.82085566471E+01 0.75849116119E+01
 0.69552884883E+01 0.63233277165E+01 0.56991640204E+01 0.50968160353E+01 0.45316205561E+01
 0.40184183913E+01 0.35707295780E+01 0.32006437040E+01 0.29190817933E+01 0.27361305035E+01
 0.26610475602E+01 0.27017340912E+01 0.28642089389E+01 0.32763792979E+01 0.36614687881E+01
 0.42062956139E+01 0.49217951815E+01 0.58193621544E+01 0.69068045744E+01 0.81836844285E+01
 0.96381632350E+01 0.11246631974E+02 0.12975998495E+02 0.14787601635E+02 0.16641688486E+02
 0.18501988694E+02 0.20340508832E+02 0.22142428005E+02 0.23909728995E+02 0.25661044316E+02
 0.27425440547E+02 0.29229383809E+02 0.31077885142E+02 0.32926481334E+02 0.34663486349E+02
 0.36135808824E+02 0.37165492430E+02 0.37582484400E+02 0.37268769997E+02 0.36194188198E+02
 0.34427910486E+02 0.32123799547E+02 0.29490971524E+02 0.26749709456E+02 0.24076867351E+02
 0.21604716536E+02 0.19420797249E+02 0.17567502316E+02 0.16043984320E+02 0.14812791710E+02
 0.13811746368E+02 0.12968262547E+02 0.12212283327E+02 0.11485579931E+02 0.10747036845E+02
 0.99743225010E+01 0.91626000282E+01 0.83213133595E+01 0.74701296758E+01 0.66345416013E+01
 0.58412971497E+01 0.51143859718E+01 0.44728450944E+01 0.39309156150E+01 0.34995787172E+01
 0.31879257409E+01 0.30036906224E+01 0.29533572185E+01 0.30424656171E+01 0.34346146092E+01
 0.37520861681E+01 0.42503095482E+01 0.49422477903E+01 0.58420790852E+01 0.69614103003E+01
 0.83045439934E+01 0.98648146198E+01 0.11623418794E+02 0.13550373888E+02 0.15606156554E+02
 0.17743177207E+02 0.19907779490E+02 0.22044505300E+02 0.24103853427E+02 0.26052437686E+02
 0.27881592801E+02 0.29609465239E+02 0.31273490886E+02 0.32898027233E+02 0.34455022057E+02
 0.35901937003E+02 0.37169315588E+02 0.38146614029E+02 0.38693615157E+02 0.38677923062E+02
 0.38020237208E+02 0.36723184855E+02 0.34871776830E+02 0.32612627084E+02 0.30128596540E+02
 0.27619735497E+02 0.25260544305E+02 0.23142298664E+02 0.21310119408E+02 0.19773709556E+02
 0.18510824500E+02 0.17472337130E+02 0.16590558805E+02 0.15790090340E+02 0.14999319043E+02
 0.14160843632E+02 0.13239228420E+02 0.12224413222E+02 0.11129972599E+02 0.99872698497E+01
 0.88377706054E+01 0.77254425717E+01 0.66903450317E+01 0.57643367688E+01 0.49696883322E+01
 0.43203222373E+01 0.38241933246E+01 0.34854389979E+01 0.33061281750E+01 0.32880636104E+01
 0.36532907799E+01 0.38685816691E+01 0.42843816982E+01 0.49148929658E+01 0.57770410069E+01
 0.68862125514E+01 0.82515248224E+01 0.98721154389E+01 0.11735636691E+02 0.13818427035E+02
 0.16085312535E+02 0.18487693516E+02 0.20961322903E+02 0.23427600636E+02 0.25801914774E+02
 0.28009001039E+02 0.30000356400E+02 0.31766022468E+02 0.33328293981E+02 0.34671979188E+02
 0.35786489578E+02 0.36703001581E+02 0.37460135881E+02 0.38062375031E+02 0.38457605003E+02
 0.38550859091E+02 0.38246945898E+02 0.37494214641E+02 0.36303951285E+02 0.34741836502E+02
 0.32908166013E+02 0.30925188777E+02 0.28935666820E+02 0.27096107417E+02 0.25486690829E+02
 0.24111893995E+02 0.22955383410E+02 0.21981821266E+02 0.21136597514E+02 0.20348996030E+02
 0.19540431526E+02 0.18637124640E+02 0.17584748837E+02 0.16360513428E+02 0.14977519194E+02
 0.13479319328E+02 0.11927882523E+02 0.10390799853E+02 0.89315373619E+01 0.76030640459E+01
 0.64441051550E+01 0.54781419960E+01 0.47153275436E+01 0.41563066457E+01 0.37964596785E+01
 0.36299182197E+01 0.39620480172E+01 0.40377489824E+01 0.43346847220E+01 0.48648939830E+01
 0.56467067123E+01 0.66990723065E+01 0.80359466595E+01 0.96622998029E+01 0.11572654738E+02
 0.13751312649E+02 0.16171402572E+02 0.18790236463E+02 0.21542181918E+02 0.24334691178E+02
 0.27054088976E+02 0.29583419517E+02 0.31827307140E+02 0.33733525248E+02 0.35268176047E+02
 0.36343060612E+02 0.36938565015E+02 0.37134382093E+02 0.37077786125E+02 0.36923226629E+02
 0.36770237675E+02 0.36633947657E+02 0.36463157702E+02 0.36187177071E+02 0.35754901216E+02
 0.35144293083E+02 0.34351077160E+02 0.33381616302E+02 0.32264425212E+02 0.31072054813E+02
 0.29931156553E+02 0.28942170220E+02 0.28092615502E+02 0.27352510065E+02 0.26680235055E+02
 0.26015371250E+02 0.25278491691E+02 0.24381358020E+02 0.23246443271E+02 0.21829521865E+02
 0.20135285467E+02 0.18217775143E+02 0.16165691201E+02 0.14081129646E+02 0.12061578749E+02
 0.10189259546E+02 0.85261913084E+01 0.71125026782E+01 0.59673532747E+01 0.50924411362E+01
 0.44773297064E+01 0.41057032034E+01 0.43988807570E+01 0.42899873031E+01 0.44301925411E+01
 0.48226162390E+01 0.54827135783E+01 0.64312725178E+01 0.76867741521E+01 0.92598853180E+01
 0.11151628277E+02 0.13354282832E+02 0.15851092765E+02 0.18610455944E+02 0.21574578383E+02
 0.24649053603E+02 0.27702951672E+02 0.30585238007E+02 0.33154162941E+02 0.35306966799E+02
 0.36924991065E+02 0.37825207089E+02 0.37932357290E+02 0.37325577515E+02 0.36228454951E+02
 0.34949756531E+02 0.33789808442E+02 0.32955324351E+02 0.32525837139E+02 0.32478604777E+02
 0.32737128930E+02 0.33201755772E+02 0.33752903255E+02 0.34251666653E+02 0.34564456295E+02
 0.34611024390E+02 0.34408790677E+02 0.34082819257E+02 0.33779831799E+02 0.33501419565E+02
 0.33212545723E+02 0.32859565449E+02 0.32360213902E+02 0.31608513040E+02 0.30496444401E+02
 0.28946773785E+02 0.26944020398E+02 0.24547927017E+02 0.21881140904E+02 0.19097510436E+02
 0.16347909309E+02 0.13757990091E+02 0.11420724105E+02 0.93976124707E+01 0.77220253967E+01
 0.64024897481E+01 0.54269432934E+01 0.47693511011E+01 0.50163590264E+01 0.46629101070E+01
 0.46024459417E+01 0.48202302292E+01 0.53211708514E+01 0.61230666322E+01 0.72469023805E+01
 0.87085638951E+01 0.10515139832E+02 0.12665925826E+02 0.15153811178E+02 0.17960518629E+02
 0.21043064903E+02 0.24317209711E+02 0.27649697902E+02 0.30869157044E+02 0.33795792649E+02
 0.36276451782E+02 0.38106751470E+02 0.38991330156E+02 0.38753750449E+02 0.37410760858E+02
 0.35199122123E+02 0.32543560481E+02 0.29955759736E+02 0.27898081462E+02 0.26677818021E+02
 0.26417719199E+02 0.27089341253E+02 0.28556625942E+02 0.30595790081E+02 0.32906619885E+02
 0.35152220083E+02 0.37038409881E+02 0.38402247954E+02 0.39262556066E+02 0.39802830162E+02
 0.40243524853E+02 0.40608959942E+02 0.40844979551E+02 0.40854226821E+02 0.40496959577E+02
 0.39615415435E+02 0.38077803832E+02 0.35828272427E+02 0.32920639933E+02 0.29515941899E+02
 0.25841926383E+02 0.22135300865E+02 0.18595398355E+02 0.15364888763E+02 0.12533089878E+02
 0.10147627270E+02 0.82240052199E+01 0.67512596432E+01 0.56971211214E+01 0.58855008957E+01
 0.52059921292E+01 0.48880588450E+01 0.48906220626E+01 0.51982938643E+01 0.58176071736E+01
 0.67668540338E+01 0.80650711043E+01 0.97249241017E+01 0.11751772533E+02 0.14146235711E+02
 0.16902477923E+02 0.19995585057E+02 0.23360750823E+02 0.26876987595E+02 0.30369344214E+02
 0.33634373987E+02 0.36478100439E+02 0.38632430717E+02 0.39687235806E+02 0.39334074129E+02
 0.37470682110E+02 0.34269026031E+02 0.30192318131E+02 0.25920672991E+02 0.22188913715E+02
 0.19606460610E+02 0.18546657348E+02 0.19133460077E+02 0.21277645626E+02 0.24703761944E+02
 0.28966029469E+02 0.33500382518E+02 0.37741575186E+02 0.41272375764E+02 0.43933591850E+02
 0.45840635562E+02 0.47300551318E+02 0.48607933240E+02 0.49770309677E+02 0.50662934256E+02
 0.51085411023E+02 0.50793544992E+02 0.49559699784E+02 0.47247694771E+02 0.43875845130E+02
 0.39635910808E+02 0.34851111729E+02 0.29890086106E+02 0.25079610811E+02 0.20654094477E+02
 0.16750626026E+02 0.13431799827E+02 0.10712507773E+02 0.85771883653E+01 0.69871900060E+01
 0.70931753552E+01 0.59823987882E+01 0.53318036294E+01 0.50687624138E+01 0.51482827155E+01
 0.55553917379E+01 0.62972539646E+01 0.73909761729E+01 0.88529710854E+01 0.10694011066E+02
 0.12920564926E+02 0.15536252486E+02 0.18533349313E+02 0.21871261048E+02 0.25452765555E+02
 0.29115646223E+02 0.32650004156E+02 0.35835670580E+02 0.38377608030E+02 0.39770985834E+02
 0.39566179325E+02 0.37506269431E+02 0.33628923742E+02 0.28339978198E+02 0.22396799325E+02
 0.16760235763E+02 0.12361312760E+02 0.98992991676E+01 0.97550597022E+01 0.11997133407E+02
 0.16399699119E+02 0.22444175609E+02 0.29362531060E+02 0.36284554151E+02 0.42464231076E+02
 0.47480430986E+02 0.51313287616E+02 0.54270404865E+02 0.56806800010E+02 0.59226020799E+02
 0.61427185312E+02 0.63128238495E+02 0.63952897804E+02 0.63515341345E+02 0.61529397825E+02
 0.57914101768E+02 0.52853112015E+02 0.46769129700E+02 0.40212610134E+02 0.33715391228E+02
 0.27679174711E+02 0.22338464112E+02 0.17787659895E+02 0.14033742168E+02 0.11040521733E+02
 0.87510306739E+01 0.87322344868E+01 0.70650471330E+01 0.59870913572E+01 0.53935384734E+01
 0.52036638649E+01 0.53712905410E+01 0.58823667194E+01 0.67439291009E+01 0.79714675978E+01
 0.95797031877E+01 0.11579910750E+02 0.13981943895E+02 0.16791187628E+02 0.19990911405E+02
 0.23514440649E+02 0.27225772713E+02 0.30925479395E+02 0.34382576063E+02 0.37311019048E+02
 0.39159115690E+02 0.39348143456E+02 0.37457950971E+02 0.33349327203E+02 0.27284375242E+02
 0.19982216286E+02 0.12526840023E+02 0.61221330683E+01 0.18103837945E+01 0.29625970180E+00
 0.19050928686E+01 0.65835807890E+01 0.13870772024E+02 0.22894678205E+02 0.32509642020E+02
 0.41592337695E+02 0.49366478068E+02 0.55586534467E+02 0.60503450082E+02 0.64656306465E+02
 0.68590849813E+02 0.72473674342E+02 0.75972205553E+02 0.78548200808E+02 0.79592090363E+02
 0.78575834853E+02 0.75215225637E+02 0.69594216814E+02 0.62188544947E+02 0.53752662331E+02
 0.45108276910E+02 0.36936155762E+02 0.29663937964E+02 0.23471378388E+02 0.18367475417E+02
 0.14277362435E+02 0.11100399790E+02 0.10888038205E+02 0.85266912017E+01 0.69116443116E+01
 0.59074724122E+01 0.53964464194E+01 0.52944814582E+01 0.55567279330E+01 0.61706163131E+01
 0.71432767423E+01 0.84895009414E+01 0.10224173130E+02 0.12361286647E+02 0.14914327404E+02
 0.17885712067E+02 0.21240463034E+02 0.24878073752E+02 0.28624637714E+02 0.32254544393E+02
 0.35505918871E+02 0.37855507453E+02 0.38627003092E+02 0.37252085857E+02 0.33404437618E+02
 0.27146620127E+02 0.19050283947E+02 0.10187478504E+02 0.19258623689E+01 -.43968536311E+01
 -.77408107508E+01 -.74703071310E+01 -.33702260247E+01 0.43006221687E+01 0.14733124458E+02
 0.26630835933E+02 0.38520182571E+02 0.49200969693E+02 0.58091492106E+02 0.65293772875E+02
 0.71386774018E+02 0.77079483024E+02 0.82852241373E+02 0.88539860247E+02 0.93462115347E+02
 0.96750940346E+02 0.97553989867E+02 0.95261205680E+02 0.89712382860E+02 0.81310105025E+02
 0.70957313704E+02 0.59810522938E+02 0.48954415771E+02 0.39155591924E+02 0.30789298360E+02
 0.23916893034E+02 0.18423747000E+02 0.14136928015E+02 0.13626880929E+02 0.10426857102E+02
 0.81583184141E+01 0.66528216649E+01 0.57579437920E+01 0.53496290772E+01 0.53451341844E+01
 0.57034961461E+01 0.64151125989E+01 0.74883410925E+01 0.89384543978E+01 0.10782183431E+02
 0.13037421527E+02 0.15718949136E+02 0.18819024041E+02 0.22276499064E+02 0.25955420020E+02
 0.29651858388E+02 0.33124576359E+02 0.35951175260E+02 0.37417440169E+02 0.36838888814E+02
 0.33718435555E+02 0.27900571874E+02 0.19731060020E+02 0.10133272024E+02 0.48880967528E+00
 -.76748166056E+01 -.13023384345E+02 -.14605206407E+02 -.11895029368E+02 -.48491380435E+01
 0.59599039574E+01 0.19285867341E+02 0.33442064636E+02 0.46816698125E+02 0.58398419679E+02
 0.68014580574E+02 0.76193199744E+02 0.83775564034E+02 0.91475479660E+02 0.99471726292E+02
 0.10710247783E+03 0.11326964728E+03 0.11676553749E+03 0.11655983250E+03 0.11209101502E+03
 0.10349394932E+03 0.91653205270E+02 0.77997718921E+02 0.64088384092E+02 0.51193712252E+02