   9   9   0   0
  0.1255774E+02  0.4913700E-09  0.4913700E-09  0.5405130E-09  0.5000000E-15
  1.000000000000000E-004
  CAR 
 unknown system                          
     13.85449350    -20.45113616  301      1.21858657      1.00000000
    -20.451  0.0000E+00  0.0000E+00
    -20.337  0.0000E+00  0.0000E+00
    -20.222  0.0000E+00  0.0000E+00
    -20.108  0.0000E+00  0.0000E+00
    -19.994  0.0000E+00  0.0000E+00
    -19.879  0.0000E+00  0.0000E+00
    -19.765  0.0000E+00  0.0000E+00
    -19.651  0.0000E+00  0.0000E+00
    -19.536  0.0000E+00  0.0000E+00
    -19.422  0.0000E+00  0.0000E+00
    -19.308  0.0000E+00  0.0000E+00
    -19.193  0.0000E+00  0.0000E+00
    -19.079  0.0000E+00  0.0000E+00
    -18.965  0.0000E+00  0.0000E+00
    -18.850  0.0000E+00  0.0000E+00
    -18.736  0.0000E+00  0.0000E+00
    -18.622  0.0000E+00  0.0000E+00
    -18.507  0.0000E+00  0.0000E+00
    -18.393  0.5545E+00  0.1078E-01
    -18.278  0.1841E+01  0.1629E+00
    -18.164  0.4303E+01  0.4682E+00
    -18.050  0.7834E+01  0.1149E+01
    -17.935  0.2821E+01  0.1933E+01
    -17.821  0.0000E+00  0.2000E+01
    -17.707  0.1478E+01  0.2071E+01
    -17.592  0.3375E+01  0.2327E+01
    -17.478  0.6235E+01  0.2859E+01
    -17.364  0.7708E+01  0.3606E+01
    -17.249  0.9033E+00  0.3961E+01
    -17.135  0.0000E+00  0.4000E+01
    -17.021  0.6189E+00  0.4013E+01
    -16.906  0.2742E+01  0.4187E+01
    -16.792  0.7548E+01  0.4880E+01
    -16.678  0.3623E+01  0.5534E+01
    -16.563  0.2784E+01  0.5881E+01
    -16.449  0.6736E+01  0.6262E+01
    -16.334  0.6473E+01  0.7250E+01
    -16.220  0.4564E+01  0.7851E+01
    -16.106  0.1324E+02  0.9348E+01
    -15.991  0.0000E+00  0.1000E+02
    -15.877  0.2815E+02  0.1142E+02
    -15.763  0.0000E+00  0.1200E+02
    -15.648  0.0000E+00  0.1200E+02
    -15.534  0.0000E+00  0.1200E+02
    -15.420  0.0000E+00  0.1200E+02
    -15.305  0.0000E+00  0.1200E+02
    -15.191  0.0000E+00  0.1200E+02
    -15.077  0.0000E+00  0.1200E+02
    -14.962  0.0000E+00  0.1200E+02
    -14.848  0.0000E+00  0.1200E+02
    -14.734  0.0000E+00  0.1200E+02
    -14.619  0.0000E+00  0.1200E+02
    -14.505  0.0000E+00  0.1200E+02
    -14.390  0.0000E+00  0.1200E+02
    -14.276  0.0000E+00  0.1200E+02
    -14.162  0.0000E+00  0.1200E+02
    -14.047  0.0000E+00  0.1200E+02
    -13.933  0.0000E+00  0.1200E+02
    -13.819  0.0000E+00  0.1200E+02
    -13.704  0.0000E+00  0.1200E+02
    -13.590  0.0000E+00  0.1200E+02
    -13.476  0.0000E+00  0.1200E+02
    -13.361  0.0000E+00  0.1200E+02
    -13.247  0.0000E+00  0.1200E+02
    -13.133  0.0000E+00  0.1200E+02
    -13.018  0.0000E+00  0.1200E+02
    -12.904  0.0000E+00  0.1200E+02
    -12.790  0.0000E+00  0.1200E+02
    -12.675  0.0000E+00  0.1200E+02
    -12.561  0.0000E+00  0.1200E+02
    -12.446  0.0000E+00  0.1200E+02
    -12.332  0.0000E+00  0.1200E+02
    -12.218  0.0000E+00  0.1200E+02
    -12.103  0.0000E+00  0.1200E+02
    -11.989  0.0000E+00  0.1200E+02
    -11.875  0.0000E+00  0.1200E+02
    -11.760  0.0000E+00  0.1200E+02
    -11.646  0.0000E+00  0.1200E+02
    -11.532  0.0000E+00  0.1200E+02
    -11.417  0.0000E+00  0.1200E+02
    -11.303  0.0000E+00  0.1200E+02
    -11.189  0.0000E+00  0.1200E+02
    -11.074  0.0000E+00  0.1200E+02
    -10.960  0.0000E+00  0.1200E+02
    -10.846  0.0000E+00  0.1200E+02
    -10.731  0.0000E+00  0.1200E+02
    -10.617  0.0000E+00  0.1200E+02
    -10.503  0.0000E+00  0.1200E+02
    -10.388  0.0000E+00  0.1200E+02
    -10.274  0.0000E+00  0.1200E+02
    -10.159  0.0000E+00  0.1200E+02
    -10.045  0.0000E+00  0.1200E+02
     -9.931  0.0000E+00  0.1200E+02
     -9.816  0.0000E+00  0.1200E+02
     -9.702  0.0000E+00  0.1200E+02
     -9.588  0.0000E+00  0.1200E+02
     -9.473  0.0000E+00  0.1200E+02
     -9.359  0.0000E+00  0.1200E+02
     -9.245  0.0000E+00  0.1200E+02
     -9.130  0.0000E+00  0.1200E+02
     -9.016  0.0000E+00  0.1200E+02
     -8.902  0.0000E+00  0.1200E+02
     -8.787  0.0000E+00  0.1200E+02
     -8.673  0.0000E+00  0.1200E+02
     -8.559  0.0000E+00  0.1200E+02
     -8.444  0.0000E+00  0.1200E+02
     -8.330  0.0000E+00  0.1200E+02
     -8.215  0.3735E-01  0.1200E+02
     -8.101  0.3219E+00  0.1202E+02
     -7.987  0.4709E+00  0.1207E+02
     -7.872  0.6895E+00  0.1213E+02
     -7.758  0.8944E+00  0.1223E+02
     -7.644  0.1277E+01  0.1235E+02
     -7.529  0.1764E+01  0.1252E+02
     -7.415  0.3619E+01  0.1280E+02
     -7.301  0.5517E+01  0.1352E+02
     -7.186  0.1667E+01  0.1388E+02
     -7.072  0.4017E+00  0.1397E+02
     -6.958  0.2027E+00  0.1400E+02
     -6.843  0.2292E+00  0.1403E+02
     -6.729  0.3696E+00  0.1406E+02
     -6.615  0.6570E+00  0.1412E+02
     -6.500  0.1201E+01  0.1422E+02
     -6.386  0.2258E+01  0.1441E+02
     -6.271  0.3643E+01  0.1474E+02
     -6.157  0.4620E+01  0.1525E+02
     -6.043  0.1931E+01  0.1560E+02
     -5.928  0.1139E+01  0.1578E+02
     -5.814  0.7293E+00  0.1588E+02
     -5.700  0.5745E+00  0.1595E+02
     -5.585  0.1361E+00  0.1600E+02
     -5.471  0.5387E+00  0.1602E+02
     -5.357  0.2766E+01  0.1619E+02
     -5.242  0.3320E+01  0.1654E+02
     -5.128  0.3024E+01  0.1691E+02
     -5.014  0.2902E+01  0.1725E+02
     -4.899  0.1987E+01  0.1753E+02
     -4.785  0.1532E+01  0.1773E+02
     -4.671  0.1239E+01  0.1789E+02
     -4.556  0.4671E+00  0.1800E+02
     -4.442  0.5747E+01  0.1821E+02
     -4.327  0.8453E+01  0.1938E+02
     -4.213  0.4767E+01  0.2006E+02
     -4.099  0.9553E+01  0.2089E+02
     -3.984  0.5475E+01  0.2172E+02
     -3.870  0.1672E+01  0.2212E+02
     -3.756  0.8493E+01  0.2270E+02
     -3.641  0.5020E+01  0.2357E+02
     -3.527  0.2088E+01  0.2393E+02
     -3.413  0.0000E+00  0.2400E+02
     -3.298  0.0000E+00  0.2400E+02
     -3.184  0.0000E+00  0.2400E+02
     -3.070  0.0000E+00  0.2400E+02
     -2.955  0.0000E+00  0.2400E+02
     -2.841  0.0000E+00  0.2400E+02
     -2.727  0.0000E+00  0.2400E+02
     -2.612  0.0000E+00  0.2400E+02
     -2.498  0.0000E+00  0.2400E+02
     -2.384  0.0000E+00  0.2400E+02
     -2.269  0.0000E+00  0.2400E+02
     -2.155  0.1211E+02  0.2464E+02
     -2.040  0.6205E+01  0.2586E+02
     -1.926  0.7107E+01  0.2671E+02
     -1.812  0.6846E+01  0.2741E+02
     -1.697  0.2697E+01  0.2795E+02
     -1.583  0.9177E+01  0.2847E+02
     -1.469  0.7334E+01  0.2956E+02
     -1.354  0.5862E+00  0.3000E+02
     -1.240  0.1015E+02  0.3046E+02
     -1.126  0.6486E+01  0.3180E+02
     -1.011  0.2092E+01  0.3202E+02
     -0.897  0.9984E+01  0.3364E+02
     -0.783  0.1037E+01  0.3393E+02
     -0.668  0.6563E+01  0.3442E+02
     -0.554  0.1054E+02  0.3538E+02
     -0.440  0.8006E+01  0.3641E+02
     -0.325  0.5548E+01  0.3751E+02
     -0.211  0.5995E+01  0.3809E+02
     -0.096  0.8787E+01  0.3905E+02
      0.018  0.4760E+01  0.3991E+02
      0.132  0.8908E+01  0.4063E+02
      0.247  0.4192E+01  0.4189E+02
      0.361  0.4781E+01  0.4213E+02
      0.475  0.9453E+01  0.4343E+02
      0.590  0.3279E+01  0.4387E+02
      0.704  0.5161E+01  0.4437E+02
      0.818  0.1326E+02  0.4532E+02
      0.933  0.5235E+01  0.4627E+02
      1.047  0.1394E+02  0.4724E+02
      1.161  0.2161E+01  0.4798E+02
      1.276  0.0000E+00  0.4800E+02
      1.390  0.0000E+00  0.4800E+02
      1.504  0.0000E+00  0.4800E+02
      1.619  0.0000E+00  0.4800E+02
      1.733  0.0000E+00  0.4800E+02
      1.848  0.0000E+00  0.4800E+02
      1.962  0.0000E+00  0.4800E+02
      2.076  0.0000E+00  0.4800E+02
      2.191  0.0000E+00  0.4800E+02
      2.305  0.0000E+00  0.4800E+02
      2.419  0.0000E+00  0.4800E+02
      2.534  0.0000E+00  0.4800E+02
      2.648  0.0000E+00  0.4800E+02
      2.762  0.0000E+00  0.4800E+02
      2.877  0.0000E+00  0.4800E+02
      2.991  0.0000E+00  0.4800E+02
      3.105  0.0000E+00  0.4800E+02
      3.220  0.0000E+00  0.4800E+02
      3.334  0.0000E+00  0.4800E+02
      3.448  0.0000E+00  0.4800E+02
      3.563  0.0000E+00  0.4800E+02
      3.677  0.0000E+00  0.4800E+02
      3.792  0.0000E+00  0.4800E+02
      3.906  0.0000E+00  0.4800E+02
      4.020  0.0000E+00  0.4800E+02
      4.135  0.0000E+00  0.4800E+02
      4.249  0.0000E+00  0.4800E+02
      4.363  0.0000E+00  0.4800E+02
      4.478  0.0000E+00  0.4800E+02
      4.592  0.0000E+00  0.4800E+02
      4.706  0.0000E+00  0.4800E+02
      4.821  0.0000E+00  0.4800E+02
      4.935  0.0000E+00  0.4800E+02
      5.049  0.0000E+00  0.4800E+02
      5.164  0.0000E+00  0.4800E+02
      5.278  0.0000E+00  0.4800E+02
      5.392  0.0000E+00  0.4800E+02
      5.507  0.0000E+00  0.4800E+02
      5.621  0.0000E+00  0.4800E+02
      5.735  0.0000E+00  0.4800E+02
      5.850  0.0000E+00  0.4800E+02
      5.964  0.0000E+00  0.4800E+02
      6.079  0.0000E+00  0.4800E+02
      6.193  0.0000E+00  0.4800E+02
      6.307  0.0000E+00  0.4800E+02
      6.422  0.0000E+00  0.4800E+02
      6.536  0.0000E+00  0.4800E+02
      6.650  0.0000E+00  0.4800E+02
      6.765  0.0000E+00  0.4800E+02
      6.879  0.0000E+00  0.4800E+02
      6.993  0.0000E+00  0.4800E+02
      7.108  0.8405E-04  0.4800E+02
      7.222  0.1538E-01  0.4800E+02
      7.336  0.5705E-01  0.4800E+02
      7.451  0.1251E+00  0.4801E+02
      7.565  0.2097E+00  0.4803E+02
      7.679  0.2551E+00  0.4806E+02
      7.794  0.2825E+00  0.4809E+02
      7.908  0.3084E+00  0.4813E+02
      8.023  0.3547E+00  0.4816E+02
      8.137  0.4037E+00  0.4821E+02
      8.251  0.4554E+00  0.4826E+02
      8.366  0.5094E+00  0.4831E+02
      8.480  0.5723E+00  0.4837E+02
      8.594  0.7324E+00  0.4845E+02
      8.709  0.8857E+00  0.4854E+02
      8.823  0.8495E+00  0.4864E+02
      8.937  0.9124E+00  0.4874E+02
      9.052  0.9775E+00  0.4884E+02
      9.166  0.1045E+01  0.4896E+02
      9.280  0.1419E+01  0.4909E+02
      9.395  0.1571E+01  0.4927E+02
      9.509  0.1316E+01  0.4943E+02
      9.623  0.1253E+01  0.4958E+02
      9.738  0.1475E+01  0.4974E+02
      9.852  0.1921E+01  0.4991E+02
      9.967  0.1192E+01  0.5011E+02
     10.081  0.1077E+01  0.5023E+02
     10.195  0.2630E+01  0.5042E+02
     10.310  0.9252E+01  0.5104E+02
     10.424  0.3653E+01  0.5195E+02
     10.538  0.5559E+01  0.5246E+02
     10.653  0.8024E+01  0.5334E+02
     10.767  0.5035E+01  0.5408E+02
     10.881  0.2348E+01  0.5446E+02
     10.996  0.3843E+01  0.5477E+02
     11.110  0.6676E+01  0.5543E+02
     11.224  0.3615E+01  0.5604E+02
     11.339  0.6028E+01  0.5659E+02
     11.453  0.6508E+01  0.5736E+02
     11.567  0.2427E+01  0.5786E+02
     11.682  0.3021E+00  0.5799E+02
     11.796  0.2058E-01  0.5800E+02
     11.911  0.0000E+00  0.5800E+02
     12.025  0.0000E+00  0.5800E+02
     12.139  0.0000E+00  0.5800E+02
     12.254  0.0000E+00  0.5800E+02
     12.368  0.0000E+00  0.5800E+02
     12.482  0.0000E+00  0.5800E+02
     12.597  0.0000E+00  0.5800E+02
     12.711  0.0000E+00  0.5800E+02
     12.825  0.0000E+00  0.5800E+02
     12.940  0.0000E+00  0.5800E+02
     13.054  0.0000E+00  0.5800E+02
     13.168  0.0000E+00  0.5800E+02
     13.283  0.0000E+00  0.5800E+02
     13.397  0.0000E+00  0.5800E+02
     13.511  0.0000E+00  0.5800E+02
     13.626  0.0000E+00  0.5800E+02
     13.740  0.0000E+00  0.5800E+02
     13.854  0.0000E+00  0.5800E+02
