 vasp.5.4.1 05Feb16 (build Mar 02 2016 14:09:44) complex                        
  
 executed on   Abel-impi-ifc-cuda date 2019.09.13  11:29:18
 running on    1 total cores
 distrk:  each k-point on    1 cores,    1 groups
 distr:  one band on NCORES_PER_BAND=   1 cores,    1 groups


--------------------------------------------------------------------------------------------------------


 INCAR:
 POTCAR:   PAW_PBE Si 05Jan2001                   
 POTCAR:   PAW_PBE O 08Apr2002                    
 POTCAR:   PAW_PBE Si 05Jan2001                   
   VRHFIN =Si: s2p2                                                             
   LEXCH  = PE                                                                  
   EATOM  =   103.0669 eV,    7.5752 Ry                                         
                                                                                
   TITEL  = PAW_PBE Si 05Jan2001                                                
   LULTRA =        F    use ultrasoft PP ?                                      
   IUNSCR =        1    unscreen: 0-lin 1-nonlin 2-no                           
   RPACOR =    1.500    partial core radius                                     
   POMASS =   28.085; ZVAL   =    4.000    mass and valenz                      
   RCORE  =    1.900    outmost cutoff radius                                   
   RWIGS  =    2.480; RWIGS  =    1.312    wigner-seitz radius (au A)           
   ENMAX  =  245.345; ENMIN  =  184.009 eV                                      
   ICORE  =        2    local potential                                         
   LCOR   =        T    correct aug charges                                     
   LPAW   =        T    paw PP                                                  
   EAUG   =  322.069                                                            
   DEXC   =    -.007                                                            
   RMAX   =    2.944    core radius for proj-oper                               
   RAUG   =    1.300    factor for augmentation sphere                          
   RDEP   =    1.993    radius for radial grids                                 
   QCUT   =   -4.246; QGAM   =    8.493    optimization parameters              
                                                                                
   Description                                                                  
     l     E      TYP  RCUT    TYP  RCUT                                        
     0   .000     23  1.900                                                     
     0   .000     23  1.900                                                     
     1   .000     23  1.900                                                     
     1   .000     23  1.900                                                     
     2   .000      7  1.900                                                     
  local pseudopotential read in
  partial core-charges read in
  atomic valenz-charges read in
  non local Contribution for L=           0  read in
    real space projection operators read in
  non local Contribution for L=           0  read in
    real space projection operators read in
  non local Contribution for L=           1  read in
    real space projection operators read in
  non local Contribution for L=           1  read in
    real space projection operators read in
    PAW grid and wavefunctions read in
 
   number of l-projection  operators is LMAX  =           4
   number of lm-projection operators is LMMAX =           8
 
 POTCAR:   PAW_PBE O 08Apr2002                    
   VRHFIN =O: s2p4                                                              
   LEXCH  = PE                                                                  
   EATOM  =   432.3788 eV,   31.7789 Ry                                         
                                                                                
   TITEL  = PAW_PBE O 08Apr2002                                                 
   LULTRA =        F    use ultrasoft PP ?                                      
   IUNSCR =        0    unscreen: 0-lin 1-nonlin 2-no                           
   RPACOR =     .000    partial core radius                                     
   POMASS =   16.000; ZVAL   =    6.000    mass and valenz                      
   RCORE  =    1.520    outmost cutoff radius                                   
   RWIGS  =    1.550; RWIGS  =     .820    wigner-seitz radius (au A)           
   ENMAX  =  400.000; ENMIN  =  300.000 eV                                      
   ICORE  =        2    local potential                                         
   LCOR   =        T    correct aug charges                                     
   LPAW   =        T    paw PP                                                  
   EAUG   =  605.392                                                            
   DEXC   =     .000                                                            
   RMAX   =    2.264    core radius for proj-oper                               
   RAUG   =    1.300    factor for augmentation sphere                          
   RDEP   =    1.550    radius for radial grids                                 
   QCUT   =   -5.520; QGAM   =   11.041    optimization parameters              
                                                                                
   Description                                                                  
     l     E      TYP  RCUT    TYP  RCUT                                        
     0   .000     23  1.200                                                     
     0  -.700     23  1.200                                                     
     1   .000     23  1.520                                                     
     1   .600     23  1.520                                                     
     2   .000      7  1.500                                                     
  local pseudopotential read in
  atomic valenz-charges read in
  non local Contribution for L=           0  read in
    real space projection operators read in
  non local Contribution for L=           0  read in
    real space projection operators read in
  non local Contribution for L=           1  read in
    real space projection operators read in
  non local Contribution for L=           1  read in
    real space projection operators read in
    PAW grid and wavefunctions read in
 
   number of l-projection  operators is LMAX  =           4
   number of lm-projection operators is LMMAX =           8
 
 Optimization of the real space projectors (new method)

 maximal supplied QI-value         = 19.84
 optimisation between [QCUT,QGAM] = [ 11.91, 24.01] = [ 39.69,161.42] Ry 
 Optimized for a Real-space Cutoff    1.08 Angstroem

   l    n(q)    QCUT    max X(q) W(low)/X(q) W(high)/X(q)  e(spline) 
   0      8    11.905     8.708    0.29E-04    0.28E-04    0.61E-08
   0      8    11.905   106.241    0.20E-03    0.38E-03    0.77E-07
   1      7    11.905     5.901    0.64E-04    0.18E-04    0.15E-07
   1      7    11.905    73.241    0.50E-03    0.24E-03    0.63E-07
 Optimization of the real space projectors (new method)

 maximal supplied QI-value         = 24.76
 optimisation between [QCUT,QGAM] = [ 11.88, 24.01] = [ 39.54,161.47] Ry 
 Optimized for a Real-space Cutoff    1.05 Angstroem

   l    n(q)    QCUT    max X(q) W(low)/X(q) W(high)/X(q)  e(spline) 
   0      7    11.883     4.192    0.13E-04    0.53E-04    0.27E-07
   0      7    11.883     8.473    0.35E-03    0.22E-03    0.22E-06
   1      7    11.883     2.474    0.48E-04    0.76E-04    0.25E-07
   1      7    11.883     3.912    0.38E-03    0.34E-04    0.20E-06
 PAW_PBE Si 05Jan2001                   :
 energy of atom  1       EATOM= -103.0669
 kinetic energy error for atom=    0.0004 (will be added to EATOM!!)
 PAW_PBE O 08Apr2002                    :
 energy of atom  2       EATOM= -432.3788
 kinetic energy error for atom=    0.0194 (will be added to EATOM!!)
 
 
 POSCAR: SiO2_P3221_icsd_34644                   
  positions in direct lattice
  No initial velocities read in
 exchange correlation table for  LEXCH =        8
   RHO(1)=    0.500       N(1)  =     2000
   RHO(2)=  100.500       N(2)  =     4000
 


--------------------------------------------------------------------------------------------------------


 ion  position               nearest neighbor table
   1  0.470  0.020  0.667-   4 1.51   5 1.61   7 1.63   9 1.68   3 2.98   2 3.03   2 3.11   3 3.14

   2  0.000  0.470  0.333-   8 1.60   5 1.60   6 1.62   7 1.62   1 3.03   3 3.06   3 3.06   1 3.11

   3  0.530  0.530  0.000-   6 1.60   9 1.60   8 1.62   4 1.62   1 2.98   2 3.06   2 3.06   1 3.14

   4  0.414  0.266  0.786-   1 1.51   3 1.62
   5  0.734  0.148  0.452-   2 1.60   1 1.61
   6  0.852  0.586  0.119-   3 1.60   2 1.62
   7  0.148  0.734  0.548-   2 1.62   1 1.63
   8  0.266  0.414  0.214-   2 1.60   3 1.62
   9  0.586  0.852  0.881-   3 1.60   1 1.68
 
  LATTYP: Found a hexagonal cell.
 ALAT       =     4.9137000030
 C/A-ratio  =     1.1000122101
  
  Lattice vectors:
  
 A1 = (   4.9137000000,   0.0000000000,   0.0000000000)
 A2 = (  -2.4568500000,   4.2553890300,   0.0000000000)
 A3 = (   0.0000000000,   0.0000000000,   5.4051300000)


Analysis of symmetry for initial positions (statically):
=====================================================================
 Subroutine PRICEL returns:
 Original cell was already a primitive cell.
 

 Routine SETGRP: Setting up the symmetry group for a 
 hexagonal supercell.


 Subroutine GETGRP returns: Found  1 space group operations
 (whereof  1 operations were pure point group operations)
 out of a pool of 24 trial point group operations.


The static configuration has the point symmetry C_1 .


Analysis of symmetry for dynamics (positions and initial velocities):
=====================================================================
 Subroutine PRICEL returns:
 Original cell was already a primitive cell.
 

 Routine SETGRP: Setting up the symmetry group for a 
 hexagonal supercell.


 Subroutine GETGRP returns: Found  1 space group operations
 (whereof  1 operations were pure point group operations)
 out of a pool of 24 trial point group operations.


The dynamic configuration has the point symmetry C_1 .


 Subroutine INISYM returns: Found  1 space group operations
 (whereof  1 operations are pure point group operations),
 and found     1 'primitive' translations

 
 
 KPOINTS: k-density: 4.0                          

Automatic generation of k-mesh.
Space group operators:
 irot       det(A)        alpha          n_x          n_y          n_z        tau_x        tau_y        tau_z
    1     1.000000     0.000001     1.000000     0.000000     0.000000     0.000000     0.000000     0.000000
 
 Subroutine IBZKPT returns following result:
 ===========================================
 
 Found     92 irreducible k-points:
 
 Following reciprocal coordinates:
            Coordinates               Weight
  0.000000  0.000000  0.000000      1.000000
  0.166667  0.000000  0.000000      2.000000
  0.333333  0.000000  0.000000      2.000000
  0.500000  0.000000  0.000000      1.000000
  0.000000  0.166667  0.000000      2.000000
  0.166667  0.166667  0.000000      2.000000
  0.333333  0.166667  0.000000      2.000000
  0.500000  0.166667  0.000000      2.000000
 -0.333333  0.166667  0.000000      2.000000
 -0.166667  0.166667  0.000000      2.000000
  0.000000  0.333333  0.000000      2.000000
  0.166667  0.333333  0.000000      2.000000
  0.333333  0.333333  0.000000      2.000000
  0.500000  0.333333  0.000000      2.000000
 -0.333333  0.333333  0.000000      2.000000
 -0.166667  0.333333  0.000000      2.000000
  0.000000  0.500000  0.000000      1.000000
  0.166667  0.500000  0.000000      2.000000
  0.333333  0.500000  0.000000      2.000000
  0.500000  0.500000  0.000000      1.000000
  0.000000  0.000000  0.200000      2.000000
  0.166667  0.000000  0.200000      2.000000
  0.333333  0.000000  0.200000      2.000000
  0.500000  0.000000  0.200000      2.000000
 -0.333333  0.000000  0.200000      2.000000
 -0.166667  0.000000  0.200000      2.000000
  0.000000  0.166667  0.200000      2.000000
  0.166667  0.166667  0.200000      2.000000
  0.333333  0.166667  0.200000      2.000000
  0.500000  0.166667  0.200000      2.000000
 -0.333333  0.166667  0.200000      2.000000
 -0.166667  0.166667  0.200000      2.000000
  0.000000  0.333333  0.200000      2.000000
  0.166667  0.333333  0.200000      2.000000
  0.333333  0.333333  0.200000      2.000000
  0.500000  0.333333  0.200000      2.000000
 -0.333333  0.333333  0.200000      2.000000
 -0.166667  0.333333  0.200000      2.000000
  0.000000  0.500000  0.200000      2.000000
  0.166667  0.500000  0.200000      2.000000
  0.333333  0.500000  0.200000      2.000000
  0.500000  0.500000  0.200000      2.000000
 -0.333333  0.500000  0.200000      2.000000
 -0.166667  0.500000  0.200000      2.000000
  0.000000 -0.333333  0.200000      2.000000
  0.166667 -0.333333  0.200000      2.000000
  0.333333 -0.333333  0.200000      2.000000
  0.500000 -0.333333  0.200000      2.000000
 -0.333333 -0.333333  0.200000      2.000000
 -0.166667 -0.333333  0.200000      2.000000
  0.000000 -0.166667  0.200000      2.000000
  0.166667 -0.166667  0.200000      2.000000
  0.333333 -0.166667  0.200000      2.000000
  0.500000 -0.166667  0.200000      2.000000
 -0.333333 -0.166667  0.200000      2.000000
 -0.166667 -0.166667  0.200000      2.000000
  0.000000  0.000000  0.400000      2.000000
  0.166667  0.000000  0.400000      2.000000
  0.333333  0.000000  0.400000      2.000000
  0.500000  0.000000  0.400000      2.000000
 -0.333333  0.000000  0.400000      2.000000
 -0.166667  0.000000  0.400000      2.000000
  0.000000  0.166667  0.400000      2.000000
  0.166667  0.166667  0.400000      2.000000
  0.333333  0.166667  0.400000      2.000000
  0.500000  0.166667  0.400000      2.000000
 -0.333333  0.166667  0.400000      2.000000
 -0.166667  0.166667  0.400000      2.000000
  0.000000  0.333333  0.400000      2.000000
  0.166667  0.333333  0.400000      2.000000
  0.333333  0.333333  0.400000      2.000000
  0.500000  0.333333  0.400000      2.000000
 -0.333333  0.333333  0.400000      2.000000
 -0.166667  0.333333  0.400000      2.000000
  0.000000  0.500000  0.400000      2.000000
  0.166667  0.500000  0.400000      2.000000
  0.333333  0.500000  0.400000      2.000000
  0.500000  0.500000  0.400000      2.000000
 -0.333333  0.500000  0.400000      2.000000
 -0.166667  0.500000  0.400000      2.000000
  0.000000 -0.333333  0.400000      2.000000
  0.166667 -0.333333  0.400000      2.000000
  0.333333 -0.333333  0.400000      2.000000
  0.500000 -0.333333  0.400000      2.000000
 -0.333333 -0.333333  0.400000      2.000000
 -0.166667 -0.333333  0.400000      2.000000
  0.000000 -0.166667  0.400000      2.000000
  0.166667 -0.166667  0.400000      2.000000
  0.333333 -0.166667  0.400000      2.000000
  0.500000 -0.166667  0.400000      2.000000
 -0.333333 -0.166667  0.400000      2.000000
 -0.166667 -0.166667  0.400000      2.000000
 
 Following cartesian coordinates:
            Coordinates               Weight
  0.000000  0.000000  0.000000      1.000000
  0.033919  0.019583  0.000000      2.000000
  0.067838  0.039166  0.000000      2.000000
  0.101756  0.058749  0.000000      1.000000
  0.000000  0.039166  0.000000      2.000000
  0.033919  0.058749  0.000000      2.000000
  0.067838  0.078332  0.000000      2.000000
  0.101756  0.097915  0.000000      2.000000
 -0.067838  0.000000  0.000000      2.000000
 -0.033919  0.019583  0.000000      2.000000
  0.000000  0.078332  0.000000      2.000000
  0.033919  0.097915  0.000000      2.000000
  0.067838  0.117498  0.000000      2.000000
  0.101756  0.137081  0.000000      2.000000
 -0.067838  0.039166  0.000000      2.000000
 -0.033919  0.058749  0.000000      2.000000
  0.000000  0.117498  0.000000      1.000000
  0.033919  0.137081  0.000000      2.000000
  0.067838  0.156664  0.000000      2.000000
  0.101756  0.176247  0.000000      1.000000
  0.000000  0.000000  0.037002      2.000000
  0.033919  0.019583  0.037002      2.000000
  0.067838  0.039166  0.037002      2.000000
  0.101756  0.058749  0.037002      2.000000
 -0.067838 -0.039166  0.037002      2.000000
 -0.033919 -0.019583  0.037002      2.000000
  0.000000  0.039166  0.037002      2.000000
  0.033919  0.058749  0.037002      2.000000
  0.067838  0.078332  0.037002      2.000000
  0.101756  0.097915  0.037002      2.000000
 -0.067838  0.000000  0.037002      2.000000
 -0.033919  0.019583  0.037002      2.000000
  0.000000  0.078332  0.037002      2.000000
  0.033919  0.097915  0.037002      2.000000
  0.067838  0.117498  0.037002      2.000000
  0.101756  0.137081  0.037002      2.000000
 -0.067838  0.039166  0.037002      2.000000
 -0.033919  0.058749  0.037002      2.000000
  0.000000  0.117498  0.037002      2.000000
  0.033919  0.137081  0.037002      2.000000
  0.067838  0.156664  0.037002      2.000000
  0.101756  0.176247  0.037002      2.000000
 -0.067838  0.078332  0.037002      2.000000
 -0.033919  0.097915  0.037002      2.000000
  0.000000 -0.078332  0.037002      2.000000
  0.033919 -0.058749  0.037002      2.000000
  0.067838 -0.039166  0.037002      2.000000
  0.101756 -0.019583  0.037002      2.000000
 -0.067838 -0.117498  0.037002      2.000000
 -0.033919 -0.097915  0.037002      2.000000
  0.000000 -0.039166  0.037002      2.000000
  0.033919 -0.019583  0.037002      2.000000
  0.067838 -0.000000  0.037002      2.000000
  0.101756  0.019583  0.037002      2.000000
 -0.067838 -0.078332  0.037002      2.000000
 -0.033919 -0.058749  0.037002      2.000000
  0.000000  0.000000  0.074004      2.000000
  0.033919  0.019583  0.074004      2.000000
  0.067838  0.039166  0.074004      2.000000
  0.101756  0.058749  0.074004      2.000000
 -0.067838 -0.039166  0.074004      2.000000
 -0.033919 -0.019583  0.074004      2.000000
  0.000000  0.039166  0.074004      2.000000
  0.033919  0.058749  0.074004      2.000000
  0.067838  0.078332  0.074004      2.000000
  0.101756  0.097915  0.074004      2.000000
 -0.067838  0.000000  0.074004      2.000000
 -0.033919  0.019583  0.074004      2.000000
  0.000000  0.078332  0.074004      2.000000
  0.033919  0.097915  0.074004      2.000000
  0.067838  0.117498  0.074004      2.000000
  0.101756  0.137081  0.074004      2.000000
 -0.067838  0.039166  0.074004      2.000000
 -0.033919  0.058749  0.074004      2.000000
  0.000000  0.117498  0.074004      2.000000
  0.033919  0.137081  0.074004      2.000000
  0.067838  0.156664  0.074004      2.000000
  0.101756  0.176247  0.074004      2.000000
 -0.067838  0.078332  0.074004      2.000000
 -0.033919  0.097915  0.074004      2.000000
  0.000000 -0.078332  0.074004      2.000000
  0.033919 -0.058749  0.074004      2.000000
  0.067838 -0.039166  0.074004      2.000000
  0.101756 -0.019583  0.074004      2.000000
 -0.067838 -0.117498  0.074004      2.000000
 -0.033919 -0.097915  0.074004      2.000000
  0.000000 -0.039166  0.074004      2.000000
  0.033919 -0.019583  0.074004      2.000000
  0.067838 -0.000000  0.074004      2.000000
  0.101756  0.019583  0.074004      2.000000
 -0.067838 -0.078332  0.074004      2.000000
 -0.033919 -0.058749  0.074004      2.000000
 
 TETIRR: Found    540 inequivalent tetrahedra from     1080


--------------------------------------------------------------------------------------------------------




 Dimension of arrays:
   k-points           NKPTS =     92   k-points in BZ     NKDIM =     92   number of bands    NBANDS=     29
   number of dos      NEDOS =    301   number of ions     NIONS =      9
   non local maximal  LDIM  =      4   non local SUM 2l+1 LMDIM =      8
   total plane-waves  NPLWV =  25088
   max r-space proj   IRMAX =   1212   max aug-charges    IRDMAX=   7620
   dimension x,y,z NGX =    28 NGY =   28 NGZ =   32
   dimension x,y,z NGXF=    56 NGYF=   56 NGZF=   64
   support grid    NGXF=    56 NGYF=   56 NGZF=   64
   ions per type =               3   6
 NGX,Y,Z   is equivalent  to a cutoff of   9.47,  9.47,  9.84 a.u.
 NGXF,Y,Z  is equivalent  to a cutoff of  18.95, 18.95, 19.68 a.u.


 I would recommend the setting:
   dimension x,y,z NGX =    28 NGY =   28 NGZ =   31
 SYSTEM =  unknown system                          
 POSCAR =  SiO2_P3221_icsd_34644                   

 Startparameter for this run:
   NWRITE =      2    write-flag & timer
   PREC   = normal    normal or accurate (medium, high low for compatibility)
   ISTART =      0    job   : 0-new  1-cont  2-samecut
   ICHARG =      2    charge: 1-file 2-atom 10-const
   ISPIN  =      1    spin polarized calculation?
   LNONCOLLINEAR =      F non collinear calculations
   LSORBIT =      F    spin-orbit coupling
   INIWAV =      1    electr: 0-lowe 1-rand  2-diag
   LASPH  =      F    aspherical Exc in radial PAW
   METAGGA=      F    non-selfconsistent MetaGGA calc.

 Electronic Relaxation 1
   ENCUT  =  550.0 eV  40.42 Ry    6.36 a.u.   9.40  9.40 10.34*2*pi/ulx,y,z
   ENINI  =  550.0     initial cutoff
   ENAUG  =  605.4 eV  augmentation charge cutoff
   NELM   =     60;   NELMIN=  4; NELMDL= -5     # of ELM steps 
   EDIFF  = 0.1E-04   stopping-criterion for ELM
   LREAL  =      T    real-space projection
   NLSPLINE    = F    spline interpolate recip. space projectors
   LCOMPAT=      F    compatible to vasp.4.4
   GGA_COMPAT  = T    GGA compatible to vasp.4.4-vasp.4.6
   LMAXPAW     = -100 max onsite density
   LMAXMIX     =    2 max onsite mixed and CHGCAR
   VOSKOWN=      0    Vosko Wilk Nusair interpolation
   ROPT   =   -0.00050  -0.00050
 Ionic relaxation
   EDIFFG = 0.1E-03   stopping-criterion for IOM
   NSW    =      0    number of steps for IOM
   NBLOCK =      1;   KBLOCK =      1    inner block; outer block 
   IBRION =     -1    ionic relax: 0-MD 1-quasi-New 2-CG
   NFREE  =      0    steps in history (QN), initial steepest desc. (CG)
   ISIF   =      2    stress and relaxation
   IWAVPR =     10    prediction:  0-non 1-charg 2-wave 3-comb
   ISYM   =      2    0-nonsym 1-usesym 2-fastsym
   LCORR  =      T    Harris-Foulkes like correction to forces

   POTIM  = 0.5000    time-step for ionic-motion
   TEIN   =    0.0    initial temperature
   TEBEG  =    0.0;   TEEND  =   0.0 temperature during run
   SMASS  =  -3.00    Nose mass-parameter (am)
   estimated Nose-frequenzy (Omega)   =  0.10E-29 period in steps =****** mass=  -0.552E-27a.u.
   SCALEE = 1.0000    scale energy and forces
   NPACO  =    256;   APACO  = 16.0  distance and # of slots for P.C.
   PSTRESS=    0.0 pullay stress

  Mass of Ions in am
   POMASS =  28.09 16.00
  Ionic Valenz
   ZVAL   =   4.00  6.00
  Atomic Wigner-Seitz radii
   RWIGS  =  -1.00 -1.00
  virtual crystal weights 
   VCA    =   1.00  1.00
   NELECT =      48.0000    total number of electrons
   NUPDOWN=      -1.0000    fix difference up-down

 DOS related values:
   EMIN   =  10.00;   EMAX   =-10.00  energy-range for DOS
   EFERMI =   0.00
   ISMEAR =    -5;   SIGMA  =   0.20  broadening in eV -4-tet -1-fermi 0-gaus

 Electronic relaxation 2 (details)
   IALGO  =     68    algorithm
   LDIAG  =      T    sub-space diagonalisation (order eigenvalues)
   LSUBROT=      F    optimize rotation matrix (better conditioning)
   TURBO    =      0    0=normal 1=particle mesh
   IRESTART =      0    0=no restart 2=restart with 2 vectors
   NREBOOT  =      0    no. of reboots
   NMIN     =      0    reboot dimension
   EREF     =   0.00    reference energy to select bands
   IMIX   =      4    mixing-type and parameters
     AMIX     =   0.40;   BMIX     =  1.00
     AMIX_MAG =   1.60;   BMIX_MAG =  1.00
     AMIN     =   0.10
     WC   =   100.;   INIMIX=   1;  MIXPRE=   1;  MAXMIX= -45

 Intra band minimization:
   WEIMIN = 0.0000     energy-eigenvalue tresh-hold
   EBREAK =  0.86E-07  absolut break condition
   DEPER  =   0.30     relativ break condition  

   TIME   =   0.40     timestep for ELM

  volume/ion in A,a.u.               =      12.56        84.74
  Fermi-wavevector in a.u.,A,eV,Ry     =   1.230563  2.325427 20.603106  1.514286
  Thomas-Fermi vector in A             =   2.365407
 
 Write flags
   LWAVE  =      F    write WAVECAR
   LCHARG =      T    write CHGCAR
   LVTOT  =      F    write LOCPOT, total local potential
   LVHAR  =      F    write LOCPOT, Hartree potential only
   LELF   =      F    write electronic localiz. function (ELF)
   LORBIT =      0    0 simple, 1 ext, 2 COOP (PROOUT)


 Dipole corrections
   LMONO  =      F    monopole corrections only (constant potential shift)
   LDIPOL =      F    correct potential (dipole corrections)
   IDIPOL =      0    1-x, 2-y, 3-z, 4-all directions 
   EPSILON=  1.0000000 bulk dielectric constant

 Exchange correlation treatment:
   GGA     =    --    GGA type
   LEXCH   =     8    internal setting for exchange type
   VOSKOWN=      0    Vosko Wilk Nusair interpolation
   LHFCALC =     F    Hartree Fock is set to
   LHFONE  =     F    Hartree Fock one center treatment
   AEXX    =    0.0000 exact exchange contribution

 Linear response parameters
   LEPSILON=     F    determine dielectric tensor
   LRPA    =     F    only Hartree local field effects (RPA)
   LNABLA  =     F    use nabla operator in PAW spheres
   LVEL    =     F    velocity operator in full k-point grid
   LINTERFAST=   F  fast interpolation
   KINTER  =     0    interpolate to denser k-point grid
   CSHIFT  =0.1000    complex shift for real part using Kramers Kronig
   OMEGAMAX=  -1.0    maximum frequency
   DEG_THRESHOLD= 0.2000000E-02 threshold for treating states as degnerate
   RTIME   =    0.100 relaxation time in fs

 Orbital magnetization related:
   ORBITALMAG=     F  switch on orbital magnetization
   LCHIMAG   =     F  perturbation theory with respect to B field
   DQ        =  0.001000  dq finite difference perturbation B field



--------------------------------------------------------------------------------------------------------


 Static calculation
 charge density and potential will be updated during run
 non-spin polarized calculation
 RMM-DIIS sequential band-by-band and
  variant of blocked Davidson during initial phase
 perform sub-space diagonalisation
    before iterative eigenvector-optimisation
 modified Broyden-mixing scheme, WC =      100.0
 initial mixing is a Kerker type mixing with AMIX =  0.4000 and BMIX =      1.0000
 Hartree-type preconditioning will be used
 using additional bands            5
 real space projection scheme for non local part
 use partial core corrections
 calculate Harris-corrections to forces 
   (improved forces if not selfconsistent)
 use gradient corrections 
 use of overlap-Matrix (Vanderbilt PP)
 Fermi weights with tetrahedron method with Bloechl corrections


--------------------------------------------------------------------------------------------------------


  energy-cutoff  :      550.00
  volume of cell :      113.02
      direct lattice vectors                 reciprocal lattice vectors
     4.913700000  0.000000000  0.000000000     0.203512628  0.117498070  0.000000000
    -2.456850000  4.255389030  0.000000000     0.000000000  0.234996141  0.000000000
     0.000000000  0.000000000  5.405130000     0.000000000  0.000000000  0.185009426

  length of vectors
     4.913700000  4.913700003  5.405130000     0.234996141  0.234996141  0.185009426


 
 k-points in units of 2pi/SCALE and weight: k-density: 4.0                          
   0.00000000  0.00000000  0.00000000       0.006
   0.03391877  0.01958301  0.00000000       0.011
   0.06783754  0.03916602  0.00000000       0.011
   0.10175631  0.05874904  0.00000000       0.006
   0.00000000  0.03916602  0.00000000       0.011
   0.03391877  0.05874904  0.00000000       0.011
   0.06783754  0.07833205  0.00000000       0.011
   0.10175631  0.09791506  0.00000000       0.011
  -0.06783754  0.00000000  0.00000000       0.011
  -0.03391877  0.01958301  0.00000000       0.011
   0.00000000  0.07833205  0.00000000       0.011
   0.03391877  0.09791506  0.00000000       0.011
   0.06783754  0.11749807  0.00000000       0.011
   0.10175631  0.13708108  0.00000000       0.011
  -0.06783754  0.03916602  0.00000000       0.011
  -0.03391877  0.05874904  0.00000000       0.011
   0.00000000  0.11749807  0.00000000       0.006
   0.03391877  0.13708108  0.00000000       0.011
   0.06783754  0.15666409  0.00000000       0.011
   0.10175631  0.17624711  0.00000000       0.006
   0.00000000  0.00000000  0.03700189       0.011
   0.03391877  0.01958301  0.03700189       0.011
   0.06783754  0.03916602  0.03700189       0.011
   0.10175631  0.05874904  0.03700189       0.011
  -0.06783754 -0.03916602  0.03700189       0.011
  -0.03391877 -0.01958301  0.03700189       0.011
   0.00000000  0.03916602  0.03700189       0.011
   0.03391877  0.05874904  0.03700189       0.011
   0.06783754  0.07833205  0.03700189       0.011
   0.10175631  0.09791506  0.03700189       0.011
  -0.06783754  0.00000000  0.03700189       0.011
  -0.03391877  0.01958301  0.03700189       0.011
   0.00000000  0.07833205  0.03700189       0.011
   0.03391877  0.09791506  0.03700189       0.011
   0.06783754  0.11749807  0.03700189       0.011
   0.10175631  0.13708108  0.03700189       0.011
  -0.06783754  0.03916602  0.03700189       0.011
  -0.03391877  0.05874904  0.03700189       0.011
   0.00000000  0.11749807  0.03700189       0.011
   0.03391877  0.13708108  0.03700189       0.011
   0.06783754  0.15666409  0.03700189       0.011
   0.10175631  0.17624711  0.03700189       0.011
  -0.06783754  0.07833205  0.03700189       0.011
  -0.03391877  0.09791506  0.03700189       0.011
   0.00000000 -0.07833205  0.03700189       0.011
   0.03391877 -0.05874904  0.03700189       0.011
   0.06783754 -0.03916602  0.03700189       0.011
   0.10175631 -0.01958301  0.03700189       0.011
  -0.06783754 -0.11749807  0.03700189       0.011
  -0.03391877 -0.09791506  0.03700189       0.011
   0.00000000 -0.03916602  0.03700189       0.011
   0.03391877 -0.01958301  0.03700189       0.011
   0.06783754 -0.00000000  0.03700189       0.011
   0.10175631  0.01958301  0.03700189       0.011
  -0.06783754 -0.07833205  0.03700189       0.011
  -0.03391877 -0.05874904  0.03700189       0.011
   0.00000000  0.00000000  0.07400377       0.011
   0.03391877  0.01958301  0.07400377       0.011
   0.06783754  0.03916602  0.07400377       0.011
   0.10175631  0.05874904  0.07400377       0.011
  -0.06783754 -0.03916602  0.07400377       0.011
  -0.03391877 -0.01958301  0.07400377       0.011
   0.00000000  0.03916602  0.07400377       0.011
   0.03391877  0.05874904  0.07400377       0.011
   0.06783754  0.07833205  0.07400377       0.011
   0.10175631  0.09791506  0.07400377       0.011
  -0.06783754  0.00000000  0.07400377       0.011
  -0.03391877  0.01958301  0.07400377       0.011
   0.00000000  0.07833205  0.07400377       0.011
   0.03391877  0.09791506  0.07400377       0.011
   0.06783754  0.11749807  0.07400377       0.011
   0.10175631  0.13708108  0.07400377       0.011
  -0.06783754  0.03916602  0.07400377       0.011
  -0.03391877  0.05874904  0.07400377       0.011
   0.00000000  0.11749807  0.07400377       0.011
   0.03391877  0.13708108  0.07400377       0.011
   0.06783754  0.15666409  0.07400377       0.011
   0.10175631  0.17624711  0.07400377       0.011
  -0.06783754  0.07833205  0.07400377       0.011
  -0.03391877  0.09791506  0.07400377       0.011
   0.00000000 -0.07833205  0.07400377       0.011
   0.03391877 -0.05874904  0.07400377       0.011
   0.06783754 -0.03916602  0.07400377       0.011
   0.10175631 -0.01958301  0.07400377       0.011
  -0.06783754 -0.11749807  0.07400377       0.011
  -0.03391877 -0.09791506  0.07400377       0.011
   0.00000000 -0.03916602  0.07400377       0.011
   0.03391877 -0.01958301  0.07400377       0.011
   0.06783754 -0.00000000  0.07400377       0.011
   0.10175631  0.01958301  0.07400377       0.011
  -0.06783754 -0.07833205  0.07400377       0.011
  -0.03391877 -0.05874904  0.07400377       0.011
 
 k-points in reciprocal lattice and weights: k-density: 4.0                          
   0.00000000  0.00000000  0.00000000       0.006
   0.16666667  0.00000000  0.00000000       0.011
   0.33333333  0.00000000  0.00000000       0.011
   0.50000000  0.00000000  0.00000000       0.006
   0.00000000  0.16666667  0.00000000       0.011
   0.16666667  0.16666667  0.00000000       0.011
   0.33333333  0.16666667  0.00000000       0.011
   0.50000000  0.16666667  0.00000000       0.011
  -0.33333333  0.16666667  0.00000000       0.011
  -0.16666667  0.16666667  0.00000000       0.011
   0.00000000  0.33333333  0.00000000       0.011
   0.16666667  0.33333333  0.00000000       0.011
   0.33333333  0.33333333  0.00000000       0.011
   0.50000000  0.33333333  0.00000000       0.011
  -0.33333333  0.33333333  0.00000000       0.011
  -0.16666667  0.33333333  0.00000000       0.011
   0.00000000  0.50000000  0.00000000       0.006
   0.16666667  0.50000000  0.00000000       0.011
   0.33333333  0.50000000  0.00000000       0.011
   0.50000000  0.50000000  0.00000000       0.006
   0.00000000  0.00000000  0.20000000       0.011
   0.16666667  0.00000000  0.20000000       0.011
   0.33333333  0.00000000  0.20000000       0.011
   0.50000000  0.00000000  0.20000000       0.011
  -0.33333333  0.00000000  0.20000000       0.011
  -0.16666667  0.00000000  0.20000000       0.011
   0.00000000  0.16666667  0.20000000       0.011
   0.16666667  0.16666667  0.20000000       0.011
   0.33333333  0.16666667  0.20000000       0.011
   0.50000000  0.16666667  0.20000000       0.011
  -0.33333333  0.16666667  0.20000000       0.011
  -0.16666667  0.16666667  0.20000000       0.011
   0.00000000  0.33333333  0.20000000       0.011
   0.16666667  0.33333333  0.20000000       0.011
   0.33333333  0.33333333  0.20000000       0.011
   0.50000000  0.33333333  0.20000000       0.011
  -0.33333333  0.33333333  0.20000000       0.011
  -0.16666667  0.33333333  0.20000000       0.011
   0.00000000  0.50000000  0.20000000       0.011
   0.16666667  0.50000000  0.20000000       0.011
   0.33333333  0.50000000  0.20000000       0.011
   0.50000000  0.50000000  0.20000000       0.011
  -0.33333333  0.50000000  0.20000000       0.011
  -0.16666667  0.50000000  0.20000000       0.011
   0.00000000 -0.33333333  0.20000000       0.011
   0.16666667 -0.33333333  0.20000000       0.011
   0.33333333 -0.33333333  0.20000000       0.011
   0.50000000 -0.33333333  0.20000000       0.011
  -0.33333333 -0.33333333  0.20000000       0.011
  -0.16666667 -0.33333333  0.20000000       0.011
   0.00000000 -0.16666667  0.20000000       0.011
   0.16666667 -0.16666667  0.20000000       0.011
   0.33333333 -0.16666667  0.20000000       0.011
   0.50000000 -0.16666667  0.20000000       0.011
  -0.33333333 -0.16666667  0.20000000       0.011
  -0.16666667 -0.16666667  0.20000000       0.011
   0.00000000  0.00000000  0.40000000       0.011
   0.16666667  0.00000000  0.40000000       0.011
   0.33333333  0.00000000  0.40000000       0.011
   0.50000000  0.00000000  0.40000000       0.011
  -0.33333333  0.00000000  0.40000000       0.011
  -0.16666667  0.00000000  0.40000000       0.011
   0.00000000  0.16666667  0.40000000       0.011
   0.16666667  0.16666667  0.40000000       0.011
   0.33333333  0.16666667  0.40000000       0.011
   0.50000000  0.16666667  0.40000000       0.011
  -0.33333333  0.16666667  0.40000000       0.011
  -0.16666667  0.16666667  0.40000000       0.011
   0.00000000  0.33333333  0.40000000       0.011
   0.16666667  0.33333333  0.40000000       0.011
   0.33333333  0.33333333  0.40000000       0.011
   0.50000000  0.33333333  0.40000000       0.011
  -0.33333333  0.33333333  0.40000000       0.011
  -0.16666667  0.33333333  0.40000000       0.011
   0.00000000  0.50000000  0.40000000       0.011
   0.16666667  0.50000000  0.40000000       0.011
   0.33333333  0.50000000  0.40000000       0.011
   0.50000000  0.50000000  0.40000000       0.011
  -0.33333333  0.50000000  0.40000000       0.011
  -0.16666667  0.50000000  0.40000000       0.011
   0.00000000 -0.33333333  0.40000000       0.011
   0.16666667 -0.33333333  0.40000000       0.011
   0.33333333 -0.33333333  0.40000000       0.011
   0.50000000 -0.33333333  0.40000000       0.011
  -0.33333333 -0.33333333  0.40000000       0.011
  -0.16666667 -0.33333333  0.40000000       0.011
   0.00000000 -0.16666667  0.40000000       0.011
   0.16666667 -0.16666667  0.40000000       0.011
   0.33333333 -0.16666667  0.40000000       0.011
   0.50000000 -0.16666667  0.40000000       0.011
  -0.33333333 -0.16666667  0.40000000       0.011
  -0.16666667 -0.16666667  0.40000000       0.011
 
 position of ions in fractional coordinates (direct lattice) 
   0.46980000  0.02000000  0.66667000
   0.00000000  0.46980000  0.33333000
   0.53020000  0.53020000  0.00000000
   0.41450000  0.26620000  0.78560000
   0.73380000  0.14830000  0.45227000
   0.85170000  0.58550000  0.11893000
   0.14830000  0.73380000  0.54773000
   0.26620000  0.41450000  0.21440000
   0.58550000  0.85170000  0.88107000
 
 position of ions in cartesian coordinates  (Angst):
   2.25931926  0.08510778  3.60343802
  -1.15422813  1.99918177  1.80169198
   1.30262187  2.25620726  0.00000000
   1.38271518  1.13278456  4.24627013
   3.24132221  0.63107419  2.44457815
   2.74651261  2.49153028  0.64283211
  -1.07413482  3.12260447  2.96055185
   0.28966261  1.76385875  1.15885987
   0.78447221  3.62431484  4.76229789
 


--------------------------------------------------------------------------------------------------------


 k-point  1 :   0.0000 0.0000 0.0000  plane waves:    3297
 k-point  2 :   0.1667 0.0000 0.0000  plane waves:    3328
 k-point  3 :   0.3333 0.0000 0.0000  plane waves:    3296
 k-point  4 :   0.5000 0.0000 0.0000  plane waves:    3326
 k-point  5 :   0.0000 0.1667 0.0000  plane waves:    3328
 k-point  6 :   0.1667 0.1667 0.0000  plane waves:    3323
 k-point  7 :   0.3333 0.1667 0.0000  plane waves:    3314
 k-point  8 :   0.5000 0.1667 0.0000  plane waves:    3314
 k-point  9 :  -0.3333 0.1667 0.0000  plane waves:    3323
 k-point 10 :  -0.1667 0.1667 0.0000  plane waves:    3328
 k-point 11 :   0.0000 0.3333 0.0000  plane waves:    3296
 k-point 12 :   0.1667 0.3333 0.0000  plane waves:    3314
 k-point 13 :   0.3333 0.3333 0.0000  plane waves:    3294
 k-point 14 :   0.5000 0.3333 0.0000  plane waves:    3314
 k-point 15 :  -0.3333 0.3333 0.0000  plane waves:    3296
 k-point 16 :  -0.1667 0.3333 0.0000  plane waves:    3323
 k-point 17 :   0.0000 0.5000 0.0000  plane waves:    3326
 k-point 18 :   0.1667 0.5000 0.0000  plane waves:    3314
 k-point 19 :   0.3333 0.5000 0.0000  plane waves:    3314
 k-point 20 :   0.5000 0.5000 0.0000  plane waves:    3326
 k-point 21 :   0.0000 0.0000 0.2000  plane waves:    3327
 k-point 22 :   0.1667 0.0000 0.2000  plane waves:    3324
 k-point 23 :   0.3333 0.0000 0.2000  plane waves:    3305
 k-point 24 :   0.5000 0.0000 0.2000  plane waves:    3308
 k-point 25 :  -0.3333 0.0000 0.2000  plane waves:    3305
 k-point 26 :  -0.1667 0.0000 0.2000  plane waves:    3324
 k-point 27 :   0.0000 0.1667 0.2000  plane waves:    3324
 k-point 28 :   0.1667 0.1667 0.2000  plane waves:    3309
 k-point 29 :   0.3333 0.1667 0.2000  plane waves:    3308
 k-point 30 :   0.5000 0.1667 0.2000  plane waves:    3308
 k-point 31 :  -0.3333 0.1667 0.2000  plane waves:    3309
 k-point 32 :  -0.1667 0.1667 0.2000  plane waves:    3324
 k-point 33 :   0.0000 0.3333 0.2000  plane waves:    3305
 k-point 34 :   0.1667 0.3333 0.2000  plane waves:    3308
 k-point 35 :   0.3333 0.3333 0.2000  plane waves:    3306
 k-point 36 :   0.5000 0.3333 0.2000  plane waves:    3308
 k-point 37 :  -0.3333 0.3333 0.2000  plane waves:    3305
 k-point 38 :  -0.1667 0.3333 0.2000  plane waves:    3309
 k-point 39 :   0.0000 0.5000 0.2000  plane waves:    3308
 k-point 40 :   0.1667 0.5000 0.2000  plane waves:    3308
 k-point 41 :   0.3333 0.5000 0.2000  plane waves:    3308
 k-point 42 :   0.5000 0.5000 0.2000  plane waves:    3308
 k-point 43 :  -0.3333 0.5000 0.2000  plane waves:    3308
 k-point 44 :  -0.1667 0.5000 0.2000  plane waves:    3308
 k-point 45 :   0.0000-0.3333 0.2000  plane waves:    3305
 k-point 46 :   0.1667-0.3333 0.2000  plane waves:    3309
 k-point 47 :   0.3333-0.3333 0.2000  plane waves:    3305
 k-point 48 :   0.5000-0.3333 0.2000  plane waves:    3308
 k-point 49 :  -0.3333-0.3333 0.2000  plane waves:    3306
 k-point 50 :  -0.1667-0.3333 0.2000  plane waves:    3308
 k-point 51 :   0.0000-0.1667 0.2000  plane waves:    3324
 k-point 52 :   0.1667-0.1667 0.2000  plane waves:    3324
 k-point 53 :   0.3333-0.1667 0.2000  plane waves:    3309
 k-point 54 :   0.5000-0.1667 0.2000  plane waves:    3308
 k-point 55 :  -0.3333-0.1667 0.2000  plane waves:    3308
 k-point 56 :  -0.1667-0.1667 0.2000  plane waves:    3309
 k-point 57 :   0.0000 0.0000 0.4000  plane waves:    3326
 k-point 58 :   0.1667 0.0000 0.4000  plane waves:    3323
 k-point 59 :   0.3333 0.0000 0.4000  plane waves:    3316
 k-point 60 :   0.5000 0.0000 0.4000  plane waves:    3292
 k-point 61 :  -0.3333 0.0000 0.4000  plane waves:    3316
 k-point 62 :  -0.1667 0.0000 0.4000  plane waves:    3323
 k-point 63 :   0.0000 0.1667 0.4000  plane waves:    3323
 k-point 64 :   0.1667 0.1667 0.4000  plane waves:    3327
 k-point 65 :   0.3333 0.1667 0.4000  plane waves:    3296
 k-point 66 :   0.5000 0.1667 0.4000  plane waves:    3296
 k-point 67 :  -0.3333 0.1667 0.4000  plane waves:    3327
 k-point 68 :  -0.1667 0.1667 0.4000  plane waves:    3323
 k-point 69 :   0.0000 0.3333 0.4000  plane waves:    3316
 k-point 70 :   0.1667 0.3333 0.4000  plane waves:    3296
 k-point 71 :   0.3333 0.3333 0.4000  plane waves:    3300
 k-point 72 :   0.5000 0.3333 0.4000  plane waves:    3296
 k-point 73 :  -0.3333 0.3333 0.4000  plane waves:    3316
 k-point 74 :  -0.1667 0.3333 0.4000  plane waves:    3327
 k-point 75 :   0.0000 0.5000 0.4000  plane waves:    3292
 k-point 76 :   0.1667 0.5000 0.4000  plane waves:    3296
 k-point 77 :   0.3333 0.5000 0.4000  plane waves:    3296
 k-point 78 :   0.5000 0.5000 0.4000  plane waves:    3292
 k-point 79 :  -0.3333 0.5000 0.4000  plane waves:    3296
 k-point 80 :  -0.1667 0.5000 0.4000  plane waves:    3296
 k-point 81 :   0.0000-0.3333 0.4000  plane waves:    3316
 k-point 82 :   0.1667-0.3333 0.4000  plane waves:    3327
 k-point 83 :   0.3333-0.3333 0.4000  plane waves:    3316
 k-point 84 :   0.5000-0.3333 0.4000  plane waves:    3296
 k-point 85 :  -0.3333-0.3333 0.4000  plane waves:    3300
 k-point 86 :  -0.1667-0.3333 0.4000  plane waves:    3296
 k-point 87 :   0.0000-0.1667 0.4000  plane waves:    3323
 k-point 88 :   0.1667-0.1667 0.4000  plane waves:    3323
 k-point 89 :   0.3333-0.1667 0.4000  plane waves:    3327
 k-point 90 :   0.5000-0.1667 0.4000  plane waves:    3296
 k-point 91 :  -0.3333-0.1667 0.4000  plane waves:    3296
 k-point 92 :  -0.1667-0.1667 0.4000  plane waves:    3327

 maximum and minimum number of plane-waves per node :      3328     3292

 maximum number of plane-waves:      3328
 maximum index in each direction: 
   IXMAX=    9   IYMAX=    9   IZMAX=   10
   IXMIN=   -9   IYMIN=   -9   IZMIN=  -10

 WARNING: aliasing errors must be expected set NGX to  38 to avoid them
 WARNING: aliasing errors must be expected set NGY to  38 to avoid them
 WARNING: aliasing errors must be expected set NGZ to  42 to avoid them
 aliasing errors are usually negligible using standard VASP settings
 and one can safely disregard these warnings

 serial   3D FFT for wavefunctions
 parallel 3D FFT for charge:
    minimum data exchange during FFTs selected (reduces bandwidth)


 total amount of memory used by VASP on root node   195565. kBytes
========================================================================

   base      :      30000. kBytes
   nonlr-proj:        853. kBytes
   fftplans  :       7040. kBytes
   grid      :      12506. kBytes
   one-center:         27. kBytes
   wavefun   :     145139. kBytes
 
     INWAV:  cpu time    0.0000: real time    0.0002
 Broyden mixing: mesh for mixing (old mesh)
   NGX = 19   NGY = 19   NGZ = 21
  (NGX  = 56   NGY  = 56   NGZ  = 64)
  gives a total of   7581 points

 initial charge density was supplied:
 charge density of overlapping atoms calculated
 number of electron      48.0000000 magnetization 
 keeping initial charge density in first step


--------------------------------------------------------------------------------------------------------


 Maximum index for non-local projection operator         1136
 Maximum index for augmentation-charges         7196 (set IRDMAX)


--------------------------------------------------------------------------------------------------------


 First call to EWALD:  gamma=   0.367
 Maximum number of real-space cells 3x 3x 3
 Maximum number of reciprocal cells 3x 3x 3

 FEWALD executed in parallel
    FEWALD:  cpu time    0.0020: real time    0.0017


----------------------------------------- Iteration    1(   1)  ---------------------------------------


    POTLOK:  cpu time    0.1000: real time    0.1010
    SETDIJ:  cpu time    0.0130: real time    0.0140
     EDDAV:  cpu time    9.2746: real time    9.2741
 BZINTS: Fermi energy: 17.381393; 48.000000 electrons
         Band energy: -10.548307;  BLOECHL correction: -0.170316
       DOS:  cpu time    0.0350: real time    0.0349
    --------------------------------------------
      LOOP:  cpu time    9.4246: real time    9.4681

 eigenvalue-minimisations  :  5344
 total energy-change (2. order) : 0.3225590E+03  (-0.2666836E+04)
 number of electron      48.0000000 magnetization 
 augmentation part       48.0000000 magnetization 

 Free energy of the ion-electron system (eV)
  ---------------------------------------------------
  alpha Z        PSCENC =        69.72802778
  Ewald energy   TEWEN  =     -1886.62880430
  -Hartree energ DENC   =      -937.03789542
  -exchange      EXHF   =         0.00000000
  -V(xc)+E(xc)   XCENC  =       142.00811364
  PAW double counting   =      1574.92322788    -1533.24131965
  entropy T*S    EENTRO =         0.00000000
  eigenvalues    EBANDS =       -10.54830749
  atomic energy  EATOM  =      2903.35593008
  Solvation  Ediel_sol  =         0.00000000
  ---------------------------------------------------
  free energy    TOTEN  =       322.55897252 eV

  energy without entropy =      322.55897252  energy(sigma->0) =      322.55897252


--------------------------------------------------------------------------------------------------------




----------------------------------------- Iteration    1(   2)  ---------------------------------------


     EDDAV:  cpu time   11.7142: real time   11.7120
 BZINTS: Fermi energy:  0.458529; 48.000000 electrons
         Band energy:-392.673894;  BLOECHL correction: -0.000000
       DOS:  cpu time    0.0120: real time    0.0114
    --------------------------------------------
      LOOP:  cpu time   11.7272: real time   11.7298

 eigenvalue-minimisations  :  7049
 total energy-change (2. order) :-0.3821256E+03  (-0.3727239E+03)
 number of electron      48.0000000 magnetization 
 augmentation part       48.0000000 magnetization 

 Free energy of the ion-electron system (eV)
  ---------------------------------------------------
  alpha Z        PSCENC =        69.72802778
  Ewald energy   TEWEN  =     -1886.62880430
  -Hartree energ DENC   =      -937.03789542
  -exchange      EXHF   =         0.00000000
  -V(xc)+E(xc)   XCENC  =       142.00811364
  PAW double counting   =      1574.92322788    -1533.24131965
  entropy T*S    EENTRO =         0.00000000
  eigenvalues    EBANDS =      -392.67389354
  atomic energy  EATOM  =      2903.35593008
  Solvation  Ediel_sol  =         0.00000000
  ---------------------------------------------------
  free energy    TOTEN  =       -59.56661353 eV

  energy without entropy =      -59.56661353  energy(sigma->0) =      -59.56661353


--------------------------------------------------------------------------------------------------------




----------------------------------------- Iteration    1(   3)  ---------------------------------------


     EDDAV:  cpu time   10.5754: real time   10.5725
 BZINTS: Fermi energy: -2.024586; 48.000000 electrons
         Band energy:-413.259574;  BLOECHL correction:  0.000000
       DOS:  cpu time    0.0050: real time    0.0054
    --------------------------------------------
      LOOP:  cpu time   10.5804: real time   10.5858

 eigenvalue-minimisations  :  6251
 total energy-change (2. order) :-0.2058568E+02  (-0.2052420E+02)
 number of electron      48.0000000 magnetization 
 augmentation part       48.0000000 magnetization 

 Free energy of the ion-electron system (eV)
  ---------------------------------------------------
  alpha Z        PSCENC =        69.72802778
  Ewald energy   TEWEN  =     -1886.62880430
  -Hartree energ DENC   =      -937.03789542
  -exchange      EXHF   =         0.00000000
  -V(xc)+E(xc)   XCENC  =       142.00811364
  PAW double counting   =      1574.92322788    -1533.24131965
  entropy T*S    EENTRO =         0.00000000
  eigenvalues    EBANDS =      -413.25957399
  atomic energy  EATOM  =      2903.35593008
  Solvation  Ediel_sol  =         0.00000000
  ---------------------------------------------------
  free energy    TOTEN  =       -80.15229398 eV

  energy without entropy =      -80.15229398  energy(sigma->0) =      -80.15229398


--------------------------------------------------------------------------------------------------------




----------------------------------------- Iteration    1(   4)  ---------------------------------------


     EDDAV:  cpu time   10.7754: real time   10.7735
 BZINTS: Fermi energy: -2.073294; 48.000000 electrons
         Band energy:-413.532208;  BLOECHL correction:  0.000000
       DOS:  cpu time    0.0050: real time    0.0044
    --------------------------------------------
      LOOP:  cpu time   10.7814: real time   10.7845

 eigenvalue-minimisations  :  6320
 total energy-change (2. order) :-0.2726335E+00  (-0.2721568E+00)
 number of electron      48.0000000 magnetization 
 augmentation part       48.0000000 magnetization 

 Free energy of the ion-electron system (eV)
  ---------------------------------------------------
  alpha Z        PSCENC =        69.72802778
  Ewald energy   TEWEN  =     -1886.62880430
  -Hartree energ DENC   =      -937.03789542
  -exchange      EXHF   =         0.00000000
  -V(xc)+E(xc)   XCENC  =       142.00811364
  PAW double counting   =      1574.92322788    -1533.24131965
  entropy T*S    EENTRO =         0.00000000
  eigenvalues    EBANDS =      -413.53220752
  atomic energy  EATOM  =      2903.35593008
  Solvation  Ediel_sol  =         0.00000000
  ---------------------------------------------------
  free energy    TOTEN  =       -80.42492750 eV

  energy without entropy =      -80.42492750  energy(sigma->0) =      -80.42492750


--------------------------------------------------------------------------------------------------------




----------------------------------------- Iteration    1(   5)  ---------------------------------------


     EDDAV:  cpu time   10.3734: real time   10.3708
 BZINTS: Fermi energy: -2.071625; 48.000000 electrons
         Band energy:-413.537453;  BLOECHL correction:  0.000000
       DOS:  cpu time    0.0050: real time    0.0053
    CHARGE:  cpu time    0.6499: real time    0.6502
    MIXING:  cpu time    0.0030: real time    0.0032
    --------------------------------------------
      LOOP:  cpu time   11.0333: real time   11.0355

 eigenvalue-minimisations  :  6161
 total energy-change (2. order) :-0.5245341E-02  (-0.5243715E-02)
 number of electron      48.0000002 magnetization 
 augmentation part        4.4808906 magnetization 

 Broyden mixing:
  rms(total) = 0.18848E+01    rms(broyden)= 0.18844E+01
  rms(prec ) = 0.35120E+01
  weight for this iteration     100.00

 Free energy of the ion-electron system (eV)
  ---------------------------------------------------
  alpha Z        PSCENC =        69.72802778
  Ewald energy   TEWEN  =     -1886.62880430
  -Hartree energ DENC   =      -937.03789542
  -exchange      EXHF   =         0.00000000
  -V(xc)+E(xc)   XCENC  =       142.00811364
  PAW double counting   =      1574.92322788    -1533.24131965
  entropy T*S    EENTRO =         0.00000000
  eigenvalues    EBANDS =      -413.53745286
  atomic energy  EATOM  =      2903.35593008
  Solvation  Ediel_sol  =         0.00000000
  ---------------------------------------------------
  free energy    TOTEN  =       -80.43017284 eV

  energy without entropy =      -80.43017284  energy(sigma->0) =      -80.43017284


--------------------------------------------------------------------------------------------------------




----------------------------------------- Iteration    1(   6)  ---------------------------------------


    POTLOK:  cpu time    0.1000: real time    0.1005
    SETDIJ:  cpu time    0.0130: real time    0.0130
    EDDIAG:  cpu time    1.7107: real time    1.7103
  RMM-DIIS:  cpu time    6.1821: real time    6.1841
    ORTHCH:  cpu time    0.2070: real time    0.2066
 BZINTS: Fermi energy:  0.768490; 48.000000 electrons
         Band energy:-299.673352;  BLOECHL correction:  0.000000
       DOS:  cpu time    0.0040: real time    0.0044
    CHARGE:  cpu time    0.6509: real time    0.6502
    MIXING:  cpu time    0.0030: real time    0.0037
    --------------------------------------------
      LOOP:  cpu time    8.8717: real time    8.8798

 eigenvalue-minimisations  :  5676
 total energy-change (2. order) : 0.9700454E+01  (-0.4243904E+01)
 number of electron      48.0000002 magnetization 
 augmentation part        3.6622519 magnetization 

 Broyden mixing:
  rms(total) = 0.51406E+00    rms(broyden)= 0.51366E+00
  rms(prec ) = 0.82399E+00
  weight for this iteration     100.00

 eigenvalues of (default mixing * dielectric matrix)
  average eigenvalue GAMMA=   0.9996
  0.9996

 Free energy of the ion-electron system (eV)
  ---------------------------------------------------
  alpha Z        PSCENC =        69.72802778
  Ewald energy   TEWEN  =     -1886.62880430
  -Hartree energ DENC   =     -1046.27772949
  -exchange      EXHF   =         0.00000000
  -V(xc)+E(xc)   XCENC  =       149.33684241
  PAW double counting   =      1885.05180855    -1845.62244256
  entropy T*S    EENTRO =         0.00000000
  eigenvalues    EBANDS =      -299.67335166
  atomic energy  EATOM  =      2903.35593008
  Solvation  Ediel_sol  =         0.00000000
  ---------------------------------------------------
  free energy    TOTEN  =       -70.72971920 eV

  energy without entropy =      -70.72971920  energy(sigma->0) =      -70.72971920


--------------------------------------------------------------------------------------------------------




----------------------------------------- Iteration    1(   7)  ---------------------------------------


    POTLOK:  cpu time    0.0980: real time    0.0993
    SETDIJ:  cpu time    0.0130: real time    0.0130
    EDDIAG:  cpu time    1.7117: real time    1.7103
  RMM-DIIS:  cpu time    6.7390: real time    6.7370
    ORTHCH:  cpu time    0.2070: real time    0.2070
 BZINTS: Fermi energy:  1.111853; 48.000000 electrons
         Band energy:-283.274543;  BLOECHL correction:  0.000000
       DOS:  cpu time    0.0050: real time    0.0054
    CHARGE:  cpu time    0.6499: real time    0.6497
    MIXING:  cpu time    0.0030: real time    0.0032
    --------------------------------------------
      LOOP:  cpu time    9.4286: real time    9.4397

 eigenvalue-minimisations  :  6152
 total energy-change (2. order) : 0.1517274E-01  (-0.1722945E+00)
 number of electron      48.0000002 magnetization 
 augmentation part        3.5494979 magnetization 

 Broyden mixing:
  rms(total) = 0.34014E+00    rms(broyden)= 0.34008E+00
  rms(prec ) = 0.48356E+00
  weight for this iteration     100.00

 eigenvalues of (default mixing * dielectric matrix)
  average eigenvalue GAMMA=   1.7418
  1.1571  2.3265

 Free energy of the ion-electron system (eV)
  ---------------------------------------------------
  alpha Z        PSCENC =        69.72802778
  Ewald energy   TEWEN  =     -1886.62880430
  -Hartree energ DENC   =     -1063.63996452
  -exchange      EXHF   =         0.00000000
  -V(xc)+E(xc)   XCENC  =       150.51425436
  PAW double counting   =      1977.70005789    -1938.46950431
  entropy T*S    EENTRO =         0.00000000
  eigenvalues    EBANDS =      -283.27454344
  atomic energy  EATOM  =      2903.35593008
  Solvation  Ediel_sol  =         0.00000000
  ---------------------------------------------------
  free energy    TOTEN  =       -70.71454646 eV

  energy without entropy =      -70.71454646  energy(sigma->0) =      -70.71454646


--------------------------------------------------------------------------------------------------------




----------------------------------------- Iteration    1(   8)  ---------------------------------------


    POTLOK:  cpu time    0.0990: real time    0.0994
    SETDIJ:  cpu time    0.0140: real time    0.0130
    EDDIAG:  cpu time    1.7117: real time    1.7121
  RMM-DIIS:  cpu time    6.7030: real time    6.7016
    ORTHCH:  cpu time    0.2070: real time    0.2067
 BZINTS: Fermi energy:  1.126887; 48.000000 electrons
         Band energy:-280.756775;  BLOECHL correction:  0.000000
       DOS:  cpu time    0.0050: real time    0.0054
    CHARGE:  cpu time    0.6499: real time    0.6501
    MIXING:  cpu time    0.0040: real time    0.0035
    --------------------------------------------
      LOOP:  cpu time    9.3946: real time    9.3978

 eigenvalue-minimisations  :  6053
 total energy-change (2. order) :-0.1649282E-01  (-0.2867314E-01)
 number of electron      48.0000002 magnetization 
 augmentation part        3.5914933 magnetization 

 Broyden mixing:
  rms(total) = 0.65522E-01    rms(broyden)= 0.65516E-01
  rms(prec ) = 0.12232E+00
  weight for this iteration     100.00

 eigenvalues of (default mixing * dielectric matrix)
  average eigenvalue GAMMA=   1.5707
  2.5486  1.0817  1.0817

 Free energy of the ion-electron system (eV)
  ---------------------------------------------------
  alpha Z        PSCENC =        69.72802778
  Ewald energy   TEWEN  =     -1886.62880430
  -Hartree energ DENC   =     -1066.56091903
  -exchange      EXHF   =         0.00000000
  -V(xc)+E(xc)   XCENC  =       150.79622549
  PAW double counting   =      2048.59312708    -2009.25785144
  entropy T*S    EENTRO =         0.00000000
  eigenvalues    EBANDS =      -280.75677495
  atomic energy  EATOM  =      2903.35593008
  Solvation  Ediel_sol  =         0.00000000
  ---------------------------------------------------
  free energy    TOTEN  =       -70.73103929 eV

  energy without entropy =      -70.73103929  energy(sigma->0) =      -70.73103929


--------------------------------------------------------------------------------------------------------




----------------------------------------- Iteration    1(   9)  ---------------------------------------


    POTLOK:  cpu time    0.0990: real time    0.0995
    SETDIJ:  cpu time    0.0130: real time    0.0130
    EDDIAG:  cpu time    1.7107: real time    1.7100
  RMM-DIIS:  cpu time    6.8580: real time    6.8583
    ORTHCH:  cpu time    0.2070: real time    0.2067
 BZINTS: Fermi energy:  1.192116; 48.000000 electrons
         Band energy:-276.068901;  BLOECHL correction:  0.000000
       DOS:  cpu time    0.0050: real time    0.0054
    CHARGE:  cpu time    0.6519: real time    0.6500
    MIXING:  cpu time    0.0030: real time    0.0035
    --------------------------------------------
      LOOP:  cpu time    9.5485: real time    9.5784

 eigenvalue-minimisations  :  6249
 total energy-change (2. order) : 0.8377495E-02  (-0.5264975E-02)
 number of electron      48.0000002 magnetization 
 augmentation part        3.5680696 magnetization 

 Broyden mixing:
  rms(total) = 0.15173E-01    rms(broyden)= 0.15163E-01
  rms(prec ) = 0.23896E-01
  weight for this iteration     100.00

 eigenvalues of (default mixing * dielectric matrix)
  average eigenvalue GAMMA=   1.6562
  2.6258  1.9570  1.0211  1.0211

 Free energy of the ion-electron system (eV)
  ---------------------------------------------------
  alpha Z        PSCENC =        69.72802778
  Ewald energy   TEWEN  =     -1886.62880430
  -Hartree energ DENC   =     -1071.49700032
  -exchange      EXHF   =         0.00000000
  -V(xc)+E(xc)   XCENC  =       151.13610758
  PAW double counting   =      2060.76919679    -2021.51721813
  entropy T*S    EENTRO =         0.00000000
  eigenvalues    EBANDS =      -276.06890127
  atomic energy  EATOM  =      2903.35593008
  Solvation  Ediel_sol  =         0.00000000
  ---------------------------------------------------
  free energy    TOTEN  =       -70.72266179 eV

  energy without entropy =      -70.72266179  energy(sigma->0) =      -70.72266179


--------------------------------------------------------------------------------------------------------




----------------------------------------- Iteration    1(  10)  ---------------------------------------


    POTLOK:  cpu time    0.0990: real time    0.0994
    SETDIJ:  cpu time    0.0130: real time    0.0130
    EDDIAG:  cpu time    1.7097: real time    1.7100
  RMM-DIIS:  cpu time    6.8010: real time    6.7985
    ORTHCH:  cpu time    0.2060: real time    0.2067
 BZINTS: Fermi energy:  1.239220; 48.000000 electrons
         Band energy:-274.741709;  BLOECHL correction:  0.000000
       DOS:  cpu time    0.0050: real time    0.0044
    CHARGE:  cpu time    0.6509: real time    0.6503
    MIXING:  cpu time    0.0040: real time    0.0036
    --------------------------------------------
      LOOP:  cpu time    9.4896: real time    9.4938

 eigenvalue-minimisations  :  6192
 total energy-change (2. order) :-0.2788753E-02  (-0.1645309E-02)
 number of electron      48.0000002 magnetization 
 augmentation part        3.5552413 magnetization 

 Broyden mixing:
  rms(total) = 0.19911E-01    rms(broyden)= 0.19905E-01
  rms(prec ) = 0.34274E-01
  weight for this iteration     100.00

 eigenvalues of (default mixing * dielectric matrix)
  average eigenvalue GAMMA=   1.6616
  2.6497  2.3694  1.0200  1.1344  1.1344

 Free energy of the ion-electron system (eV)
  ---------------------------------------------------
  alpha Z        PSCENC =        69.72802778
  Ewald energy   TEWEN  =     -1886.62880430
  -Hartree energ DENC   =     -1072.89585775
  -exchange      EXHF   =         0.00000000
  -V(xc)+E(xc)   XCENC  =       151.22887542
  PAW double counting   =      2058.27311019    -2019.04502269
  entropy T*S    EENTRO =         0.00000000
  eigenvalues    EBANDS =      -274.74170927
  atomic energy  EATOM  =      2903.35593008
  Solvation  Ediel_sol  =         0.00000000
  ---------------------------------------------------
  free energy    TOTEN  =       -70.72545055 eV

  energy without entropy =      -70.72545055  energy(sigma->0) =      -70.72545055


--------------------------------------------------------------------------------------------------------




----------------------------------------- Iteration    1(  11)  ---------------------------------------


    POTLOK:  cpu time    0.0990: real time    0.1000
    SETDIJ:  cpu time    0.0130: real time    0.0130
    EDDIAG:  cpu time    1.7207: real time    1.7201
  RMM-DIIS:  cpu time    6.7900: real time    6.7882
    ORTHCH:  cpu time    0.2070: real time    0.2067
 BZINTS: Fermi energy:  1.193441; 48.000000 electrons
         Band energy:-275.954747;  BLOECHL correction:  0.000000
       DOS:  cpu time    0.0050: real time    0.0054
    CHARGE:  cpu time    0.6499: real time    0.6494
    MIXING:  cpu time    0.0040: real time    0.0038
    --------------------------------------------
      LOOP:  cpu time    9.4896: real time    9.5148

 eigenvalue-minimisations  :  6184
 total energy-change (2. order) : 0.8670143E-03  (-0.4469846E-03)
 number of electron      48.0000002 magnetization 
 augmentation part        3.5627234 magnetization 

 Broyden mixing:
  rms(total) = 0.18088E-02    rms(broyden)= 0.18015E-02
  rms(prec ) = 0.26478E-02
  weight for this iteration     100.00

 eigenvalues of (default mixing * dielectric matrix)
  average eigenvalue GAMMA=   1.6446
  2.9031  2.4625  0.9612  1.2177  1.1614  1.1614

 Free energy of the ion-electron system (eV)
  ---------------------------------------------------
  alpha Z        PSCENC =        69.72802778
  Ewald energy   TEWEN  =     -1886.62880430
  -Hartree energ DENC   =     -1071.62029392
  -exchange      EXHF   =         0.00000000
  -V(xc)+E(xc)   XCENC  =       151.14130913
  PAW double counting   =      2053.62530486    -2014.37131017
  entropy T*S    EENTRO =         0.00000000
  eigenvalues    EBANDS =      -275.95474698
  atomic energy  EATOM  =      2903.35593008
  Solvation  Ediel_sol  =         0.00000000
  ---------------------------------------------------
  free energy    TOTEN  =       -70.72458353 eV

  energy without entropy =      -70.72458353  energy(sigma->0) =      -70.72458353


--------------------------------------------------------------------------------------------------------




----------------------------------------- Iteration    1(  12)  ---------------------------------------


    POTLOK:  cpu time    0.0990: real time    0.0996
    SETDIJ:  cpu time    0.0130: real time    0.0130
    EDDIAG:  cpu time    1.7097: real time    1.7093
  RMM-DIIS:  cpu time    6.3490: real time    6.3465
    ORTHCH:  cpu time    0.2070: real time    0.2066
 BZINTS: Fermi energy:  1.221095; 48.000000 electrons
         Band energy:-275.784150;  BLOECHL correction:  0.000000
       DOS:  cpu time    0.0040: real time    0.0044
    CHARGE:  cpu time    0.6499: real time    0.6499
    MIXING:  cpu time    0.0040: real time    0.0040
    --------------------------------------------
      LOOP:  cpu time    9.0366: real time    9.0402

 eigenvalue-minimisations  :  5705
 total energy-change (2. order) :-0.4292027E-04  (-0.1659225E-04)
 number of electron      48.0000002 magnetization 
 augmentation part        3.5623429 magnetization 

 Broyden mixing:
  rms(total) = 0.14028E-02    rms(broyden)= 0.14027E-02
  rms(prec ) = 0.24454E-02
  weight for this iteration     100.00

 eigenvalues of (default mixing * dielectric matrix)
  average eigenvalue GAMMA=   1.7224
  2.9798  2.3686  2.3686  0.9834  1.1372  1.1095  1.1095

 Free energy of the ion-electron system (eV)
  ---------------------------------------------------
  alpha Z        PSCENC =        69.72802778
  Ewald energy   TEWEN  =     -1886.62880430
  -Hartree energ DENC   =     -1071.79793442
  -exchange      EXHF   =         0.00000000
  -V(xc)+E(xc)   XCENC  =       151.15176457
  PAW double counting   =      2053.32616893    -2014.07562905
  entropy T*S    EENTRO =         0.00000000
  eigenvalues    EBANDS =      -275.78415003
  atomic energy  EATOM  =      2903.35593008
  Solvation  Ediel_sol  =         0.00000000
  ---------------------------------------------------
  free energy    TOTEN  =       -70.72462645 eV

  energy without entropy =      -70.72462645  energy(sigma->0) =      -70.72462645


--------------------------------------------------------------------------------------------------------




----------------------------------------- Iteration    1(  13)  ---------------------------------------


    POTLOK:  cpu time    0.0990: real time    0.0993
    SETDIJ:  cpu time    0.0130: real time    0.0130
    EDDIAG:  cpu time    1.7087: real time    1.7085
  RMM-DIIS:  cpu time    4.7033: real time    4.7024
    ORTHCH:  cpu time    0.2070: real time    0.2068
 BZINTS: Fermi energy:  1.218587; 48.000000 electrons
         Band energy:-275.807217;  BLOECHL correction:  0.000000
       DOS:  cpu time    0.0050: real time    0.0044
    --------------------------------------------
      LOOP:  cpu time    6.7370: real time    6.7408

 eigenvalue-minimisations  :  4022
 total energy-change (2. order) :-0.1193105E-05  (-0.1042511E-05)
 number of electron      48.0000002 magnetization 
 augmentation part        3.5623429 magnetization 

 Free energy of the ion-electron system (eV)
  ---------------------------------------------------
  alpha Z        PSCENC =        69.72802778
  Ewald energy   TEWEN  =     -1886.62880430
  -Hartree energ DENC   =     -1071.77338638
  -exchange      EXHF   =         0.00000000
  -V(xc)+E(xc)   XCENC  =       151.14953247
  PAW double counting   =      2053.33304241    -2014.08175288
  entropy T*S    EENTRO =         0.00000000
  eigenvalues    EBANDS =      -275.80721681
  atomic energy  EATOM  =      2903.35593008
  Solvation  Ediel_sol  =         0.00000000
  ---------------------------------------------------
  free energy    TOTEN  =       -70.72462764 eV

  energy without entropy =      -70.72462764  energy(sigma->0) =      -70.72462764


--------------------------------------------------------------------------------------------------------




 average (electrostatic) potential at core
  the test charge radii are     0.9892  0.7215
  (the norm of the test charge is              1.0000)
       1 -86.4015       2 -86.3382       3 -86.4254       4 -72.9053       5 -72.4186
       6 -72.3919       7 -72.1861       8 -72.3843       9 -72.0398
 
 
 
 E-fermi :   1.2186     XC(G=0):  -9.2023     alpha+bet :-10.3421


 k-point     1 :       0.0000    0.0000    0.0000
  band No.  band energies     occupation 
      1     -18.4511      2.00000
      2     -17.1482      2.00000
      3     -16.7877      2.00000
      4     -16.1732      2.00000
      5     -16.0423      2.00000
      6     -15.9625      2.00000
      7      -7.2676      2.00000
      8      -7.1084      2.00000
      9      -4.5334      2.00000
     10      -4.2249      2.00000
     11      -4.1289      2.00000
     12      -4.1104      2.00000
     13      -1.9438      2.00000
     14      -1.8378      2.00000
     15      -1.7504      2.00000
     16      -1.2606      2.00000
     17      -0.5492      2.00000
     18      -0.4346      2.00000
     19      -0.3887      2.00000
     20       0.1495      2.00000
     21       0.2321      2.00000
     22       0.4760      2.00000
     23       0.7549      2.00000
     24       0.8624      2.00000
     25       7.0986      0.00000
     26      10.3289      0.00000
     27      10.4301      0.00000
     28      10.8561      0.00000
     29      10.9554      0.00000

 k-point     2 :       0.1667    0.0000    0.0000
  band No.  band energies     occupation 
      1     -18.3818      2.00000
      2     -17.1767      2.00000
      3     -16.7786      2.00000
      4     -16.2766      2.00000
      5     -16.0843      2.00000
      6     -15.9118      2.00000
      7      -7.2983      2.00000
      8      -6.9294      2.00000
      9      -4.5590      2.00000
     10      -4.2936      2.00000
     11      -4.1677      2.00000
     12      -3.9803      2.00000
     13      -2.0118      2.00000
     14      -1.8691      2.00000
     15      -1.6321      2.00000
     16      -1.1853      2.00000
     17      -0.7437      2.00000
     18      -0.4626      2.00000
     19      -0.3913      2.00000
     20       0.0951      2.00000
     21       0.1337      2.00000
     22       0.3882      2.00000
     23       0.8400      2.00000
     24       0.9384      2.00000
     25       7.5215      0.00000
     26      10.3505      0.00000
     27      10.4717      0.00000
     28      10.8722      0.00000
     29      11.0849      0.00000

 k-point     3 :       0.3333    0.0000    0.0000
  band No.  band energies     occupation 
      1     -18.2103      2.00000
      2     -17.2729      2.00000
      3     -16.7604      2.00000
      4     -16.4572      2.00000
      5     -16.1167      2.00000
      6     -15.8783      2.00000
      7      -7.3632      2.00000
      8      -6.5087      2.00000
      9      -4.6186      2.00000
     10      -4.5346      2.00000
     11      -4.1829      2.00000
     12      -3.6758      2.00000
     13      -2.1301      2.00000
     14      -1.6916      2.00000
     15      -1.6118      2.00000
     16      -1.2992      2.00000
     17      -0.9843      2.00000
     18      -0.5511      2.00000
     19      -0.4469      2.00000
     20       0.0314      2.00000
     21       0.0732      2.00000
     22       0.2934      2.00000
     23       0.9155      2.00000
     24       1.0454      2.00000
     25       8.5197      0.00000
     26      10.3772      0.00000
     27      10.5954      0.00000
     28      11.0532      0.00000
     29      11.3898      0.00000

 k-point     4 :       0.5000    0.0000    0.0000
  band No.  band energies     occupation 
      1     -18.0935      2.00000
      2     -17.3591      2.00000
      3     -16.7519      2.00000
      4     -16.5328      2.00000
      5     -16.1306      2.00000
      6     -15.8702      2.00000
      7      -7.3950      2.00000
      8      -6.2459      2.00000
      9      -4.7689      2.00000
     10      -4.5693      2.00000
     11      -4.1920      2.00000
     12      -3.5073      2.00000
     13      -2.1331      2.00000
     14      -1.7709      2.00000
     15      -1.6011      2.00000
     16      -1.3111      2.00000
     17      -1.0518      2.00000
     18      -0.6299      2.00000
     19      -0.5198      2.00000
     20       0.0491      2.00000
     21       0.0697      2.00000
     22       0.2729      2.00000
     23       0.9181      2.00000
     24       1.0947      2.00000
     25       9.3503      0.00000
     26      10.0892      0.00000
     27      10.7763      0.00000
     28      10.9338      0.00000
     29      11.5957      0.00000

 k-point     5 :       0.0000    0.1667    0.0000
  band No.  band energies     occupation 
      1     -18.3760      2.00000
      2     -17.1876      2.00000
      3     -16.8117      2.00000
      4     -16.1806      2.00000
      5     -16.1099      2.00000
      6     -15.9430      2.00000
      7      -7.2539      2.00000
      8      -6.9849      2.00000
      9      -4.5423      2.00000
     10      -4.2892      2.00000
     11      -4.2013      2.00000
     12      -3.9495      2.00000
     13      -2.0618      2.00000
     14      -1.8090      2.00000
     15      -1.6867      2.00000
     16      -1.1519      2.00000
     17      -0.6861      2.00000
     18      -0.5001      2.00000
     19      -0.4513      2.00000
     20       0.1097      2.00000
     21       0.1779      2.00000
     22       0.3820      2.00000
     23       0.8426      2.00000
     24       0.9310      2.00000
     25       7.5190      0.00000
     26      10.3460      0.00000
     27      10.4373      0.00000
     28      10.9391      0.00000
     29      11.0566      0.00000

 k-point     6 :       0.1667    0.1667    0.0000
  band No.  band energies     occupation 
      1     -18.2529      2.00000
      2     -17.2551      2.00000
      3     -16.8047      2.00000
      4     -16.3264      2.00000
      5     -16.1334      2.00000
      6     -15.9018      2.00000
      7      -7.3433      2.00000
      8      -6.6287      2.00000
      9      -4.6943      2.00000
     10      -4.4102      2.00000
     11      -4.1180      2.00000
     12      -3.7753      2.00000
     13      -2.0901      2.00000
     14      -1.7935      2.00000
     15      -1.6083      2.00000
     16      -1.1934      2.00000
     17      -1.0165      2.00000
     18      -0.5311      2.00000
     19      -0.3314      2.00000
     20      -0.0275      2.00000
     21       0.1443      2.00000
     22       0.2888      2.00000
     23       0.9405      2.00000
     24       0.9765      2.00000
     25       8.2244      0.00000
     26      10.4337      0.00000
     27      10.5482      0.00000
     28      11.0122      0.00000
     29      11.2820      0.00000

 k-point     7 :       0.3333    0.1667    0.0000
  band No.  band energies     occupation 
      1     -18.0826      2.00000
      2     -17.3743      2.00000
      3     -16.8094      2.00000
      4     -16.4541      2.00000
      5     -16.1352      2.00000
      6     -15.8815      2.00000
      7      -7.4025      2.00000
      8      -6.1757      2.00000
      9      -5.0369      2.00000
     10      -4.4378      2.00000
     11      -4.1031      2.00000
     12      -3.5263      2.00000
     13      -2.1007      2.00000
     14      -1.7623      2.00000
     15      -1.6758      2.00000
     16      -1.2668      2.00000
     17      -1.0553      2.00000
     18      -0.6628      2.00000
     19      -0.3639      2.00000
     20      -0.1518      2.00000
     21       0.0274      2.00000
     22       0.4014      2.00000
     23       0.9111      2.00000
     24       1.0926      2.00000
     25       9.2317      0.00000
     26      10.3396      0.00000
     27      10.6850      0.00000
     28      11.1057      0.00000
     29      11.5665      0.00000

 k-point     8 :       0.5000    0.1667    0.0000
  band No.  band energies     occupation 
      1     -18.0768      2.00000
      2     -17.3813      2.00000
      3     -16.8066      2.00000
      4     -16.4755      2.00000
      5     -16.1155      2.00000
      6     -15.8810      2.00000
      7      -7.3929      2.00000
      8      -6.1838      2.00000
      9      -5.0470      2.00000
     10      -4.4232      2.00000
     11      -4.1193      2.00000
     12      -3.5253      2.00000
     13      -2.0948      2.00000
     14      -1.7763      2.00000
     15      -1.6868      2.00000
     16      -1.2137      2.00000
     17      -0.9907      2.00000
     18      -0.6648      2.00000
     19      -0.4958      2.00000
     20      -0.1793      2.00000
     21       0.0612      2.00000
     22       0.4348      2.00000
     23       0.8825      2.00000
     24       1.1280      2.00000
     25       9.2414      0.00000
     26      10.3194      0.00000
     27      10.6671      0.00000
     28      11.1259      0.00000
     29      11.4513      0.00000

 k-point     9 :      -0.3333    0.1667    0.0000
  band No.  band energies     occupation 
      1     -18.2459      2.00000
      2     -17.2622      2.00000
      3     -16.8037      2.00000
      4     -16.3820      2.00000
      5     -16.0778      2.00000
      6     -15.9020      2.00000
      7      -7.3119      2.00000
      8      -6.6591      2.00000
      9      -4.7171      2.00000
     10      -4.3882      2.00000
     11      -4.1352      2.00000
     12      -3.7741      2.00000
     13      -2.0952      2.00000
     14      -1.8352      2.00000
     15      -1.5170      2.00000
     16      -1.1568      2.00000
     17      -0.9702      2.00000
     18      -0.6010      2.00000
     19      -0.3865      2.00000
     20      -0.1479      2.00000
     21       0.1926      2.00000
     22       0.3501      2.00000
     23       0.8717      2.00000
     24       1.0738      2.00000
     25       8.2268      0.00000
     26      10.3694      0.00000
     27      10.5803      0.00000
     28      11.0226      0.00000
     29      11.2343      0.00000

 k-point    10 :      -0.1667    0.1667    0.0000
  band No.  band energies     occupation 
      1     -18.3734      2.00000
      2     -17.1892      2.00000
      3     -16.8133      2.00000
      4     -16.2359      2.00000
      5     -16.0478      2.00000
      6     -15.9490      2.00000
      7      -7.2066      2.00000
      8      -7.0321      2.00000
      9      -4.5504      2.00000
     10      -4.3043      2.00000
     11      -4.1812      2.00000
     12      -3.9534      2.00000
     13      -2.0729      2.00000
     14      -1.8321      2.00000
[...]
      8      -6.0386      2.00000
      9      -5.1131      2.00000
     10      -4.3267      2.00000
     11      -4.1199      2.00000
     12      -3.6967      2.00000
     13      -2.0717      2.00000
     14      -1.9835      2.00000
     15      -1.3642      2.00000
     16      -1.2795      2.00000
     17      -0.9533      2.00000
     18      -0.4895      2.00000
     19      -0.3648      2.00000
     20      -0.1603      2.00000
     21       0.1314      2.00000
     22       0.4829      2.00000
     23       0.8111      2.00000
     24       1.0159      2.00000
     25       9.1807      0.00000
     26      10.0727      0.00000
     27      10.4675      0.00000
     28      11.0146      0.00000
     29      11.3068      0.00000

 k-point    83 :       0.3333   -0.3333    0.4000
  band No.  band energies     occupation 
      1     -18.0401      2.00000
      2     -17.5304      2.00000
      3     -16.8426      2.00000
      4     -16.3304      2.00000
      5     -16.0815      2.00000
      6     -15.8753      2.00000
      7      -7.5107      2.00000
      8      -6.1179      2.00000
      9      -5.1816      2.00000
     10      -4.2243      2.00000
     11      -4.1669      2.00000
     12      -3.6809      2.00000
     13      -2.0923      2.00000
     14      -2.0687      2.00000
     15      -1.3321      2.00000
     16      -1.2344      2.00000
     17      -1.0024      2.00000
     18      -0.5170      2.00000
     19      -0.2890      2.00000
     20      -0.0976      2.00000
     21       0.1293      2.00000
     22       0.4194      2.00000
     23       0.7044      2.00000
     24       1.0855      2.00000
     25       9.3256      0.00000
     26      10.3612      0.00000
     27      10.4743      0.00000
     28      11.0202      0.00000
     29      11.2525      0.00000

 k-point    84 :       0.5000   -0.3333    0.4000
  band No.  band energies     occupation 
      1     -17.9764      2.00000
      2     -17.4606      2.00000
      3     -16.8972      2.00000
      4     -16.4093      2.00000
      5     -16.1306      2.00000
      6     -15.8847      2.00000
      7      -7.1732      2.00000
      8      -6.2465      2.00000
      9      -5.3662      2.00000
     10      -4.2821      2.00000
     11      -3.9883      2.00000
     12      -3.7367      2.00000
     13      -2.1522      2.00000
     14      -2.0784      2.00000
     15      -1.3983      2.00000
     16      -1.1650      2.00000
     17      -0.9225      2.00000
     18      -0.6513      2.00000
     19      -0.2254      2.00000
     20       0.0564      2.00000
     21       0.1990      2.00000
     22       0.3856      2.00000
     23       0.5999      2.00000
     24       0.9545      2.00000
     25       9.8112      0.00000
     26      10.4899      0.00000
     27      10.7586      0.00000
     28      11.0220      0.00000
     29      11.3932      0.00000

 k-point    85 :      -0.3333   -0.3333    0.4000
  band No.  band energies     occupation 
      1     -17.9325      2.00000
      2     -17.4807      2.00000
      3     -16.8252      2.00000
      4     -16.4726      2.00000
      5     -16.1902      2.00000
      6     -15.8877      2.00000
      7      -6.9711      2.00000
      8      -6.2901      2.00000
      9      -5.5097      2.00000
     10      -4.3108      2.00000
     11      -3.9016      2.00000
     12      -3.7808      2.00000
     13      -2.1824      2.00000
     14      -1.9627      2.00000
     15      -1.5667      2.00000
     16      -1.0809      2.00000
     17      -0.8661      2.00000
     18      -0.7944      2.00000
     19      -0.0904      2.00000
     20       0.1233      2.00000
     21       0.2797      2.00000
     22       0.3620      2.00000
     23       0.5720      2.00000
     24       0.7673      2.00000
     25      10.1288      0.00000
     26      10.5562      0.00000
     27      10.8590      0.00000
     28      11.1627      0.00000
     29      11.3970      0.00000

 k-point    86 :      -0.1667   -0.3333    0.4000
  band No.  band energies     occupation 
      1     -17.9606      2.00000
      2     -17.5512      2.00000
      3     -16.7085      2.00000
      4     -16.4682      2.00000
      5     -16.1887      2.00000
      6     -15.8828      2.00000
      7      -7.2343      2.00000
      8      -6.1620      2.00000
      9      -5.3656      2.00000
     10      -4.2902      2.00000
     11      -3.9741      2.00000
     12      -3.7569      2.00000
     13      -2.1683      2.00000
     14      -2.0255      2.00000
     15      -1.4933      2.00000
     16      -1.1894      2.00000
     17      -0.8770      2.00000
     18      -0.6187      2.00000
     19      -0.1544      2.00000
     20      -0.0555      2.00000
     21       0.1900      2.00000
     22       0.5067      2.00000
     23       0.6863      2.00000
     24       0.7856      2.00000
     25       9.8882      0.00000
     26      10.3255      0.00000
     27      10.7324      0.00000
     28      11.2128      0.00000
     29      11.4966      0.00000

 k-point    87 :       0.0000   -0.1667    0.4000
  band No.  band energies     occupation 
      1     -18.1436      2.00000
      2     -17.7041      2.00000
      3     -16.5873      2.00000
      4     -16.1826      2.00000
      5     -16.1234      2.00000
      6     -15.8434      2.00000
      7      -8.0317      2.00000
      8      -5.7656      2.00000
      9      -4.9730      2.00000
     10      -4.4556      2.00000
     11      -4.2809      2.00000
     12      -3.6659      2.00000
     13      -1.9284      2.00000
     14      -1.7459      2.00000
     15      -1.5042      2.00000
     16      -1.1976      2.00000
     17      -0.9194      2.00000
     18      -0.6094      2.00000
     19      -0.4751      2.00000
     20      -0.3300      2.00000
     21       0.0625      2.00000
     22       0.6998      2.00000
     23       0.9131      2.00000
     24       1.0325      2.00000
     25       8.7437      0.00000
     26       9.7544      0.00000
     27      10.3697      0.00000
     28      10.6379      0.00000
     29      11.2949      0.00000

 k-point    88 :       0.1667   -0.1667    0.4000
  band No.  band energies     occupation 
      1     -18.1495      2.00000
      2     -17.6845      2.00000
      3     -16.6208      2.00000
      4     -16.2307      2.00000
      5     -16.0601      2.00000
      6     -15.8382      2.00000
      7      -8.0242      2.00000
      8      -5.7857      2.00000
      9      -4.9706      2.00000
     10      -4.4508      2.00000
     11      -4.2887      2.00000
     12      -3.6500      2.00000
     13      -1.9281      2.00000
     14      -1.7495      2.00000
     15      -1.4974      2.00000
     16      -1.1974      2.00000
     17      -0.9223      2.00000
     18      -0.6643      2.00000
     19      -0.4303      2.00000
     20      -0.3106      2.00000
     21       0.0570      2.00000
     22       0.6609      2.00000
     23       0.8595      2.00000
     24       1.1198      2.00000
     25       8.7146      0.00000
     26       9.8198      0.00000
     27      10.2727      0.00000
     28      10.8191      0.00000
     29      11.1864      0.00000

 k-point    89 :       0.3333   -0.1667    0.4000
  band No.  band energies     occupation 
      1     -18.0894      2.00000
      2     -17.5620      2.00000
      3     -16.7058      2.00000
      4     -16.3617      2.00000
      5     -16.1034      2.00000
      6     -15.8514      2.00000
      7      -7.6838      2.00000
      8      -5.9330      2.00000
      9      -5.1582      2.00000
     10      -4.3557      2.00000
     11      -4.1287      2.00000
     12      -3.7165      2.00000
     13      -2.0803      2.00000
     14      -1.9156      2.00000
     15      -1.3916      2.00000
     16      -1.2828      2.00000
     17      -0.9080      2.00000
     18      -0.5322      2.00000
     19      -0.3933      2.00000
     20      -0.1046      2.00000
     21       0.1100      2.00000
     22       0.4775      2.00000
     23       0.7890      2.00000
     24       1.0235      2.00000
     25       9.1954      0.00000
     26      10.0788      0.00000
     27      10.4808      0.00000
     28      11.0009      0.00000
     29      11.2343      0.00000

 k-point    90 :       0.5000   -0.1667    0.4000
  band No.  band energies     occupation 
      1     -18.0240      2.00000
      2     -17.3900      2.00000
      3     -16.8544      2.00000
      4     -16.4567      2.00000
      5     -16.1717      2.00000
      6     -15.8645      2.00000
      7      -7.2366      2.00000
      8      -6.1561      2.00000
      9      -5.3210      2.00000
     10      -4.3658      2.00000
     11      -3.9230      2.00000
     12      -3.8032      2.00000
     13      -2.1767      2.00000
     14      -2.0116      2.00000
     15      -1.4227      2.00000
     16      -1.1851      2.00000
     17      -0.8946      2.00000
     18      -0.6331      2.00000
     19      -0.1791      2.00000
     20      -0.0013      2.00000
     21       0.2317      2.00000
     22       0.3302      2.00000
     23       0.6531      2.00000
     24       0.8918      2.00000
     25       9.8902      0.00000
     26      10.4008      0.00000
     27      10.7061      0.00000
     28      11.0812      0.00000
     29      11.4243      0.00000

 k-point    91 :      -0.3333   -0.1667    0.4000
  band No.  band energies     occupation 
      1     -18.0173      2.00000
      2     -17.4369      2.00000
      3     -16.7564      2.00000
      4     -16.4995      2.00000
      5     -16.1845      2.00000
      6     -15.8671      2.00000
      7      -7.2603      2.00000
      8      -6.1138      2.00000
      9      -5.3357      2.00000
     10      -4.3679      2.00000
     11      -3.9106      2.00000
     12      -3.8093      2.00000
     13      -2.1623      2.00000
     14      -2.0133      2.00000
     15      -1.4477      2.00000
     16      -1.1936      2.00000
     17      -0.9414      2.00000
     18      -0.5869      2.00000
     19      -0.1495      2.00000
     20      -0.0058      2.00000
     21       0.2237      2.00000
     22       0.3797      2.00000
     23       0.5943      2.00000
     24       0.8961      2.00000
     25       9.8123      0.00000
     26      10.5506      0.00000
     27      10.7848      0.00000
     28      11.1229      0.00000
     29      11.2992      0.00000

 k-point    92 :      -0.1667   -0.1667    0.4000
  band No.  band energies     occupation 
      1     -18.0765      2.00000
      2     -17.6141      2.00000
      3     -16.5778      2.00000
      4     -16.3945      2.00000
      5     -16.1535      2.00000
      6     -15.8583      2.00000
      7      -7.7068      2.00000
      8      -5.8790      2.00000
      9      -5.1782      2.00000
     10      -4.3483      2.00000
     11      -4.1306      2.00000
     12      -3.7273      2.00000
     13      -2.0678      2.00000
     14      -1.9078      2.00000
     15      -1.4231      2.00000
     16      -1.2908      2.00000
     17      -0.9404      2.00000
     18      -0.4919      2.00000
     19      -0.3527      2.00000
     20      -0.1751      2.00000
     21       0.1294      2.00000
     22       0.5887      2.00000
     23       0.7678      2.00000
     24       0.9463      2.00000
     25       9.1961      0.00000
     26      10.0714      0.00000
     27      10.6077      0.00000
     28      10.9625      0.00000
     29      11.6308      0.00000


--------------------------------------------------------------------------------------------------------


 soft charge-density along one line, spin component           1
         0         1         2         3         4         5         6         7         8         9
 total charge-density along one line
 
 pseudopotential strength for first ion, spin component:           1
 18.764   0.002   0.008   0.002  -0.005  -0.000  -0.000   0.000
  0.002   0.006  -0.000  -0.000   0.000   0.000   0.000  -0.000
  0.008  -0.000   4.222   0.002  -0.002  -0.003  -0.000   0.000
  0.002  -0.000   0.002   4.220  -0.003  -0.000  -0.003   0.000
 -0.005   0.000  -0.002  -0.003   4.221   0.000   0.000  -0.003
 -0.000   0.000  -0.003  -0.000   0.000   0.005   0.000  -0.000
 -0.000   0.000  -0.000  -0.003   0.000   0.000   0.005  -0.000
  0.000  -0.000   0.000   0.000  -0.003  -0.000  -0.000   0.005
 total augmentation occupancy for first ion, spin component:           1
  1.175  -1.653   0.068   0.014  -0.041  -0.129  -0.027   0.103
 -1.653   3.647  -0.172  -0.038   0.151   0.378   0.086  -0.314
  0.068  -0.172   1.066   0.072  -0.056  -1.248  -0.124   0.107
  0.014  -0.038   0.072   0.991  -0.090  -0.123  -1.143   0.153
 -0.041   0.151  -0.056  -0.090   0.985   0.108   0.154  -1.190
 -0.129   0.378  -1.248  -0.123   0.108   1.813   0.247  -0.215
 -0.027   0.086  -0.124  -1.143   0.154   0.247   1.614  -0.300
  0.103  -0.314   0.107   0.153  -1.190  -0.215  -0.300   1.717


------------------------ aborting loop because EDIFF is reached ----------------------------------------


    CHARGE:  cpu time    0.6489: real time    0.6493
    FORLOC:  cpu time    0.0140: real time    0.0136
    FORNL :  cpu time    2.6736: real time    2.6737
    STRESS:  cpu time    8.0758: real time    8.0737
    FORCOR:  cpu time    0.1020: real time    0.1014
    FORHAR:  cpu time    0.0260: real time    0.0257
    MIXING:  cpu time    0.0040: real time    0.0042
    OFIELD:  cpu time    0.0000: real time    0.0000

  FORCE on cell =-STRESS in cart. coord.  units (eV):
  Direction    XX          YY          ZZ          XY          YZ          ZX
  --------------------------------------------------------------------------------------
  Alpha Z    69.72803    69.72803    69.72803
  Ewald    -645.37924  -640.18347  -601.06990   -13.30450    14.70397   -23.87549
  Hartree   347.41314   347.77211   376.46701    -1.08930     1.43397    -2.68723
  E(xc)    -225.69810  -225.71937  -225.60505     0.06497    -0.05502     0.09179
  Local    -419.02968  -423.88512  -492.39526    12.65267   -14.10905    23.69147
  n-local   -50.74801   -50.20479   -51.31911    -1.46632     1.33295    -2.22281
  augment    27.15212    27.10591    27.11248     0.10520    -0.11560     0.19713
  Kinetic   903.02327   902.56079   901.89921     1.08802    -1.24377     1.98209
  Fock        0.00000     0.00000     0.00000     0.00000     0.00000     0.00000
  -------------------------------------------------------------------------------------
  Total       6.46154     7.17409     4.81741    -1.94926     1.94744    -2.82305
  in kB      91.59937   101.70061    68.29206   -27.63289    27.60711   -40.01985
  external pressure =       87.20 kB  Pullay stress =        0.00 kB


 VOLUME and BASIS-vectors are now :
 -----------------------------------------------------------------------------
  energy-cutoff  :      550.00
  volume of cell :      113.02
      direct lattice vectors                 reciprocal lattice vectors
     4.913700000  0.000000000  0.000000000     0.203512628  0.117498070  0.000000000
    -2.456850000  4.255389030  0.000000000     0.000000000  0.234996141  0.000000000
     0.000000000  0.000000000  5.405130000     0.000000000  0.000000000  0.185009426

  length of vectors
     4.913700000  4.913700003  5.405130000     0.234996141  0.234996141  0.185009426


 FORCES acting on ions
    electron-ion (+dipol)            ewald-force                    non-local-force                 convergence-correction
 -----------------------------------------------------------------------------------------------
   -.667E+01 0.123E+02 0.339E+01   0.540E+01 -.106E+02 -.301E+01   0.433E+01 -.634E+01 -.138E+01   0.145E-03 -.558E-03 0.503E-04
   -.213E+00 -.132E+01 0.178E+00   0.352E+00 0.129E+01 0.822E-01   -.226E+00 0.719E+00 -.158E+00   0.151E-03 0.930E-04 0.144E-03
   0.945E+00 0.106E+01 0.377E+00   -.130E+01 0.873E+00 0.899E-01   -.206E+00 -.138E+01 -.274E+00   -.634E-04 0.103E-02 0.222E-03
   0.792E+02 0.366E+00 0.244E+02   -.101E+03 0.477E+01 -.304E+02   0.196E+02 -.257E+01 0.740E+01   0.234E-03 -.175E-02 -.193E-02
   -.447E+02 0.625E+02 0.304E+02   0.543E+02 -.811E+02 -.404E+02   -.970E+01 0.182E+02 0.101E+02   0.772E-03 -.641E-03 -.788E-03
   -.301E+02 -.665E+02 0.303E+02   0.403E+02 0.823E+02 -.400E+02   -.974E+01 -.156E+02 0.956E+01   0.102E-02 0.137E-02 -.401E-03
   0.669E+02 -.795E+01 -.321E+02   -.825E+02 0.688E+01 0.433E+02   0.154E+02 0.151E+01 -.109E+02   -.171E-02 -.348E-03 0.273E-03
   -.294E+02 0.656E+02 -.302E+02   0.394E+02 -.805E+02 0.401E+02   -.936E+01 0.145E+02 -.100E+02   -.294E-03 -.900E-03 0.135E-02
   -.387E+02 -.594E+02 -.237E+02   0.452E+02 0.761E+02 0.302E+02   -.726E+01 -.156E+02 -.734E+01   0.128E-02 0.130E-02 0.154E-02
 -----------------------------------------------------------------------------------------------
   -.278E+01 0.658E+01 0.306E+01   -.355E-13 0.284E-13 0.000E+00   0.278E+01 -.658E+01 -.305E+01   0.153E-02 -.402E-03 0.468E-03
 
 
 POSITION                                       TOTAL-FORCE (eV/Angst)
 -----------------------------------------------------------------------------------
      2.25932      0.08511      3.60344         3.063879     -4.695274     -1.000876
     -1.15423      1.99918      1.80169        -0.086398      0.688721      0.100616
      1.30262      2.25621      0.00000        -0.559802      0.558062      0.191823
      1.38272      1.13278      4.24627        -2.442563      2.560339      1.410513
      3.24132      0.63107      2.44458        -0.087632     -0.417874      0.082138
      2.74651      2.49153      0.64283         0.432772      0.191813     -0.075165
     -1.07413      3.12260      2.96055        -0.206261      0.434856      0.239357
      0.28966      1.76386      1.15886         0.595908     -0.466169     -0.114093
      0.78447      3.62431      4.76230        -0.709903      1.145526     -0.834313
 -----------------------------------------------------------------------------------
    total drift:                               -0.006230     -0.001238      0.013496


--------------------------------------------------------------------------------------------------------



  FREE ENERGIE OF THE ION-ELECTRON SYSTEM (eV)
  ---------------------------------------------------
  free  energy   TOTEN  =       -70.72462764 eV

  energy  without entropy=      -70.72462764  energy(sigma->0) =      -70.72462764
 


--------------------------------------------------------------------------------------------------------


    POTLOK:  cpu time    0.1120: real time    0.1123


--------------------------------------------------------------------------------------------------------


     LOOP+:  cpu time  137.4081: real time  137.6308
    4ORBIT:  cpu time    0.0000: real time    0.0002
 BZINTS: Fermi energy:  1.218587; 48.000000 electrons
         Band energy:-275.807217;  BLOECHL correction:  0.000000

 total amount of memory used by VASP on root node   195565. kBytes
========================================================================

   base      :      30000. kBytes
   nonlr-proj:        853. kBytes
   fftplans  :       7040. kBytes
   grid      :      12506. kBytes
   one-center:         27. kBytes
   wavefun   :     145139. kBytes
 
  
  
 General timing and accounting informations for this job:
 ========================================================
  
                  Total CPU time used (sec):      139.856
                            User time (sec):      139.656
                          System time (sec):        0.200
                         Elapsed time (sec):      140.388
  
                   Maximum memory used (kb):      207876.
                   Average memory used (kb):           0.
  
                          Minor page faults:        77432
                          Major page faults:          240
                 Voluntary context switches:         1965
