<?xml version="1.0" encoding="ISO-8859-1"?>
<modeling>
 <generator>
  <i name="program" type="string">vasp </i>
  <i name="version" type="string">5.4.1  </i>
  <i name="subversion" type="string">05Feb16 (build Mar 02 2016 14:09:44) complex                          parallel </i>
  <i name="platform" type="string">Abel-impi-ifc-cuda </i>
  <i name="date" type="string">2019 09 13 </i>
  <i name="time" type="string">11:29:18 </i>
 </generator>
 <incar>
  <i type="string" name="PREC">normal    ! low/normal/accurate</i>
  <i type="string" name="ALGO"> Fast      ! Algorithm for electronic re</i>
  <i type="int" name="ISPIN">     1</i>
  <i type="int" name="NELMIN">     4</i>
  <i name="EDIFF">      0.00001000</i>
  <i type="int" name="NSW">     0</i>
  <i name="ENCUT">    550.00000000</i>
  <i type="string" name="LREAL"> Auto      ! Projection in reciprocal sp</i>
  <i type="int" name="ISMEAR">    -5</i>
  <i name="SIGMA">      0.20000000</i>
  <i type="logical" name="LWAVE"> F  </i>
  <v type="int" name="KPOINT_BSE">    -1     0     0     0</v>
 </incar>
 <kpoints>
  <generation param="Gamma">
   <v type="int" name="divisions">       6        6        5 </v>
   <v name="usershift">      0.00000000       0.00000000       0.00000000 </v>
   <v name="genvec1">      0.16666667       0.00000000       0.00000000 </v>
   <v name="genvec2">      0.00000000       0.16666667       0.00000000 </v>
   <v name="genvec3">      0.00000000       0.00000000       0.20000000 </v>
   <v name="shift">      0.00000000       0.00000000       0.00000000 </v>
  </generation>
  <varray name="kpointlist" >
   <v>       0.00000000       0.00000000       0.00000000 </v>
   <v>       0.16666667       0.00000000       0.00000000 </v>
   <v>       0.33333333       0.00000000       0.00000000 </v>
   <v>       0.50000000       0.00000000       0.00000000 </v>
   <v>       0.00000000       0.16666667       0.00000000 </v>
   <v>       0.16666667       0.16666667       0.00000000 </v>
   <v>       0.33333333       0.16666667       0.00000000 </v>
   <v>       0.50000000       0.16666667       0.00000000 </v>
   <v>      -0.33333333       0.16666667       0.00000000 </v>
   <v>      -0.16666667       0.16666667       0.00000000 </v>
   <v>       0.00000000       0.33333333       0.00000000 </v>
   <v>       0.16666667       0.33333333       0.00000000 </v>
   <v>       0.33333333       0.33333333       0.00000000 </v>
   <v>       0.50000000       0.33333333       0.00000000 </v>
   <v>      -0.33333333       0.33333333       0.00000000 </v>
   <v>      -0.16666667       0.33333333       0.00000000 </v>
   <v>       0.00000000       0.50000000       0.00000000 </v>
   <v>       0.16666667       0.50000000       0.00000000 </v>
   <v>       0.33333333       0.50000000       0.00000000 </v>
   <v>       0.50000000       0.50000000       0.00000000 </v>
   <v>       0.00000000       0.00000000       0.20000000 </v>
   <v>       0.16666667       0.00000000       0.20000000 </v>
   <v>       0.33333333       0.00000000       0.20000000 </v>
   <v>       0.50000000       0.00000000       0.20000000 </v>
   <v>      -0.33333333       0.00000000       0.20000000 </v>
   <v>      -0.16666667       0.00000000       0.20000000 </v>
   <v>       0.00000000       0.16666667       0.20000000 </v>
   <v>       0.16666667       0.16666667       0.20000000 </v>
   <v>       0.33333333       0.16666667       0.20000000 </v>
   <v>       0.50000000       0.16666667       0.20000000 </v>
   <v>      -0.33333333       0.16666667       0.20000000 </v>
   <v>      -0.16666667       0.16666667       0.20000000 </v>
   <v>       0.00000000       0.33333333       0.20000000 </v>
   <v>       0.16666667       0.33333333       0.20000000 </v>
   <v>       0.33333333       0.33333333       0.20000000 </v>
   <v>       0.50000000       0.33333333       0.20000000 </v>
   <v>      -0.33333333       0.33333333       0.20000000 </v>
   <v>      -0.16666667       0.33333333       0.20000000 </v>
   <v>       0.00000000       0.50000000       0.20000000 </v>
   <v>       0.16666667       0.50000000       0.20000000 </v>
   <v>       0.33333333       0.50000000       0.20000000 </v>
   <v>       0.50000000       0.50000000       0.20000000 </v>
   <v>      -0.33333333       0.50000000       0.20000000 </v>
   <v>      -0.16666667       0.50000000       0.20000000 </v>
   <v>       0.00000000      -0.33333333       0.20000000 </v>
   <v>       0.16666667      -0.33333333       0.20000000 </v>
   <v>       0.33333333      -0.33333333       0.20000000 </v>
   <v>       0.50000000      -0.33333333       0.20000000 </v>
   <v>      -0.33333333      -0.33333333       0.20000000 </v>
   <v>      -0.16666667      -0.33333333       0.20000000 </v>
   <v>       0.00000000      -0.16666667       0.20000000 </v>
   <v>       0.16666667      -0.16666667       0.20000000 </v>
   <v>       0.33333333      -0.16666667       0.20000000 </v>
   <v>       0.50000000      -0.16666667       0.20000000 </v>
   <v>      -0.33333333      -0.16666667       0.20000000 </v>
   <v>      -0.16666667      -0.16666667       0.20000000 </v>
   <v>       0.00000000       0.00000000       0.40000000 </v>
   <v>       0.16666667       0.00000000       0.40000000 </v>
   <v>       0.33333333       0.00000000       0.40000000 </v>
   <v>       0.50000000       0.00000000       0.40000000 </v>
   <v>      -0.33333333       0.00000000       0.40000000 </v>
   <v>      -0.16666667       0.00000000       0.40000000 </v>
   <v>       0.00000000       0.16666667       0.40000000 </v>
   <v>       0.16666667       0.16666667       0.40000000 </v>
   <v>       0.33333333       0.16666667       0.40000000 </v>
   <v>       0.50000000       0.16666667       0.40000000 </v>
   <v>      -0.33333333       0.16666667       0.40000000 </v>
   <v>      -0.16666667       0.16666667       0.40000000 </v>
   <v>       0.00000000       0.33333333       0.40000000 </v>
   <v>       0.16666667       0.33333333       0.40000000 </v>
   <v>       0.33333333       0.33333333       0.40000000 </v>
   <v>       0.50000000       0.33333333       0.40000000 </v>
   <v>      -0.33333333       0.33333333       0.40000000 </v>
   <v>      -0.16666667       0.33333333       0.40000000 </v>
   <v>       0.00000000       0.50000000       0.40000000 </v>
   <v>       0.16666667       0.50000000       0.40000000 </v>
   <v>       0.33333333       0.50000000       0.40000000 </v>
   <v>       0.50000000       0.50000000       0.40000000 </v>
   <v>      -0.33333333       0.50000000       0.40000000 </v>
   <v>      -0.16666667       0.50000000       0.40000000 </v>
   <v>       0.00000000      -0.33333333       0.40000000 </v>
   <v>       0.16666667      -0.33333333       0.40000000 </v>
   <v>       0.33333333      -0.33333333       0.40000000 </v>
   <v>       0.50000000      -0.33333333       0.40000000 </v>
   <v>      -0.33333333      -0.33333333       0.40000000 </v>
   <v>      -0.16666667      -0.33333333       0.40000000 </v>
   <v>       0.00000000      -0.16666667       0.40000000 </v>
   <v>       0.16666667      -0.16666667       0.40000000 </v>
   <v>       0.33333333      -0.16666667       0.40000000 </v>
   <v>       0.50000000      -0.16666667       0.40000000 </v>
   <v>      -0.33333333      -0.16666667       0.40000000 </v>
   <v>      -0.16666667      -0.16666667       0.40000000 </v>
  </varray>
  <varray name="weights" >
   <v>       0.00555556 </v>
   <v>       0.01111111 </v>
   <v>       0.01111111 </v>
   <v>       0.00555556 </v>
   <v>       0.01111111 </v>
   <v>       0.01111111 </v>
   <v>       0.01111111 </v>
   <v>       0.01111111 </v>
   <v>       0.01111111 </v>
   <v>       0.01111111 </v>
   <v>       0.01111111 </v>
   <v>       0.01111111 </v>
   <v>       0.01111111 </v>
   <v>       0.01111111 </v>
   <v>       0.01111111 </v>
   <v>       0.01111111 </v>
   <v>       0.00555556 </v>
   <v>       0.01111111 </v>
   <v>       0.01111111 </v>
   <v>       0.00555556 </v>
   <v>       0.01111111 </v>
   <v>       0.01111111 </v>
   <v>       0.01111111 </v>
   <v>       0.01111111 </v>
   <v>       0.01111111 </v>
   <v>       0.01111111 </v>
   <v>       0.01111111 </v>
   <v>       0.01111111 </v>
   <v>       0.01111111 </v>
   <v>       0.01111111 </v>
   <v>       0.01111111 </v>
   <v>       0.01111111 </v>
   <v>       0.01111111 </v>
   <v>       0.01111111 </v>
   <v>       0.01111111 </v>
   <v>       0.01111111 </v>
   <v>       0.01111111 </v>
   <v>       0.01111111 </v>
   <v>       0.01111111 </v>
   <v>       0.01111111 </v>
   <v>       0.01111111 </v>
   <v>       0.01111111 </v>
   <v>       0.01111111 </v>
   <v>       0.01111111 </v>
   <v>       0.01111111 </v>
   <v>       0.01111111 </v>
   <v>       0.01111111 </v>
   <v>       0.01111111 </v>
   <v>       0.01111111 </v>
   <v>       0.01111111 </v>
   <v>       0.01111111 </v>
   <v>       0.01111111 </v>
   <v>       0.01111111 </v>
   <v>       0.01111111 </v>
   <v>       0.01111111 </v>
   <v>       0.01111111 </v>
   <v>       0.01111111 </v>
   <v>       0.01111111 </v>
   <v>       0.01111111 </v>
   <v>       0.01111111 </v>
   <v>       0.01111111 </v>
   <v>       0.01111111 </v>
   <v>       0.01111111 </v>
   <v>       0.01111111 </v>
   <v>       0.01111111 </v>
   <v>       0.01111111 </v>
   <v>       0.01111111 </v>
   <v>       0.01111111 </v>
   <v>       0.01111111 </v>
   <v>       0.01111111 </v>
   <v>       0.01111111 </v>
   <v>       0.01111111 </v>
   <v>       0.01111111 </v>
   <v>       0.01111111 </v>
   <v>       0.01111111 </v>
   <v>       0.01111111 </v>
   <v>       0.01111111 </v>
   <v>       0.01111111 </v>
   <v>       0.01111111 </v>
   <v>       0.01111111 </v>
   <v>       0.01111111 </v>
   <v>       0.01111111 </v>
   <v>       0.01111111 </v>
   <v>       0.01111111 </v>
   <v>       0.01111111 </v>
   <v>       0.01111111 </v>
   <v>       0.01111111 </v>
   <v>       0.01111111 </v>
   <v>       0.01111111 </v>
   <v>       0.01111111 </v>
   <v>       0.01111111 </v>
   <v>       0.01111111 </v>
  </varray>
  <varray name="tetrahedronlist"  type="int" >
   <v type="int" >        2        2        5        6       27 </v>
   <v type="int" >        2        1        2        5       27 </v>
   <v type="int" >        2        1        2       21       27 </v>
   <v type="int" >        2        2        6       27       28 </v>
   <v type="int" >        2        2       22       27       28 </v>
   <v type="int" >        2        2       21       22       27 </v>
   <v type="int" >        2        3        6        7       28 </v>
   <v type="int" >        2        2        3        6       28 </v>
   <v type="int" >        2        2        3       22       28 </v>
   <v type="int" >        2        3        7       28       29 </v>
   <v type="int" >        2        3       23       28       29 </v>
   <v type="int" >        2        3       22       23       28 </v>
   <v type="int" >        2        4        7        8       29 </v>
   <v type="int" >        2        3        4        7       29 </v>
   <v type="int" >        2        3        4       23       29 </v>
   <v type="int" >        2        4        8       29       30 </v>
   <v type="int" >        2        4       24       29       30 </v>
   <v type="int" >        2        4       23       24       29 </v>
   <v type="int" >        2        3        8        9       30 </v>
   <v type="int" >        2        3        4        8       30 </v>
   <v type="int" >        2        3        4       24       30 </v>
   <v type="int" >        2        3        9       30       31 </v>
   <v type="int" >        2        3       25       30       31 </v>
   <v type="int" >        2        3       24       25       30 </v>
   <v type="int" >        2        2        9       10       31 </v>
   <v type="int" >        2        2        3        9       31 </v>
   <v type="int" >        2        2        3       25       31 </v>
   <v type="int" >        2        2       10       31       32 </v>
   <v type="int" >        2        2       26       31       32 </v>
   <v type="int" >        2        2       25       26       31 </v>
   <v type="int" >        2        1        5       10       32 </v>
   <v type="int" >        2        1        2       10       32 </v>
   <v type="int" >        2        1        2       26       32 </v>
   <v type="int" >        2        1        5       27       32 </v>
   <v type="int" >        2        1       21       27       32 </v>
   <v type="int" >        2        1       21       26       32 </v>
   <v type="int" >        2        6       11       12       33 </v>
   <v type="int" >        2        5        6       11       33 </v>
   <v type="int" >        2        5        6       27       33 </v>
   <v type="int" >        2        6       12       33       34 </v>
   <v type="int" >        2        6       28       33       34 </v>
   <v type="int" >        2        6       27       28       33 </v>
   <v type="int" >        2        7       12       13       34 </v>
   <v type="int" >        2        6        7       12       34 </v>
   <v type="int" >        2        6        7       28       34 </v>
   <v type="int" >        2        7       13       34       35 </v>
   <v type="int" >        2        7       29       34       35 </v>
   <v type="int" >        2        7       28       29       34 </v>
   <v type="int" >        2        8       13       14       35 </v>
   <v type="int" >        2        7        8       13       35 </v>
   <v type="int" >        2        7        8       29       35 </v>
   <v type="int" >        2        8       14       35       36 </v>
   <v type="int" >        2        8       30       35       36 </v>
   <v type="int" >        2        8       29       30       35 </v>
   <v type="int" >        2        9       14       15       36 </v>
   <v type="int" >        2        8        9       14       36 </v>
   <v type="int" >        2        8        9       30       36 </v>
   <v type="int" >        2        9       15       36       37 </v>
   <v type="int" >        2        9       31       36       37 </v>
   <v type="int" >        2        9       30       31       36 </v>
   <v type="int" >        2       10       15       16       37 </v>
   <v type="int" >        2        9       10       15       37 </v>
   <v type="int" >        2        9       10       31       37 </v>
   <v type="int" >        2       10       16       37       38 </v>
   <v type="int" >        2       10       32       37       38 </v>
   <v type="int" >        2       10       31       32       37 </v>
   <v type="int" >        2        5       11       16       38 </v>
   <v type="int" >        2        5       10       16       38 </v>
   <v type="int" >        2        5       10       32       38 </v>
   <v type="int" >        2        5       11       33       38 </v>
   <v type="int" >        2        5       27       33       38 </v>
   <v type="int" >        2        5       27       32       38 </v>
   <v type="int" >        2       12       17       18       39 </v>
   <v type="int" >        2       11       12       17       39 </v>
   <v type="int" >        2       11       12       33       39 </v>
   <v type="int" >        2       12       18       39       40 </v>
   <v type="int" >        2       12       34       39       40 </v>
   <v type="int" >        2       12       33       34       39 </v>
   <v type="int" >        2       13       18       19       40 </v>
   <v type="int" >        2       12       13       18       40 </v>
   <v type="int" >        2       12       13       34       40 </v>
   <v type="int" >        2       13       19       40       41 </v>
   <v type="int" >        2       13       35       40       41 </v>
   <v type="int" >        2       13       34       35       40 </v>
   <v type="int" >        2       14       19       20       41 </v>
   <v type="int" >        2       13       14       19       41 </v>
   <v type="int" >        2       13       14       35       41 </v>
   <v type="int" >        2       14       20       41       42 </v>
   <v type="int" >        2       14       36       41       42 </v>
   <v type="int" >        2       14       35       36       41 </v>
   <v type="int" >        2       15       19       20       42 </v>
   <v type="int" >        2       14       15       20       42 </v>
   <v type="int" >        2       14       15       36       42 </v>
   <v type="int" >        2       15       19       42       43 </v>
   <v type="int" >        2       15       37       42       43 </v>
   <v type="int" >        2       15       36       37       42 </v>
   <v type="int" >        2       16       18       19       43 </v>
   <v type="int" >        2       15       16       19       43 </v>
   <v type="int" >        2       15       16       37       43 </v>
   <v type="int" >        2       16       18       43       44 </v>
   <v type="int" >        2       16       38       43       44 </v>
   <v type="int" >        2       16       37       38       43 </v>
   <v type="int" >        2       11       17       18       44 </v>
   <v type="int" >        2       11       16       18       44 </v>
   <v type="int" >        2       11       16       38       44 </v>
   <v type="int" >        2       11       17       39       44 </v>
   <v type="int" >        2       11       33       39       44 </v>
   <v type="int" >        2       11       33       38       44 </v>
   <v type="int" >        2       11       16       18       45 </v>
   <v type="int" >        2       11       17       18       45 </v>
   <v type="int" >        2       17       18       39       45 </v>
   <v type="int" >        2       16       18       45       46 </v>
   <v type="int" >        2       18       40       45       46 </v>
   <v type="int" >        2       18       39       40       45 </v>
   <v type="int" >        2       15       16       19       46 </v>
   <v type="int" >        2       16       18       19       46 </v>
   <v type="int" >        2       18       19       40       46 </v>
   <v type="int" >        2       15       19       46       47 </v>
   <v type="int" >        2       19       41       46       47 </v>
   <v type="int" >        2       19       40       41       46 </v>
   <v type="int" >        2       14       15       20       47 </v>
   <v type="int" >        2       15       19       20       47 </v>
   <v type="int" >        2       19       20       41       47 </v>
   <v type="int" >        2       14       20       47       48 </v>
   <v type="int" >        2       20       42       47       48 </v>
   <v type="int" >        2       20       41       42       47 </v>
   <v type="int" >        2       13       14       19       48 </v>
   <v type="int" >        2       14       19       20       48 </v>
   <v type="int" >        2       19       20       42       48 </v>
   <v type="int" >        2       13       19       48       49 </v>
   <v type="int" >        2       19       43       48       49 </v>
   <v type="int" >        2       19       42       43       48 </v>
   <v type="int" >        2       12       13       18       49 </v>
   <v type="int" >        2       13       18       19       49 </v>
   <v type="int" >        2       18       19       43       49 </v>
   <v type="int" >        2       12       18       49       50 </v>
   <v type="int" >        2       18       44       49       50 </v>
   <v type="int" >        2       18       43       44       49 </v>
   <v type="int" >        2       11       12       17       50 </v>
   <v type="int" >        2       12       17       18       50 </v>
   <v type="int" >        2       17       18       44       50 </v>
   <v type="int" >        2       11       17       45       50 </v>
   <v type="int" >        2       17       39       45       50 </v>
   <v type="int" >        2       17       39       44       50 </v>
   <v type="int" >        2        5       10       16       51 </v>
   <v type="int" >        2        5       11       16       51 </v>
   <v type="int" >        2       11       16       45       51 </v>
   <v type="int" >        2       10       16       51       52 </v>
   <v type="int" >        2       16       46       51       52 </v>
   <v type="int" >        2       16       45       46       51 </v>
   <v type="int" >        2        9       10       15       52 </v>
   <v type="int" >        2       10       15       16       52 </v>
   <v type="int" >        2       15       16       46       52 </v>
   <v type="int" >        2        9       15       52       53 </v>
   <v type="int" >        2       15       47       52       53 </v>
   <v type="int" >        2       15       46       47       52 </v>
   <v type="int" >        2        8        9       14       53 </v>
   <v type="int" >        2        9       14       15       53 </v>
   <v type="int" >        2       14       15       47       53 </v>
   <v type="int" >        2        8       14       53       54 </v>
   <v type="int" >        2       14       48       53       54 </v>
   <v type="int" >        2       14       47       48       53 </v>
   <v type="int" >        2        7        8       13       54 </v>
   <v type="int" >        2        8       13       14       54 </v>
   <v type="int" >        2       13       14       48       54 </v>
   <v type="int" >        2        7       13       54       55 </v>
   <v type="int" >        2       13       49       54       55 </v>
   <v type="int" >        2       13       48       49       54 </v>
   <v type="int" >        2        6        7       12       55 </v>
   <v type="int" >        2        7       12       13       55 </v>
   <v type="int" >        2       12       13       49       55 </v>
   <v type="int" >        2        6       12       55       56 </v>
   <v type="int" >        2       12       50       55       56 </v>
   <v type="int" >        2       12       49       50       55 </v>
   <v type="int" >        2        5        6       11       56 </v>
   <v type="int" >        2        6       11       12       56 </v>
   <v type="int" >        2       11       12       50       56 </v>
   <v type="int" >        2        5       11       51       56 </v>
   <v type="int" >        2       11       45       51       56 </v>
   <v type="int" >        2       11       45       50       56 </v>
   <v type="int" >        2        1        2       10       21 </v>
   <v type="int" >        2        1        5       10       21 </v>
   <v type="int" >        2        5       10       21       51 </v>
   <v type="int" >        2        2       10       21       22 </v>
   <v type="int" >        2       10       21       22       52 </v>
   <v type="int" >        2       10       21       51       52 </v>
   <v type="int" >        2        2        3        9       22 </v>
   <v type="int" >        2        2        9       10       22 </v>
   <v type="int" >        2        9       10       22       52 </v>
   <v type="int" >        2        3        9       22       23 </v>
   <v type="int" >        2        9       22       23       53 </v>
   <v type="int" >        2        9       22       52       53 </v>
   <v type="int" >        2        3        4        8       23 </v>
   <v type="int" >        2        3        8        9       23 </v>
   <v type="int" >        2        8        9       23       53 </v>
   <v type="int" >        2        4        8       23       24 </v>
   <v type="int" >        2        8       23       24       54 </v>
   <v type="int" >        2        8       23       53       54 </v>
   <v type="int" >        2        3        4        7       24 </v>
   <v type="int" >        2        4        7        8       24 </v>
   <v type="int" >        2        7        8       24       54 </v>
   <v type="int" >        2        3        7       24       25 </v>
   <v type="int" >        2        7       24       25       55 </v>
   <v type="int" >        2        7       24       54       55 </v>
   <v type="int" >        2        2        3        6       25 </v>
   <v type="int" >        2        3        6        7       25 </v>
   <v type="int" >        2        6        7       25       55 </v>
   <v type="int" >        2        2        6       25       26 </v>
   <v type="int" >        2        6       25       26       56 </v>
   <v type="int" >        2        6       25       55       56 </v>
   <v type="int" >        2        1        2        5       26 </v>
   <v type="int" >        2        2        5        6       26 </v>
   <v type="int" >        2        5        6       26       56 </v>
   <v type="int" >        2        1        5       21       26 </v>
   <v type="int" >        2        5       21       26       51 </v>
   <v type="int" >        2        5       26       51       56 </v>
   <v type="int" >        2       22       27       28       63 </v>
   <v type="int" >        2       21       22       27       63 </v>
   <v type="int" >        2       21       22       57       63 </v>
   <v type="int" >        2       22       28       63       64 </v>
   <v type="int" >        2       22       58       63       64 </v>
   <v type="int" >        2       22       57       58       63 </v>
   <v type="int" >        2       23       28       29       64 </v>
   <v type="int" >        2       22       23       28       64 </v>
   <v type="int" >        2       22       23       58       64 </v>
   <v type="int" >        2       23       29       64       65 </v>
   <v type="int" >        2       23       59       64       65 </v>
   <v type="int" >        2       23       58       59       64 </v>
   <v type="int" >        2       24       29       30       65 </v>
   <v type="int" >        2       23       24       29       65 </v>
   <v type="int" >        2       23       24       59       65 </v>
   <v type="int" >        2       24       30       65       66 </v>
   <v type="int" >        2       24       60       65       66 </v>
   <v type="int" >        2       24       59       60       65 </v>
   <v type="int" >        2       25       30       31       66 </v>
   <v type="int" >        2       24       25       30       66 </v>
   <v type="int" >        2       24       25       60       66 </v>
   <v type="int" >        2       25       31       66       67 </v>
   <v type="int" >        2       25       61       66       67 </v>
   <v type="int" >        2       25       60       61       66 </v>
   <v type="int" >        2       26       31       32       67 </v>
   <v type="int" >        2       25       26       31       67 </v>
   <v type="int" >        2       25       26       61       67 </v>
   <v type="int" >        2       26       32       67       68 </v>
   <v type="int" >        2       26       62       67       68 </v>
   <v type="int" >        2       26       61       62       67 </v>
   <v type="int" >        2       21       27       32       68 </v>
   <v type="int" >        2       21       26       32       68 </v>
   <v type="int" >        2       21       26       62       68 </v>
   <v type="int" >        2       21       27       63       68 </v>
   <v type="int" >        2       21       57       63       68 </v>
   <v type="int" >        2       21       57       62       68 </v>
   <v type="int" >        2       28       33       34       69 </v>
   <v type="int" >        2       27       28       33       69 </v>
   <v type="int" >        2       27       28       63       69 </v>
   <v type="int" >        2       28       34       69       70 </v>
   <v type="int" >        2       28       64       69       70 </v>
   <v type="int" >        2       28       63       64       69 </v>
   <v type="int" >        2       29       34       35       70 </v>
   <v type="int" >        2       28       29       34       70 </v>
   <v type="int" >        2       28       29       64       70 </v>
   <v type="int" >        2       29       35       70       71 </v>
   <v type="int" >        2       29       65       70       71 </v>
   <v type="int" >        2       29       64       65       70 </v>
   <v type="int" >        2       30       35       36       71 </v>
   <v type="int" >        2       29       30       35       71 </v>
   <v type="int" >        2       29       30       65       71 </v>
   <v type="int" >        2       30       36       71       72 </v>
   <v type="int" >        2       30       66       71       72 </v>
   <v type="int" >        2       30       65       66       71 </v>
   <v type="int" >        2       31       36       37       72 </v>
   <v type="int" >        2       30       31       36       72 </v>
   <v type="int" >        2       30       31       66       72 </v>
   <v type="int" >        2       31       37       72       73 </v>
   <v type="int" >        2       31       67       72       73 </v>
   <v type="int" >        2       31       66       67       72 </v>
   <v type="int" >        2       32       37       38       73 </v>
   <v type="int" >        2       31       32       37       73 </v>
   <v type="int" >        2       31       32       67       73 </v>
   <v type="int" >        2       32       38       73       74 </v>
   <v type="int" >        2       32       68       73       74 </v>
   <v type="int" >        2       32       67       68       73 </v>
   <v type="int" >        2       27       33       38       74 </v>
   <v type="int" >        2       27       32       38       74 </v>
   <v type="int" >        2       27       32       68       74 </v>
   <v type="int" >        2       27       33       69       74 </v>
   <v type="int" >        2       27       63       69       74 </v>
   <v type="int" >        2       27       63       68       74 </v>
   <v type="int" >        2       34       39       40       75 </v>
   <v type="int" >        2       33       34       39       75 </v>
   <v type="int" >        2       33       34       69       75 </v>
   <v type="int" >        2       34       40       75       76 </v>
   <v type="int" >        2       34       70       75       76 </v>
   <v type="int" >        2       34       69       70       75 </v>
   <v type="int" >        2       35       40       41       76 </v>
   <v type="int" >        2       34       35       40       76 </v>
   <v type="int" >        2       34       35       70       76 </v>
   <v type="int" >        2       35       41       76       77 </v>
   <v type="int" >        2       35       71       76       77 </v>
   <v type="int" >        2       35       70       71       76 </v>
   <v type="int" >        2       36       41       42       77 </v>
   <v type="int" >        2       35       36       41       77 </v>
   <v type="int" >        2       35       36       71       77 </v>
   <v type="int" >        2       36       42       77       78 </v>
   <v type="int" >        2       36       72       77       78 </v>
   <v type="int" >        2       36       71       72       77 </v>
   <v type="int" >        2       37       42       43       78 </v>
   <v type="int" >        2       36       37       42       78 </v>
   <v type="int" >        2       36       37       72       78 </v>
   <v type="int" >        2       37       43       78       79 </v>
   <v type="int" >        2       37       73       78       79 </v>
   <v type="int" >        2       37       72       73       78 </v>
   <v type="int" >        2       38       43       44       79 </v>
   <v type="int" >        2       37       38       43       79 </v>
   <v type="int" >        2       37       38       73       79 </v>
   <v type="int" >        2       38       44       79       80 </v>
   <v type="int" >        2       38       74       79       80 </v>
   <v type="int" >        2       38       73       74       79 </v>
   <v type="int" >        2       33       39       44       80 </v>
   <v type="int" >        2       33       38       44       80 </v>
   <v type="int" >        2       33       38       74       80 </v>
   <v type="int" >        2       33       39       75       80 </v>
   <v type="int" >        2       33       69       75       80 </v>
   <v type="int" >        2       33       69       74       80 </v>
   <v type="int" >        2       40       45       46       81 </v>
   <v type="int" >        2       39       40       45       81 </v>
   <v type="int" >        2       39       40       75       81 </v>
   <v type="int" >        2       40       46       81       82 </v>
   <v type="int" >        2       40       76       81       82 </v>
   <v type="int" >        2       40       75       76       81 </v>
   <v type="int" >        2       41       46       47       82 </v>
   <v type="int" >        2       40       41       46       82 </v>
   <v type="int" >        2       40       41       76       82 </v>
   <v type="int" >        2       41       47       82       83 </v>
   <v type="int" >        2       41       77       82       83 </v>
   <v type="int" >        2       41       76       77       82 </v>
   <v type="int" >        2       42       47       48       83 </v>
   <v type="int" >        2       41       42       47       83 </v>
   <v type="int" >        2       41       42       77       83 </v>
   <v type="int" >        2       42       48       83       84 </v>
   <v type="int" >        2       42       78       83       84 </v>
   <v type="int" >        2       42       77       78       83 </v>
   <v type="int" >        2       43       48       49       84 </v>
   <v type="int" >        2       42       43       48       84 </v>
   <v type="int" >        2       42       43       78       84 </v>
   <v type="int" >        2       43       49       84       85 </v>
   <v type="int" >        2       43       79       84       85 </v>
   <v type="int" >        2       43       78       79       84 </v>
   <v type="int" >        2       44       49       50       85 </v>
   <v type="int" >        2       43       44       49       85 </v>
   <v type="int" >        2       43       44       79       85 </v>
   <v type="int" >        2       44       50       85       86 </v>
   <v type="int" >        2       44       80       85       86 </v>
   <v type="int" >        2       44       79       80       85 </v>
   <v type="int" >        2       39       45       50       86 </v>
   <v type="int" >        2       39       44       50       86 </v>
   <v type="int" >        2       39       44       80       86 </v>
   <v type="int" >        2       39       45       81       86 </v>
   <v type="int" >        2       39       75       81       86 </v>
   <v type="int" >        2       39       75       80       86 </v>
   <v type="int" >        2       46       51       52       87 </v>
   <v type="int" >        2       45       46       51       87 </v>
   <v type="int" >        2       45       46       81       87 </v>
   <v type="int" >        2       46       52       87       88 </v>
   <v type="int" >        2       46       82       87       88 </v>
   <v type="int" >        2       46       81       82       87 </v>
   <v type="int" >        2       47       52       53       88 </v>
   <v type="int" >        2       46       47       52       88 </v>
   <v type="int" >        2       46       47       82       88 </v>
   <v type="int" >        2       47       53       88       89 </v>
   <v type="int" >        2       47       83       88       89 </v>
   <v type="int" >        2       47       82       83       88 </v>
   <v type="int" >        2       48       53       54       89 </v>
   <v type="int" >        2       47       48       53       89 </v>
   <v type="int" >        2       47       48       83       89 </v>
   <v type="int" >        2       48       54       89       90 </v>
   <v type="int" >        2       48       84       89       90 </v>
   <v type="int" >        2       48       83       84       89 </v>
   <v type="int" >        2       49       54       55       90 </v>
   <v type="int" >        2       48       49       54       90 </v>
   <v type="int" >        2       48       49       84       90 </v>
   <v type="int" >        2       49       55       90       91 </v>
   <v type="int" >        2       49       85       90       91 </v>
   <v type="int" >        2       49       84       85       90 </v>
   <v type="int" >        2       50       55       56       91 </v>
   <v type="int" >        2       49       50       55       91 </v>
   <v type="int" >        2       49       50       85       91 </v>
   <v type="int" >        2       50       56       91       92 </v>
   <v type="int" >        2       50       86       91       92 </v>
   <v type="int" >        2       50       85       86       91 </v>
   <v type="int" >        2       45       51       56       92 </v>
   <v type="int" >        2       45       50       56       92 </v>
   <v type="int" >        2       45       50       86       92 </v>
   <v type="int" >        2       45       51       87       92 </v>
   <v type="int" >        2       45       81       87       92 </v>
   <v type="int" >        2       45       81       86       92 </v>
   <v type="int" >        2       21       22       52       57 </v>
   <v type="int" >        2       21       51       52       57 </v>
   <v type="int" >        2       51       52       57       87 </v>
   <v type="int" >        2       22       52       57       58 </v>
   <v type="int" >        2       52       57       58       88 </v>
   <v type="int" >        2       52       57       87       88 </v>
   <v type="int" >        2       22       23       53       58 </v>
   <v type="int" >        2       22       52       53       58 </v>
   <v type="int" >        2       52       53       58       88 </v>
   <v type="int" >        2       23       53       58       59 </v>
   <v type="int" >        2       53       58       59       89 </v>
   <v type="int" >        2       53       58       88       89 </v>
   <v type="int" >        2       23       24       54       59 </v>
   <v type="int" >        2       23       53       54       59 </v>
   <v type="int" >        2       53       54       59       89 </v>
   <v type="int" >        2       24       54       59       60 </v>
   <v type="int" >        2       54       59       60       90 </v>
   <v type="int" >        2       54       59       89       90 </v>
   <v type="int" >        2       24       25       55       60 </v>
   <v type="int" >        2       24       54       55       60 </v>
   <v type="int" >        2       54       55       60       90 </v>
   <v type="int" >        2       25       55       60       61 </v>
   <v type="int" >        2       55       60       61       91 </v>
   <v type="int" >        2       55       60       90       91 </v>
   <v type="int" >        2       25       26       56       61 </v>
   <v type="int" >        2       25       55       56       61 </v>
   <v type="int" >        2       55       56       61       91 </v>
   <v type="int" >        2       26       56       61       62 </v>
   <v type="int" >        2       56       61       62       92 </v>
   <v type="int" >        2       56       61       91       92 </v>
   <v type="int" >        2       21       26       51       62 </v>
   <v type="int" >        2       26       51       56       62 </v>
   <v type="int" >        2       51       56       62       92 </v>
   <v type="int" >        2       21       51       57       62 </v>
   <v type="int" >        2       51       57       62       87 </v>
   <v type="int" >        2       51       62       87       92 </v>
   <v type="int" >        2       58       63       64       87 </v>
   <v type="int" >        2       57       58       63       87 </v>
   <v type="int" >        2       57       57       58       87 </v>
   <v type="int" >        2       58       64       87       92 </v>
   <v type="int" >        2       58       62       87       92 </v>
   <v type="int" >        2       57       58       62       87 </v>
   <v type="int" >        2       59       64       65       92 </v>
   <v type="int" >        2       58       59       64       92 </v>
   <v type="int" >        2       58       59       62       92 </v>
   <v type="int" >        2       59       65       91       92 </v>
   <v type="int" >        2       59       61       91       92 </v>
   <v type="int" >        2       59       61       62       92 </v>
   <v type="int" >        2       60       65       66       91 </v>
   <v type="int" >        2       59       60       65       91 </v>
   <v type="int" >        2       59       60       61       91 </v>
   <v type="int" >        2       60       66       90       91 </v>
   <v type="int" >        2       60       60       90       91 </v>
   <v type="int" >        2       60       60       61       91 </v>
   <v type="int" >        2       61       66       67       90 </v>
   <v type="int" >        2       60       61       66       90 </v>
   <v type="int" >        2       60       60       61       90 </v>
   <v type="int" >        2       61       67       89       90 </v>
   <v type="int" >        2       59       61       89       90 </v>
   <v type="int" >        2       59       60       61       90 </v>
   <v type="int" >        2       62       67       68       89 </v>
   <v type="int" >        2       61       62       67       89 </v>
   <v type="int" >        2       59       61       62       89 </v>
   <v type="int" >        2       62       68       88       89 </v>
   <v type="int" >        2       58       62       88       89 </v>
   <v type="int" >        2       58       59       62       89 </v>
   <v type="int" >        2       57       63       68       88 </v>
   <v type="int" >        2       57       62       68       88 </v>
   <v type="int" >        2       57       58       62       88 </v>
   <v type="int" >        2       57       63       87       88 </v>
   <v type="int" >        2       57       57       87       88 </v>
   <v type="int" >        2       57       57       58       88 </v>
   <v type="int" >        2       64       69       70       81 </v>
   <v type="int" >        2       63       64       69       81 </v>
   <v type="int" >        2       63       64       81       87 </v>
   <v type="int" >        2       64       70       81       86 </v>
   <v type="int" >        2       64       81       86       92 </v>
   <v type="int" >        2       64       81       87       92 </v>
   <v type="int" >        2       65       70       71       86 </v>
   <v type="int" >        2       64       65       70       86 </v>
   <v type="int" >        2       64       65       86       92 </v>
   <v type="int" >        2       65       71       85       86 </v>
   <v type="int" >        2       65       85       86       91 </v>
   <v type="int" >        2       65       86       91       92 </v>
   <v type="int" >        2       66       71       72       85 </v>
   <v type="int" >        2       65       66       71       85 </v>
   <v type="int" >        2       65       66       85       91 </v>
   <v type="int" >        2       66       72       84       85 </v>
   <v type="int" >        2       66       84       85       90 </v>
   <v type="int" >        2       66       85       90       91 </v>
   <v type="int" >        2       67       72       73       84 </v>
   <v type="int" >        2       66       67       72       84 </v>
   <v type="int" >        2       66       67       84       90 </v>
   <v type="int" >        2       67       73       83       84 </v>
   <v type="int" >        2       67       83       84       89 </v>
   <v type="int" >        2       67       84       89       90 </v>
   <v type="int" >        2       68       73       74       83 </v>
   <v type="int" >        2       67       68       73       83 </v>
   <v type="int" >        2       67       68       83       89 </v>
   <v type="int" >        2       68       74       82       83 </v>
   <v type="int" >        2       68       82       83       88 </v>
   <v type="int" >        2       68       83       88       89 </v>
   <v type="int" >        2       63       69       74       82 </v>
   <v type="int" >        2       63       68       74       82 </v>
   <v type="int" >        2       63       68       82       88 </v>
   <v type="int" >        2       63       69       81       82 </v>
   <v type="int" >        2       63       81       82       87 </v>
   <v type="int" >        2       63       82       87       88 </v>
   <v type="int" >        2       70       75       75       76 </v>
   <v type="int" >        2       69       70       75       75 </v>
   <v type="int" >        2       69       70       75       81 </v>
   <v type="int" >        2       70       75       76       80 </v>
   <v type="int" >        2       70       75       80       86 </v>
   <v type="int" >        2       70       75       81       86 </v>
   <v type="int" >        2       71       76       77       80 </v>
   <v type="int" >        2       70       71       76       80 </v>
   <v type="int" >        2       70       71       80       86 </v>
   <v type="int" >        2       71       77       79       80 </v>
   <v type="int" >        2       71       79       80       85 </v>
   <v type="int" >        2       71       80       85       86 </v>
   <v type="int" >        2       72       77       78       79 </v>
   <v type="int" >        2       71       72       77       79 </v>
   <v type="int" >        2       71       72       79       85 </v>
   <v type="int" >        2       72       78       78       79 </v>
   <v type="int" >        2       72       78       79       84 </v>
   <v type="int" >        2       72       79       84       85 </v>
   <v type="int" >        2       73       78       78       79 </v>
   <v type="int" >        2       72       73       78       78 </v>
   <v type="int" >        2       72       73       78       84 </v>
   <v type="int" >        2       73       77       78       79 </v>
   <v type="int" >        2       73       77       78       83 </v>
   <v type="int" >        2       73       78       83       84 </v>
   <v type="int" >        2       74       77       79       80 </v>
   <v type="int" >        2       73       74       77       79 </v>
   <v type="int" >        2       73       74       77       83 </v>
   <v type="int" >        2       74       76       77       80 </v>
   <v type="int" >        2       74       76       77       82 </v>
   <v type="int" >        2       74       77       82       83 </v>
   <v type="int" >        2       69       75       76       80 </v>
   <v type="int" >        2       69       74       76       80 </v>
   <v type="int" >        2       69       74       76       82 </v>
   <v type="int" >        2       69       75       75       76 </v>
   <v type="int" >        2       69       75       76       81 </v>
   <v type="int" >        2       69       76       81       82 </v>
  </varray>
  <i name="volumeweight">      0.00092593 </i>
 </kpoints>
 <parameters>
  <separator name="general" >
   <i type="string" name="SYSTEM">unknown system</i>
   <i type="logical" name="LCOMPAT"> F  </i>
  </separator>
  <separator name="electronic" >
   <i type="string" name="PREC">normal</i>
   <i name="ENMAX">    550.00000000</i>
   <i name="ENAUG">    605.39200000</i>
   <i name="EDIFF">      0.00001000</i>
   <i type="int" name="IALGO">    68</i>
   <i type="int" name="IWAVPR">    10</i>
   <i type="int" name="NBANDS">    29</i>
   <i name="NELECT">     48.00000000</i>
   <i type="int" name="TURBO">     0</i>
   <i type="int" name="IRESTART">     0</i>
   <i type="int" name="NREBOOT">     0</i>
   <i type="int" name="NMIN">     0</i>
   <i name="EREF">      0.00000000</i>
   <separator name="electronic smearing" >
    <i type="int" name="ISMEAR">    -5</i>
    <i name="SIGMA">      0.20000000</i>
    <i name="KSPACING">      0.50000000</i>
    <i type="logical" name="KGAMMA"> T  </i>
   </separator>
   <separator name="electronic projectors" >
    <i type="logical" name="LREAL"> T  </i>
    <v name="ROPT">     -0.00050000     -0.00050000</v>
    <i type="int" name="LMAXPAW">  -100</i>
    <i type="int" name="LMAXMIX">     2</i>
    <i type="logical" name="NLSPLINE"> F  </i>
   </separator>
   <separator name="electronic startup" >
    <i type="int" name="ISTART">     0</i>
    <i type="int" name="ICHARG">     2</i>
    <i type="int" name="INIWAV">     1</i>
   </separator>
   <separator name="electronic spin" >
    <i type="int" name="ISPIN">     1</i>
    <i type="logical" name="LNONCOLLINEAR"> F  </i>
    <v name="MAGMOM">      1.00000000      1.00000000      1.00000000      1.00000000      1.00000000      1.00000000      1.00000000      1.00000000      1.00000000</v>
    <i name="NUPDOWN">     -1.00000000</i>
    <i type="logical" name="LSORBIT"> F  </i>
    <v name="SAXIS">      0.00000000      0.00000000      1.00000000</v>
    <i type="logical" name="LSPIRAL"> F  </i>
    <v name="QSPIRAL">      0.00000000      0.00000000      0.00000000</v>
    <i type="logical" name="LZEROZ"> F  </i>
   </separator>
   <separator name="electronic exchange-correlation" >
    <i type="logical" name="LASPH"> F  </i>
    <i type="logical" name="LMETAGGA"> F  </i>
   </separator>
   <separator name="electronic convergence" >
    <i type="int" name="NELM">    60</i>
    <i type="int" name="NELMDL">    -5</i>
    <i type="int" name="NELMIN">     4</i>
    <i name="ENINI">    550.00000000</i>
    <separator name="electronic convergence detail" >
     <i type="logical" name="LDIAG"> T  </i>
     <i type="logical" name="LSUBROT"> F  </i>
     <i name="WEIMIN">      0.00000000</i>
     <i name="EBREAK">      0.00000009</i>
     <i name="DEPER">      0.30000000</i>
     <i type="int" name="NRMM">     4</i>
     <i name="TIME">      0.40000000</i>
    </separator>
   </separator>
   <separator name="electronic mixer" >
    <i name="AMIX">      0.40000000</i>
    <i name="BMIX">      1.00000000</i>
    <i name="AMIN">      0.10000000</i>
    <i name="AMIX_MAG">      1.60000000</i>
    <i name="BMIX_MAG">      1.00000000</i>
    <separator name="electronic mixer details" >
     <i type="int" name="IMIX">     4</i>
     <i type="logical" name="MIXFIRST"> F  </i>
     <i type="int" name="MAXMIX">   -45</i>
     <i name="WC">    100.00000000</i>
     <i type="int" name="INIMIX">     1</i>
     <i type="int" name="MIXPRE">     1</i>
     <i type="int" name="MREMOVE">     5</i>
    </separator>
   </separator>
   <separator name="electronic dipolcorrection" >
    <i type="logical" name="LDIPOL"> F  </i>
    <i type="logical" name="LMONO"> F  </i>
    <i type="int" name="IDIPOL">     0</i>
    <i name="EPSILON">      1.00000000</i>
    <v name="DIPOL">   -100.00000000   -100.00000000   -100.00000000</v>
    <i name="EFIELD">      0.00000000</i>
   </separator>
  </separator>
  <separator name="grids" >
   <i type="int" name="NGX">    28</i>
   <i type="int" name="NGY">    28</i>
   <i type="int" name="NGZ">    32</i>
   <i type="int" name="NGXF">    56</i>
   <i type="int" name="NGYF">    56</i>
   <i type="int" name="NGZF">    64</i>
   <i type="logical" name="ADDGRID"> F  </i>
  </separator>
  <separator name="ionic" >
   <i type="int" name="NSW">     0</i>
   <i type="int" name="IBRION">    -1</i>
   <i type="int" name="ISIF">     2</i>
   <i name="PSTRESS">      0.00000000</i>
   <i name="EDIFFG">      0.00010000</i>
   <i type="int" name="NFREE">     0</i>
   <i name="POTIM">      0.50000000</i>
   <i name="SMASS">     -3.00000000</i>
   <i name="SCALEE">      1.00000000</i>
  </separator>
  <separator name="ionic md" >
   <i name="TEBEG">      0.00010000</i>
   <i name="TEEND">      0.00010000</i>
   <i type="int" name="NBLOCK">     1</i>
   <i type="int" name="KBLOCK">     1</i>
   <i type="int" name="NPACO">   256</i>
   <i name="APACO">     16.00000000</i>
  </separator>
  <separator name="symmetry" >
   <i type="int" name="ISYM">     2</i>
   <i name="SYMPREC">      0.00001000</i>
  </separator>
  <separator name="dos" >
   <i type="logical" name="LORBIT"> F  </i>
   <v name="RWIGS">     -1.00000000     -1.00000000</v>
   <i type="int" name="NEDOS">   301</i>
   <i name="EMIN">     10.00000000</i>
   <i name="EMAX">    -10.00000000</i>
   <i name="EFERMI">      0.00000000</i>
  </separator>
  <separator name="writing" >
   <i type="int" name="NWRITE">     2</i>
   <i type="logical" name="LWAVE"> F  </i>
   <i type="logical" name="LCHARG"> T  </i>
   <i type="logical" name="LPARD"> F  </i>
   <i type="logical" name="LVTOT"> F  </i>
   <i type="logical" name="LVHAR"> F  </i>
   <i type="logical" name="LELF"> F  </i>
   <i type="logical" name="LOPTICS"> F  </i>
   <v name="STM">      0.00000000      0.00000000      0.00000000      0.00000000      0.00000000      0.00000000      0.00000000</v>
  </separator>
  <separator name="performance" >
   <i type="int" name="NPAR">     1</i>
   <i type="int" name="NSIM">     4</i>
   <i type="int" name="NBLK">    -1</i>
   <i type="logical" name="LPLANE"> T  </i>
   <i type="logical" name="LSCALAPACK"> F  </i>
   <i type="logical" name="LSCAAWARE"> F  </i>
   <i type="logical" name="LSCALU"> F  </i>
   <i type="logical" name="LASYNC"> F  </i>
   <i type="logical" name="LORBITALREAL"> F  </i>
  </separator>
  <separator name="miscellaneous" >
   <i type="int" name="IDIOT">     3</i>
   <i type="logical" name="LMUSIC"> F  </i>
   <v name="POMASS">     28.08500000     16.00000000</v>
   <v name="DARWINR">      0.00000000      0.00000000</v>
   <v name="DARWINV">      1.00000000      1.00000000</v>
   <i type="logical" name="LCORR"> T  </i>
  </separator>
  <i type="logical" name="GGA_COMPAT"> T  </i>
  <i type="logical" name="LBERRY"> F  </i>
  <i type="int" name="ICORELEVEL">     0</i>
  <i type="logical" name="LDAU"> F  </i>
  <i type="int" name="I_CONSTRAINED_M">     0</i>
  <separator name="electronic exchange-correlation" >
   <i type="string" name="GGA">--</i>
   <i type="int" name="VOSKOWN">     0</i>
   <i type="logical" name="LHFCALC"> F  </i>
   <i type="string" name="PRECFOCK"></i>
   <i type="logical" name="LSYMGRAD"> F  </i>
   <i type="logical" name="LHFONE"> F  </i>
   <i type="logical" name="LRHFCALC"> F  </i>
   <i type="logical" name="LTHOMAS"> F  </i>
   <i type="logical" name="LMODELHF"> F  </i>
   <i name="ENCUT4O">     -1.00000000</i>
   <i type="int" name="EXXOEP">     0</i>
   <i type="int" name="FOURORBIT">     0</i>
   <i name="AEXX">      0.00000000</i>
   <i name="HFALPHA">      0.00000000</i>
   <i name="MCALPHA">      0.00000000</i>
   <i name="ALDAX">      1.00000000</i>
   <i name="AGGAX">      1.00000000</i>
   <i name="ALDAC">      1.00000000</i>
   <i name="AGGAC">      1.00000000</i>
   <i type="int" name="NKREDX">     1</i>
   <i type="int" name="NKREDY">     1</i>
   <i type="int" name="NKREDZ">     1</i>
   <i type="logical" name="SHIFTRED"> F  </i>
   <i type="logical" name="ODDONLY"> F  </i>
   <i type="logical" name="EVENONLY"> F  </i>
   <i type="int" name="LMAXFOCK">     0</i>
   <i type="int" name="NMAXFOCKAE">     0</i>
   <i type="logical" name="LFOCKAEDFT"> F  </i>
   <i name="HFSCREEN">      0.00000000</i>
   <i name="HFSCREENC">      0.00000000</i>
   <i type="int" name="NBANDSGWLOW">     0</i>
  </separator>
  <separator name="vdW DFT" >
   <i type="logical" name="LUSE_VDW"> F  </i>
   <i name="Zab_VDW">     -0.84910000</i>
   <i name="PARAM1">      0.12340000</i>
   <i name="PARAM2">      1.00000000</i>
   <i name="PARAM3">      0.00000000</i>
  </separator>
  <separator name="model GW" >
   <i type="int" name="MODEL_GW">     0</i>
   <i name="MODEL_EPS0">      7.53464495</i>
   <i name="MODEL_ALPHA">      1.00000000</i>
  </separator>
  <separator name="linear response parameters" >
   <i type="logical" name="LEPSILON"> F  </i>
   <i type="logical" name="LRPA"> F  </i>
   <i type="logical" name="LNABLA"> F  </i>
   <i type="logical" name="LVEL"> F  </i>
   <i type="int" name="KINTER">     0</i>
   <i name="CSHIFT">      0.10000000</i>
   <i name="OMEGAMAX">     -1.00000000</i>
   <i name="DEG_THRESHOLD">      0.00200000</i>
  </separator>
  <separator name="orbital magnetization" >
   <i type="logical" name="NUCIND"> F  </i>
   <v name="MAGPOS">      0.00000000      0.00000000      0.00000000</v>
   <i type="logical" name="LNICSALL"> T  </i>
   <i type="logical" name="ORBITALMAG"> F  </i>
   <i type="logical" name="LMAGBLOCH"> F  </i>
   <i type="logical" name="LCHIMAG"> F  </i>
   <i type="logical" name="LGAUGE"> T  </i>
   <i type="int" name="MAGATOM">     0</i>
   <v name="MAGDIPOL">      0.00000000      0.00000000      0.00000000</v>
   <v name="AVECCONST">      0.00000000      0.00000000      0.00000000</v>
  </separator>
  <separator name="response functions" >
   <i type="logical" name="LADDER"> F  </i>
   <i type="logical" name="LFXC"> F  </i>
   <i type="logical" name="LHARTREE"> T  </i>
   <i type="int" name="IBSE">     0</i>
   <v type="int" name="KPOINT">    -1     0     0     0</v>
   <i type="logical" name="LTCTE"> F  </i>
   <i type="logical" name="LTETE"> F  </i>
   <i type="logical" name="LTRIPLET"> F  </i>
   <i type="logical" name="LFXCEPS"> F  </i>
   <i type="logical" name="LFXHEG"> F  </i>
   <i type="int" name="NATURALO">     0</i>
   <i type="logical" name="L2ORDER"> F  </i>
   <i type="logical" name="LUSEW"> F  </i>
   <i name="ENCUTGW">     -2.00000000</i>
   <i name="ENCUTGWSOFT">     -2.00000000</i>
   <i name="ENCUTLF">     -1.00000000</i>
   <i type="int" name="LMAXMP2">    -1</i>
   <i name="SCISSOR">      0.00000000</i>
   <i type="int" name="NOMEGA">     0</i>
   <i type="int" name="NOMEGAR">     0</i>
   <i type="int" name="NBANDSGW">    -1</i>
   <i type="int" name="NBANDSO">    -1</i>
   <i type="int" name="NBANDSV">    -1</i>
   <i type="int" name="NELM">     1</i>
   <i type="int" name="NELMHF">     1</i>
   <i type="int" name="DIM">     3</i>
   <i type="int" name="ANTIRES">     0</i>
   <i name="OMEGAMAX">    -30.00000000</i>
   <i name="OMEGAMIN">    -30.00000000</i>
   <i name="OMEGATL">   -200.00000000</i>
   <i type="int" name="OMEGAGRID">     0</i>
   <i name="CSHIFT">     -0.10000000</i>
   <i type="logical" name="SELFENERGY"> F  </i>
   <i type="logical" name="LSPECTRAL"> F  </i>
   <i type="logical" name="LSPECTRALGW"> F  </i>
   <i type="logical" name="LSINGLES"> F  </i>
   <i type="logical" name="LFERMIGW"> F  </i>
   <i type="logical" name="ODDONLYGW"> F  </i>
   <i type="logical" name="EVENONLYGW"> F  </i>
   <i type="int" name="NKREDLFX">     1</i>
   <i type="int" name="NKREDLFY">     1</i>
   <i type="int" name="NKREDLFZ">     1</i>
   <i type="int" name="MAXMEM">  1800</i>
   <i type="int" name="TELESCOPE">     0</i>
   <i type="int" name="TAUPAR">     1</i>
   <i type="int" name="OMEGAPAR">    -1</i>
   <i name="LAMBDA">      1.00000000</i>
  </separator>
  <separator name="External order field" >
   <i name="OFIELD_KAPPA">      0.00000000</i>
   <v name="OFIELD_K">      0.00000000      0.00000000      0.00000000</v>
   <i name="OFIELD_Q6_NEAR">      0.00000000</i>
   <i name="OFIELD_Q6_FAR">      0.00000000</i>
   <i name="OFIELD_A">      0.00000000</i>
  </separator>
 </parameters>
 <atominfo>
  <atoms>       9 </atoms>
  <types>       2 </types>
  <array name="atoms" >
   <dimension dim="1">ion</dimension>
   <field type="string">element</field>
   <field type="int">atomtype</field>
   <set>
    <rc><c>Si</c><c>   1</c></rc>
    <rc><c>Si</c><c>   1</c></rc>
    <rc><c>Si</c><c>   1</c></rc>
    <rc><c>O </c><c>   2</c></rc>
    <rc><c>O </c><c>   2</c></rc>
    <rc><c>O </c><c>   2</c></rc>
    <rc><c>O </c><c>   2</c></rc>
    <rc><c>O </c><c>   2</c></rc>
    <rc><c>O </c><c>   2</c></rc>
   </set>
  </array>
  <array name="atomtypes" >
   <dimension dim="1">type</dimension>
   <field type="int">atomspertype</field>
   <field type="string">element</field>
   <field>mass</field>
   <field>valence</field>
   <field type="string">pseudopotential</field>
   <set>
    <rc><c>   3</c><c>Si</c><c>     28.08500000</c><c>      4.00000000</c><c> PAW_PBE Si 05Jan2001                   </c></rc>
    <rc><c>   6</c><c>O </c><c>     16.00000000</c><c>      6.00000000</c><c> PAW_PBE O 08Apr2002                    </c></rc>
   </set>
  </array>
 </atominfo>
 <structure name="initialpos" >
  <crystal>
   <varray name="basis" >
    <v>       4.91370000       0.00000000       0.00000000 </v>
    <v>      -2.45685000       4.25538903       0.00000000 </v>
    <v>       0.00000000       0.00000000       5.40513000 </v>
   </varray>
   <i name="volume">    113.01967420 </i>
   <varray name="rec_basis" >
    <v>       0.20351263       0.11749807       0.00000000 </v>
    <v>       0.00000000       0.23499614       0.00000000 </v>
    <v>       0.00000000       0.00000000       0.18500943 </v>
   </varray>
  </crystal>
  <varray name="positions" >
   <v>       0.46980000       0.02000000       0.66667000 </v>
   <v>       0.00000000       0.46980000       0.33333000 </v>
   <v>       0.53020000       0.53020000       0.00000000 </v>
   <v>       0.41450000       0.26620000       0.78560000 </v>
   <v>       0.73380000       0.14830000       0.45227000 </v>
   <v>       0.85170000       0.58550000       0.11893000 </v>
   <v>       0.14830000       0.73380000       0.54773000 </v>
   <v>       0.26620000       0.41450000       0.21440000 </v>
   <v>       0.58550000       0.85170000       0.88107000 </v>
  </varray>
 </structure>
 <calculation>
  <scstep>
   <time name="dav">    9.27    9.27</time>
   <time name="total">    9.42    9.47</time>
   <energy>
    <i name="alphaZ">     69.72802778 </i>
    <i name="ewald">  -1886.62880430 </i>
    <i name="hartreedc">   -937.03789542 </i>
    <i name="XCdc">    142.00811364 </i>
    <i name="pawpsdc">   1574.92322788 </i>
    <i name="pawaedc">  -1533.24131965 </i>
    <i name="eentropy">      0.00000000 </i>
    <i name="bandstr">    -10.54830749 </i>
    <i name="atom">   2903.35593008 </i>
    <i name="e_fr_energy">    322.55897252 </i>
    <i name="e_wo_entrp">    322.55897252 </i>
    <i name="e_0_energy">    322.55897252 </i>
   </energy>
  </scstep>
  <scstep>
   <time name="dav">   11.71   11.71</time>
   <time name="total">   11.73   11.73</time>
   <energy>
    <i name="e_fr_energy">    -59.56661353 </i>
    <i name="e_wo_entrp">    -59.56661353 </i>
    <i name="e_0_energy">    -59.56661353 </i>
   </energy>
  </scstep>
  <scstep>
   <time name="dav">   10.58   10.57</time>
   <time name="total">   10.58   10.59</time>
   <energy>
    <i name="e_fr_energy">    -80.15229398 </i>
    <i name="e_wo_entrp">    -80.15229398 </i>
    <i name="e_0_energy">    -80.15229398 </i>
   </energy>
  </scstep>
  <scstep>
   <time name="dav">   10.78   10.77</time>
   <time name="total">   10.78   10.78</time>
   <energy>
    <i name="e_fr_energy">    -80.42492750 </i>
    <i name="e_wo_entrp">    -80.42492750 </i>
    <i name="e_0_energy">    -80.42492750 </i>
   </energy>
  </scstep>
  <scstep>
   <time name="dav">   10.37   10.37</time>
   <time name="total">   11.03   11.04</time>
   <energy>
    <i name="e_fr_energy">    -80.43017284 </i>
    <i name="e_wo_entrp">    -80.43017284 </i>
    <i name="e_0_energy">    -80.43017284 </i>
   </energy>
  </scstep>
  <scstep>
   <time name="diag">    1.71    1.71</time>
   <time name="diis">    6.18    6.18</time>
   <time name="orth">    0.21    0.21</time>
   <time name="total">    8.87    8.88</time>
   <energy>
    <i name="e_fr_energy">    -70.72971920 </i>
    <i name="e_wo_entrp">    -70.72971920 </i>
    <i name="e_0_energy">    -70.72971920 </i>
   </energy>
  </scstep>
  <scstep>
   <time name="diag">    1.71    1.71</time>
   <time name="diis">    6.74    6.74</time>
   <time name="orth">    0.21    0.21</time>
   <time name="total">    9.43    9.44</time>
   <energy>
    <i name="e_fr_energy">    -70.71454646 </i>
    <i name="e_wo_entrp">    -70.71454646 </i>
    <i name="e_0_energy">    -70.71454646 </i>
   </energy>
  </scstep>
  <scstep>
   <time name="diag">    1.71    1.71</time>
   <time name="diis">    6.70    6.70</time>
   <time name="orth">    0.21    0.21</time>
   <time name="total">    9.39    9.40</time>
   <energy>
    <i name="e_fr_energy">    -70.73103929 </i>
    <i name="e_wo_entrp">    -70.73103929 </i>
    <i name="e_0_energy">    -70.73103929 </i>
   </energy>
  </scstep>
  <scstep>
   <time name="diag">    1.71    1.71</time>
   <time name="diis">    6.86    6.86</time>
   <time name="orth">    0.21    0.21</time>
   <time name="total">    9.55    9.58</time>
   <energy>
    <i name="e_fr_energy">    -70.72266179 </i>
    <i name="e_wo_entrp">    -70.72266179 </i>
    <i name="e_0_energy">    -70.72266179 </i>
   </energy>
  </scstep>
  <scstep>
   <time name="diag">    1.71    1.71</time>
   <time name="diis">    6.80    6.80</time>
   <time name="orth">    0.21    0.21</time>
   <time name="total">    9.49    9.49</time>
   <energy>
    <i name="e_fr_energy">    -70.72545055 </i>
    <i name="e_wo_entrp">    -70.72545055 </i>
    <i name="e_0_energy">    -70.72545055 </i>
   </energy>
  </scstep>
  <scstep>
   <time name="diag">    1.72    1.72</time>
   <time name="diis">    6.79    6.79</time>
   <time name="orth">    0.21    0.21</time>
   <time name="total">    9.49    9.51</time>
   <energy>
    <i name="e_fr_energy">    -70.72458353 </i>
    <i name="e_wo_entrp">    -70.72458353 </i>
    <i name="e_0_energy">    -70.72458353 </i>
   </energy>
  </scstep>
  <scstep>
   <time name="diag">    1.71    1.71</time>
   <time name="diis">    6.35    6.35</time>
   <time name="orth">    0.21    0.21</time>
   <time name="total">    9.04    9.04</time>
   <energy>
    <i name="e_fr_energy">    -70.72462645 </i>
    <i name="e_wo_entrp">    -70.72462645 </i>
    <i name="e_0_energy">    -70.72462645 </i>
   </energy>
  </scstep>
  <scstep>
   <time name="diag">    1.71    1.71</time>
   <time name="diis">    4.70    4.70</time>
   <time name="orth">    0.21    0.21</time>
   <time name="total">    6.74    6.74</time>
   <energy>
    <i name="alphaZ">     69.72802778 </i>
    <i name="ewald">  -1886.62880430 </i>
    <i name="hartreedc">  -1071.77338638 </i>
    <i name="XCdc">    151.14953247 </i>
    <i name="pawpsdc">   2053.33304241 </i>
    <i name="pawaedc">  -2014.08175288 </i>
    <i name="eentropy">      0.00000000 </i>
    <i name="bandstr">   -275.80721681 </i>
    <i name="atom">   2903.35593008 </i>
    <i name="e_fr_energy">    -70.72462764 </i>
    <i name="e_wo_entrp">    -70.72462764 </i>
    <i name="e_0_energy">    -70.72462764 </i>
   </energy>
  </scstep>
  <structure>
   <crystal>
    <varray name="basis" >
     <v>       4.91370000       0.00000000       0.00000000 </v>
     <v>      -2.45685000       4.25538903       0.00000000 </v>
     <v>       0.00000000       0.00000000       5.40513000 </v>
    </varray>
    <i name="volume">    113.01967420 </i>
    <varray name="rec_basis" >
     <v>       0.20351263       0.11749807       0.00000000 </v>
     <v>       0.00000000       0.23499614       0.00000000 </v>
     <v>       0.00000000       0.00000000       0.18500943 </v>
    </varray>
   </crystal>
   <varray name="positions" >
    <v>       0.46980000       0.02000000       0.66667000 </v>
    <v>       0.00000000       0.46980000       0.33333000 </v>
    <v>       0.53020000       0.53020000       0.00000000 </v>
    <v>       0.41450000       0.26620000       0.78560000 </v>
    <v>       0.73380000       0.14830000       0.45227000 </v>
    <v>       0.85170000       0.58550000       0.11893000 </v>
    <v>       0.14830000       0.73380000       0.54773000 </v>
    <v>       0.26620000       0.41450000       0.21440000 </v>
    <v>       0.58550000       0.85170000       0.88107000 </v>
   </varray>
  </structure>
  <varray name="forces" >
   <v>       3.06387947      -4.69527425      -1.00087553 </v>
   <v>      -0.08639838       0.68872109       0.10061603 </v>
   <v>      -0.55980244       0.55806233       0.19182269 </v>
   <v>      -2.44256256       2.56033884       1.41051253 </v>
   <v>      -0.08763192      -0.41787378       0.08213834 </v>
   <v>       0.43277175       0.19181309      -0.07516530 </v>
   <v>      -0.20626131       0.43485610       0.23935727 </v>
   <v>       0.59590829      -0.46616936      -0.11409346 </v>
   <v>      -0.70990291       1.14552595      -0.83431257 </v>
  </varray>
  <varray name="stress" >
   <v>      91.59937006     -27.63289361     -40.01985310 </v>
   <v>     -27.63289352     101.70061467      27.60710889 </v>
   <v>     -40.01985316      27.60710902      68.29206171 </v>
  </varray>
  <energy>
   <i name="e_fr_energy">    -70.72462764 </i>
   <i name="e_wo_entrp">    -70.72462764 </i>
   <i name="e_0_energy">      0.00000000 </i>
  </energy>
  <time name="totalsc">  137.41  137.63</time>
  <eigenvalues>
   <array>
    <dimension dim="1">band</dimension>
    <dimension dim="2">kpoint</dimension>
    <dimension dim="3">spin</dimension>
    <field>eigene</field>
    <field>occ</field>
    <set>
     <set comment="spin 1">
      <set comment="kpoint 1">
       <r>  -18.4511    1.0000 </r>
       <r>  -17.1482    1.0000 </r>
       <r>  -16.7877    1.0000 </r>
       <r>  -16.1732    1.0000 </r>
       <r>  -16.0423    1.0000 </r>
       <r>  -15.9625    1.0000 </r>
       <r>   -7.2676    1.0000 </r>
       <r>   -7.1084    1.0000 </r>
       <r>   -4.5334    1.0000 </r>
       <r>   -4.2249    1.0000 </r>
       <r>   -4.1289    1.0000 </r>
       <r>   -4.1104    1.0000 </r>
       <r>   -1.9438    1.0000 </r>
       <r>   -1.8378    1.0000 </r>
       <r>   -1.7504    1.0000 </r>
       <r>   -1.2606    1.0000 </r>
       <r>   -0.5492    1.0000 </r>
       <r>   -0.4346    1.0000 </r>
       <r>   -0.3887    1.0000 </r>
       <r>    0.1495    1.0000 </r>
       <r>    0.2321    1.0000 </r>
       <r>    0.4760    1.0000 </r>
       <r>    0.7549    1.0000 </r>
       <r>    0.8624    1.0000 </r>
       <r>    7.0986    0.0000 </r>
       <r>   10.3289    0.0000 </r>
       <r>   10.4301    0.0000 </r>
       <r>   10.8561    0.0000 </r>
       <r>   10.9554    0.0000 </r>
      </set>
      <set comment="kpoint 2">
       <r>  -18.3818    1.0000 </r>
       <r>  -17.1767    1.0000 </r>
       <r>  -16.7786    1.0000 </r>
       <r>  -16.2766    1.0000 </r>
       <r>  -16.0843    1.0000 </r>
       <r>  -15.9118    1.0000 </r>
       <r>   -7.2983    1.0000 </r>
       <r>   -6.9294    1.0000 </r>
       <r>   -4.5590    1.0000 </r>
       <r>   -4.2936    1.0000 </r>
       <r>   -4.1677    1.0000 </r>
       <r>   -3.9803    1.0000 </r>
       <r>   -2.0118    1.0000 </r>
       <r>   -1.8691    1.0000 </r>
       <r>   -1.6321    1.0000 </r>
       <r>   -1.1853    1.0000 </r>
       <r>   -0.7437    1.0000 </r>
       <r>   -0.4626    1.0000 </r>
       <r>   -0.3913    1.0000 </r>
       <r>    0.0951    1.0000 </r>
       <r>    0.1337    1.0000 </r>
       <r>    0.3882    1.0000 </r>
       <r>    0.8400    1.0000 </r>
       <r>    0.9384    1.0000 </r>
       <r>    7.5215    0.0000 </r>
       <r>   10.3505    0.0000 </r>
       <r>   10.4717    0.0000 </r>
       <r>   10.8722    0.0000 </r>
       <r>   11.0849    0.0000 </r>
      </set>
      <set comment="kpoint 3">
       <r>  -18.2103    1.0000 </r>
       <r>  -17.2729    1.0000 </r>
       <r>  -16.7604    1.0000 </r>
       <r>  -16.4572    1.0000 </r>
       <r>  -16.1167    1.0000 </r>
       <r>  -15.8783    1.0000 </r>
       <r>   -7.3632    1.0000 </r>
       <r>   -6.5087    1.0000 </r>
       <r>   -4.6186    1.0000 </r>
       <r>   -4.5346    1.0000 </r>
       <r>   -4.1829    1.0000 </r>
       <r>   -3.6758    1.0000 </r>
       <r>   -2.1301    1.0000 </r>
       <r>   -1.6916    1.0000 </r>
       <r>   -1.6118    1.0000 </r>
       <r>   -1.2992    1.0000 </r>
       <r>   -0.9843    1.0000 </r>
       <r>   -0.5511    1.0000 </r>
       <r>   -0.4469    1.0000 </r>
       <r>    0.0314    1.0000 </r>
       <r>    0.0732    1.0000 </r>
       <r>    0.2934    1.0000 </r>
       <r>    0.9155    1.0000 </r>
       <r>    1.0454    1.0000 </r>
       <r>    8.5197    0.0000 </r>
       <r>   10.3772    0.0000 </r>
       <r>   10.5954    0.0000 </r>
       <r>   11.0532    0.0000 </r>
       <r>   11.3898    0.0000 </r>
      </set>
      <set comment="kpoint 4">
       <r>  -18.0935    1.0000 </r>
       <r>  -17.3591    1.0000 </r>
       <r>  -16.7519    1.0000 </r>
       <r>  -16.5328    1.0000 </r>
       <r>  -16.1306    1.0000 </r>
       <r>  -15.8702    1.0000 </r>
       <r>   -7.3950    1.0000 </r>
       <r>   -6.2459    1.0000 </r>
       <r>   -4.7689    1.0000 </r>
       <r>   -4.5693    1.0000 </r>
       <r>   -4.1920    1.0000 </r>
       <r>   -3.5073    1.0000 </r>
       <r>   -2.1331    1.0000 </r>
       <r>   -1.7709    1.0000 </r>
       <r>   -1.6011    1.0000 </r>
       <r>   -1.3111    1.0000 </r>
       <r>   -1.0518    1.0000 </r>
       <r>   -0.6299    1.0000 </r>
       <r>   -0.5198    1.0000 </r>
       <r>    0.0491    1.0000 </r>
       <r>    0.0697    1.0000 </r>
       <r>    0.2729    1.0000 </r>
       <r>    0.9181    1.0000 </r>
       <r>    1.0947    1.0000 </r>
       <r>    9.3503    0.0000 </r>
       <r>   10.0892    0.0000 </r>
       <r>   10.7763    0.0000 </r>
       <r>   10.9338    0.0000 </r>
       <r>   11.5957    0.0000 </r>
      </set>
      <set comment="kpoint 5">
       <r>  -18.3760    1.0000 </r>
       <r>  -17.1876    1.0000 </r>
       <r>  -16.8117    1.0000 </r>
       <r>  -16.1806    1.0000 </r>
       <r>  -16.1099    1.0000 </r>
       <r>  -15.9430    1.0000 </r>
       <r>   -7.2539    1.0000 </r>
       <r>   -6.9849    1.0000 </r>
       <r>   -4.5423    1.0000 </r>
       <r>   -4.2892    1.0000 </r>
       <r>   -4.2013    1.0000 </r>
       <r>   -3.9495    1.0000 </r>
       <r>   -2.0618    1.0000 </r>
       <r>   -1.8090    1.0000 </r>
       <r>   -1.6867    1.0000 </r>
       <r>   -1.1519    1.0000 </r>
       <r>   -0.6861    1.0000 </r>
       <r>   -0.5001    1.0000 </r>
       <r>   -0.4513    1.0000 </r>
       <r>    0.1097    1.0000 </r>
       <r>    0.1779    1.0000 </r>
       <r>    0.3820    1.0000 </r>
       <r>    0.8426    1.0000 </r>
       <r>    0.9310    1.0000 </r>
       <r>    7.5190    0.0000 </r>
       <r>   10.3460    0.0000 </r>
       <r>   10.4373    0.0000 </r>
       <r>   10.9391    0.0000 </r>
       <r>   11.0566    0.0000 </r>
      </set>
      <set comment="kpoint 6">
       <r>  -18.2529    1.0000 </r>
       <r>  -17.2551    1.0000 </r>
       <r>  -16.8047    1.0000 </r>
       <r>  -16.3264    1.0000 </r>
       <r>  -16.1334    1.0000 </r>
       <r>  -15.9018    1.0000 </r>
       <r>   -7.3433    1.0000 </r>
       <r>   -6.6287    1.0000 </r>
       <r>   -4.6943    1.0000 </r>
       <r>   -4.4102    1.0000 </r>
       <r>   -4.1180    1.0000 </r>
       <r>   -3.7753    1.0000 </r>
       <r>   -2.0901    1.0000 </r>
       <r>   -1.7935    1.0000 </r>
       <r>   -1.6083    1.0000 </r>
       <r>   -1.1934    1.0000 </r>
       <r>   -1.0165    1.0000 </r>
       <r>   -0.5311    1.0000 </r>
       <r>   -0.3314    1.0000 </r>
       <r>   -0.0275    1.0000 </r>
       <r>    0.1443    1.0000 </r>
       <r>    0.2888    1.0000 </r>
       <r>    0.9405    1.0000 </r>
       <r>    0.9765    1.0000 </r>
       <r>    8.2244    0.0000 </r>
       <r>   10.4337    0.0000 </r>
       <r>   10.5482    0.0000 </r>
       <r>   11.0122    0.0000 </r>
       <r>   11.2820    0.0000 </r>
      </set>
      <set comment="kpoint 7">
       <r>  -18.0826    1.0000 </r>
       <r>  -17.3743    1.0000 </r>
       <r>  -16.8094    1.0000 </r>
       <r>  -16.4541    1.0000 </r>
       <r>  -16.1352    1.0000 </r>
       <r>  -15.8815    1.0000 </r>
       <r>   -7.4025    1.0000 </r>
       <r>   -6.1757    1.0000 </r>
       <r>   -5.0369    1.0000 </r>
       <r>   -4.4378    1.0000 </r>
       <r>   -4.1031    1.0000 </r>
       <r>   -3.5263    1.0000 </r>
       <r>   -2.1007    1.0000 </r>
       <r>   -1.7623    1.0000 </r>
       <r>   -1.6758    1.0000 </r>
       <r>   -1.2668    1.0000 </r>
       <r>   -1.0553    1.0000 </r>
       <r>   -0.6628    1.0000 </r>
       <r>   -0.3639    1.0000 </r>
       <r>   -0.1518    1.0000 </r>
       <r>    0.0274    1.0000 </r>
       <r>    0.4014    1.0000 </r>
       <r>    0.9111    1.0000 </r>
       <r>    1.0926    1.0000 </r>
       <r>    9.2317    0.0000 </r>
       <r>   10.3396    0.0000 </r>
       <r>   10.6850    0.0000 </r>
       <r>   11.1057    0.0000 </r>
       <r>   11.5665    0.0000 </r>
      </set>
      <set comment="kpoint 8">
       <r>  -18.0768    1.0000 </r>
       <r>  -17.3813    1.0000 </r>
       <r>  -16.8066    1.0000 </r>
       <r>  -16.4755    1.0000 </r>
       <r>  -16.1155    1.0000 </r>
       <r>  -15.8810    1.0000 </r>
       <r>   -7.3929    1.0000 </r>
       <r>   -6.1838    1.0000 </r>
       <r>   -5.0470    1.0000 </r>
       <r>   -4.4232    1.0000 </r>
       <r>   -4.1193    1.0000 </r>
       <r>   -3.5253    1.0000 </r>
       <r>   -2.0948    1.0000 </r>
       <r>   -1.7763    1.0000 </r>
       <r>   -1.6868    1.0000 </r>
       <r>   -1.2137    1.0000 </r>
       <r>   -0.9907    1.0000 </r>
       <r>   -0.6648    1.0000 </r>
       <r>   -0.4958    1.0000 </r>
       <r>   -0.1793    1.0000 </r>
       <r>    0.0612    1.0000 </r>
       <r>    0.4348    1.0000 </r>
       <r>    0.8825    1.0000 </r>
       <r>    1.1280    1.0000 </r>
       <r>    9.2414    0.0000 </r>
       <r>   10.3194    0.0000 </r>
       <r>   10.6671    0.0000 </r>
       <r>   11.1259    0.0000 </r>
       <r>   11.4513    0.0000 </r>
      </set>
      <set comment="kpoint 9">
       <r>  -18.2459    1.0000 </r>
       <r>  -17.2622    1.0000 </r>
       <r>  -16.8037    1.0000 </r>
       <r>  -16.3820    1.0000 </r>
       <r>  -16.0778    1.0000 </r>
       <r>  -15.9020    1.0000 </r>
       <r>   -7.3119    1.0000 </r>
       <r>   -6.6591    1.0000 </r>
       <r>   -4.7171    1.0000 </r>
       <r>   -4.3882    1.0000 </r>
       <r>   -4.1352    1.0000 </r>
       <r>   -3.7741    1.0000 </r>
       <r>   -2.0952    1.0000 </r>
       <r>   -1.8352    1.0000 </r>
       <r>   -1.5170    1.0000 </r>
       <r>   -1.1568    1.0000 </r>
       <r>   -0.9702    1.0000 </r>
       <r>   -0.6010    1.0000 </r>
       <r>   -0.3865    1.0000 </r>
       <r>   -0.1479    1.0000 </r>
       <r>    0.1926    1.0000 </r>
       <r>    0.3501    1.0000 </r>
       <r>    0.8717    1.0000 </r>
       <r>    1.0738    1.0000 </r>
       <r>    8.2268    0.0000 </r>
       <r>   10.3694    0.0000 </r>
       <r>   10.5803    0.0000 </r>
       <r>   11.0226    0.0000 </r>
       <r>   11.2343    0.0000 </r>
      </set>
      <set comment="kpoint 10">
       <r>  -18.3734    1.0000 </r>
       <r>  -17.1892    1.0000 </r>
       <r>  -16.8133    1.0000 </r>
       <r>  -16.2359    1.0000 </r>
       <r>  -16.0478    1.0000 </r>
       <r>  -15.9490    1.0000 </r>
       <r>   -7.2066    1.0000 </r>
       <r>   -7.0321    1.0000 </r>
       <r>   -4.5504    1.0000 </r>
       <r>   -4.3043    1.0000 </r>
       <r>   -4.1812    1.0000 </r>
       <r>   -3.9534    1.0000 </r>
       <r>   -2.0729    1.0000 </r>
       <r>   -1.8321    1.0000 </r>
       <r>   -1.6213    1.0000 </r>
       <r>   -1.1395    1.0000 </r>
[...]
       <r>    1.0235    1.0000 </r>
       <r>    9.1954    0.0000 </r>
       <r>   10.0788    0.0000 </r>
       <r>   10.4808    0.0000 </r>
       <r>   11.0009    0.0000 </r>
       <r>   11.2343    0.0000 </r>
      </set>
      <set comment="kpoint 90">
       <r>  -18.0240    1.0000 </r>
       <r>  -17.3900    1.0000 </r>
       <r>  -16.8544    1.0000 </r>
       <r>  -16.4567    1.0000 </r>
       <r>  -16.1717    1.0000 </r>
       <r>  -15.8645    1.0000 </r>
       <r>   -7.2366    1.0000 </r>
       <r>   -6.1561    1.0000 </r>
       <r>   -5.3210    1.0000 </r>
       <r>   -4.3658    1.0000 </r>
       <r>   -3.9230    1.0000 </r>
       <r>   -3.8032    1.0000 </r>
       <r>   -2.1767    1.0000 </r>
       <r>   -2.0116    1.0000 </r>
       <r>   -1.4227    1.0000 </r>
       <r>   -1.1851    1.0000 </r>
       <r>   -0.8946    1.0000 </r>
       <r>   -0.6331    1.0000 </r>
       <r>   -0.1791    1.0000 </r>
       <r>   -0.0013    1.0000 </r>
       <r>    0.2317    1.0000 </r>
       <r>    0.3302    1.0000 </r>
       <r>    0.6531    1.0000 </r>
       <r>    0.8918    1.0000 </r>
       <r>    9.8902    0.0000 </r>
       <r>   10.4008    0.0000 </r>
       <r>   10.7061    0.0000 </r>
       <r>   11.0812    0.0000 </r>
       <r>   11.4243    0.0000 </r>
      </set>
      <set comment="kpoint 91">
       <r>  -18.0173    1.0000 </r>
       <r>  -17.4369    1.0000 </r>
       <r>  -16.7564    1.0000 </r>
       <r>  -16.4995    1.0000 </r>
       <r>  -16.1845    1.0000 </r>
       <r>  -15.8671    1.0000 </r>
       <r>   -7.2603    1.0000 </r>
       <r>   -6.1138    1.0000 </r>
       <r>   -5.3357    1.0000 </r>
       <r>   -4.3679    1.0000 </r>
       <r>   -3.9106    1.0000 </r>
       <r>   -3.8093    1.0000 </r>
       <r>   -2.1623    1.0000 </r>
       <r>   -2.0133    1.0000 </r>
       <r>   -1.4477    1.0000 </r>
       <r>   -1.1936    1.0000 </r>
       <r>   -0.9414    1.0000 </r>
       <r>   -0.5869    1.0000 </r>
       <r>   -0.1495    1.0000 </r>
       <r>   -0.0058    1.0000 </r>
       <r>    0.2237    1.0000 </r>
       <r>    0.3797    1.0000 </r>
       <r>    0.5943    1.0000 </r>
       <r>    0.8961    1.0000 </r>
       <r>    9.8123    0.0000 </r>
       <r>   10.5506    0.0000 </r>
       <r>   10.7848    0.0000 </r>
       <r>   11.1229    0.0000 </r>
       <r>   11.2992    0.0000 </r>
      </set>
      <set comment="kpoint 92">
       <r>  -18.0765    1.0000 </r>
       <r>  -17.6141    1.0000 </r>
       <r>  -16.5778    1.0000 </r>
       <r>  -16.3945    1.0000 </r>
       <r>  -16.1535    1.0000 </r>
       <r>  -15.8583    1.0000 </r>
       <r>   -7.7068    1.0000 </r>
       <r>   -5.8790    1.0000 </r>
       <r>   -5.1782    1.0000 </r>
       <r>   -4.3483    1.0000 </r>
       <r>   -4.1306    1.0000 </r>
       <r>   -3.7273    1.0000 </r>
       <r>   -2.0678    1.0000 </r>
       <r>   -1.9078    1.0000 </r>
       <r>   -1.4231    1.0000 </r>
       <r>   -1.2908    1.0000 </r>
       <r>   -0.9404    1.0000 </r>
       <r>   -0.4919    1.0000 </r>
       <r>   -0.3527    1.0000 </r>
       <r>   -0.1751    1.0000 </r>
       <r>    0.1294    1.0000 </r>
       <r>    0.5887    1.0000 </r>
       <r>    0.7678    1.0000 </r>
       <r>    0.9463    1.0000 </r>
       <r>    9.1961    0.0000 </r>
       <r>   10.0714    0.0000 </r>
       <r>   10.6077    0.0000 </r>
       <r>   10.9625    0.0000 </r>
       <r>   11.6308    0.0000 </r>
      </set>
     </set>
    </set>
   </array>
  </eigenvalues>
  <separator name="orbital magnetization" >
   <v name="MAGDIPOLOUT">      0.00000000      0.00000000      0.00000000</v>
  </separator>
  <dos>
   <i name="efermi">      1.21858657 </i>
   <total>
    <array>
     <dimension dim="1">gridpoints</dimension>
     <dimension dim="2">spin</dimension>
     <field>energy</field>
     <field>total</field>
     <field>integrated</field>
     <set>
      <set comment="spin 1">
       <r>   -20.4511     0.0000     0.0000 </r>
       <r>   -20.3368     0.0000     0.0000 </r>
       <r>   -20.2224     0.0000     0.0000 </r>
       <r>   -20.1081     0.0000     0.0000 </r>
       <r>   -19.9937     0.0000     0.0000 </r>
       <r>   -19.8794     0.0000     0.0000 </r>
       <r>   -19.7650     0.0000     0.0000 </r>
       <r>   -19.6507     0.0000     0.0000 </r>
       <r>   -19.5363     0.0000     0.0000 </r>
       <r>   -19.4220     0.0000     0.0000 </r>
       <r>   -19.3076     0.0000     0.0000 </r>
       <r>   -19.1933     0.0000     0.0000 </r>
       <r>   -19.0789     0.0000     0.0000 </r>
       <r>   -18.9646     0.0000     0.0000 </r>
       <r>   -18.8502     0.0000     0.0000 </r>
       <r>   -18.7359     0.0000     0.0000 </r>
       <r>   -18.6215     0.0000     0.0000 </r>
       <r>   -18.5072     0.0000     0.0000 </r>
       <r>   -18.3928     0.5545     0.0108 </r>
       <r>   -18.2784     1.8406     0.1629 </r>
       <r>   -18.1641     4.3030     0.4682 </r>
       <r>   -18.0497     7.8345     1.1485 </r>
       <r>   -17.9354     2.8212     1.9325 </r>
       <r>   -17.8210     0.0000     2.0000 </r>
       <r>   -17.7067     1.4781     2.0711 </r>
       <r>   -17.5923     3.3754     2.3270 </r>
       <r>   -17.4780     6.2346     2.8590 </r>
       <r>   -17.3636     7.7082     3.6059 </r>
       <r>   -17.2493     0.9033     3.9610 </r>
       <r>   -17.1349     0.0000     4.0000 </r>
       <r>   -17.0206     0.6189     4.0129 </r>
       <r>   -16.9062     2.7415     4.1867 </r>
       <r>   -16.7919     7.5477     4.8801 </r>
       <r>   -16.6775     3.6225     5.5344 </r>
       <r>   -16.5632     2.7836     5.8811 </r>
       <r>   -16.4488     6.7361     6.2623 </r>
       <r>   -16.3345     6.4732     7.2498 </r>
       <r>   -16.2201     4.5641     7.8513 </r>
       <r>   -16.1058    13.2423     9.3477 </r>
       <r>   -15.9914     0.0000    10.0000 </r>
       <r>   -15.8771    28.1489    11.4193 </r>
       <r>   -15.7627     0.0000    12.0000 </r>
       <r>   -15.6483     0.0000    12.0000 </r>
       <r>   -15.5340     0.0000    12.0000 </r>
       <r>   -15.4196     0.0000    12.0000 </r>
       <r>   -15.3053     0.0000    12.0000 </r>
       <r>   -15.1909     0.0000    12.0000 </r>
       <r>   -15.0766     0.0000    12.0000 </r>
       <r>   -14.9622     0.0000    12.0000 </r>
       <r>   -14.8479     0.0000    12.0000 </r>
       <r>   -14.7335     0.0000    12.0000 </r>
       <r>   -14.6192     0.0000    12.0000 </r>
       <r>   -14.5048     0.0000    12.0000 </r>
       <r>   -14.3905     0.0000    12.0000 </r>
       <r>   -14.2761     0.0000    12.0000 </r>
       <r>   -14.1618     0.0000    12.0000 </r>
       <r>   -14.0474     0.0000    12.0000 </r>
       <r>   -13.9331     0.0000    12.0000 </r>
       <r>   -13.8187     0.0000    12.0000 </r>
       <r>   -13.7044     0.0000    12.0000 </r>
       <r>   -13.5900     0.0000    12.0000 </r>
       <r>   -13.4757     0.0000    12.0000 </r>
       <r>   -13.3613     0.0000    12.0000 </r>
       <r>   -13.2470     0.0000    12.0000 </r>
       <r>   -13.1326     0.0000    12.0000 </r>
       <r>   -13.0182     0.0000    12.0000 </r>
       <r>   -12.9039     0.0000    12.0000 </r>
       <r>   -12.7895     0.0000    12.0000 </r>
       <r>   -12.6752     0.0000    12.0000 </r>
       <r>   -12.5608     0.0000    12.0000 </r>
       <r>   -12.4465     0.0000    12.0000 </r>
       <r>   -12.3321     0.0000    12.0000 </r>
       <r>   -12.2178     0.0000    12.0000 </r>
       <r>   -12.1034     0.0000    12.0000 </r>
       <r>   -11.9891     0.0000    12.0000 </r>
       <r>   -11.8747     0.0000    12.0000 </r>
       <r>   -11.7604     0.0000    12.0000 </r>
       <r>   -11.6460     0.0000    12.0000 </r>
       <r>   -11.5317     0.0000    12.0000 </r>
       <r>   -11.4173     0.0000    12.0000 </r>
       <r>   -11.3030     0.0000    12.0000 </r>
       <r>   -11.1886     0.0000    12.0000 </r>
       <r>   -11.0743     0.0000    12.0000 </r>
       <r>   -10.9599     0.0000    12.0000 </r>
       <r>   -10.8456     0.0000    12.0000 </r>
       <r>   -10.7312     0.0000    12.0000 </r>
       <r>   -10.6169     0.0000    12.0000 </r>
       <r>   -10.5025     0.0000    12.0000 </r>
       <r>   -10.3882     0.0000    12.0000 </r>
       <r>   -10.2738     0.0000    12.0000 </r>
       <r>   -10.1594     0.0000    12.0000 </r>
       <r>   -10.0451     0.0000    12.0000 </r>
       <r>    -9.9307     0.0000    12.0000 </r>
       <r>    -9.8164     0.0000    12.0000 </r>
       <r>    -9.7020     0.0000    12.0000 </r>
       <r>    -9.5877     0.0000    12.0000 </r>
       <r>    -9.4733     0.0000    12.0000 </r>
       <r>    -9.3590     0.0000    12.0000 </r>
       <r>    -9.2446     0.0000    12.0000 </r>
       <r>    -9.1303     0.0000    12.0000 </r>
       <r>    -9.0159     0.0000    12.0000 </r>
       <r>    -8.9016     0.0000    12.0000 </r>
       <r>    -8.7872     0.0000    12.0000 </r>
       <r>    -8.6729     0.0000    12.0000 </r>
       <r>    -8.5585     0.0000    12.0000 </r>
       <r>    -8.4442     0.0000    12.0000 </r>
       <r>    -8.3298     0.0000    12.0000 </r>
       <r>    -8.2155     0.0373    12.0004 </r>
       <r>    -8.1011     0.3219    12.0195 </r>
       <r>    -7.9868     0.4709    12.0682 </r>
       <r>    -7.8724     0.6895    12.1342 </r>
       <r>    -7.7581     0.8944    12.2255 </r>
       <r>    -7.6437     1.2767    12.3486 </r>
       <r>    -7.5293     1.7635    12.5201 </r>
       <r>    -7.4150     3.6191    12.7991 </r>
       <r>    -7.3006     5.5170    13.5241 </r>
       <r>    -7.1863     1.6672    13.8762 </r>
       <r>    -7.0719     0.4017    13.9721 </r>
       <r>    -6.9576     0.2027    14.0041 </r>
       <r>    -6.8432     0.2292    14.0266 </r>
       <r>    -6.7289     0.3696    14.0605 </r>
       <r>    -6.6145     0.6570    14.1163 </r>
       <r>    -6.5002     1.2013    14.2222 </r>
       <r>    -6.3858     2.2576    14.4099 </r>
       <r>    -6.2715     3.6430    14.7442 </r>
       <r>    -6.1571     4.6203    15.2536 </r>
       <r>    -6.0428     1.9314    15.6034 </r>
       <r>    -5.9284     1.1393    15.7754 </r>
       <r>    -5.8141     0.7293    15.8792 </r>
       <r>    -5.6997     0.5745    15.9523 </r>
       <r>    -5.5854     0.1361    15.9987 </r>
       <r>    -5.4710     0.5387    16.0152 </r>
       <r>    -5.3567     2.7657    16.1920 </r>
       <r>    -5.2423     3.3203    16.5435 </r>
       <r>    -5.1280     3.0236    16.9117 </r>
       <r>    -5.0136     2.9025    17.2512 </r>
       <r>    -4.8993     1.9868    17.5321 </r>
       <r>    -4.7849     1.5317    17.7309 </r>
       <r>    -4.6705     1.2393    17.8884 </r>
       <r>    -4.5562     0.4671    17.9953 </r>
       <r>    -4.4418     5.7471    18.2108 </r>
       <r>    -4.3275     8.4532    19.3792 </r>
       <r>    -4.2131     4.7667    20.0596 </r>
       <r>    -4.0988     9.5531    20.8947 </r>
       <r>    -3.9844     5.4745    21.7223 </r>
       <r>    -3.8701     1.6716    22.1190 </r>
       <r>    -3.7557     8.4928    22.6984 </r>
       <r>    -3.6414     5.0203    23.5748 </r>
       <r>    -3.5270     2.0878    23.9296 </r>
       <r>    -3.4127     0.0000    24.0000 </r>
       <r>    -3.2983     0.0000    24.0000 </r>
       <r>    -3.1840     0.0000    24.0000 </r>
       <r>    -3.0696     0.0000    24.0000 </r>
       <r>    -2.9553     0.0000    24.0000 </r>
       <r>    -2.8409     0.0000    24.0000 </r>
       <r>    -2.7266     0.0000    24.0000 </r>
       <r>    -2.6122     0.0000    24.0000 </r>
       <r>    -2.4979     0.0000    24.0000 </r>
       <r>    -2.3835     0.0000    24.0000 </r>
       <r>    -2.2692     0.0000    24.0000 </r>
       <r>    -2.1548    12.1147    24.6355 </r>
       <r>    -2.0404     6.2046    25.8642 </r>
       <r>    -1.9261     7.1074    26.7128 </r>
       <r>    -1.8117     6.8458    27.4078 </r>
       <r>    -1.6974     2.6966    27.9532 </r>
       <r>    -1.5830     9.1773    28.4745 </r>
       <r>    -1.4687     7.3341    29.5604 </r>
       <r>    -1.3543     0.5862    29.9994 </r>
       <r>    -1.2400    10.1523    30.4629 </r>
       <r>    -1.1256     6.4857    31.7971 </r>
       <r>    -1.0113     2.0917    32.0238 </r>
       <r>    -0.8969     9.9838    33.6369 </r>
       <r>    -0.7826     1.0373    33.9287 </r>
       <r>    -0.6682     6.5627    34.4201 </r>
       <r>    -0.5539    10.5439    35.3765 </r>
       <r>    -0.4395     8.0063    36.4078 </r>
       <r>    -0.3252     5.5475    37.5074 </r>
       <r>    -0.2108     5.9955    38.0930 </r>
       <r>    -0.0965     8.7874    39.0489 </r>
       <r>     0.0179     4.7604    39.9054 </r>
       <r>     0.1322     8.9077    40.6295 </r>
       <r>     0.2466     4.1924    41.8880 </r>
       <r>     0.3609     4.7813    42.1344 </r>
       <r>     0.4753     9.4526    43.4273 </r>
       <r>     0.5897     3.2786    43.8730 </r>
       <r>     0.7040     5.1615    44.3733 </r>
       <r>     0.8184    13.2553    45.3228 </r>
       <r>     0.9327     5.2348    46.2719 </r>
       <r>     1.0471    13.9388    47.2377 </r>
       <r>     1.1614     2.1610    47.9807 </r>
       <r>     1.2758     0.0000    48.0000 </r>
       <r>     1.3901     0.0000    48.0000 </r>
       <r>     1.5045     0.0000    48.0000 </r>
       <r>     1.6188     0.0000    48.0000 </r>
       <r>     1.7332     0.0000    48.0000 </r>
       <r>     1.8475     0.0000    48.0000 </r>
       <r>     1.9619     0.0000    48.0000 </r>
       <r>     2.0762     0.0000    48.0000 </r>
       <r>     2.1906     0.0000    48.0000 </r>
       <r>     2.3049     0.0000    48.0000 </r>
       <r>     2.4193     0.0000    48.0000 </r>
       <r>     2.5336     0.0000    48.0000 </r>
       <r>     2.6480     0.0000    48.0000 </r>
       <r>     2.7623     0.0000    48.0000 </r>
       <r>     2.8767     0.0000    48.0000 </r>
       <r>     2.9910     0.0000    48.0000 </r>
       <r>     3.1054     0.0000    48.0000 </r>
       <r>     3.2197     0.0000    48.0000 </r>
       <r>     3.3341     0.0000    48.0000 </r>
       <r>     3.4485     0.0000    48.0000 </r>
       <r>     3.5628     0.0000    48.0000 </r>
       <r>     3.6772     0.0000    48.0000 </r>
       <r>     3.7915     0.0000    48.0000 </r>
       <r>     3.9059     0.0000    48.0000 </r>
       <r>     4.0202     0.0000    48.0000 </r>
       <r>     4.1346     0.0000    48.0000 </r>
       <r>     4.2489     0.0000    48.0000 </r>
       <r>     4.3633     0.0000    48.0000 </r>
       <r>     4.4776     0.0000    48.0000 </r>
       <r>     4.5920     0.0000    48.0000 </r>
       <r>     4.7063     0.0000    48.0000 </r>
       <r>     4.8207     0.0000    48.0000 </r>
       <r>     4.9350     0.0000    48.0000 </r>
       <r>     5.0494     0.0000    48.0000 </r>
       <r>     5.1637     0.0000    48.0000 </r>
       <r>     5.2781     0.0000    48.0000 </r>
       <r>     5.3924     0.0000    48.0000 </r>
       <r>     5.5068     0.0000    48.0000 </r>
       <r>     5.6211     0.0000    48.0000 </r>
       <r>     5.7355     0.0000    48.0000 </r>
       <r>     5.8498     0.0000    48.0000 </r>
       <r>     5.9642     0.0000    48.0000 </r>
       <r>     6.0786     0.0000    48.0000 </r>
       <r>     6.1929     0.0000    48.0000 </r>
       <r>     6.3073     0.0000    48.0000 </r>
       <r>     6.4216     0.0000    48.0000 </r>
       <r>     6.5360     0.0000    48.0000 </r>
       <r>     6.6503     0.0000    48.0000 </r>
       <r>     6.7647     0.0000    48.0000 </r>
       <r>     6.8790     0.0000    48.0000 </r>
       <r>     6.9934     0.0000    48.0000 </r>
       <r>     7.1077     0.0001    48.0000 </r>
       <r>     7.2221     0.0154    48.0006 </r>
       <r>     7.3364     0.0570    48.0045 </r>
       <r>     7.4508     0.1251    48.0147 </r>
       <r>     7.5651     0.2097    48.0342 </r>
       <r>     7.6795     0.2551    48.0609 </r>
       <r>     7.7938     0.2825    48.0918 </r>
       <r>     7.9082     0.3084    48.1252 </r>
       <r>     8.0225     0.3547    48.1631 </r>
       <r>     8.1369     0.4037    48.2065 </r>
       <r>     8.2512     0.4554    48.2555 </r>
       <r>     8.3656     0.5094    48.3107 </r>
       <r>     8.4799     0.5723    48.3722 </r>
       <r>     8.5943     0.7324    48.4468 </r>
       <r>     8.7086     0.8857    48.5394 </r>
       <r>     8.8230     0.8495    48.6357 </r>
       <r>     8.9374     0.9124    48.7364 </r>
       <r>     9.0517     0.9775    48.8444 </r>
       <r>     9.1661     1.0447    48.9600 </r>
       <r>     9.2804     1.4186    49.0912 </r>
       <r>     9.3948     1.5714    49.2681 </r>
       <r>     9.5091     1.3162    49.4328 </r>
       <r>     9.6235     1.2530    49.5794 </r>
       <r>     9.7378     1.4748    49.7356 </r>
       <r>     9.8522     1.9206    49.9131 </r>
       <r>     9.9665     1.1924    50.1051 </r>
       <r>    10.0809     1.0771    50.2310 </r>
       <r>    10.1952     2.6298    50.4166 </r>
       <r>    10.3096     9.2524    51.0357 </r>
       <r>    10.4239     3.6526    51.9499 </r>
       <r>    10.5383     5.5587    52.4594 </r>
       <r>    10.6526     8.0244    53.3370 </r>
       <r>    10.7670     5.0347    54.0844 </r>
       <r>    10.8813     2.3480    54.4580 </r>
       <r>    10.9957     3.8435    54.7720 </r>
       <r>    11.1100     6.6755    55.4320 </r>
       <r>    11.2244     3.6146    56.0378 </r>
       <r>    11.3387     6.0275    56.5897 </r>
       <r>    11.4531     6.5081    57.3595 </r>
       <r>    11.5675     2.4274    57.8634 </r>
       <r>    11.6818     0.3021    57.9854 </r>
       <r>    11.7962     0.0206    57.9996 </r>
       <r>    11.9105     0.0000    58.0000 </r>
       <r>    12.0249     0.0000    58.0000 </r>
       <r>    12.1392     0.0000    58.0000 </r>
       <r>    12.2536     0.0000    58.0000 </r>
       <r>    12.3679     0.0000    58.0000 </r>
       <r>    12.4823     0.0000    58.0000 </r>
       <r>    12.5966     0.0000    58.0000 </r>
       <r>    12.7110     0.0000    58.0000 </r>
       <r>    12.8253     0.0000    58.0000 </r>
       <r>    12.9397     0.0000    58.0000 </r>
       <r>    13.0540     0.0000    58.0000 </r>
       <r>    13.1684     0.0000    58.0000 </r>
       <r>    13.2827     0.0000    58.0000 </r>
       <r>    13.3971     0.0000    58.0000 </r>
       <r>    13.5114     0.0000    58.0000 </r>
       <r>    13.6258     0.0000    58.0000 </r>
       <r>    13.7401     0.0000    58.0000 </r>
       <r>    13.8545     0.0000    58.0000 </r>
      </set>
     </set>
    </array>
   </total>
  </dos>
 </calculation>
 <structure name="finalpos" >
  <crystal>
   <varray name="basis" >
    <v>       4.91370000       0.00000000       0.00000000 </v>
    <v>      -2.45685000       4.25538903       0.00000000 </v>
    <v>       0.00000000       0.00000000       5.40513000 </v>
   </varray>
   <i name="volume">    113.01967420 </i>
   <varray name="rec_basis" >
    <v>       0.20351263       0.11749807       0.00000000 </v>
    <v>       0.00000000       0.23499614       0.00000000 </v>
    <v>       0.00000000       0.00000000       0.18500943 </v>
   </varray>
  </crystal>
  <varray name="positions" >
   <v>       0.46980000       0.02000000       0.66667000 </v>
   <v>       0.00000000       0.46980000       0.33333000 </v>
   <v>       0.53020000       0.53020000       0.00000000 </v>
   <v>       0.41450000       0.26620000       0.78560000 </v>
   <v>       0.73380000       0.14830000       0.45227000 </v>
   <v>       0.85170000       0.58550000       0.11893000 </v>
   <v>       0.14830000       0.73380000       0.54773000 </v>
   <v>       0.26620000       0.41450000       0.21440000 </v>
   <v>       0.58550000       0.85170000       0.88107000 </v>
  </varray>
 </structure>
</modeling>
