unknown system                          
   1.00000000000000     
     3.905268    0.000000    0.000000
     0.000000    3.905268    0.000000
     0.000000    0.000000    3.905268
   Sr   Ti   O 
     1     1     3
Direct
  0.000000  0.000000  0.000000
  0.500000  0.500000  0.500000
  0.500000  0.500000  0.000000
  0.500000  0.000000  0.500000
  0.000000  0.500000  0.500000
 
   48   48   48
  193.33      193.35      192.92      190.77      185.36      175.46      160.60      141.25      118.79      95.202    
  72.583      52.712      36.665      24.699      16.383      10.891      7.3744      5.1877      3.8504      3.0393    
  2.5519      2.2657      2.1059      2.0270      2.0034      2.0270      2.1059      2.2657      2.5519      3.0393    
  3.8504      5.1877      7.3744      10.891      16.383      24.699      36.665      52.712      72.583      95.202    
  118.79      141.25      160.60      175.46      185.36      190.77      192.92      193.35      193.35      193.29    
  192.62      190.15      184.40      174.21      159.16      139.74      117.34      93.913      71.525      51.907    
  36.099      24.331      16.161      10.765      7.3108      5.1625      3.8484      3.0511      2.5721      2.2909    
  2.1341      2.0566      2.0335      2.0566      2.1341      2.2909      2.5721      3.0511      3.8484      5.1625    
  7.3108      10.765      16.161      24.331      36.099      51.907      71.525      93.913      117.34      139.74    
  159.16      174.21      184.40      190.15      192.62      193.29      192.92      192.62      191.33      187.98    
  181.30      170.33      154.77      135.21      113.03      90.116      68.423      49.562      34.458      23.268    
  15.521      10.406      7.1314      5.0952      3.8491      3.0930      2.6394      2.3737      2.2262      2.1536    
  2.1320      2.1536      2.2262      2.3737      2.6394      3.0930      3.8491      5.0952      7.1314      10.406    
  15.521      23.268      34.458      49.562      68.423      90.116      113.03      135.21      154.77      170.33    
  181.30      187.98      191.33      192.62      190.77      190.15      187.98      183.41      175.47      163.47    
  147.32      127.72      106.02      84.021      63.502      45.877      31.901      21.624      14.539      9.8601    
  6.8680      5.0077      3.8695      3.1801      2.7682      2.5291      2.3978      2.3340      2.3152      2.3340    
  2.3978      2.5291      2.7682      3.1801      3.8695      5.0077      6.8680      9.8601      14.539      21.624    
  31.901      45.877      63.502      84.021      106.02      127.72      147.32      163.47      175.47      183.41    
  187.98      190.15      185.36      184.40      181.30      175.47      166.27      153.31      136.76      117.42    
  96.618      75.997      57.125      41.166      28.672      19.571      13.325      9.1998      6.5667      4.9315    
  3.9331      3.3316      2.9764      2.7739      2.6657      2.6146      2.5998      2.6146      2.6657      2.7739    
  2.9764      3.3316      3.9331      4.9315      6.5667      9.1998      13.325      19.571      28.672      41.166    
  57.125      75.997      96.618      117.42      136.76      153.31      166.27      175.47      181.30      184.40    
  175.46      174.21      170.33      163.47      153.31      139.80      123.30      104.71      85.320      66.572    
  49.775      35.828      25.069      17.311      12.007      8.5085      6.2829      4.9060      4.0716      3.5766    
  3.2922      3.1376      3.0602      3.0265      3.0174      3.0265      3.0602      3.1376      3.2922      3.5766    
  4.0716      4.9060      6.2829      8.5085      12.007      17.311      25.069      35.828      49.775      66.572    
  85.320      104.71      123.30      139.80      153.31      163.47      170.33      174.21      160.60      159.16    
  154.77      147.32      136.76      123.30      107.49      90.274      72.832      56.402      42.015      30.298    
  21.400      15.048      10.716      7.8727      6.0775      4.9801      4.3303      3.9615      3.7664      3.6749    
  3.6402      3.6314      3.6304      3.6314      3.6402      3.6749      3.7664      3.9615      4.3303      4.9801    
  6.0775      7.8727      10.716      15.048      21.400      30.298      42.015      56.402      72.832      90.274    
  107.49      123.30      136.76      147.32      154.77      159.16      141.25      139.74      135.21      127.72    
  117.42      104.71      90.274      75.018      59.997      46.209      34.410      24.990      17.945      12.957    
  9.5710      7.3754      6.0152      5.2125      4.7698      4.5532      4.4730      4.4677      4.4938      4.5213    
  4.5325      4.5213      4.4938      4.4677      4.4730      4.5532      4.7698      5.2125      6.0152      7.3754    
  9.5710      12.957      17.945      24.990      34.410      46.209      59.997      75.018      90.274      104.71    
  117.42      127.72      135.21      139.74      118.79      117.34      113.03      106.02      96.618      85.320    
  72.832      59.997      47.692      36.675      27.458      20.239      14.914      11.172      8.6704      7.0927    
  6.1646      5.6741      5.4683      5.4395      5.5105      5.6240      5.7367      5.8171      5.8461      5.8171    
  5.7367      5.6240      5.5105      5.4395      5.4683      5.6741      6.1646      7.0927      8.6704      11.172    
  14.914      20.239      27.458      36.675      47.692      59.997      72.832      85.320      96.618      106.02    
  113.03      117.34      95.202      93.913      90.116      84.021      75.997      66.572      56.402      46.209    
  36.675      28.338      21.510      16.257      12.430      9.7896      8.0903      7.0947      6.6005      6.4503    
  6.5254      6.7357      7.0097      7.2890      7.5255      7.6829      7.7380      7.6829      7.5255      7.2890    
  7.0097      6.7357      6.5254      6.4503      6.6005      7.0947      8.0903      9.7896      12.430      16.257    
  21.510      28.338      36.675      46.209      56.402      66.572      75.997      84.021      90.116      93.913    
  72.583      71.525      68.423      63.502      57.125      49.775      42.015      34.410      27.458      21.510    
  16.737      13.125      10.553      8.8658      7.8866      7.4476      7.4056      7.6437      8.0665      8.5921    
  9.1468      9.6632      10.081      10.354      10.448      10.354      10.081      9.6632      9.1468      8.5921    
  8.0665      7.6437      7.4056      7.4476      7.8866      8.8658      10.553      13.125      16.737      21.510    
  27.458      34.410      42.015      49.775      57.125      63.502      68.423      71.525      52.712      51.907    
  49.562      45.877      41.166      35.828      30.298      24.990      20.239      16.257      13.125      10.825    
  9.2915      8.4218      8.1000      8.2154      8.6693      9.3737      10.246      11.204      12.162      13.031    
  13.728      14.179      14.335      14.179      13.728      13.031      12.162      11.204      10.246      9.3737    
  8.6693      8.2154      8.1000      8.4218      9.2915      10.825      13.125      16.257      20.239      24.990    
  30.298      35.828      41.166      45.877      49.562      51.907      36.665      36.099      34.458      31.901    
  28.672      25.069      21.400      17.945      14.914      12.430      10.553      9.2915      8.6113      8.4560    
  8.7607      9.4602      10.490      11.784      13.266      14.845      16.410      17.833      18.977      19.722    
  19.980      19.722      18.977      17.833      16.410      14.845      13.266      11.784      10.490      9.4602    
  8.7607      8.4560      8.6113      9.2915      10.553      12.430      14.914      17.945      21.400      25.069    
  28.672      31.901      34.458      36.099      24.699      24.331      23.268      21.624      19.571      17.311    
  15.048      12.957      11.172      9.7896      8.8658      8.4218      8.4560      8.9534      9.8922      11.247    
  12.985      15.065      17.417      19.934      22.458      24.783      26.676      27.919      28.352      27.919    
  26.676      24.783      22.458      19.934      17.417      15.065      12.985      11.247      9.8922      8.9534    
  8.4560      8.4218      8.8658      9.7896      11.172      12.957      15.048      17.311      19.571      21.624    
  23.268      24.331      16.383      16.161      15.521      14.539      13.325      12.007      10.716      9.5710    
  8.6704      8.0903      7.8866      8.1000      8.7607      9.8922      11.515      13.648      16.306      19.483    
  23.128      27.106      31.178      34.995      38.146      40.232      40.962      40.232      38.146      34.995    
  31.178      27.106      23.128      19.483      16.306      13.648      11.515      9.8922      8.7607      8.1000    
  7.8866      8.0903      8.6704      9.5710      10.716      12.007      13.325      14.539      15.521      16.161    
  10.891      10.765      10.406      9.8601      9.1998      8.5085      7.8727      7.3754      7.0927      7.0947    
  7.4476      8.2154      9.4602      11.247      13.648      16.751      20.645      25.396      30.984      37.234    
  43.763      49.978      55.161      58.613      59.825      58.613      55.161      49.978      43.763      37.234    
  30.984      25.396      20.645      16.751      13.648      11.247      9.4602      8.2154      7.4476      7.0947    
  7.0927      7.3754      7.8727      8.5085      9.1998      9.8601      10.406      10.765      7.3744      7.3108    
  7.1314      6.8680      6.5667      6.2829      6.0775      6.0152      6.1646      6.6005      7.4056      8.6693    
  10.490      12.985      16.306      20.645      26.221      33.214      41.658      51.308      61.537      71.380    
  79.755      85.455      87.482      85.455      79.755      71.380      61.537      51.308      41.658      33.214    
  26.221      20.645      16.306      12.985      10.490      8.6693      7.4056      6.6005      6.1646      6.0152    
  6.0775      6.2829      6.5667      6.8680      7.1314      7.3108      5.1877      5.1625      5.0952      5.0077    
  4.9315      4.9060      4.9801      5.2125      5.6741      6.4503      7.6437      9.3737      11.784      15.065    
  19.483      25.396      33.214      43.290      55.722      70.131      85.867      101.74      115.66      125.25    
  128.67      125.25      115.66      101.74      85.867      70.131      55.722      43.290      33.214      25.396    
  19.483      15.065      11.784      9.3737      7.6437      6.4503      5.6741      5.2125      4.9801      4.9060    
  4.9315      5.0077      5.0952      5.1625      3.8504      3.8484      3.8491      3.8695      3.9331      4.0716    
  4.3303      4.7698      5.4683      6.5254      8.0665      10.246      13.266      17.417      23.128      30.984    
  41.658      55.722      73.343      94.669      119.07      144.08      165.96      180.93      186.24      180.93    
  165.96      144.08      119.07      94.669      73.343      55.722      41.658      30.984      23.128      17.417    
  13.266      10.246      8.0665      6.5254      5.4683      4.7698      4.3303      4.0716      3.9331      3.8695    
  3.8491      3.8484      3.0393      3.0511      3.0930      3.1801      3.3316      3.5766      3.9615      4.5532    
  5.4395      6.7357      8.5921      11.204      14.845      19.934      27.106      37.234      51.308      70.131    
  94.669      125.71      161.51      197.74      228.82      249.67      257.00      249.67      228.82      197.74    
  161.51      125.71      94.669      70.131      51.308      37.234      27.106      19.934      14.845      11.204    
  8.5921      6.7357      5.4395      4.5532      3.9615      3.5766      3.3316      3.1801      3.0930      3.0511    
  2.5519      2.5721      2.6394      2.7682      2.9764      3.2922      3.7664      4.4730      5.5105      7.0097    
  9.1468      12.162      16.410      22.458      31.178      43.763      61.537      85.867      119.07      161.51    
  209.73      257.21      296.69      322.46      331.37      322.46      296.69      257.21      209.73      161.51    
  119.07      85.867      61.537      43.763      31.178      22.458      16.410      12.162      9.1468      7.0097    
  5.5105      4.4730      3.7664      3.2922      2.9764      2.7682      2.6394      2.5721      2.2657      2.2909    
  2.3737      2.5291      2.7739      3.1376      3.6749      4.4677      5.6240      7.2890      9.6632      13.031    
  17.833      24.783      34.995      49.978      71.380      101.74      144.08      197.74      257.21      313.79    
  359.06      387.59      397.23      387.59      359.06      313.79      257.21      197.74      144.08      101.74    
  71.380      49.978      34.995      24.783      17.833      13.031      9.6632      7.2890      5.6240      4.4677    
  3.6749      3.1376      2.7739      2.5291      2.3737      2.2909      2.1059      2.1341      2.2262      2.3978    
  2.6657      3.0602      3.6402      4.4938      5.7367      7.5255      10.081      13.728      18.977      26.676    
  38.146      55.161      79.755      115.66      165.96      228.82      296.69      359.06      406.96      435.97    
  445.52      435.97      406.96      359.06      296.69      228.82      165.96      115.66      79.755      55.161    
  38.146      26.676      18.977      13.728      10.081      7.5255      5.7367      4.4938      3.6402      3.0602    
  2.6657      2.3978      2.2262      2.1341      2.0270      2.0566      2.1536      2.3340      2.6146      3.0265    
  3.6314      4.5213      5.8171      7.6829      10.354      14.179      19.722      27.919      40.232      58.613    
  85.455      125.25      180.93      249.67      322.46      387.59      435.97      464.26      473.35      464.26    
  435.97      387.59      322.46      249.67      180.93      125.25      85.455      58.613      40.232      27.919    
  19.722      14.179      10.354      7.6829      5.8171      4.5213      3.6314      3.0265      2.6146      2.3340    
  2.1536      2.0566      2.0034      2.0335      2.1320      2.3152      2.5998      3.0174      3.6304      4.5325    
  5.8461      7.7380      10.448      14.335      19.980      28.352      40.962      59.825      87.482      128.67    
  186.24      257.00      331.37      397.23      445.52      473.35      482.20      473.35      445.52      397.23    
  331.37      257.00      186.24      128.67      87.482      59.825      40.962      28.352      19.980      14.335    
  10.448      7.7380      5.8461      4.5325      3.6304      3.0174      2.5998      2.3152      2.1320      2.0335    
  2.0270      2.0566      2.1536      2.3340      2.6146      3.0265      3.6314      4.5213      5.8171      7.6829    
  10.354      14.179      19.722      27.919      40.232      58.613      85.455      125.25      180.93      249.67    
  322.46      387.59      435.97      464.26      473.35      464.26      435.97      387.59      322.46      249.67    
  180.93      125.25      85.455      58.613      40.232      27.919      19.722      14.179      10.354      7.6829    
  5.8171      4.5213      3.6314      3.0265      2.6146      2.3340      2.1536      2.0566      2.1059      2.1341    
  2.2262      2.3978      2.6657      3.0602      3.6402      4.4938      5.7367      7.5255      10.081      13.728    
  18.977      26.676      38.146      55.161      79.755      115.66      165.96      228.82      296.69      359.06    
  406.96      435.97      445.52      435.97      406.96      359.06      296.69      228.82      165.96      115.66    
  79.755      55.161      38.146      26.676      18.977      13.728      10.081      7.5255      5.7367      4.4938    
  3.6402      3.0602      2.6657      2.3978      2.2262      2.1341      2.2657      2.2909      2.3737      2.5291    
  2.7739      3.1376      3.6749      4.4677      5.6240      7.2890      9.6632      13.031      17.833      24.783    
  34.995      49.978      71.380      101.74      144.08      197.74      257.21      313.79      359.06      387.59    
  397.23      387.59      359.06      313.79      257.21      197.74      144.08      101.74      71.380      49.978    
  34.995      24.783      17.833      13.031      9.6632      7.2890      5.6240      4.4677      3.6749      3.1376    
  2.7739      2.5291      2.3737      2.2909      2.5519      2.5721      2.6394      2.7682      2.9764      3.2922    
  3.7664      4.4730      5.5105      7.0097      9.1468      12.162      16.410      22.458      31.178      43.763    
  61.537      85.867      119.07      161.51      209.73      257.21      296.69      322.46      331.37      322.46    
  296.69      257.21      209.73      161.51      119.07      85.867      61.537      43.763      31.178      22.458    
  16.410      12.162      9.1468      7.0097      5.5105      4.4730      3.7664      3.2922      2.9764      2.7682    
  2.6394      2.5721      3.0393      3.0511      3.0930      3.1801      3.3316      3.5766      3.9615      4.5532    
  5.4395      6.7357      8.5921      11.204      14.845      19.934      27.106      37.234      51.308      70.131    
  94.669      125.71      161.51      197.74      228.82      249.67      257.00      249.67      228.82      197.74    
  161.51      125.71      94.669      70.131      51.308      37.234      27.106      19.934      14.845      11.204    
  8.5921      6.7357      5.4395      4.5532      3.9615      3.5766      3.3316      3.1801      3.0930      3.0511    
  3.8504      3.8484      3.8491      3.8695      3.9331      4.0716      4.3303      4.7698      5.4683      6.5254    
  8.0665      10.246      13.266      17.417      23.128      30.984      41.658      55.722      73.343      94.669    
  119.07      144.08      165.96      180.93      186.24      180.93      165.96      144.08      119.07      94.669    
  73.343      55.722      41.658      30.984      23.128      17.417      13.266      10.246      8.0665      6.5254    
  5.4683      4.7698      4.3303      4.0716      3.9331      3.8695      3.8491      3.8484      5.1877      5.1625    
  5.0952      5.0077      4.9315      4.9060      4.9801      5.2125      5.6741      6.4503      7.6437      9.3737    
  11.784      15.065      19.483      25.396      33.214      43.290      55.722      70.131      85.867      101.74    
  115.66      125.25      128.67      125.25      115.66      101.74      85.867      70.131      55.722      43.290    
  33.214      25.396      19.483      15.065      11.784      9.3737      7.6437      6.4503      5.6741      5.2125    
  4.9801      4.9060      4.9315      5.0077      5.0952      5.1625      7.3744      7.3108      7.1314      6.8680    
  6.5667      6.2829      6.0775      6.0152      6.1646      6.6005      7.4056      8.6693      10.490      12.985    
  16.306      20.645      26.221      33.214      41.658      51.308      61.537      71.380      79.755      85.455    
  87.482      85.455      79.755      71.380      61.537      51.308      41.658      33.214      26.221      20.645    
  16.306      12.985      10.490      8.6693      7.4056      6.6005      6.1646      6.0152      6.0775      6.2829    
  6.5667      6.8680      7.1314      7.3108      10.891      10.765      10.406      9.8601      9.1998      8.5085    
  7.8727      7.3754      7.0927      7.0947      7.4476      8.2154      9.4602      11.247      13.648      16.751    
  20.645      25.396      30.984      37.234      43.763      49.978      55.161      58.613      59.825      58.613    
  55.161      49.978      43.763      37.234      30.984      25.396      20.645      16.751      13.648      11.247    
  9.4602      8.2154      7.4476      7.0947      7.0927      7.3754      7.8727      8.5085      9.1998      9.8601    
  10.406      10.765      16.383      16.161      15.521      14.539      13.325      12.007      10.716      9.5710    
  8.6704      8.0903      7.8866      8.1000      8.7607      9.8922      11.515      13.648      16.306      19.483    
  23.128      27.106      31.178      34.995      38.146      40.232      40.962      40.232      38.146      34.995    
  31.178      27.106      23.128      19.483      16.306      13.648      11.515      9.8922      8.7607      8.1000    
  7.8866      8.0903      8.6704      9.5710      10.716      12.007      13.325      14.539      15.521      16.161    
  24.699      24.331      23.268      21.624      19.571      17.311      15.048      12.957      11.172      9.7896    
  8.8658      8.4218      8.4560      8.9534      9.8922      11.247      12.985      15.065      17.417      19.934    
  22.458      24.783      26.676      27.919      28.352      27.919      26.676      24.783      22.458      19.934    
  17.417      15.065      12.985      11.247      9.8922      8.9534      8.4560      8.4218      8.8658      9.7896    
  11.172      12.957      15.048      17.311      19.571      21.624      23.268      24.331      36.665      36.099    
  34.458      31.901      28.672      25.069      21.400      17.945      14.914      12.430      10.553      9.2915    
  8.6113      8.4560      8.7607      9.4602      10.490      11.784      13.266      14.845      16.410      17.833    
  18.977      19.722      19.980      19.722      18.977      17.833      16.410      14.845      13.266      11.784    
  10.490      9.4602      8.7607      8.4560      8.6113      9.2915      10.553      12.430      14.914      17.945    
  21.400      25.069      28.672      31.901      34.458      36.099      52.712      51.907      49.562      45.877    
  41.166      35.828      30.298      24.990      20.239      16.257      13.125      10.825      9.2915      8.4218    
  8.1000      8.2154      8.6693      9.3737      10.246      11.204      12.162      13.031      13.728      14.179    
  14.335      14.179      13.728      13.031      12.162      11.204      10.246      9.3737      8.6693      8.2154    
  8.1000      8.4218      9.2915      10.825      13.125      16.257      20.239      24.990      30.298      35.828    
  41.166      45.877      49.562      51.907      72.583      71.525      68.423      63.502      57.125      49.775    
  42.015      34.410      27.458      21.510      16.737      13.125      10.553      8.8658      7.8866      7.4476    
  7.4056      7.6437      8.0665      8.5921      9.1468      9.6632      10.081      10.354      10.448      10.354    
  10.081      9.6632      9.1468      8.5921      8.0665      7.6437      7.4056      7.4476      7.8866      8.8658    
  10.553      13.125      16.737      21.510      27.458      34.410      42.015      49.775      57.125      63.502    
  68.423      71.525      95.202      93.913      90.116      84.021      75.997      66.572      56.402      46.209    
  36.675      28.338      21.510      16.257      12.430      9.7896      8.0903      7.0947      6.6005      6.4503    
  6.5254      6.7357      7.0097      7.2890      7.5255      7.6829      7.7380      7.6829      7.5255      7.2890    
  7.0097      6.7357      6.5254      6.4503      6.6005      7.0947      8.0903      9.7896      12.430      16.257    
  21.510      28.338      36.675      46.209      56.402      66.572      75.997      84.021      90.116      93.913    
  118.79      117.34      113.03      106.02      96.618      85.320      72.832      59.997      47.692      36.675    
  27.458      20.239      14.914      11.172      8.6704      7.0927      6.1646      5.6741      5.4683      5.4395    
  5.5105      5.6240      5.7367      5.8171      5.8461      5.8171      5.7367      5.6240      5.5105      5.4395    
  5.4683      5.6741      6.1646      7.0927      8.6704      11.172      14.914      20.239      27.458      36.675    
  47.692      59.997      72.832      85.320      96.618      106.02      113.03      117.34      141.25      139.74    
  135.21      127.72      117.42      104.71      90.274      75.018      59.997      46.209      34.410      24.990    
  17.945      12.957      9.5710      7.3754      6.0152      5.2125      4.7698      4.5532      4.4730      4.4677    
  4.4938      4.5213      4.5325      4.5213      4.4938      4.4677      4.4730      4.5532      4.7698      5.2125    
  6.0152      7.3754      9.5710      12.957      17.945      24.990      34.410      46.209      59.997      75.018    
  90.274      104.71      117.42      127.72      135.21      139.74      160.60      159.16      154.77      147.32    
  136.76      123.30      107.49      90.274      72.832      56.402      42.015      30.298      21.400      15.048    
  10.716      7.8727      6.0775      4.9801      4.3303      3.9615      3.7664      3.6749      3.6402      3.6314    
  3.6304      3.6314      3.6402      3.6749      3.7664      3.9615      4.3303      4.9801      6.0775      7.8727    
  10.716      15.048      21.400      30.298      42.015      56.402      72.832      90.274      107.49      123.30    
  136.76      147.32      154.77      159.16      175.46      174.21      170.33      163.47      153.31      139.80    
  123.30      104.71      85.320      66.572      49.775      35.828      25.069      17.311      12.007      8.5085    
  6.2829      4.9060      4.0716      3.5766      3.2922      3.1376      3.0602      3.0265      3.0174      3.0265    
  3.0602      3.1376      3.2922      3.5766      4.0716      4.9060      6.2829      8.5085      12.007      17.311    
  25.069      35.828      49.775      66.572      85.320      104.71      123.30      139.80      153.31      163.47    
  170.33      174.21      185.36      184.40      181.30      175.47      166.27      153.31      136.76      117.42    
  96.618      75.997      57.125      41.166      28.672      19.571      13.325      9.1998      6.5667      4.9315    
  3.9331      3.3316      2.9764      2.7739      2.6657      2.6146      2.5998      2.6146      2.6657      2.7739    
  2.9764      3.3316      3.9331      4.9315      6.5667      9.1998      13.325      19.571      28.672      41.166    
  57.125      75.997      96.618      117.42      136.76      153.31      166.27      175.47      181.30      184.40    
  190.77      190.15      187.98      183.41      175.47      163.47      147.32      127.72      106.02      84.021    
  63.502      45.877      31.901      21.624      14.539      9.8601      6.8680      5.0077      3.8695      3.1801    
  2.7682      2.5291      2.3978      2.3340      2.3152      2.3340      2.3978      2.5291      2.7682      3.1801    
  3.8695      5.0077      6.8680      9.8601      14.539      21.624      31.901      45.877      63.502      84.021    
  106.02      127.72      147.32      163.47      175.47      183.41      187.98      190.15      192.92      192.62    
  191.33      187.98      181.30      170.33      154.77      135.21      113.03      90.116      68.423      49.562    
  34.458      23.268      15.521      10.406      7.1314      5.0952      3.8491      3.0930      2.6394      2.3737    
  2.2262      2.1536      2.1320      2.1536      2.2262      2.3737      2.6394      3.0930      3.8491      5.0952    
  7.1314      10.406      15.521      23.268      34.458      49.562      68.423      90.116      113.03      135.21    
  154.77      170.33      181.30      187.98      191.33      192.62      193.35      193.29      192.62      190.15    
  184.40      174.21      159.16      139.74      117.34      93.913      71.525      51.907      36.099      24.331    
  16.161      10.765      7.3108      5.1625      3.8484      3.0511      2.5721      2.2909      2.1341      2.0566    
  2.0335      2.0566      2.1341      2.2909      2.5721      3.0511      3.8484      5.1625      7.3108      10.765    
  16.161      24.331      36.099      51.907      71.525      93.913      117.34      139.74      159.16      174.21    
  184.40      190.15      192.62      193.29      193.35      193.29      192.62      190.15      184.40      174.21    
  159.16      139.74      117.34      93.913      71.525      51.907      36.099      24.331      16.161      10.765    
  7.3108      5.1625      3.8484      3.0511      2.5721      2.2909      2.1341      2.0566      2.0335      2.0566    
  2.1341      2.2909      2.5721      3.0511      3.8484      5.1625      7.3108      10.765      16.161      24.331    
  36.099      51.907      71.525      93.913      117.34      139.74      159.16      174.21      184.40      190.15    
  192.62      193.29      193.29      193.14      192.26      189.48      183.41      172.94      157.70      138.23    
  115.90      92.636      70.478      51.114      35.543      23.970      15.943      10.642      7.2481      5.1376    
  3.8463      3.0627      2.5919      2.3157      2.1618      2.0858      2.0632      2.0858      2.1618      2.3157    
  2.5919      3.0627      3.8463      5.1376      7.2481      10.642      15.943      23.970      35.543      51.114    
  70.478      92.636      115.90      138.23      157.70      172.94      183.41      189.48      192.26      193.14    
  192.62      192.26      190.77      187.15      180.20      168.99      153.29      133.71      111.61      88.872    
  67.413      48.802      33.928      22.924      15.314      10.288      7.0714      5.0710      3.8466      3.1037    
  2.6580      2.3972      2.2524      2.1813      2.1602      2.1813      2.2524      2.3972      2.6580      3.1037    
  3.8466      5.0710      7.0714      10.288      15.314      22.924      33.928      48.802      67.413      88.872    