unknown system                          
   1.00000000000000     
     3.905268    0.000000    0.000000
     0.000000    3.905268    0.000000
     0.000000    0.000000    3.905268
   Sr   Ti   O 
     1     1     3
Direct
  0.000000  0.000000  0.000000
  0.500000  0.500000  0.500000
  0.500000  0.500000  0.000000
  0.500000  0.000000  0.500000
  0.000000  0.500000  0.500000
 
   48   48   48
 0.19333477951E+03 0.19335210159E+03 0.19291745129E+03 0.19076772747E+03 0.18536175335E+03
 0.17546390823E+03 0.16059787989E+03 0.14124885067E+03 0.11879380911E+03 0.95201655922E+02
 0.72583114621E+02 0.52711743187E+02 0.36664538293E+02 0.24698869856E+02 0.16383344858E+02
 0.10890817363E+02 0.73743987955E+01 0.51877265487E+01 0.38504349494E+01 0.30392559415E+01
 0.25518926348E+01 0.22656816003E+01 0.21059196908E+01 0.20269613224E+01 0.20033943465E+01
 0.20269613224E+01 0.21059196908E+01 0.22656816003E+01 0.25518926348E+01 0.30392559415E+01
 0.38504349494E+01 0.51877265487E+01 0.73743987955E+01 0.10890817363E+02 0.16383344858E+02
 0.24698869856E+02 0.36664538293E+02 0.52711743187E+02 0.72583114621E+02 0.95201655922E+02
 0.11879380911E+03 0.14124885067E+03 0.16059787989E+03 0.17546390823E+03 0.18536175335E+03
 0.19076772747E+03 0.19291745129E+03 0.19335210159E+03 0.19335210159E+03 0.19328594679E+03
 0.19262158344E+03 0.19015091892E+03 0.18440437386E+03 0.17421467964E+03 0.15915604706E+03
 0.13973953616E+03 0.11734273850E+03 0.93913175769E+02 0.71524607473E+02 0.51907314852E+02
 0.36099213791E+02 0.24331183770E+02 0.16161174305E+02 0.10765243018E+02 0.73107845049E+01
 0.51625207956E+01 0.38484000316E+01 0.30511053251E+01 0.25721001271E+01 0.22909124020E+01
 0.21340659330E+01 0.20566061299E+01 0.20334972043E+01 0.20566061299E+01 0.21340659330E+01
 0.22909124020E+01 0.25721001271E+01 0.30511053251E+01 0.38484000316E+01 0.51625207956E+01
 0.73107845049E+01 0.10765243018E+02 0.16161174305E+02 0.24331183770E+02 0.36099213791E+02
 0.51907314852E+02 0.71524607473E+02 0.93913175769E+02 0.11734273850E+03 0.13973953616E+03
 0.15915604706E+03 0.17421467964E+03 0.18440437386E+03 0.19015091892E+03 0.19262158344E+03
 0.19328594679E+03 0.19291745129E+03 0.19262158344E+03 0.19132582597E+03 0.18797559142E+03
 0.18130153717E+03 0.17032808859E+03 0.15477135887E+03 0.13521449210E+03 0.11303472716E+03
 0.90115892805E+02 0.68423477418E+02 0.49562322883E+02 0.34458425379E+02 0.23268217864E+02
 0.15521306012E+02 0.10405629547E+02 0.71314053606E+01 0.50951545710E+01 0.38490680179E+01
 0.30930480356E+01 0.26393562435E+01 0.23737498216E+01 0.22261904049E+01 0.21536248849E+01
 0.21320361489E+01 0.21536248849E+01 0.22261904049E+01 0.23737498216E+01 0.26393562435E+01
 0.30930480356E+01 0.38490680179E+01 0.50951545710E+01 0.71314053606E+01 0.10405629547E+02
 0.15521306012E+02 0.23268217864E+02 0.34458425379E+02 0.49562322883E+02 0.68423477418E+02
 0.90115892805E+02 0.11303472716E+03 0.13521449210E+03 0.15477135887E+03 0.17032808859E+03
 0.18130153717E+03 0.18797559142E+03 0.19132582597E+03 0.19262158344E+03 0.19076772747E+03
 0.19015091892E+03 0.18797559142E+03 0.18340894143E+03 0.17547208054E+03 0.16346874102E+03
 0.14732188097E+03 0.12771718600E+03 0.10602403095E+03 0.84021210130E+02 0.63502127003E+02
 0.45876710820E+02 0.31901417095E+02 0.21624357968E+02 0.14538978780E+02 0.98601410020E+01
 0.68679832736E+01 0.50076814466E+01 0.38695196921E+01 0.31800975197E+01 0.27682284359E+01
 0.25290942220E+01 0.23977734962E+01 0.23339854926E+01 0.23151661515E+01 0.23339854926E+01
 0.23977734962E+01 0.25290942220E+01 0.27682284359E+01 0.31800975197E+01 0.38695196921E+01
 0.50076814466E+01 0.68679832736E+01 0.98601410020E+01 0.14538978780E+02 0.21624357968E+02
 0.31901417095E+02 0.45876710820E+02 0.63502127003E+02 0.84021210130E+02 0.10602403095E+03
 0.12771718600E+03 0.14732188097E+03 0.16346874102E+03 0.17547208054E+03 0.18340894143E+03
 0.18797559142E+03 0.19015091892E+03 0.18536175335E+03 0.18440437386E+03 0.18130153717E+03
 0.17547208054E+03 0.16626817956E+03 0.15331306890E+03 0.13676480758E+03 0.11741877904E+03
 0.96618444876E+02 0.75997342283E+02 0.57124637945E+02 0.41165565936E+02 0.28672341454E+02
 0.19571197098E+02 0.13324969070E+02 0.91998420584E+01 0.65666909867E+01 0.49314886503E+01
 0.39331171459E+01 0.33316427260E+01 0.29763524407E+01 0.27739451150E+01 0.26656848576E+01
 0.26146014332E+01 0.25998360346E+01 0.26146014332E+01 0.26656848576E+01 0.27739451150E+01
 0.29763524407E+01 0.33316427260E+01 0.39331171459E+01 0.49314886503E+01 0.65666909867E+01
 0.91998420584E+01 0.13324969070E+02 0.19571197098E+02 0.28672341454E+02 0.41165565936E+02
 0.57124637945E+02 0.75997342283E+02 0.96618444876E+02 0.11741877904E+03 0.13676480758E+03
 0.15331306890E+03 0.16626817956E+03 0.17547208054E+03 0.18130153717E+03 0.18440437386E+03
 0.17546390823E+03 0.17421467964E+03 0.17032808859E+03 0.16346874102E+03 0.15331306890E+03
 0.13979658281E+03 0.12330163401E+03 0.10471391107E+03 0.85320486942E+02 0.66571566431E+02
 0.49775453578E+02 0.35827672509E+02 0.25068633286E+02 0.17311454125E+02 0.12007338628E+02
 0.85084520152E+01 0.62828629270E+01 0.49060396993E+01 0.40716326937E+01 0.35765684129E+01
 0.32922455757E+01 0.31375561107E+01 0.30601832054E+01 0.30265169513E+01 0.30173825117E+01
 0.30265169513E+01 0.30601832054E+01 0.31375561107E+01 0.32922455757E+01 0.35765684129E+01
 0.40716326937E+01 0.49060396993E+01 0.62828629270E+01 0.85084520152E+01 0.12007338628E+02
 0.17311454125E+02 0.25068633286E+02 0.35827672509E+02 0.49775453578E+02 0.66571566431E+02
 0.85320486942E+02 0.10471391107E+03 0.12330163401E+03 0.13979658281E+03 0.15331306890E+03
 0.16346874102E+03 0.17032808859E+03 0.17421467964E+03 0.16059787989E+03 0.15915604706E+03
 0.15477135887E+03 0.14732188097E+03 0.13676480758E+03 0.12330163401E+03 0.10749382096E+03
 0.90273797198E+02 0.72831694082E+02 0.56401947361E+02 0.42014771036E+02 0.30298159064E+02
 0.21399957812E+02 0.15048391604E+02 0.10716234186E+02 0.78727117801E+01 0.60774678090E+01
 0.49800821766E+01 0.43302646977E+01 0.39614957869E+01 0.37663504941E+01 0.36748583352E+01
 0.36401891391E+01 0.36313607888E+01 0.36303903923E+01 0.36313607888E+01 0.36401891391E+01
 0.36748583352E+01 0.37663504941E+01 0.39614957869E+01 0.43302646977E+01 0.49800821766E+01
 0.60774678090E+01 0.78727117801E+01 0.10716234186E+02 0.15048391604E+02 0.21399957812E+02
 0.30298159064E+02 0.42014771036E+02 0.56401947361E+02 0.72831694082E+02 0.90273797198E+02
 0.10749382096E+03 0.12330163401E+03 0.13676480758E+03 0.14732188097E+03 0.15477135887E+03
 0.15915604706E+03 0.14124885067E+03 0.13973953616E+03 0.13521449210E+03 0.12771718600E+03
 0.11741877904E+03 0.10471391107E+03 0.90273797198E+02 0.75018286995E+02 0.59997383953E+02
 0.46209000453E+02 0.34410476163E+02 0.24990360534E+02 0.17944686844E+02 0.12957240740E+02
 0.95710463738E+01 0.73754485459E+01 0.60151653922E+01 0.52125444199E+01 0.47698052558E+01
 0.45531616649E+01 0.44729904675E+01 0.44677047095E+01 0.44938093856E+01 0.45213498582E+01
 0.45325074663E+01 0.45213498582E+01 0.44938093856E+01 0.44677047095E+01 0.44729904675E+01
 0.45531616649E+01 0.47698052558E+01 0.52125444199E+01 0.60151653922E+01 0.73754485459E+01
 0.95710463738E+01 0.12957240740E+02 0.17944686844E+02 0.24990360534E+02 0.34410476163E+02
 0.46209000453E+02 0.59997383953E+02 0.75018286995E+02 0.90273797198E+02 0.10471391107E+03
 0.11741877904E+03 0.12771718600E+03 0.13521449210E+03 0.13973953616E+03 0.11879380911E+03
 0.11734273850E+03 0.11303472716E+03 0.10602403095E+03 0.96618444876E+02 0.85320486942E+02
 0.72831694082E+02 0.59997383953E+02 0.47692347663E+02 0.36675193017E+02 0.27458211532E+02
 0.20238663593E+02 0.14913533454E+02 0.11171943780E+02 0.86704483792E+01 0.70927211973E+01
 0.61645808395E+01 0.56740798902E+01 0.54682720827E+01 0.54394528638E+01 0.55104916809E+01
 0.56240378504E+01 0.57367006176E+01 0.58171250661E+01 0.58460972066E+01 0.58171250661E+01
 0.57367006176E+01 0.56240378504E+01 0.55104916809E+01 0.54394528638E+01 0.54682720827E+01
 0.56740798902E+01 0.61645808395E+01 0.70927211973E+01 0.86704483792E+01 0.11171943780E+02
 0.14913533454E+02 0.20238663593E+02 0.27458211532E+02 0.36675193017E+02 0.47692347663E+02
 0.59997383953E+02 0.72831694082E+02 0.85320486942E+02 0.96618444876E+02 0.10602403095E+03
 0.11303472716E+03 0.11734273850E+03 0.95201655922E+02 0.93913175769E+02 0.90115892805E+02
 0.84021210130E+02 0.75997342283E+02 0.66571566431E+02 0.56401947361E+02 0.46209000453E+02
 0.36675193017E+02 0.28337960418E+02 0.21510477527E+02 0.16257096036E+02 0.12430433084E+02
 0.97896377372E+01 0.80903165381E+01 0.70946714495E+01 0.66005459946E+01 0.64503103483E+01
 0.65254005076E+01 0.67356774926E+01 0.70097499871E+01 0.72889984422E+01 0.75255235123E+01
 0.76828692455E+01 0.77379593007E+01 0.76828692455E+01 0.75255235123E+01 0.72889984422E+01
 0.70097499871E+01 0.67356774926E+01 0.65254005076E+01 0.64503103483E+01 0.66005459946E+01
 0.70946714495E+01 0.80903165381E+01 0.97896377372E+01 0.12430433084E+02 0.16257096036E+02
 0.21510477527E+02 0.28337960418E+02 0.36675193017E+02 0.46209000453E+02 0.56401947361E+02
 0.66571566431E+02 0.75997342283E+02 0.84021210130E+02 0.90115892805E+02 0.93913175769E+02
 0.72583114621E+02 0.71524607473E+02 0.68423477418E+02 0.63502127003E+02 0.57124637945E+02
 0.49775453578E+02 0.42014771036E+02 0.34410476163E+02 0.27458211532E+02 0.21510477527E+02
 0.16736514554E+02 0.13125331838E+02 0.10553346384E+02 0.88658205942E+01 0.78865863344E+01
 0.74476360264E+01 0.74055659907E+01 0.76436994954E+01 0.80664846183E+01 0.85920676395E+01
 0.91467884324E+01 0.96631846988E+01 0.10081488645E+02 0.10353603825E+02 0.10447983926E+02
 0.10353603825E+02 0.10081488645E+02 0.96631846988E+01 0.91467884324E+01 0.85920676395E+01
 0.80664846183E+01 0.76436994954E+01 0.74055659907E+01 0.74476360264E+01 0.78865863344E+01
 0.88658205942E+01 0.10553346384E+02 0.13125331838E+02 0.16736514554E+02 0.21510477527E+02
 0.27458211532E+02 0.34410476163E+02 0.42014771036E+02 0.49775453578E+02 0.57124637945E+02
 0.63502127003E+02 0.68423477418E+02 0.71524607473E+02 0.52711743187E+02 0.51907314852E+02
 0.49562322883E+02 0.45876710820E+02 0.41165565936E+02 0.35827672509E+02 0.30298159064E+02
 0.24990360534E+02 0.20238663593E+02 0.16257096036E+02 0.13125331838E+02 0.10824928887E+02
 0.92914875003E+01 0.84218315117E+01 0.81000078754E+01 0.82153646761E+01 0.86692539255E+01
 0.93736799523E+01 0.10246116739E+02 0.11204053055E+02 0.12161834223E+02 0.13031473741E+02
 0.13728086696E+02 0.14179180997E+02 0.14335399747E+02 0.14179180997E+02 0.13728086696E+02
 0.13031473741E+02 0.12161834223E+02 0.11204053055E+02 0.10246116739E+02 0.93736799523E+01
 0.86692539255E+01 0.82153646761E+01 0.81000078754E+01 0.84218315117E+01 0.92914875003E+01
 0.10824928887E+02 0.13125331838E+02 0.16257096036E+02 0.20238663593E+02 0.24990360534E+02
 0.30298159064E+02 0.35827672509E+02 0.41165565936E+02 0.45876710820E+02 0.49562322883E+02
 0.51907314852E+02 0.36664538293E+02 0.36099213791E+02 0.34458425379E+02 0.31901417095E+02
 0.28672341454E+02 0.25068633286E+02 0.21399957812E+02 0.17944686844E+02 0.14913533454E+02
 0.12430433084E+02 0.10553346384E+02 0.92914875003E+01 0.86112885108E+01 0.84560013248E+01
 0.87607042839E+01 0.94601553969E+01 0.10490115758E+02 0.11783880764E+02 0.13265946670E+02
 0.14845129506E+02 0.16410352426E+02 0.17832849019E+02 0.18977391719E+02 0.19721882865E+02
 0.19980394992E+02 0.19721882865E+02 0.18977391719E+02 0.17832849019E+02 0.16410352426E+02
 0.14845129506E+02 0.13265946670E+02 0.11783880764E+02 0.10490115758E+02 0.94601553969E+01
 0.87607042839E+01 0.84560013248E+01 0.86112885108E+01 0.92914875003E+01 0.10553346384E+02
 0.12430433084E+02 0.14913533454E+02 0.17944686844E+02 0.21399957812E+02 0.25068633286E+02
 0.28672341454E+02 0.31901417095E+02 0.34458425379E+02 0.36099213791E+02 0.24698869856E+02
 0.24331183770E+02 0.23268217864E+02 0.21624357968E+02 0.19571197098E+02 0.17311454125E+02
 0.15048391604E+02 0.12957240740E+02 0.11171943780E+02 0.97896377372E+01 0.88658205942E+01
 0.84218315117E+01 0.84560013248E+01 0.89533694798E+01 0.98921707734E+01 0.11246596013E+02
 0.12985309316E+02 0.15064713536E+02 0.17416722655E+02 0.19933784462E+02 0.22457966712E+02
 0.24783105426E+02 0.26676469158E+02 0.27918797630E+02 0.28352128766E+02 0.27918797630E+02
 0.26676469158E+02 0.24783105426E+02 0.22457966712E+02 0.19933784462E+02 0.17416722655E+02
 0.15064713536E+02 0.12985309316E+02 0.11246596013E+02 0.98921707734E+01 0.89533694798E+01
 0.84560013248E+01 0.84218315117E+01 0.88658205942E+01 0.97896377372E+01 0.11171943780E+02
 0.12957240740E+02 0.15048391604E+02 0.17311454125E+02 0.19571197098E+02 0.21624357968E+02
 0.23268217864E+02 0.24331183770E+02 0.16383344858E+02 0.16161174305E+02 0.15521306012E+02
 0.14538978780E+02 0.13324969070E+02 0.12007338628E+02 0.10716234186E+02 0.95710463738E+01
 0.86704483792E+01 0.80903165381E+01 0.78865863344E+01 0.81000078754E+01 0.87607042839E+01
 0.98921707734E+01 0.11514877299E+02 0.13648092598E+02 0.16306024509E+02 0.19483307795E+02
 0.23127787857E+02 0.27106201506E+02 0.31177738552E+02 0.34995008103E+02 0.38145699531E+02
 0.40231566329E+02 0.40962336007E+02 0.40231566329E+02 0.38145699531E+02 0.34995008103E+02
 0.31177738552E+02 0.27106201506E+02 0.23127787857E+02 0.19483307795E+02 0.16306024509E+02
 0.13648092598E+02 0.11514877299E+02 0.98921707734E+01 0.87607042839E+01 0.81000078754E+01
 0.78865863344E+01 0.80903165381E+01 0.86704483792E+01 0.95710463738E+01 0.10716234186E+02
 0.12007338628E+02 0.13324969070E+02 0.14538978780E+02 0.15521306012E+02 0.16161174305E+02
 0.10890817363E+02 0.10765243018E+02 0.10405629547E+02 0.98601410020E+01 0.91998420584E+01
 0.85084520152E+01 0.78727117801E+01 0.73754485459E+01 0.70927211973E+01 0.70946714495E+01
 0.74476360264E+01 0.82153646761E+01 0.94601553969E+01 0.11246596013E+02 0.13648092598E+02
 0.16750847247E+02 0.20645470665E+02 0.25396115573E+02 0.30983525454E+02 0.37233644893E+02
 0.43762720799E+02 0.49978488465E+02 0.55161296627E+02 0.58612771166E+02 0.59825146467E+02
 0.58612771166E+02 0.55161296627E+02 0.49978488465E+02 0.43762720799E+02 0.37233644893E+02
 0.30983525454E+02 0.25396115573E+02 0.20645470665E+02 0.16750847247E+02 0.13648092598E+02
 0.11246596013E+02 0.94601553969E+01 0.82153646761E+01 0.74476360264E+01 0.70946714495E+01
 0.70927211973E+01 0.73754485459E+01 0.78727117801E+01 0.85084520152E+01 0.91998420584E+01
 0.98601410020E+01 0.10405629547E+02 0.10765243018E+02 0.73743987955E+01 0.73107845049E+01
 0.71314053606E+01 0.68679832736E+01 0.65666909867E+01 0.62828629270E+01 0.60774678090E+01
 0.60151653922E+01 0.61645808395E+01 0.66005459946E+01 0.74055659907E+01 0.86692539255E+01
 0.10490115758E+02 0.12985309316E+02 0.16306024509E+02 0.20645470665E+02 0.26221074552E+02
 0.33213761368E+02 0.41658355073E+02 0.51308278267E+02 0.61537158791E+02 0.71380179112E+02
 0.79755231234E+02 0.85454649859E+02 0.87482436057E+02 0.85454649859E+02 0.79755231234E+02
 0.71380179112E+02 0.61537158791E+02 0.51308278267E+02 0.41658355073E+02 0.33213761368E+02
 0.26221074552E+02 0.20645470665E+02 0.16306024509E+02 0.12985309316E+02 0.10490115758E+02
 0.86692539255E+01 0.74055659907E+01 0.66005459946E+01 0.61645808395E+01 0.60151653922E+01
 0.60774678090E+01 0.62828629270E+01 0.65666909867E+01 0.68679832736E+01 0.71314053606E+01
 0.73107845049E+01 0.51877265487E+01 0.51625207956E+01 0.50951545710E+01 0.50076814466E+01
 0.49314886503E+01 0.49060396993E+01 0.49800821766E+01 0.52125444199E+01 0.56740798902E+01
 0.64503103483E+01 0.76436994954E+01 0.93736799523E+01 0.11783880764E+02 0.15064713536E+02
 0.19483307795E+02 0.25396115573E+02 0.33213761368E+02 0.43289557825E+02 0.55721609027E+02
 0.70131344766E+02 0.85866837388E+02 0.10174152867E+03 0.11565827977E+03 0.12524599293E+03
 0.12867033282E+03 0.12524599293E+03 0.11565827977E+03 0.10174152867E+03 0.85866837388E+02
 0.70131344766E+02 0.55721609027E+02 0.43289557825E+02 0.33213761368E+02 0.25396115573E+02
 0.19483307795E+02 0.15064713536E+02 0.11783880764E+02 0.93736799523E+01 0.76436994954E+01
 0.64503103483E+01 0.56740798902E+01 0.52125444199E+01 0.49800821766E+01 0.49060396993E+01
 0.49314886503E+01 0.50076814466E+01 0.50951545710E+01 0.51625207956E+01 0.38504349494E+01
 0.38484000316E+01 0.38490680179E+01 0.38695196921E+01 0.39331171459E+01 0.40716326937E+01
 0.43302646977E+01 0.47698052558E+01 0.54682720827E+01 0.65254005076E+01 0.80664846183E+01
 0.10246116739E+02 0.13265946670E+02 0.17416722655E+02 0.23127787857E+02 0.30983525454E+02
 0.41658355073E+02 0.55721609027E+02 0.73342746376E+02 0.94669290599E+02 0.11907336628E+03
 0.14407945952E+03 0.16596213937E+03 0.18092842282E+03 0.18624480742E+03 0.18092842282E+03
 0.16596213937E+03 0.14407945952E+03 0.11907336628E+03 0.94669290599E+02 0.73342746376E+02
 0.55721609027E+02 0.41658355073E+02 0.30983525454E+02 0.23127787857E+02 0.17416722655E+02
 0.13265946670E+02 0.10246116739E+02 0.80664846183E+01 0.65254005076E+01 0.54682720827E+01
 0.47698052558E+01 0.43302646977E+01 0.40716326937E+01 0.39331171459E+01 0.38695196921E+01
 0.38490680179E+01 0.38484000316E+01 0.30392559415E+01 0.30511053251E+01 0.30930480356E+01
 0.31800975197E+01 0.33316427260E+01 0.35765684129E+01 0.39614957869E+01 0.45531616649E+01
 0.54394528638E+01 0.67356774926E+01 0.85920676395E+01 0.11204053055E+02 0.14845129506E+02
 0.19933784462E+02 0.27106201506E+02 0.37233644893E+02 0.51308278267E+02 0.70131344766E+02
 0.94669290599E+02 0.12571003757E+03 0.16151226237E+03 0.19774168825E+03 0.22881583466E+03
 0.24967164743E+03 0.25699719395E+03 0.24967164743E+03 0.22881583466E+03 0.19774168825E+03
 0.16151226237E+03 0.12571003757E+03 0.94669290599E+02 0.70131344766E+02 0.51308278267E+02
 0.37233644893E+02 0.27106201506E+02 0.19933784462E+02 0.14845129506E+02 0.11204053055E+02
 0.85920676395E+01 0.67356774926E+01 0.54394528638E+01 0.45531616649E+01 0.39614957869E+01
 0.35765684129E+01 0.33316427260E+01 0.31800975197E+01 0.30930480356E+01 0.30511053251E+01
 0.25518926348E+01 0.25721001271E+01 0.26393562435E+01 0.27682284359E+01 0.29763524407E+01
 0.32922455757E+01 0.37663504941E+01 0.44729904675E+01 0.55104916809E+01 0.70097499871E+01
 0.91467884324E+01 0.12161834223E+02 0.16410352426E+02 0.22457966712E+02 0.31177738552E+02
 0.43762720799E+02 0.61537158791E+02 0.85866837388E+02 0.11907336628E+03 0.16151226237E+03
 0.20973179915E+03 0.25721238252E+03 0.29668705015E+03 0.32246144547E+03 0.33136742119E+03
 0.32246144547E+03 0.29668705015E+03 0.25721238252E+03 0.20973179915E+03 0.16151226237E+03
 0.11907336628E+03 0.85866837388E+02 0.61537158791E+02 0.43762720799E+02 0.31177738552E+02
 0.22457966712E+02 0.16410352426E+02 0.12161834223E+02 0.91467884324E+01 0.70097499871E+01
 0.55104916809E+01 0.44729904675E+01 0.37663504941E+01 0.32922455757E+01 0.29763524407E+01
 0.27682284359E+01 0.26393562435E+01 0.25721001271E+01 0.22656816003E+01 0.22909124020E+01
 0.23737498216E+01 0.25290942220E+01 0.27739451150E+01 0.31375561107E+01 0.36748583352E+01
 0.44677047095E+01 0.56240378504E+01 0.72889984422E+01 0.96631846988E+01 0.13031473741E+02
 0.17832849019E+02 0.24783105426E+02 0.34995008103E+02 0.49978488465E+02 0.71380179112E+02
 0.10174152867E+03 0.14407945952E+03 0.19774168825E+03 0.25721238252E+03 0.31379337186E+03
 0.35905658820E+03 0.38758583309E+03 0.39723063555E+03 0.38758583309E+03 0.35905658820E+03
 0.31379337186E+03 0.25721238252E+03 0.19774168825E+03 0.14407945952E+03 0.10174152867E+03
 0.71380179112E+02 0.49978488465E+02 0.34995008103E+02 0.24783105426E+02 0.17832849019E+02
 0.13031473741E+02 0.96631846988E+01 0.72889984422E+01 0.56240378504E+01 0.44677047095E+01
 0.36748583352E+01 0.31375561107E+01 0.27739451150E+01 0.25290942220E+01 0.23737498216E+01
 0.22909124020E+01 0.21059196908E+01 0.21340659330E+01 0.22261904049E+01 0.23977734962E+01
 0.26656848576E+01 0.30601832054E+01 0.36401891391E+01 0.44938093856E+01 0.57367006176E+01
 0.75255235123E+01 0.10081488645E+02 0.13728086696E+02 0.18977391719E+02 0.26676469158E+02
 0.38145699531E+02 0.55161296627E+02 0.79755231234E+02 0.11565827977E+03 0.16596213937E+03
 0.22881583466E+03 0.29668705015E+03 0.35905658820E+03 0.40695754302E+03 0.43596689265E+03
 0.44552018864E+03 0.43596689265E+03 0.40695754302E+03 0.35905658820E+03 0.29668705015E+03
 0.22881583466E+03 0.16596213937E+03 0.11565827977E+03 0.79755231234E+02 0.55161296627E+02
 0.38145699531E+02 0.26676469158E+02 0.18977391719E+02 0.13728086696E+02 0.10081488645E+02
 0.75255235123E+01 0.57367006176E+01 0.44938093856E+01 0.36401891391E+01 0.30601832054E+01
 0.26656848576E+01 0.23977734962E+01 0.22261904049E+01 0.21340659330E+01 0.20269613224E+01
 0.20566061299E+01 0.21536248849E+01 0.23339854926E+01 0.26146014332E+01 0.30265169513E+01
 0.36313607888E+01 0.45213498582E+01 0.58171250661E+01 0.76828692455E+01 0.10353603825E+02
 0.14179180997E+02 0.19721882865E+02 0.27918797630E+02 0.40231566329E+02 0.58612771166E+02
 0.85454649859E+02 0.12524599293E+03 0.18092842282E+03 0.24967164743E+03 0.32246144547E+03
 0.38758583309E+03 0.43596689265E+03 0.46425955332E+03 0.47335201962E+03 0.46425955332E+03
 0.43596689265E+03 0.38758583309E+03 0.32246144547E+03 0.24967164743E+03 0.18092842282E+03
 0.12524599293E+03 0.85454649859E+02 0.58612771166E+02 0.40231566329E+02 0.27918797630E+02
 0.19721882865E+02 0.14179180997E+02 0.10353603825E+02 0.76828692455E+01 0.58171250661E+01
 0.45213498582E+01 0.36313607888E+01 0.30265169513E+01 0.26146014332E+01 0.23339854926E+01
 0.21536248849E+01 0.20566061299E+01 0.20033943465E+01 0.20334972043E+01 0.21320361489E+01
 0.23151661515E+01 0.25998360346E+01 0.30173825117E+01 0.36303903923E+01 0.45325074663E+01
 0.58460972066E+01 0.77379593007E+01 0.10447983926E+02 0.14335399747E+02 0.19980394992E+02
 0.28352128766E+02 0.40962336007E+02 0.59825146467E+02 0.87482436057E+02 0.12867033282E+03
 0.18624480742E+03 0.25699719395E+03 0.33136742119E+03 0.39723063555E+03 0.44552018864E+03
 0.47335201962E+03 0.48220228991E+03 0.47335201962E+03 0.44552018864E+03 0.39723063555E+03
 0.33136742119E+03 0.25699719395E+03 0.18624480742E+03 0.12867033282E+03 0.87482436057E+02
 0.59825146467E+02 0.40962336007E+02 0.28352128766E+02 0.19980394992E+02 0.14335399747E+02
 0.10447983926E+02 0.77379593007E+01 0.58460972066E+01 0.45325074663E+01 0.36303903923E+01
 0.30173825117E+01 0.25998360346E+01 0.23151661515E+01 0.21320361489E+01 0.20334972043E+01
 0.20269613224E+01 0.20566061299E+01 0.21536248849E+01 0.23339854926E+01 0.26146014332E+01
 0.30265169513E+01 0.36313607888E+01 0.45213498582E+01 0.58171250661E+01 0.76828692455E+01
 0.10353603825E+02 0.14179180997E+02 0.19721882865E+02 0.27918797630E+02 0.40231566329E+02
 0.58612771166E+02 0.85454649859E+02 0.12524599293E+03 0.18092842282E+03 0.24967164743E+03
 0.32246144547E+03 0.38758583309E+03 0.43596689265E+03 0.46425955332E+03 0.47335201962E+03
 0.46425955332E+03 0.43596689265E+03 0.38758583309E+03 0.32246144547E+03 0.24967164743E+03
 0.18092842282E+03 0.12524599293E+03 0.85454649859E+02 0.58612771166E+02 0.40231566329E+02
 0.27918797630E+02 0.19721882865E+02 0.14179180997E+02 0.10353603825E+02 0.76828692455E+01
 0.58171250661E+01 0.45213498582E+01 0.36313607888E+01 0.30265169513E+01 0.26146014332E+01
 0.23339854926E+01 0.21536248849E+01 0.20566061299E+01 0.21059196908E+01 0.21340659330E+01
 0.22261904049E+01 0.23977734962E+01 0.26656848576E+01 0.30601832054E+01 0.36401891391E+01
 0.44938093856E+01 0.57367006176E+01 0.75255235123E+01 0.10081488645E+02 0.13728086696E+02
 0.18977391719E+02 0.26676469158E+02 0.38145699531E+02 0.55161296627E+02 0.79755231234E+02
 0.11565827977E+03 0.16596213937E+03 0.22881583466E+03 0.29668705015E+03 0.35905658820E+03
 0.40695754302E+03 0.43596689265E+03 0.44552018864E+03 0.43596689265E+03 0.40695754302E+03
 0.35905658820E+03 0.29668705015E+03 0.22881583466E+03 0.16596213937E+03 0.11565827977E+03
 0.79755231234E+02 0.55161296627E+02 0.38145699531E+02 0.26676469158E+02 0.18977391719E+02
 0.13728086696E+02 0.10081488645E+02 0.75255235123E+01 0.57367006176E+01 0.44938093856E+01
 0.36401891391E+01 0.30601832054E+01 0.26656848576E+01 0.23977734962E+01 0.22261904049E+01
 0.21340659330E+01 0.22656816003E+01 0.22909124020E+01 0.23737498216E+01 0.25290942220E+01
 0.27739451150E+01 0.31375561107E+01 0.36748583352E+01 0.44677047095E+01 0.56240378504E+01
 0.72889984422E+01 0.96631846988E+01 0.13031473741E+02 0.17832849019E+02 0.24783105426E+02
 0.34995008103E+02 0.49978488465E+02 0.71380179112E+02 0.10174152867E+03 0.14407945952E+03
 0.19774168825E+03 0.25721238252E+03 0.31379337186E+03 0.35905658820E+03 0.38758583309E+03
 0.39723063555E+03 0.38758583309E+03 0.35905658820E+03 0.31379337186E+03 0.25721238252E+03
 0.19774168825E+03 0.14407945952E+03 0.10174152867E+03 0.71380179112E+02 0.49978488465E+02
 0.34995008103E+02 0.24783105426E+02 0.17832849019E+02 0.13031473741E+02 0.96631846988E+01
 0.72889984422E+01 0.56240378504E+01 0.44677047095E+01 0.36748583352E+01 0.31375561107E+01
 0.27739451150E+01 0.25290942220E+01 0.23737498216E+01 0.22909124020E+01 0.25518926348E+01
 0.25721001271E+01 0.26393562435E+01 0.27682284359E+01 0.29763524407E+01 0.32922455757E+01
 0.37663504941E+01 0.44729904675E+01 0.55104916809E+01 0.70097499871E+01 0.91467884324E+01
 0.12161834223E+02 0.16410352426E+02 0.22457966712E+02 0.31177738552E+02 0.43762720799E+02
 0.61537158791E+02 0.85866837388E+02 0.11907336628E+03 0.16151226237E+03 0.20973179915E+03
 0.25721238252E+03 0.29668705015E+03 0.32246144547E+03 0.33136742119E+03 0.32246144547E+03
 0.29668705015E+03 0.25721238252E+03 0.20973179915E+03 0.16151226237E+03 0.11907336628E+03
 0.85866837388E+02 0.61537158791E+02 0.43762720799E+02 0.31177738552E+02 0.22457966712E+02
 0.16410352426E+02 0.12161834223E+02 0.91467884324E+01 0.70097499871E+01 0.55104916809E+01
 0.44729904675E+01 0.37663504941E+01 0.32922455757E+01 0.29763524407E+01 0.27682284359E+01
 0.26393562435E+01 0.25721001271E+01 0.30392559415E+01 0.30511053251E+01 0.30930480356E+01
 0.31800975197E+01 0.33316427260E+01 0.35765684129E+01 0.39614957869E+01 0.45531616649E+01
 0.54394528638E+01 0.67356774926E+01 0.85920676395E+01 0.11204053055E+02 0.14845129506E+02
 0.19933784462E+02 0.27106201506E+02 0.37233644893E+02 0.51308278267E+02 0.70131344766E+02
 0.94669290599E+02 0.12571003757E+03 0.16151226237E+03 0.19774168825E+03 0.22881583466E+03
 0.24967164743E+03 0.25699719395E+03 0.24967164743E+03 0.22881583466E+03 0.19774168825E+03
 0.16151226237E+03 0.12571003757E+03 0.94669290599E+02 0.70131344766E+02 0.51308278267E+02
 0.37233644893E+02 0.27106201506E+02 0.19933784462E+02 0.14845129506E+02 0.11204053055E+02
 0.85920676395E+01 0.67356774926E+01 0.54394528638E+01 0.45531616649E+01 0.39614957869E+01
 0.35765684129E+01 0.33316427260E+01 0.31800975197E+01 0.30930480356E+01 0.30511053251E+01
 0.38504349494E+01 0.38484000316E+01 0.38490680179E+01 0.38695196921E+01 0.39331171459E+01
 0.40716326937E+01 0.43302646977E+01 0.47698052558E+01 0.54682720827E+01 0.65254005076E+01
 0.80664846183E+01 0.10246116739E+02 0.13265946670E+02 0.17416722655E+02 0.23127787857E+02
 0.30983525454E+02 0.41658355073E+02 0.55721609027E+02 0.73342746376E+02 0.94669290599E+02
 0.11907336628E+03 0.14407945952E+03 0.16596213937E+03 0.18092842282E+03 0.18624480742E+03
 0.18092842282E+03 0.16596213937E+03 0.14407945952E+03 0.11907336628E+03 0.94669290599E+02
 0.73342746376E+02 0.55721609027E+02 0.41658355073E+02 0.30983525454E+02 0.23127787857E+02
 0.17416722655E+02 0.13265946670E+02 0.10246116739E+02 0.80664846183E+01 0.65254005076E+01
 0.54682720827E+01 0.47698052558E+01 0.43302646977E+01 0.40716326937E+01 0.39331171459E+01
 0.38695196921E+01 0.38490680179E+01 0.38484000316E+01 0.51877265487E+01 0.51625207956E+01
 0.50951545710E+01 0.50076814466E+01 0.49314886503E+01 0.49060396993E+01 0.49800821766E+01
 0.52125444199E+01 0.56740798902E+01 0.64503103483E+01 0.76436994954E+01 0.93736799523E+01
 0.11783880764E+02 0.15064713536E+02 0.19483307795E+02 0.25396115573E+02 0.33213761368E+02
 0.43289557825E+02 0.55721609027E+02 0.70131344766E+02 0.85866837388E+02 0.10174152867E+03
 0.11565827977E+03 0.12524599293E+03 0.12867033282E+03 0.12524599293E+03 0.11565827977E+03
 0.10174152867E+03 0.85866837388E+02 0.70131344766E+02 0.55721609027E+02 0.43289557825E+02
 0.33213761368E+02 0.25396115573E+02 0.19483307795E+02 0.15064713536E+02 0.11783880764E+02
 0.93736799523E+01 0.76436994954E+01 0.64503103483E+01 0.56740798902E+01 0.52125444199E+01
 0.49800821766E+01 0.49060396993E+01 0.49314886503E+01 0.50076814466E+01 0.50951545710E+01
 0.51625207956E+01 0.73743987955E+01 0.73107845049E+01 0.71314053606E+01 0.68679832736E+01
 0.65666909867E+01 0.62828629270E+01 0.60774678090E+01 0.60151653922E+01 0.61645808395E+01
 0.66005459946E+01 0.74055659907E+01 0.86692539255E+01 0.10490115758E+02 0.12985309316E+02
 0.16306024509E+02 0.20645470665E+02 0.26221074552E+02 0.33213761368E+02 0.41658355073E+02
 0.51308278267E+02 0.61537158791E+02 0.71380179112E+02 0.79755231234E+02 0.85454649859E+02
 0.87482436057E+02 0.85454649859E+02 0.79755231234E+02 0.71380179112E+02 0.61537158791E+02
 0.51308278267E+02 0.41658355073E+02 0.33213761368E+02 0.26221074552E+02 0.20645470665E+02
 0.16306024509E+02 0.12985309316E+02 0.10490115758E+02 0.86692539255E+01 0.74055659907E+01
 0.66005459946E+01 0.61645808395E+01 0.60151653922E+01 0.60774678090E+01 0.62828629270E+01
 0.65666909867E+01 0.68679832736E+01 0.71314053606E+01 0.73107845049E+01 0.10890817363E+02
 0.10765243018E+02 0.10405629547E+02 0.98601410020E+01 0.91998420584E+01 0.85084520152E+01
 0.78727117801E+01 0.73754485459E+01 0.70927211973E+01 0.70946714495E+01 0.74476360264E+01
 0.82153646761E+01 0.94601553969E+01 0.11246596013E+02 0.13648092598E+02 0.16750847247E+02
 0.20645470665E+02 0.25396115573E+02 0.30983525454E+02 0.37233644893E+02 0.43762720799E+02
 0.49978488465E+02 0.55161296627E+02 0.58612771166E+02 0.59825146467E+02 0.58612771166E+02
 0.55161296627E+02 0.49978488465E+02 0.43762720799E+02 0.37233644893E+02 0.30983525454E+02
 0.25396115573E+02 0.20645470665E+02 0.16750847247E+02 0.13648092598E+02 0.11246596013E+02
 0.94601553969E+01 0.82153646761E+01 0.74476360264E+01 0.70946714495E+01 0.70927211973E+01