   5   5   0   0
  0.1191194E+02  0.3905268E-09  0.3905268E-09  0.3905268E-09  0.5000000E-15
  1.000000000000000E-004
  CAR 
 unknown system                          
     12.96950258    -32.12960563  301      2.63429028      1.00000000
    -32.130  0.0000E+00  0.0000E+00
    -31.979  0.0000E+00  0.0000E+00
    -31.829  0.0000E+00  0.0000E+00
    -31.679  0.0000E+00  0.0000E+00
    -31.528  0.0000E+00  0.0000E+00
    -31.378  0.0000E+00  0.0000E+00
    -31.228  0.0000E+00  0.0000E+00
    -31.077  0.0000E+00  0.0000E+00
    -30.927  0.0000E+00  0.0000E+00
    -30.777  0.0000E+00  0.0000E+00
    -30.626  0.0000E+00  0.0000E+00
    -30.476  0.0000E+00  0.0000E+00
    -30.326  0.0000E+00  0.0000E+00
    -30.175  0.0000E+00  0.0000E+00
    -30.025  0.7871E+01  0.1981E+01
    -29.875  0.0000E+00  0.2000E+01
    -29.724  0.0000E+00  0.2000E+01
    -29.574  0.0000E+00  0.2000E+01
    -29.424  0.0000E+00  0.2000E+01
    -29.273  0.0000E+00  0.2000E+01
    -29.123  0.0000E+00  0.2000E+01
    -28.973  0.0000E+00  0.2000E+01
    -28.822  0.0000E+00  0.2000E+01
    -28.672  0.0000E+00  0.2000E+01
    -28.522  0.0000E+00  0.2000E+01
    -28.371  0.0000E+00  0.2000E+01
    -28.221  0.0000E+00  0.2000E+01
    -28.071  0.0000E+00  0.2000E+01
    -27.920  0.0000E+00  0.2000E+01
    -27.770  0.0000E+00  0.2000E+01
    -27.620  0.0000E+00  0.2000E+01
    -27.469  0.0000E+00  0.2000E+01
    -27.319  0.0000E+00  0.2000E+01
    -27.169  0.0000E+00  0.2000E+01
    -27.018  0.0000E+00  0.2000E+01
    -26.868  0.0000E+00  0.2000E+01
    -26.718  0.0000E+00  0.2000E+01
    -26.567  0.0000E+00  0.2000E+01
    -26.417  0.0000E+00  0.2000E+01
    -26.267  0.0000E+00  0.2000E+01
    -26.116  0.0000E+00  0.2000E+01
    -25.966  0.0000E+00  0.2000E+01
    -25.816  0.0000E+00  0.2000E+01
    -25.665  0.0000E+00  0.2000E+01
    -25.515  0.0000E+00  0.2000E+01
    -25.365  0.0000E+00  0.2000E+01
    -25.214  0.0000E+00  0.2000E+01
    -25.064  0.0000E+00  0.2000E+01
    -24.914  0.0000E+00  0.2000E+01
    -24.763  0.0000E+00  0.2000E+01
    -24.613  0.0000E+00  0.2000E+01
    -24.463  0.0000E+00  0.2000E+01
    -24.312  0.0000E+00  0.2000E+01
    -24.162  0.0000E+00  0.2000E+01
    -24.012  0.0000E+00  0.2000E+01
    -23.861  0.0000E+00  0.2000E+01
    -23.711  0.0000E+00  0.2000E+01
    -23.561  0.0000E+00  0.2000E+01
    -23.410  0.0000E+00  0.2000E+01
    -23.260  0.0000E+00  0.2000E+01
    -23.110  0.0000E+00  0.2000E+01
    -22.959  0.0000E+00  0.2000E+01
    -22.809  0.0000E+00  0.2000E+01
    -22.659  0.0000E+00  0.2000E+01
    -22.508  0.0000E+00  0.2000E+01
    -22.358  0.0000E+00  0.2000E+01
    -22.208  0.0000E+00  0.2000E+01
    -22.057  0.0000E+00  0.2000E+01
    -21.907  0.0000E+00  0.2000E+01
    -21.757  0.0000E+00  0.2000E+01
    -21.606  0.0000E+00  0.2000E+01
    -21.456  0.0000E+00  0.2000E+01
    -21.306  0.0000E+00  0.2000E+01
    -21.155  0.0000E+00  0.2000E+01
    -21.005  0.0000E+00  0.2000E+01
    -20.855  0.0000E+00  0.2000E+01
    -20.704  0.0000E+00  0.2000E+01
    -20.554  0.0000E+00  0.2000E+01
    -20.404  0.0000E+00  0.2000E+01
    -20.254  0.0000E+00  0.2000E+01
    -20.103  0.0000E+00  0.2000E+01
    -19.953  0.0000E+00  0.2000E+01
    -19.803  0.0000E+00  0.2000E+01
    -19.652  0.0000E+00  0.2000E+01
    -19.502  0.0000E+00  0.2000E+01
    -19.352  0.0000E+00  0.2000E+01
    -19.201  0.0000E+00  0.2000E+01
    -19.051  0.0000E+00  0.2000E+01
    -18.901  0.0000E+00  0.2000E+01
    -18.750  0.0000E+00  0.2000E+01
    -18.600  0.0000E+00  0.2000E+01
    -18.450  0.0000E+00  0.2000E+01
    -18.299  0.0000E+00  0.2000E+01
    -18.149  0.0000E+00  0.2000E+01
    -17.999  0.0000E+00  0.2000E+01
    -17.848  0.0000E+00  0.2000E+01
    -17.698  0.0000E+00  0.2000E+01
    -17.548  0.0000E+00  0.2000E+01
    -17.397  0.0000E+00  0.2000E+01
    -17.247  0.0000E+00  0.2000E+01
    -17.097  0.0000E+00  0.2000E+01
    -16.946  0.0000E+00  0.2000E+01
    -16.796  0.0000E+00  0.2000E+01
    -16.646  0.0000E+00  0.2000E+01
    -16.495  0.0000E+00  0.2000E+01
    -16.345  0.0000E+00  0.2000E+01
    -16.195  0.0000E+00  0.2000E+01
    -16.044  0.0000E+00  0.2000E+01
    -15.894  0.0000E+00  0.2000E+01
    -15.744  0.0000E+00  0.2000E+01
    -15.593  0.0000E+00  0.2000E+01
    -15.443  0.0000E+00  0.2000E+01
    -15.293  0.0000E+00  0.2000E+01
    -15.142  0.0000E+00  0.2000E+01
    -14.992  0.6664E-01  0.2001E+01
    -14.842  0.3421E+01  0.2149E+01
    -14.691  0.4085E+01  0.2788E+01
    -14.541  0.2397E+01  0.3264E+01
    -14.391  0.1533E+01  0.3545E+01
    -14.240  0.1117E+01  0.3745E+01
    -14.090  0.6583E+00  0.3878E+01
    -13.940  0.3913E+01  0.4068E+01
    -13.789  0.1425E+02  0.6380E+01
    -13.639  0.6262E+00  0.7990E+01
    -13.489  0.0000E+00  0.8000E+01
    -13.338  0.0000E+00  0.8000E+01
    -13.188  0.0000E+00  0.8000E+01
    -13.038  0.0000E+00  0.8000E+01
    -12.887  0.0000E+00  0.8000E+01
    -12.737  0.0000E+00  0.8000E+01
    -12.587  0.0000E+00  0.8000E+01
    -12.436  0.0000E+00  0.8000E+01
    -12.286  0.9827E+00  0.8039E+01
    -12.136  0.9811E+01  0.8791E+01
    -11.985  0.1015E+02  0.1087E+02
    -11.835  0.7013E+01  0.1250E+02
    -11.685  0.3385E+01  0.1387E+02
    -11.534  0.0000E+00  0.1400E+02
    -11.384  0.0000E+00  0.1400E+02
    -11.234  0.0000E+00  0.1400E+02
    -11.083  0.0000E+00  0.1400E+02
    -10.933  0.0000E+00  0.1400E+02
    -10.783  0.0000E+00  0.1400E+02
    -10.632  0.0000E+00  0.1400E+02
    -10.482  0.0000E+00  0.1400E+02
    -10.332  0.0000E+00  0.1400E+02
    -10.181  0.0000E+00  0.1400E+02
    -10.031  0.0000E+00  0.1400E+02
     -9.881  0.0000E+00  0.1400E+02
     -9.730  0.0000E+00  0.1400E+02
     -9.580  0.0000E+00  0.1400E+02
     -9.430  0.0000E+00  0.1400E+02
     -9.279  0.0000E+00  0.1400E+02
     -9.129  0.0000E+00  0.1400E+02
     -8.979  0.0000E+00  0.1400E+02
     -8.828  0.0000E+00  0.1400E+02
     -8.678  0.0000E+00  0.1400E+02
     -8.528  0.0000E+00  0.1400E+02
     -8.377  0.0000E+00  0.1400E+02
     -8.227  0.0000E+00  0.1400E+02
     -8.077  0.0000E+00  0.1400E+02
     -7.926  0.0000E+00  0.1400E+02
     -7.776  0.0000E+00  0.1400E+02
     -7.626  0.0000E+00  0.1400E+02
     -7.475  0.0000E+00  0.1400E+02
     -7.325  0.0000E+00  0.1400E+02
     -7.175  0.0000E+00  0.1400E+02
     -7.024  0.0000E+00  0.1400E+02
     -6.874  0.0000E+00  0.1400E+02
     -6.724  0.0000E+00  0.1400E+02
     -6.573  0.0000E+00  0.1400E+02
     -6.423  0.0000E+00  0.1400E+02
     -6.273  0.0000E+00  0.1400E+02
     -6.122  0.0000E+00  0.1400E+02
     -5.972  0.0000E+00  0.1400E+02
     -5.822  0.0000E+00  0.1400E+02
     -5.671  0.0000E+00  0.1400E+02
     -5.521  0.0000E+00  0.1400E+02
     -5.371  0.0000E+00  0.1400E+02
     -5.220  0.0000E+00  0.1400E+02
     -5.070  0.0000E+00  0.1400E+02
     -4.920  0.0000E+00  0.1400E+02
     -4.769  0.0000E+00  0.1400E+02
     -4.619  0.0000E+00  0.1400E+02
     -4.469  0.0000E+00  0.1400E+02
     -4.318  0.0000E+00  0.1400E+02
     -4.168  0.0000E+00  0.1400E+02
     -4.018  0.0000E+00  0.1400E+02
     -3.867  0.0000E+00  0.1400E+02
     -3.717  0.0000E+00  0.1400E+02
     -3.567  0.0000E+00  0.1400E+02
     -3.417  0.0000E+00  0.1400E+02
     -3.266  0.0000E+00  0.1400E+02
     -3.116  0.0000E+00  0.1400E+02
     -2.966  0.0000E+00  0.1400E+02
     -2.815  0.0000E+00  0.1400E+02
     -2.665  0.0000E+00  0.1400E+02
     -2.515  0.0000E+00  0.1400E+02
     -2.364  0.0000E+00  0.1400E+02
     -2.214  0.0000E+00  0.1400E+02
     -2.064  0.0000E+00  0.1400E+02
     -1.913  0.1099E+01  0.1404E+02
     -1.763  0.3789E+01  0.1444E+02
     -1.613  0.3469E+01  0.1500E+02
     -1.462  0.4379E+01  0.1561E+02
     -1.312  0.4411E+01  0.1629E+02
     -1.162  0.4021E+01  0.1691E+02
     -1.011  0.3728E+01  0.1749E+02
     -0.861  0.4770E+01  0.1808E+02
     -0.711  0.6309E+01  0.1900E+02
     -0.560  0.6406E+01  0.1995E+02
     -0.410  0.6942E+01  0.2095E+02
     -0.260  0.9738E+01  0.2208E+02
     -0.109  0.3758E+01  0.2279E+02
      0.041  0.3429E+01  0.2331E+02
      0.191  0.3308E+01  0.2382E+02
      0.342  0.2955E+01  0.2430E+02
      0.492  0.2771E+01  0.2472E+02
      0.642  0.2670E+01  0.2513E+02
      0.793  0.2393E+01  0.2553E+02
      0.943  0.1874E+01  0.2582E+02
      1.093  0.1728E+01  0.2609E+02
      1.244  0.4004E+01  0.2652E+02
      1.394  0.4305E+01  0.2713E+02
      1.544  0.5151E+01  0.2784E+02
      1.695  0.5212E+01  0.2863E+02
      1.845  0.4234E+01  0.2938E+02
      1.995  0.1104E+02  0.3037E+02
      2.146  0.3050E+01  0.3134E+02
      2.296  0.1788E+01  0.3169E+02
      2.446  0.1027E+01  0.3190E+02
      2.597  0.1800E+00  0.3200E+02
      2.747  0.0000E+00  0.3200E+02
      2.897  0.0000E+00  0.3200E+02
      3.048  0.0000E+00  0.3200E+02
      3.198  0.0000E+00  0.3200E+02
      3.348  0.0000E+00  0.3200E+02
      3.499  0.0000E+00  0.3200E+02
      3.649  0.0000E+00  0.3200E+02
      3.799  0.0000E+00  0.3200E+02
      3.950  0.0000E+00  0.3200E+02
      4.100  0.0000E+00  0.3200E+02
      4.250  0.0000E+00  0.3200E+02
      4.401  0.1699E+00  0.3200E+02
      4.551  0.3506E+00  0.3204E+02
      4.701  0.5567E+00  0.3211E+02
      4.852  0.7682E+00  0.3221E+02
      5.002  0.9850E+00  0.3234E+02
      5.152  0.1207E+01  0.3251E+02
      5.303  0.1435E+01  0.3271E+02
      5.453  0.3499E+01  0.3302E+02
      5.603  0.3388E+01  0.3351E+02
      5.754  0.3862E+01  0.3405E+02
      5.904  0.4258E+01  0.3466E+02
      6.054  0.4904E+01  0.3534E+02
      6.205  0.5607E+01  0.3613E+02
      6.355  0.4404E+01  0.3696E+02
      6.505  0.2382E+01  0.3751E+02
      6.656  0.9913E+00  0.3775E+02
      6.806  0.2060E+00  0.3782E+02
      6.956  0.1719E+00  0.3785E+02
      7.107  0.1527E+00  0.3787E+02
      7.257  0.1346E+00  0.3790E+02
      7.407  0.1177E+00  0.3792E+02
      7.558  0.1019E+00  0.3793E+02
      7.708  0.8728E-01  0.3795E+02
      7.858  0.7377E-01  0.3796E+02
      8.009  0.6139E-01  0.3797E+02
      8.159  0.5295E-01  0.3798E+02
      8.309  0.5350E-01  0.3798E+02
      8.460  0.6314E-01  0.3799E+02
      8.610  0.8188E-01  0.3800E+02
      8.760  0.1097E+00  0.3802E+02
      8.911  0.1466E+00  0.3804E+02
      9.061  0.2103E+00  0.3806E+02
      9.211  0.3214E+00  0.3810E+02
      9.362  0.4334E+00  0.3816E+02
      9.512  0.5461E+00  0.3823E+02
      9.662  0.6655E+00  0.3832E+02
      9.813  0.8881E+00  0.3844E+02
      9.963  0.1296E+01  0.3860E+02
     10.113  0.1729E+01  0.3883E+02
     10.264  0.1981E+01  0.3911E+02
     10.414  0.2021E+01  0.3942E+02
     10.564  0.1797E+01  0.3972E+02
     10.715  0.8738E+00  0.3992E+02
     10.865  0.1896E+00  0.3999E+02
     11.015  0.0000E+00  0.4000E+02
     11.166  0.0000E+00  0.4000E+02
     11.316  0.0000E+00  0.4000E+02
     11.466  0.0000E+00  0.4000E+02
     11.617  0.0000E+00  0.4000E+02
     11.767  0.0000E+00  0.4000E+02
     11.917  0.0000E+00  0.4000E+02
     12.068  0.0000E+00  0.4000E+02
     12.218  0.0000E+00  0.4000E+02
     12.368  0.0000E+00  0.4000E+02
     12.519  0.0000E+00  0.4000E+02
     12.669  0.0000E+00  0.4000E+02
     12.819  0.0000E+00  0.4000E+02
     12.970  0.0000E+00  0.4000E+02
