       N       E                     dE             d eps       ncg     rms          rms(c)
DAV:   1     0.305009439921E+03    0.30501E+03   -0.15615E+04   400   0.157E+03
DAV:   2    -0.174470755897E+02   -0.32246E+03   -0.30968E+03   500   0.364E+02
DAV:   3    -0.491361588568E+02   -0.31689E+02   -0.31312E+02   500   0.125E+02
DAV:   4    -0.502087323919E+02   -0.10726E+01   -0.10715E+01   660   0.219E+01
DAV:   5    -0.502274113578E+02   -0.18679E-01   -0.18667E-01   512   0.219E+00    0.183E+01
RMM:   6    -0.403780585687E+02    0.98494E+01   -0.58393E+01   434   0.439E+01    0.621E+00
RMM:   7    -0.397768991934E+02    0.60116E+00   -0.14383E+00   470   0.938E+00    0.321E+00
RMM:   8    -0.396900618814E+02    0.86837E-01   -0.88483E-01   469   0.739E+00    0.771E-01
RMM:   9    -0.396774745104E+02    0.12587E-01   -0.44847E-02   506   0.160E+00    0.583E-01
RMM:  10    -0.396732522053E+02    0.42223E-02   -0.12476E-01   471   0.202E+00    0.332E-01
RMM:  11    -0.396713352068E+02    0.19170E-02   -0.14009E-02   492   0.752E-01    0.617E-02
RMM:  12    -0.396717106033E+02   -0.37540E-03   -0.41667E-03   507   0.320E-01    0.912E-02
RMM:  13    -0.396716211120E+02    0.89491E-04   -0.15557E-03   469   0.202E-01    0.240E-02
RMM:  14    -0.396716760228E+02   -0.54911E-04   -0.67124E-04   486   0.105E-01    0.213E-02
RMM:  15    -0.396716778511E+02   -0.18284E-05   -0.15335E-04   381   0.550E-02    0.671E-03
RMM:  16    -0.396716821887E+02   -0.43376E-05   -0.50476E-05   317   0.331E-02
   1 F= -.39671682E+02 E0= -.39671682E+02  d E =0.000000E+00
