 vasp.5.4.4.18Apr17-6-g9f103f2a35 (build Jun 30 2017 11:15:00) complex          
  
 executed on    STALLO_VASP_5.4.4 date 2019.11.28  12:43:12
 running on    4 total cores
 distrk:  each k-point on    4 cores,    1 groups
 distr:  one band on NCORES_PER_BAND=   2 cores,    2 groups


--------------------------------------------------------------------------------------------------------


 INCAR:
 POTCAR:   PAW_PBE Sr_sv 07Sep2000                
 POTCAR:   PAW_PBE Ti 08Apr2002                   
 POTCAR:   PAW_PBE O 08Apr2002                    
 POTCAR:   PAW_PBE Sr_sv 07Sep2000                
   VRHFIN =Sr: 4s4p5s                                                           
   LEXCH  = PE                                                                  
   EATOM  =   842.4562 eV,   61.9188 Ry                                         
                                                                                
   TITEL  = PAW_PBE Sr_sv 07Sep2000                                             
   LULTRA =        F    use ultrasoft PP ?                                      
   IUNSCR =        1    unscreen: 0-lin 1-nonlin 2-no                           
   RPACOR =    2.200    partial core radius                                     
   POMASS =   87.620; ZVAL   =   10.000    mass and valenz                      
   RCORE  =    2.500    outmost cutoff radius                                   
   RWIGS  =    4.040; RWIGS  =    2.138    wigner-seitz radius (au A)           
   ENMAX  =  229.282; ENMIN  =  171.961 eV                                      
   RCLOC  =    2.201    cutoff for local pot                                    
   LCOR   =        T    correct aug charges                                     
   LPAW   =        T    paw PP                                                  
   EAUG   =  366.804                                                            
   DEXC   =     .000                                                            
   RMAX   =    3.045    core radius for proj-oper                               
   RAUG   =    1.300    factor for augmentation sphere                          
   RDEP   =    2.562    radius for radial grids                                 
   QCUT   =   -4.105; QGAM   =    8.210    optimization parameters              
                                                                                
   Description                                                                  
     l     E      TYP  RCUT    TYP  RCUT                                        
     0   .000     23  2.480                                                     
     0   .000     23  2.480                                                     
     1   .000     23  2.500                                                     
     1   .000     23  2.500                                                     
     2   .000     23  2.500                                                     
     2   .000     23  2.500                                                     
  local pseudopotential read in
  partial core-charges read in
  atomic valenz-charges read in
  non local Contribution for L=           0  read in
    real space projection operators read in
  non local Contribution for L=           0  read in
    real space projection operators read in
  non local Contribution for L=           1  read in
    real space projection operators read in
  non local Contribution for L=           1  read in
    real space projection operators read in
  non local Contribution for L=           2  read in
    real space projection operators read in
  non local Contribution for L=           2  read in
    real space projection operators read in
    PAW grid and wavefunctions read in
 
   number of l-projection  operators is LMAX  =           6
   number of lm-projection operators is LMMAX =          18
 
 POTCAR:   PAW_PBE Ti 08Apr2002                   
   VRHFIN =Ti: d3 s1                                                            
   LEXCH  = PE                                                                  
   EATOM  =    94.7929 eV,    6.9671 Ry                                         
                                                                                
   TITEL  = PAW_PBE Ti 08Apr2002                                                
   LULTRA =        F    use ultrasoft PP ?                                      
   IUNSCR =        1    unscreen: 0-lin 1-nonlin 2-no                           
   RPACOR =    2.200    partial core radius                                     
   POMASS =   47.880; ZVAL   =    4.000    mass and valenz                      
   RCORE  =    2.800    outmost cutoff radius                                   
   RWIGS  =    2.500; RWIGS  =    1.323    wigner-seitz radius (au A)           
   ENMAX  =  178.330; ENMIN  =  133.747 eV                                      
   RCLOC  =    2.215    cutoff for local pot                                    
   LCOR   =        T    correct aug charges                                     
   LPAW   =        T    paw PP                                                  
   EAUG   =  328.883                                                            
   DEXC   =    -.043                                                            
   RMAX   =    3.453    core radius for proj-oper                               
   RAUG   =    1.300    factor for augmentation sphere                          
   RDEP   =    2.885    radius for radial grids                                 
   QCUT   =   -3.620; QGAM   =    7.241    optimization parameters              
                                                                                
   Description                                                                  
     l     E      TYP  RCUT    TYP  RCUT                                        
     2   .000     23  2.800                                                     
     2   .000     23  2.800                                                     
     0   .000     23  2.800                                                     
     0  1.500     23  2.800                                                     
     1  -.400     23  2.800                                                     
     3   .000      7   .000                                                     
  local pseudopotential read in
  partial core-charges read in
  atomic valenz-charges read in
  non local Contribution for L=           2  read in
    real space projection operators read in
  non local Contribution for L=           2  read in
    real space projection operators read in
  non local Contribution for L=           0  read in
    real space projection operators read in
  non local Contribution for L=           0  read in
    real space projection operators read in
  non local Contribution for L=           1  read in
    real space projection operators read in
    PAW grid and wavefunctions read in
 
   number of l-projection  operators is LMAX  =           5
   number of lm-projection operators is LMMAX =          15
 
 POTCAR:   PAW_PBE O 08Apr2002                    
   VRHFIN =O: s2p4                                                              
   LEXCH  = PE                                                                  
   EATOM  =   432.3788 eV,   31.7789 Ry                                         
                                                                                
   TITEL  = PAW_PBE O 08Apr2002                                                 
   LULTRA =        F    use ultrasoft PP ?                                      
   IUNSCR =        0    unscreen: 0-lin 1-nonlin 2-no                           
   RPACOR =     .000    partial core radius                                     
   POMASS =   16.000; ZVAL   =    6.000    mass and valenz                      
   RCORE  =    1.520    outmost cutoff radius                                   
   RWIGS  =    1.550; RWIGS  =     .820    wigner-seitz radius (au A)           
   ENMAX  =  400.000; ENMIN  =  300.000 eV                                      
   ICORE  =        2    local potential                                         
   LCOR   =        T    correct aug charges                                     
   LPAW   =        T    paw PP                                                  
   EAUG   =  605.392                                                            
   DEXC   =     .000                                                            
   RMAX   =    2.264    core radius for proj-oper                               
   RAUG   =    1.300    factor for augmentation sphere                          
   RDEP   =    1.550    radius for radial grids                                 
   QCUT   =   -5.520; QGAM   =   11.041    optimization parameters              
                                                                                
   Description                                                                  
     l     E      TYP  RCUT    TYP  RCUT                                        
     0   .000     23  1.200                                                     
     0  -.700     23  1.200                                                     
     1   .000     23  1.520                                                     
     1   .600     23  1.520                                                     
     2   .000      7  1.500                                                     
  local pseudopotential read in
  atomic valenz-charges read in
  non local Contribution for L=           0  read in
    real space projection operators read in
  non local Contribution for L=           0  read in
    real space projection operators read in
  non local Contribution for L=           1  read in
    real space projection operators read in
  non local Contribution for L=           1  read in
    real space projection operators read in
    PAW grid and wavefunctions read in
 
   number of l-projection  operators is LMAX  =           4
   number of lm-projection operators is LMMAX =           8
 
 PAW_PBE Sr_sv 07Sep2000                :
 energy of atom  1       EATOM= -842.4562
 kinetic energy error for atom=    0.0012 (will be added to EATOM!!)
 PAW_PBE Ti 08Apr2002                   :
 energy of atom  2       EATOM=  -94.7929
 kinetic energy error for atom=    0.0002 (will be added to EATOM!!)
 PAW_PBE O 08Apr2002                    :
 energy of atom  3       EATOM= -432.3788
 kinetic energy error for atom=    0.0224 (will be added to EATOM!!)
 
 
 POSCAR: ICSD_CollCode262269                     
  positions in direct lattice
  No initial velocities read in
 exchange correlation table for  LEXCH =        8
   RHO(1)=    0.500       N(1)  =     2000
   RHO(2)=  100.500       N(2)  =     4000
 


--------------------------------------------------------------------------------------------------------


 ion  position               nearest neighbor table
   1  0.000  0.000  0.000-   3 2.76   4 2.76   5 2.76   4 2.76   5 2.76   3 2.76   5 2.76   5 2.76
                             3 2.76   4 2.76   4 2.76   3 2.76   2 3.38   2 3.38   2 3.38   2 3.38
   2  0.500  0.500  0.500-   3 1.95   4 1.95   5 1.95   3 1.95   4 1.95   5 1.95   1 3.38   1 3.38
                             1 3.38   1 3.38   1 3.38   1 3.38   1 3.38   1 3.38
   3  0.500  0.500  0.000-   2 1.95   2 1.95   1 2.76   1 2.76   1 2.76   1 2.76
   4  0.500  0.000  0.500-   2 1.95   2 1.95   1 2.76   1 2.76   1 2.76   1 2.76
   5  0.000  0.500  0.500-   2 1.95   2 1.95   1 2.76   1 2.76   1 2.76   1 2.76
 
  LATTYP: Found a simple cubic cell.
 ALAT       =     3.9052680000
  
  Lattice vectors:
  
 A1 = (   3.9052680000,   0.0000000000,   0.0000000000)
 A2 = (   0.0000000000,   3.9052680000,   0.0000000000)
 A3 = (   0.0000000000,   0.0000000000,   3.9052680000)


Analysis of symmetry for initial positions (statically):
=====================================================================
 Subroutine PRICEL returns:
 Original cell was already a primitive cell.
 

 Routine SETGRP: Setting up the symmetry group for a 
 simple cubic supercell.


 Subroutine GETGRP returns: Found 48 space group operations
 (whereof 48 operations were pure point group operations)
 out of a pool of 48 trial point group operations.


The static configuration has the point symmetry O_h .


Analysis of symmetry for dynamics (positions and initial velocities):
=====================================================================
 Subroutine PRICEL returns:
 Original cell was already a primitive cell.
 

 Routine SETGRP: Setting up the symmetry group for a 
 simple cubic supercell.


 Subroutine GETGRP returns: Found 48 space group operations
 (whereof 48 operations were pure point group operations)
 out of a pool of 48 trial point group operations.


The dynamic configuration has the point symmetry O_h .


 Subroutine INISYM returns: Found 48 space group operations
 (whereof 48 operations are pure point group operations),
 and found     1 'primitive' translations

 
 
 KPOINTS: k-density: 2.0                          

Automatic generation of k-mesh.
Space group operators:
 irot       det(A)        alpha          n_x          n_y          n_z        tau_x        tau_y        tau_z
    1     1.000000     0.000000     1.000000     0.000000     0.000000     0.000000     0.000000     0.000000
    2    -1.000000     0.000000     1.000000     0.000000     0.000000     0.000000     0.000000     0.000000
    3     1.000000   120.000000    -0.577350    -0.577350    -0.577350     0.000000     0.000000     0.000000
    4    -1.000000   120.000000    -0.577350    -0.577350    -0.577350     0.000000     0.000000     0.000000
    5     1.000000   120.000000     0.577350     0.577350     0.577350     0.000000     0.000000     0.000000
    6    -1.000000   120.000000     0.577350     0.577350     0.577350     0.000000     0.000000     0.000000
    7     1.000000    90.000000     0.000000     0.000000    -1.000000     0.000000     0.000000     0.000000
    8    -1.000000    90.000000     0.000000     0.000000    -1.000000     0.000000     0.000000     0.000000
    9     1.000000   180.000000     0.000000     0.707107     0.707107     0.000000     0.000000     0.000000
   10    -1.000000   180.000000     0.000000     0.707107     0.707107     0.000000     0.000000     0.000000
   11     1.000000    90.000000     0.000000     1.000000     0.000000     0.000000     0.000000     0.000000
   12    -1.000000    90.000000     0.000000     1.000000     0.000000     0.000000     0.000000     0.000000
   13     1.000000   180.000000     0.000000     0.000000     1.000000     0.000000     0.000000     0.000000
   14    -1.000000   180.000000     0.000000     0.000000     1.000000     0.000000     0.000000     0.000000
   15     1.000000   120.000000    -0.577350     0.577350     0.577350     0.000000     0.000000     0.000000
   16    -1.000000   120.000000    -0.577350     0.577350     0.577350     0.000000     0.000000     0.000000
   17     1.000000   120.000000    -0.577350     0.577350    -0.577350     0.000000     0.000000     0.000000
   18    -1.000000   120.000000    -0.577350     0.577350    -0.577350     0.000000     0.000000     0.000000
   19     1.000000    90.000000     0.000000     0.000000     1.000000     0.000000     0.000000     0.000000
   20    -1.000000    90.000000     0.000000     0.000000     1.000000     0.000000     0.000000     0.000000
   21     1.000000    90.000000    -1.000000     0.000000     0.000000     0.000000     0.000000     0.000000
   22    -1.000000    90.000000    -1.000000     0.000000     0.000000     0.000000     0.000000     0.000000
   23     1.000000   180.000000     0.707107     0.000000     0.707107     0.000000     0.000000     0.000000
   24    -1.000000   180.000000     0.707107     0.000000     0.707107     0.000000     0.000000     0.000000
   25     1.000000   120.000000     0.577350    -0.577350     0.577350     0.000000     0.000000     0.000000
   26    -1.000000   120.000000     0.577350    -0.577350     0.577350     0.000000     0.000000     0.000000
   27     1.000000   120.000000    -0.577350    -0.577350     0.577350     0.000000     0.000000     0.000000
   28    -1.000000   120.000000    -0.577350    -0.577350     0.577350     0.000000     0.000000     0.000000
   29     1.000000   180.000000     1.000000     0.000000     0.000000     0.000000     0.000000     0.000000
   30    -1.000000   180.000000     1.000000     0.000000     0.000000     0.000000     0.000000     0.000000
   31     1.000000    90.000000     0.000000    -1.000000     0.000000     0.000000     0.000000     0.000000
   32    -1.000000    90.000000     0.000000    -1.000000     0.000000     0.000000     0.000000     0.000000
   33     1.000000   180.000000     0.707107     0.707107     0.000000     0.000000     0.000000     0.000000
   34    -1.000000   180.000000     0.707107     0.707107     0.000000     0.000000     0.000000     0.000000
   35     1.000000    90.000000     1.000000     0.000000     0.000000     0.000000     0.000000     0.000000
   36    -1.000000    90.000000     1.000000     0.000000     0.000000     0.000000     0.000000     0.000000
   37     1.000000   120.000000     0.577350    -0.577350    -0.577350     0.000000     0.000000     0.000000
   38    -1.000000   120.000000     0.577350    -0.577350    -0.577350     0.000000     0.000000     0.000000
   39     1.000000   180.000000     0.000000     1.000000     0.000000     0.000000     0.000000     0.000000
   40    -1.000000   180.000000     0.000000     1.000000     0.000000     0.000000     0.000000     0.000000
   41     1.000000   120.000000     0.577350     0.577350    -0.577350     0.000000     0.000000     0.000000
   42    -1.000000   120.000000     0.577350     0.577350    -0.577350     0.000000     0.000000     0.000000
   43     1.000000   180.000000     0.000000    -0.707107     0.707107     0.000000     0.000000     0.000000
   44    -1.000000   180.000000     0.000000    -0.707107     0.707107     0.000000     0.000000     0.000000
   45     1.000000   180.000000     0.707107    -0.707107     0.000000     0.000000     0.000000     0.000000
   46    -1.000000   180.000000     0.707107    -0.707107     0.000000     0.000000     0.000000     0.000000
   47     1.000000   180.000000     0.707107     0.000000    -0.707107     0.000000     0.000000     0.000000
   48    -1.000000   180.000000     0.707107     0.000000    -0.707107     0.000000     0.000000     0.000000
 
 Subroutine IBZKPT returns following result:
 ===========================================
 
 Found     10 irreducible k-points:
 
 Following reciprocal coordinates:
            Coordinates               Weight
  0.000000  0.000000  0.000000      1.000000
  0.250000  0.000000  0.000000      6.000000
  0.500000  0.000000  0.000000      3.000000
  0.250000  0.250000  0.000000     12.000000
  0.500000  0.250000  0.000000     12.000000
  0.500000  0.500000  0.000000      3.000000
  0.250000  0.250000  0.250000      8.000000
  0.500000  0.250000  0.250000     12.000000
  0.500000  0.500000  0.250000      6.000000
  0.500000  0.500000  0.500000      1.000000
 
 Following cartesian coordinates:
            Coordinates               Weight
  0.000000  0.000000  0.000000      1.000000
  0.064016  0.000000  0.000000      6.000000
  0.128032  0.000000  0.000000      3.000000
  0.064016  0.064016  0.000000     12.000000
  0.128032  0.064016  0.000000     12.000000
  0.128032  0.128032  0.000000      3.000000
  0.064016  0.064016  0.064016      8.000000
  0.128032  0.064016  0.064016     12.000000
  0.128032  0.128032  0.064016      6.000000
  0.128032  0.128032  0.128032      1.000000
 
 TETIRR: Found     30 inequivalent tetrahedra from      384


--------------------------------------------------------------------------------------------------------




 Dimension of arrays:
   k-points           NKPTS =     10   k-points in BZ     NKDIM =     10   number of bands    NBANDS=     20
   number of dos      NEDOS =    301   number of ions     NIONS =      5
   non local maximal  LDIM  =      6   non local SUM 2l+1 LMDIM =     18
   total plane-waves  NPLWV =  13824
   max r-space proj   IRMAX =      1   max aug-charges    IRDMAX=  16228
   dimension x,y,z NGX =    24 NGY =   24 NGZ =   24
   dimension x,y,z NGXF=    48 NGYF=   48 NGZF=   48
   support grid    NGXF=    48 NGYF=   48 NGZF=   48
   ions per type =               1   1   3
   NGX,Y,Z   is equivalent  to a cutoff of  10.22, 10.22, 10.22 a.u.
   NGXF,Y,Z  is equivalent  to a cutoff of  20.43, 20.43, 20.43 a.u.

 SYSTEM =  unknown system                          
 POSCAR =  ICSD_CollCode262269                     

 Startparameter for this run:
   NWRITE =      2    write-flag & timer
   PREC   = normal    normal or accurate (medium, high low for compatibility)
   ISTART =      0    job   : 0-new  1-cont  2-samecut
   ICHARG =      2    charge: 1-file 2-atom 10-const
   ISPIN  =      1    spin polarized calculation?
   LNONCOLLINEAR =      F non collinear calculations
   LSORBIT =      F    spin-orbit coupling
   INIWAV =      1    electr: 0-lowe 1-rand  2-diag
   LASPH  =      F    aspherical Exc in radial PAW
   METAGGA=      F    non-selfconsistent MetaGGA calc.

 Electronic Relaxation 1
   ENCUT  =  500.0 eV  36.75 Ry    6.06 a.u.   7.12  7.12  7.12*2*pi/ulx,y,z
   ENINI  =  500.0     initial cutoff
   ENAUG  =  605.4 eV  augmentation charge cutoff
   NELM   =     60;   NELMIN=  4; NELMDL=  0     # of ELM steps 
   EDIFF  = 0.1E-04   stopping-criterion for ELM
   LREAL  =      F    real-space projection
   NLSPLINE    = F    spline interpolate recip. space projectors
   LCOMPAT=      F    compatible to vasp.4.4
   GGA_COMPAT  = T    GGA compatible to vasp.4.4-vasp.4.6
   LMAXPAW     = -100 max onsite density
   LMAXMIX     =    2 max onsite mixed and CHGCAR
   VOSKOWN=      0    Vosko Wilk Nusair interpolation
   ROPT   =    0.00000   0.00000   0.00000
 Ionic relaxation
   EDIFFG = 0.1E-03   stopping-criterion for IOM
   NSW    =      0    number of steps for IOM
   NBLOCK =      1;   KBLOCK =      1    inner block; outer block 
   IBRION =     -1    ionic relax: 0-MD 1-quasi-New 2-CG
   NFREE  =      0    steps in history (QN), initial steepest desc. (CG)
   ISIF   =      2    stress and relaxation
   IWAVPR =     10    prediction:  0-non 1-charg 2-wave 3-comb
   ISYM   =      2    0-nonsym 1-usesym 2-fastsym
   LCORR  =      T    Harris-Foulkes like correction to forces

   POTIM  = 0.5000    time-step for ionic-motion
   TEIN   =    0.0    initial temperature
   TEBEG  =    0.0;   TEEND  =   0.0 temperature during run
   SMASS  =  -3.00    Nose mass-parameter (am)
   estimated Nose-frequenzy (Omega)   =  0.10E-29 period in steps =****** mass=  -0.349E-27a.u.
   SCALEE = 1.0000    scale energy and forces
   NPACO  =    256;   APACO  = 16.0  distance and # of slots for P.C.
   PSTRESS=    0.0 pullay stress

  Mass of Ions in am
   POMASS =  87.62 47.88 16.00
  Ionic Valenz
   ZVAL   =  10.00  4.00  6.00
  Atomic Wigner-Seitz radii
   RWIGS  =  -1.00 -1.00 -1.00
  virtual crystal weights 
   VCA    =   1.00  1.00  1.00
   NELECT =      32.0000    total number of electrons
   NUPDOWN=      -1.0000    fix difference up-down

 DOS related values:
   EMIN   =  10.00;   EMAX   =-10.00  energy-range for DOS
   EFERMI =   0.00
   ISMEAR =    -5;   SIGMA  =   0.20  broadening in eV -4-tet -1-fermi 0-gaus

 Electronic relaxation 2 (details)
   IALGO  =     68    algorithm
   LDIAG  =      T    sub-space diagonalisation (order eigenvalues)
   LSUBROT=      F    optimize rotation matrix (better conditioning)
   TURBO    =      0    0=normal 1=particle mesh
   IRESTART =      0    0=no restart 2=restart with 2 vectors
   NREBOOT  =      0    no. of reboots
   NMIN     =      0    reboot dimension
   EREF     =   0.00    reference energy to select bands
   IMIX   =      4    mixing-type and parameters
     AMIX     =   0.40;   BMIX     =  1.00
     AMIX_MAG =   1.60;   BMIX_MAG =  1.00
     AMIN     =   0.10
     WC   =   100.;   INIMIX=   1;  MIXPRE=   1;  MAXMIX= -45

 Intra band minimization:
   WEIMIN = 0.0000     energy-eigenvalue tresh-hold
   EBREAK =  0.13E-06  absolut break condition
   DEPER  =   0.30     relativ break condition  

   TIME   =   0.40     timestep for ELM

  volume/ion in A,a.u.               =      11.91        80.39
  Fermi-wavevector in a.u.,A,eV,Ry     =   1.330885  2.515009 24.099399  1.771256
  Thomas-Fermi vector in A             =   2.459938
 
 Write flags
   LWAVE        =      F    write WAVECAR
   LDOWNSAMPLE  =      F    k-point downsampling of WAVECAR
   LCHARG       =      T    write CHGCAR
   LVTOT        =      F    write LOCPOT, total local potential
   LVHAR        =      F    write LOCPOT, Hartree potential only
   LELF         =      F    write electronic localiz. function (ELF)
   LORBIT       =      0    0 simple, 1 ext, 2 COOP (PROOUT), +10 PAW based schemes


 Dipole corrections
   LMONO  =      F    monopole corrections only (constant potential shift)
   LDIPOL =      F    correct potential (dipole corrections)
   IDIPOL =      0    1-x, 2-y, 3-z, 4-all directions 
   EPSILON=  1.0000000 bulk dielectric constant

 Exchange correlation treatment:
   GGA     =    --    GGA type
   LEXCH   =     8    internal setting for exchange type
   VOSKOWN=      0    Vosko Wilk Nusair interpolation
   LHFCALC =     F    Hartree Fock is set to
   LHFONE  =     F    Hartree Fock one center treatment
   AEXX    =    0.0000 exact exchange contribution

 Linear response parameters
   LEPSILON=     F    determine dielectric tensor
   LRPA    =     F    only Hartree local field effects (RPA)
   LNABLA  =     F    use nabla operator in PAW spheres
   LVEL    =     F    velocity operator in full k-point grid
   LINTERFAST=   F  fast interpolation
   KINTER  =     0    interpolate to denser k-point grid
   CSHIFT  =0.1000    complex shift for real part using Kramers Kronig
   OMEGAMAX=  -1.0    maximum frequency
   DEG_THRESHOLD= 0.2000000E-02 threshold for treating states as degnerate
   RTIME   =   -0.100 relaxation time in fs
  (WPLASMAI=    0.000 imaginary part of plasma frequency in eV, 0.658/RTIME)
   DFIELD  = 0.0000000 0.0000000 0.0000000 field for delta impulse in time
 
 Orbital magnetization related:
   ORBITALMAG=     F  switch on orbital magnetization
   LCHIMAG   =     F  perturbation theory with respect to B field
   DQ        =  0.001000  dq finite difference perturbation B field
   LLRAUG    =     F  two centre corrections for induced B field



--------------------------------------------------------------------------------------------------------


 Static calculation
 charge density and potential will be updated during run
 non-spin polarized calculation
 RMM-DIIS sequential band-by-band and
  variant of blocked Davidson during initial phase
 perform sub-space diagonalisation
    before iterative eigenvector-optimisation
 modified Broyden-mixing scheme, WC =      100.0
 initial mixing is a Kerker type mixing with AMIX =  0.4000 and BMIX =      1.0000
 Hartree-type preconditioning will be used
 using additional bands            4
 reciprocal scheme for non local part
 use partial core corrections
 calculate Harris-corrections to forces 
   (improved forces if not selfconsistent)
 use gradient corrections 
 use of overlap-Matrix (Vanderbilt PP)
 Fermi weights with tetrahedron method with Bloechl corrections


--------------------------------------------------------------------------------------------------------


  energy-cutoff  :      500.00
  volume of cell :       59.56
      direct lattice vectors                 reciprocal lattice vectors
     3.905268000  0.000000000  0.000000000     0.256064373  0.000000000  0.000000000
     0.000000000  3.905268000  0.000000000     0.000000000  0.256064373  0.000000000
     0.000000000  0.000000000  3.905268000     0.000000000  0.000000000  0.256064373

  length of vectors
     3.905268000  3.905268000  3.905268000     0.256064373  0.256064373  0.256064373


 
 k-points in units of 2pi/SCALE and weight: k-density: 2.0                          
   0.00000000  0.00000000  0.00000000       0.016
   0.06401609  0.00000000  0.00000000       0.094
   0.12803219  0.00000000  0.00000000       0.047
   0.06401609  0.06401609  0.00000000       0.188
   0.12803219  0.06401609  0.00000000       0.188
   0.12803219  0.12803219  0.00000000       0.047
   0.06401609  0.06401609  0.06401609       0.125
   0.12803219  0.06401609  0.06401609       0.188
   0.12803219  0.12803219  0.06401609       0.094
   0.12803219  0.12803219  0.12803219       0.016
 
 k-points in reciprocal lattice and weights: k-density: 2.0                          
   0.00000000  0.00000000  0.00000000       0.016
   0.25000000  0.00000000  0.00000000       0.094
   0.50000000  0.00000000  0.00000000       0.047
   0.25000000  0.25000000  0.00000000       0.188
   0.50000000  0.25000000  0.00000000       0.188
   0.50000000  0.50000000  0.00000000       0.047
   0.25000000  0.25000000  0.25000000       0.125
   0.50000000  0.25000000  0.25000000       0.188
   0.50000000  0.50000000  0.25000000       0.094
   0.50000000  0.50000000  0.50000000       0.016
 
 position of ions in fractional coordinates (direct lattice) 
   0.00000000  0.00000000  0.00000000
   0.50000000  0.50000000  0.50000000
   0.50000000  0.50000000  0.00000000
   0.50000000  0.00000000  0.50000000
   0.00000000  0.50000000  0.50000000
 
 position of ions in cartesian coordinates  (Angst):
   0.00000000  0.00000000  0.00000000
   1.95263400  1.95263400  1.95263400
   1.95263400  1.95263400  0.00000000
   1.95263400  0.00000000  1.95263400
   0.00000000  1.95263400  1.95263400
 


--------------------------------------------------------------------------------------------------------


 k-point  1 :   0.0000 0.0000 0.0000  plane waves:    1503
 k-point  2 :   0.2500 0.0000 0.0000  plane waves:    1514
 k-point  3 :   0.5000 0.0000 0.0000  plane waves:    1510
 k-point  4 :   0.2500 0.2500 0.0000  plane waves:    1526
 k-point  5 :   0.5000 0.2500 0.0000  plane waves:    1514
 k-point  6 :   0.5000 0.5000 0.0000  plane waves:    1516
 k-point  7 :   0.2500 0.2500 0.2500  plane waves:    1520
 k-point  8 :   0.5000 0.2500 0.2500  plane waves:    1516
 k-point  9 :   0.5000 0.5000 0.2500  plane waves:    1528
 k-point 10 :   0.5000 0.5000 0.5000  plane waves:    1472

 maximum and minimum number of plane-waves per node :       780      733

 maximum number of plane-waves:      1528
 maximum index in each direction: 
   IXMAX=    7   IYMAX=    7   IZMAX=    7
   IXMIN=   -7   IYMIN=   -7   IZMIN=   -7


 parallel 3D FFT for wavefunctions:
    minimum data exchange during FFTs selected (reduces bandwidth)
 parallel 3D FFT for charge:
    minimum data exchange during FFTs selected (reduces bandwidth)


 total amount of memory used by VASP MPI-rank0    38061. kBytes
=======================================================================

   base      :      30000. kBytes
   nonl-proj :       3432. kBytes
   fftplans  :       1176. kBytes
   grid      :       2105. kBytes
   one-center:         46. kBytes
   wavefun   :       1302. kBytes
 
     INWAV:  cpu time    0.0000: real time    0.0003
 Broyden mixing: mesh for mixing (old mesh)
   NGX = 15   NGY = 15   NGZ = 15
  (NGX  = 48   NGY  = 48   NGZ  = 48)
  gives a total of   3375 points

 initial charge density was supplied:
 charge density of overlapping atoms calculated
 number of electron      32.0000000 magnetization 
 keeping initial charge density in first step


--------------------------------------------------------------------------------------------------------


 Maximum index for augmentation-charges         3835 (set IRDMAX)


--------------------------------------------------------------------------------------------------------


 First call to EWALD:  gamma=   0.454
 Maximum number of real-space cells 3x 3x 3
 Maximum number of reciprocal cells 3x 3x 3

    FEWALD:  cpu time    0.0020: real time    0.0015


--------------------------------------- Iteration      1(   1)  ---------------------------------------


    POTLOK:  cpu time    0.0190: real time    0.0230
    SETDIJ:  cpu time    0.0050: real time    0.0051
     EDDAV:  cpu time    0.1130: real time    0.1178
 BZINTS: Fermi energy: 18.458682; 32.000000 electrons
         Band energy:  91.364155;  BLOECHL correction: -0.142222
       DOS:  cpu time    0.0010: real time    0.0012
    --------------------------------------------
      LOOP:  cpu time    0.1380: real time    0.1472

 eigenvalue-minimisations  :   400
 total energy-change (2. order) : 0.3050094E+03  (-0.1561538E+04)
 number of electron      32.0000000 magnetization 
 augmentation part       32.0000000 magnetization 

 Free energy of the ion-electron system (eV)
  ---------------------------------------------------
  alpha Z        PSCENC =       185.39985751
  Ewald energy   TEWEN  =     -1934.07799583
  -Hartree energ DENC   =      -403.14003404
  -exchange      EXHF   =         0.00000000
  -V(xc)+E(xc)   XCENC  =        82.31788258
  PAW double counting   =      1333.61297253    -1284.78446064
  entropy T*S    EENTRO =         0.00000000
  eigenvalues    EBANDS =        91.36415527
  atomic energy  EATOM  =      2234.31706254
  Solvation  Ediel_sol  =         0.00000000
  ---------------------------------------------------
  free energy    TOTEN  =       305.00943992 eV

  energy without entropy =      305.00943992  energy(sigma->0) =      305.00943992


--------------------------------------------------------------------------------------------------------




--------------------------------------- Iteration      1(   2)  ---------------------------------------


     EDDAV:  cpu time    0.1360: real time    0.1362
 BZINTS: Fermi energy:  8.330663; 32.000000 electrons
         Band energy:-231.092360;  BLOECHL correction: -0.170817
       DOS:  cpu time    0.0010: real time    0.0008
    --------------------------------------------
      LOOP:  cpu time    0.1370: real time    0.1370

 eigenvalue-minimisations  :   500
 total energy-change (2. order) :-0.3224565E+03  (-0.3096777E+03)
 number of electron      32.0000000 magnetization 
 augmentation part       32.0000000 magnetization 

 Free energy of the ion-electron system (eV)
  ---------------------------------------------------
  alpha Z        PSCENC =       185.39985751
  Ewald energy   TEWEN  =     -1934.07799583
  -Hartree energ DENC   =      -403.14003404
  -exchange      EXHF   =         0.00000000
  -V(xc)+E(xc)   XCENC  =        82.31788258
  PAW double counting   =      1333.61297253    -1284.78446064
  entropy T*S    EENTRO =         0.00000000
  eigenvalues    EBANDS =      -231.09236024
  atomic energy  EATOM  =      2234.31706254
  Solvation  Ediel_sol  =         0.00000000
  ---------------------------------------------------
  free energy    TOTEN  =       -17.44707559 eV

  energy without entropy =      -17.44707559  energy(sigma->0) =      -17.44707559


--------------------------------------------------------------------------------------------------------




--------------------------------------- Iteration      1(   3)  ---------------------------------------


     EDDAV:  cpu time    0.1300: real time    0.1308
 BZINTS: Fermi energy:  0.424873; 32.000000 electrons
         Band energy:-262.781444;  BLOECHL correction:  0.000000
       DOS:  cpu time    0.0010: real time    0.0003
    --------------------------------------------
      LOOP:  cpu time    0.1310: real time    0.1312

 eigenvalue-minimisations  :   500
 total energy-change (2. order) :-0.3168908E+02  (-0.3131247E+02)
 number of electron      32.0000000 magnetization 
 augmentation part       32.0000000 magnetization 

 Free energy of the ion-electron system (eV)
  ---------------------------------------------------
  alpha Z        PSCENC =       185.39985751
  Ewald energy   TEWEN  =     -1934.07799583
  -Hartree energ DENC   =      -403.14003404
  -exchange      EXHF   =         0.00000000
  -V(xc)+E(xc)   XCENC  =        82.31788258
  PAW double counting   =      1333.61297253    -1284.78446064
  entropy T*S    EENTRO =         0.00000000
  eigenvalues    EBANDS =      -262.78144351
  atomic energy  EATOM  =      2234.31706254
  Solvation  Ediel_sol  =         0.00000000
  ---------------------------------------------------
  free energy    TOTEN  =       -49.13615886 eV

  energy without entropy =      -49.13615886  energy(sigma->0) =      -49.13615886


--------------------------------------------------------------------------------------------------------




--------------------------------------- Iteration      1(   4)  ---------------------------------------


     EDDAV:  cpu time    0.1620: real time    0.1630
 BZINTS: Fermi energy: -0.451748; 32.000000 electrons
         Band energy:-263.854017;  BLOECHL correction:  0.000000
       DOS:  cpu time    0.0000: real time    0.0003
    --------------------------------------------
      LOOP:  cpu time    0.1620: real time    0.1633

 eigenvalue-minimisations  :   660
 total energy-change (2. order) :-0.1072574E+01  (-0.1071527E+01)
 number of electron      32.0000000 magnetization 
 augmentation part       32.0000000 magnetization 

 Free energy of the ion-electron system (eV)
  ---------------------------------------------------
  alpha Z        PSCENC =       185.39985751
  Ewald energy   TEWEN  =     -1934.07799583
  -Hartree energ DENC   =      -403.14003404
  -exchange      EXHF   =         0.00000000
  -V(xc)+E(xc)   XCENC  =        82.31788258
  PAW double counting   =      1333.61297253    -1284.78446064
  entropy T*S    EENTRO =         0.00000000
  eigenvalues    EBANDS =      -263.85401704
  atomic energy  EATOM  =      2234.31706254
  Solvation  Ediel_sol  =         0.00000000
  ---------------------------------------------------
  free energy    TOTEN  =       -50.20873239 eV

  energy without entropy =      -50.20873239  energy(sigma->0) =      -50.20873239


--------------------------------------------------------------------------------------------------------




--------------------------------------- Iteration      1(   5)  ---------------------------------------


     EDDAV:  cpu time    0.1300: real time    0.1301
 BZINTS: Fermi energy: -0.476258; 32.000000 electrons
         Band energy:-263.872696;  BLOECHL correction:  0.000000
       DOS:  cpu time    0.0000: real time    0.0002
    CHARGE:  cpu time    0.0110: real time    0.0108
    MIXING:  cpu time    0.0010: real time    0.0007
    --------------------------------------------
      LOOP:  cpu time    0.1420: real time    0.1418

 eigenvalue-minimisations  :   512
 total energy-change (2. order) :-0.1867897E-01  (-0.1866677E-01)
 number of electron      31.9999897 magnetization 
 augmentation part        3.4007569 magnetization 

 Broyden mixing:
  rms(total) = 0.18264E+01    rms(broyden)= 0.18262E+01
  rms(prec ) = 0.47650E+01
  weight for this iteration     100.00

 Free energy of the ion-electron system (eV)
  ---------------------------------------------------
  alpha Z        PSCENC =       185.39985751
  Ewald energy   TEWEN  =     -1934.07799583
  -Hartree energ DENC   =      -403.14003404
  -exchange      EXHF   =         0.00000000
  -V(xc)+E(xc)   XCENC  =        82.31788258
  PAW double counting   =      1333.61297253    -1284.78446064
  entropy T*S    EENTRO =         0.00000000
  eigenvalues    EBANDS =      -263.87269601
  atomic energy  EATOM  =      2234.31706254
  Solvation  Ediel_sol  =         0.00000000
  ---------------------------------------------------
  free energy    TOTEN  =       -50.22741136 eV

  energy without entropy =      -50.22741136  energy(sigma->0) =      -50.22741136


--------------------------------------------------------------------------------------------------------




--------------------------------------- Iteration      1(   6)  ---------------------------------------


    POTLOK:  cpu time    0.0150: real time    0.0154
    SETDIJ:  cpu time    0.0050: real time    0.0041
    EDDIAG:  cpu time    0.0240: real time    0.0252
  RMM-DIIS:  cpu time    0.0840: real time    0.0835
    ORTHCH:  cpu time    0.0020: real time    0.0027
 BZINTS: Fermi energy:  3.284785; 32.000000 electrons
         Band energy:-200.848314;  BLOECHL correction:  0.000000
       DOS:  cpu time    0.0010: real time    0.0002
    CHARGE:  cpu time    0.0100: real time    0.0106
    MIXING:  cpu time    0.0010: real time    0.0006
    --------------------------------------------
      LOOP:  cpu time    0.1420: real time    0.1423

 eigenvalue-minimisations  :   434
 total energy-change (2. order) : 0.9849353E+01  (-0.5839325E+01)
 number of electron      31.9999925 magnetization 
 augmentation part        3.4782070 magnetization 

 Broyden mixing:
  rms(total) = 0.62074E+00    rms(broyden)= 0.62027E+00
  rms(prec ) = 0.11313E+01
  weight for this iteration     100.00

 eigenvalues of (default mixing * dielectric matrix)
  average eigenvalue GAMMA=   0.7968
  0.7968

 Free energy of the ion-electron system (eV)
  ---------------------------------------------------
  alpha Z        PSCENC =       185.39985751
  Ewald energy   TEWEN  =     -1934.07799583
  -Hartree energ DENC   =      -457.88032297
  -exchange      EXHF   =         0.00000000
  -V(xc)+E(xc)   XCENC  =        87.11144534
  PAW double counting   =      1487.75861786    -1442.15840925
  entropy T*S    EENTRO =         0.00000000
  eigenvalues    EBANDS =      -200.84831376
  atomic energy  EATOM  =      2234.31706254
  Solvation  Ediel_sol  =         0.00000000
  ---------------------------------------------------
  free energy    TOTEN  =       -40.37805857 eV

  energy without entropy =      -40.37805857  energy(sigma->0) =      -40.37805857


--------------------------------------------------------------------------------------------------------




--------------------------------------- Iteration      1(   7)  ---------------------------------------


    POTLOK:  cpu time    0.0160: real time    0.0191
    SETDIJ:  cpu time    0.0040: real time    0.0041
    EDDIAG:  cpu time    0.0250: real time    0.0249
  RMM-DIIS:  cpu time    0.0910: real time    0.0911
    ORTHCH:  cpu time    0.0030: real time    0.0027
 BZINTS: Fermi energy:  2.735191; 32.000000 electrons
         Band energy:-210.329853;  BLOECHL correction:  0.000000
       DOS:  cpu time    0.0000: real time    0.0002
    CHARGE:  cpu time    0.0110: real time    0.0106
    MIXING:  cpu time    0.0000: real time    0.0006
    --------------------------------------------
      LOOP:  cpu time    0.1500: real time    0.1534

 eigenvalue-minimisations  :   470
 total energy-change (2. order) : 0.6011594E+00  (-0.1438319E+00)
 number of electron      31.9999922 magnetization 
 augmentation part        3.3928952 magnetization 

 Broyden mixing:
  rms(total) = 0.32051E+00    rms(broyden)= 0.32049E+00
  rms(prec ) = 0.56710E+00
  weight for this iteration     100.00

 eigenvalues of (default mixing * dielectric matrix)
  average eigenvalue GAMMA=   1.7112
  0.8816  2.5408

 Free energy of the ion-electron system (eV)
  ---------------------------------------------------
  alpha Z        PSCENC =       185.39985751
  Ewald energy   TEWEN  =     -1934.07799583
  -Hartree energ DENC   =      -445.66713525
  -exchange      EXHF   =         0.00000000
  -V(xc)+E(xc)   XCENC  =        86.24949661
  PAW double counting   =      1498.39919574    -1454.06752729
  entropy T*S    EENTRO =         0.00000000
  eigenvalues    EBANDS =      -210.32985323
  atomic energy  EATOM  =      2234.31706254
  Solvation  Ediel_sol  =         0.00000000
  ---------------------------------------------------
  free energy    TOTEN  =       -39.77689919 eV

  energy without entropy =      -39.77689919  energy(sigma->0) =      -39.77689919


--------------------------------------------------------------------------------------------------------




--------------------------------------- Iteration      1(   8)  ---------------------------------------


    POTLOK:  cpu time    0.0150: real time    0.0156
    SETDIJ:  cpu time    0.0050: real time    0.0041
    EDDIAG:  cpu time    0.0250: real time    0.0250
  RMM-DIIS:  cpu time    0.0880: real time    0.0883
    ORTHCH:  cpu time    0.0030: real time    0.0027
 BZINTS: Fermi energy:  2.548347; 32.000000 electrons
         Band energy:-216.350500;  BLOECHL correction:  0.000000
       DOS:  cpu time    0.0000: real time    0.0003
    CHARGE:  cpu time    0.0110: real time    0.0106
    MIXING:  cpu time    0.0000: real time    0.0011
    --------------------------------------------
      LOOP:  cpu time    0.1470: real time    0.1476

 eigenvalue-minimisations  :   469
 total energy-change (2. order) : 0.8683731E-01  (-0.8848321E-01)
 number of electron      31.9999920 magnetization 
 augmentation part        3.4570715 magnetization 

 Broyden mixing:
  rms(total) = 0.77113E-01    rms(broyden)= 0.77052E-01
  rms(prec ) = 0.17828E+00
  weight for this iteration     100.00

 eigenvalues of (default mixing * dielectric matrix)
  average eigenvalue GAMMA=   1.3277
  2.2954  0.8438  0.8438

 Free energy of the ion-electron system (eV)
  ---------------------------------------------------
  alpha Z        PSCENC =       185.39985751
  Ewald energy   TEWEN  =     -1934.07799583
  -Hartree energ DENC   =      -437.22784744
  -exchange      EXHF   =         0.00000000
  -V(xc)+E(xc)   XCENC  =        85.92336645
  PAW double counting   =      1547.17736350    -1504.85136866
  entropy T*S    EENTRO =         0.00000000
  eigenvalues    EBANDS =      -216.35049994
  atomic energy  EATOM  =      2234.31706254
  Solvation  Ediel_sol  =         0.00000000
  ---------------------------------------------------
  free energy    TOTEN  =       -39.69006188 eV

  energy without entropy =      -39.69006188  energy(sigma->0) =      -39.69006188


--------------------------------------------------------------------------------------------------------




--------------------------------------- Iteration      1(   9)  ---------------------------------------


    POTLOK:  cpu time    0.0150: real time    0.0155
    SETDIJ:  cpu time    0.0050: real time    0.0041
    EDDIAG:  cpu time    0.0240: real time    0.0249
  RMM-DIIS:  cpu time    0.0970: real time    0.0963
    ORTHCH:  cpu time    0.0020: real time    0.0027
 BZINTS: Fermi energy:  2.581965; 32.000000 electrons
         Band energy:-214.678697;  BLOECHL correction:  0.000000
       DOS:  cpu time    0.0010: real time    0.0002
    CHARGE:  cpu time    0.0100: real time    0.0105
    MIXING:  cpu time    0.0010: real time    0.0006
    --------------------------------------------
      LOOP:  cpu time    0.1550: real time    0.1550

 eigenvalue-minimisations  :   506
 total energy-change (2. order) : 0.1258737E-01  (-0.4484748E-02)
 number of electron      31.9999920 magnetization 
 augmentation part        3.4455216 magnetization 

 Broyden mixing:
  rms(total) = 0.58316E-01    rms(broyden)= 0.58314E-01
  rms(prec ) = 0.12955E+00
  weight for this iteration     100.00

 eigenvalues of (default mixing * dielectric matrix)
  average eigenvalue GAMMA=   1.5105
  2.1141  2.1141  0.9068  0.9068

 Free energy of the ion-electron system (eV)
  ---------------------------------------------------
  alpha Z        PSCENC =       185.39985751
  Ewald energy   TEWEN  =     -1934.07799583
  -Hartree energ DENC   =      -438.83639042
  -exchange      EXHF   =         0.00000000
  -V(xc)+E(xc)   XCENC  =        86.03798830
  PAW double counting   =      1554.86830826    -1512.70760793
  entropy T*S    EENTRO =         0.00000000
  eigenvalues    EBANDS =      -214.67869693
  atomic energy  EATOM  =      2234.31706254
  Solvation  Ediel_sol  =         0.00000000
  ---------------------------------------------------
  free energy    TOTEN  =       -39.67747451 eV

  energy without entropy =      -39.67747451  energy(sigma->0) =      -39.67747451


--------------------------------------------------------------------------------------------------------




--------------------------------------- Iteration      1(  10)  ---------------------------------------


    POTLOK:  cpu time    0.0150: real time    0.0155
    SETDIJ:  cpu time    0.0040: real time    0.0041
    EDDIAG:  cpu time    0.0250: real time    0.0248
  RMM-DIIS:  cpu time    0.0880: real time    0.0882
    ORTHCH:  cpu time    0.0030: real time    0.0027
 BZINTS: Fermi energy:  2.732973; 32.000000 electrons
         Band energy:-211.357007;  BLOECHL correction:  0.000000
       DOS:  cpu time    0.0000: real time    0.0002
    CHARGE:  cpu time    0.0110: real time    0.0105
    MIXING:  cpu time    0.0000: real time    0.0006
    --------------------------------------------
      LOOP:  cpu time    0.1470: real time    0.1467

 eigenvalue-minimisations  :   471
 total energy-change (2. order) : 0.4222305E-02  (-0.1247641E-01)
 number of electron      31.9999921 magnetization 
 augmentation part        3.4164490 magnetization 

 Broyden mixing:
  rms(total) = 0.33249E-01    rms(broyden)= 0.33231E-01
  rms(prec ) = 0.66260E-01
  weight for this iteration     100.00

 eigenvalues of (default mixing * dielectric matrix)
  average eigenvalue GAMMA=   1.4248
  2.4888  0.8590  1.1111  1.3327  1.3327

 Free energy of the ion-electron system (eV)
  ---------------------------------------------------
  alpha Z        PSCENC =       185.39985751
  Ewald energy   TEWEN  =     -1934.07799583
  -Hartree energ DENC   =      -442.41905703
  -exchange      EXHF   =         0.00000000
  -V(xc)+E(xc)   XCENC  =        86.25960730
  PAW double counting   =      1561.80787783    -1519.60359712
  entropy T*S    EENTRO =         0.00000000
  eigenvalues    EBANDS =      -211.35700741
  atomic energy  EATOM  =      2234.31706254
  Solvation  Ediel_sol  =         0.00000000
  ---------------------------------------------------
  free energy    TOTEN  =       -39.67325221 eV

  energy without entropy =      -39.67325221  energy(sigma->0) =      -39.67325221


--------------------------------------------------------------------------------------------------------




--------------------------------------- Iteration      1(  11)  ---------------------------------------


    POTLOK:  cpu time    0.0150: real time    0.0158
    SETDIJ:  cpu time    0.0050: real time    0.0041
    EDDIAG:  cpu time    0.0240: real time    0.0249
  RMM-DIIS:  cpu time    0.0930: real time    0.0923
    ORTHCH:  cpu time    0.0020: real time    0.0027
 BZINTS: Fermi energy:  2.635352; 32.000000 electrons
         Band energy:-212.488571;  BLOECHL correction:  0.000000
       DOS:  cpu time    0.0010: real time    0.0002
    CHARGE:  cpu time    0.0100: real time    0.0107
    MIXING:  cpu time    0.0010: real time    0.0007
    --------------------------------------------
      LOOP:  cpu time    0.1500: real time    0.1515

 eigenvalue-minimisations  :   492
 total energy-change (2. order) : 0.1916999E-02  (-0.1400912E-02)
 number of electron      31.9999921 magnetization 
 augmentation part        3.4158976 magnetization 

 Broyden mixing:
  rms(total) = 0.61710E-02    rms(broyden)= 0.61687E-02
  rms(prec ) = 0.14193E-01
  weight for this iteration     100.00

 eigenvalues of (default mixing * dielectric matrix)
  average eigenvalue GAMMA=   1.4605
  2.4330  1.8112  1.8112  0.9651  0.9651  0.7772

 Free energy of the ion-electron system (eV)
  ---------------------------------------------------
  alpha Z        PSCENC =       185.39985751
  Ewald energy   TEWEN  =     -1934.07799583
  -Hartree energ DENC   =      -441.20001961
  -exchange      EXHF   =         0.00000000
  -V(xc)+E(xc)   XCENC  =        86.18644404
  PAW double counting   =      1561.78107194    -1519.58918443
  entropy T*S    EENTRO =         0.00000000
  eigenvalues    EBANDS =      -212.48857137
  atomic energy  EATOM  =      2234.31706254
  Solvation  Ediel_sol  =         0.00000000
  ---------------------------------------------------
  free energy    TOTEN  =       -39.67133521 eV

  energy without entropy =      -39.67133521  energy(sigma->0) =      -39.67133521


--------------------------------------------------------------------------------------------------------




--------------------------------------- Iteration      1(  12)  ---------------------------------------


    POTLOK:  cpu time    0.0150: real time    0.0154
    SETDIJ:  cpu time    0.0050: real time    0.0041
    EDDIAG:  cpu time    0.0240: real time    0.0248
  RMM-DIIS:  cpu time    0.0960: real time    0.0951
    ORTHCH:  cpu time    0.0020: real time    0.0027
 BZINTS: Fermi energy:  2.616135; 32.000000 electrons
         Band energy:-212.761855;  BLOECHL correction:  0.000000
       DOS:  cpu time    0.0000: real time    0.0002
    CHARGE:  cpu time    0.0110: real time    0.0106
    MIXING:  cpu time    0.0010: real time    0.0007
    --------------------------------------------
      LOOP:  cpu time    0.1540: real time    0.1537

 eigenvalue-minimisations  :   507
 total energy-change (2. order) :-0.3753965E-03  (-0.4166749E-03)
 number of electron      31.9999921 magnetization 
 augmentation part        3.4180090 magnetization 

 Broyden mixing:
  rms(total) = 0.91208E-02    rms(broyden)= 0.91198E-02
  rms(prec ) = 0.19013E-01
  weight for this iteration     100.00

 eigenvalues of (default mixing * dielectric matrix)
  average eigenvalue GAMMA=   1.5170
  2.4581  2.4581  0.8427  1.3049  1.1005  1.2272  1.2272

 Free energy of the ion-electron system (eV)
  ---------------------------------------------------
  alpha Z        PSCENC =       185.39985751
  Ewald energy   TEWEN  =     -1934.07799583
  -Hartree energ DENC   =      -440.99055118
  -exchange      EXHF   =         0.00000000
  -V(xc)+E(xc)   XCENC  =        86.17606961
  PAW double counting   =      1561.11087437    -1518.84517296
  entropy T*S    EENTRO =         0.00000000
  eigenvalues    EBANDS =      -212.76185466
  atomic energy  EATOM  =      2234.31706254
  Solvation  Ediel_sol  =         0.00000000
  ---------------------------------------------------
  free energy    TOTEN  =       -39.67171060 eV

  energy without entropy =      -39.67171060  energy(sigma->0) =      -39.67171060


--------------------------------------------------------------------------------------------------------




--------------------------------------- Iteration      1(  13)  ---------------------------------------


    POTLOK:  cpu time    0.0150: real time    0.0154
    SETDIJ:  cpu time    0.0040: real time    0.0041
    EDDIAG:  cpu time    0.0250: real time    0.0248
  RMM-DIIS:  cpu time    0.0920: real time    0.0921
    ORTHCH:  cpu time    0.0030: real time    0.0028
 BZINTS: Fermi energy:  2.753955; 32.000000 electrons
         Band energy:-212.437146;  BLOECHL correction:  0.000000
       DOS:  cpu time    0.0000: real time    0.0003
    CHARGE:  cpu time    0.0110: real time    0.0107
    MIXING:  cpu time    0.0010: real time    0.0007
    --------------------------------------------
      LOOP:  cpu time    0.1510: real time    0.1508

 eigenvalue-minimisations  :   469
 total energy-change (2. order) : 0.8949129E-04  (-0.1555652E-03)
 number of electron      31.9999921 magnetization 
 augmentation part        3.4145902 magnetization 

 Broyden mixing:
  rms(total) = 0.24044E-02    rms(broyden)= 0.24033E-02
  rms(prec ) = 0.53919E-02
  weight for this iteration     100.00

 eigenvalues of (default mixing * dielectric matrix)
  average eigenvalue GAMMA=   1.6463
  2.7843  2.5666  2.5666  1.2360  1.2360  0.9780  0.9780  0.8252

 Free energy of the ion-electron system (eV)
  ---------------------------------------------------
  alpha Z        PSCENC =       185.39985751
  Ewald energy   TEWEN  =     -1934.07799583
  -Hartree energ DENC   =      -441.36433178
  -exchange      EXHF   =         0.00000000
  -V(xc)+E(xc)   XCENC  =        86.19958360
  PAW double counting   =      1562.11636165    -1519.82501284
  entropy T*S    EENTRO =         0.00000000
  eigenvalues    EBANDS =      -212.43714597
  atomic energy  EATOM  =      2234.31706254
  Solvation  Ediel_sol  =         0.00000000
  ---------------------------------------------------
  free energy    TOTEN  =       -39.67162111 eV

  energy without entropy =      -39.67162111  energy(sigma->0) =      -39.67162111


--------------------------------------------------------------------------------------------------------




--------------------------------------- Iteration      1(  14)  ---------------------------------------


    POTLOK:  cpu time    0.0150: real time    0.0176
    SETDIJ:  cpu time    0.0040: real time    0.0041
    EDDIAG:  cpu time    0.0250: real time    0.0251
  RMM-DIIS:  cpu time    0.0950: real time    0.0941
    ORTHCH:  cpu time    0.0020: real time    0.0027
 BZINTS: Fermi energy:  2.758825; 32.000000 electrons
         Band energy:-212.372412;  BLOECHL correction:  0.000000
       DOS:  cpu time    0.0000: real time    0.0003
    CHARGE:  cpu time    0.0110: real time    0.0107
    MIXING:  cpu time    0.0010: real time    0.0008
    --------------------------------------------
      LOOP:  cpu time    0.1530: real time    0.1554

 eigenvalue-minimisations  :   486
 total energy-change (2. order) :-0.5491080E-04  (-0.6712403E-04)
 number of electron      31.9999921 magnetization 
 augmentation part        3.4142832 magnetization 

 Broyden mixing:
  rms(total) = 0.21288E-02    rms(broyden)= 0.21278E-02
  rms(prec ) = 0.50760E-02
  weight for this iteration     100.00

 eigenvalues of (default mixing * dielectric matrix)
  average eigenvalue GAMMA=   1.5514
  2.8085  2.8085  2.4865  1.2269  1.2269  1.0480  0.8308  0.8055  0.7209

 Free energy of the ion-electron system (eV)
  ---------------------------------------------------
  alpha Z        PSCENC =       185.39985751
  Ewald energy   TEWEN  =     -1934.07799583
  -Hartree energ DENC   =      -441.45142487
  -exchange      EXHF   =         0.00000000
  -V(xc)+E(xc)   XCENC  =        86.20635010
  PAW double counting   =      1562.32203245    -1520.01514606
  entropy T*S    EENTRO =         0.00000000
  eigenvalues    EBANDS =      -212.37241186
  atomic energy  EATOM  =      2234.31706254
  Solvation  Ediel_sol  =         0.00000000
  ---------------------------------------------------
  free energy    TOTEN  =       -39.67167602 eV

  energy without entropy =      -39.67167602  energy(sigma->0) =      -39.67167602


--------------------------------------------------------------------------------------------------------




--------------------------------------- Iteration      1(  15)  ---------------------------------------


    POTLOK:  cpu time    0.0150: real time    0.0155
    SETDIJ:  cpu time    0.0040: real time    0.0041
    EDDIAG:  cpu time    0.0250: real time    0.0250
  RMM-DIIS:  cpu time    0.0780: real time    0.0776
    ORTHCH:  cpu time    0.0020: real time    0.0028
 BZINTS: Fermi energy:  2.631235; 32.000000 electrons
         Band energy:-212.419928;  BLOECHL correction:  0.000000
       DOS:  cpu time    0.0000: real time    0.0003
    CHARGE:  cpu time    0.0110: real time    0.0108
    MIXING:  cpu time    0.0010: real time    0.0008
    --------------------------------------------
      LOOP:  cpu time    0.1360: real time    0.1369

 eigenvalue-minimisations  :   381
 total energy-change (2. order) :-0.1828354E-05  (-0.1533489E-04)
 number of electron      31.9999921 magnetization 
 augmentation part        3.4134626 magnetization 

 Broyden mixing:
  rms(total) = 0.67079E-03    rms(broyden)= 0.67075E-03
  rms(prec ) = 0.16876E-02
  weight for this iteration     100.00

 eigenvalues of (default mixing * dielectric matrix)
  average eigenvalue GAMMA=   1.5646
  2.9051  2.9051  2.5587  1.1021  1.1021  1.1597  1.1597  1.0636  0.7782  0.9113

 Free energy of the ion-electron system (eV)
  ---------------------------------------------------
  alpha Z        PSCENC =       185.39985751
  Ewald energy   TEWEN  =     -1934.07799583
  -Hartree energ DENC   =      -441.41495744
  -exchange      EXHF   =         0.00000000
  -V(xc)+E(xc)   XCENC  =        86.20288116
  PAW double counting   =      1562.17126922    -1519.84986689
  entropy T*S    EENTRO =         0.00000000
  eigenvalues    EBANDS =      -212.41992811
  atomic energy  EATOM  =      2234.31706254
  Solvation  Ediel_sol  =         0.00000000
  ---------------------------------------------------
  free energy    TOTEN  =       -39.67167785 eV

  energy without entropy =      -39.67167785  energy(sigma->0) =      -39.67167785


--------------------------------------------------------------------------------------------------------




--------------------------------------- Iteration      1(  16)  ---------------------------------------


    POTLOK:  cpu time    0.0160: real time    0.0158
    SETDIJ:  cpu time    0.0040: real time    0.0042
    EDDIAG:  cpu time    0.0260: real time    0.0253
  RMM-DIIS:  cpu time    0.0680: real time    0.0685
    ORTHCH:  cpu time    0.0020: real time    0.0027
 BZINTS: Fermi energy:  2.634290; 32.000000 electrons
         Band energy:-212.416811;  BLOECHL correction:  0.000000
       DOS:  cpu time    0.0010: real time    0.0002
    --------------------------------------------
      LOOP:  cpu time    0.1170: real time    0.1168

 eigenvalue-minimisations  :   317
 total energy-change (2. order) :-0.4337588E-05  (-0.5047644E-05)
 number of electron      31.9999921 magnetization 
 augmentation part        3.4134626 magnetization 

 Free energy of the ion-electron system (eV)
  ---------------------------------------------------
  alpha Z        PSCENC =       185.39985751
  Ewald energy   TEWEN  =     -1934.07799583
  -Hartree energ DENC   =      -441.42367524
  -exchange      EXHF   =         0.00000000
  -V(xc)+E(xc)   XCENC  =        86.20371889
  PAW double counting   =      1562.20200194    -1519.87584120
  entropy T*S    EENTRO =         0.00000000
  eigenvalues    EBANDS =      -212.41681079
  atomic energy  EATOM  =      2234.31706254
  Solvation  Ediel_sol  =         0.00000000
  ---------------------------------------------------
  free energy    TOTEN  =       -39.67168219 eV

  energy without entropy =      -39.67168219  energy(sigma->0) =      -39.67168219


--------------------------------------------------------------------------------------------------------




 average (electrostatic) potential at core
  the test charge radii are     1.1929  1.2598  0.7215
  (the norm of the test charge is              1.0000)
       1 -36.1330       2 -26.8168       3 -71.0468       4 -71.0468       5 -71.0468
 
 
 
 E-fermi :   2.6343     XC(G=0): -11.1508     alpha+bet :-12.6354


 k-point     1 :       0.0000    0.0000    0.0000
  band No.  band energies     occupation 
      1     -30.0796      2.00000
      2     -14.8133      2.00000
      3     -13.8070      2.00000
      4     -13.8070      2.00000
      5     -12.1436      2.00000
      6     -12.1436      2.00000
      7     -12.1436      2.00000
      8      -0.2079      2.00000
      9      -0.2079      2.00000
     10      -0.2079      2.00000
     11       1.4823      2.00000
     12       1.4823      2.00000
     13       1.4823      2.00000
     14       2.3228      2.00000
     15       2.3228      2.00000
     16       2.3228      2.00000
     17       4.3286      0.00000
     18       4.3286      0.00000
     19       4.3286      0.00000
     20       8.0329      0.00000

 k-point     2 :       0.2500    0.0000    0.0000
  band No.  band energies     occupation 
      1     -30.0679      2.00000
      2     -14.8837      2.00000
      3     -13.7930      2.00000
      4     -13.7866      2.00000
      5     -12.1194      2.00000
      6     -12.1194      2.00000
      7     -11.8157      2.00000
      8      -0.9297      2.00000
      9      -0.2378      2.00000
     10      -0.2378      2.00000
     11       0.8195      2.00000
     12       0.8195      2.00000
     13       0.9871      2.00000
     14       1.0399      2.00000
     15       2.0714      2.00000
     16       2.0714      2.00000
     17       4.4060      0.00000
     18       5.3931      0.00000
     19       5.3931      0.00000
     20       9.0177      0.00000

 k-point     3 :       0.5000    0.0000    0.0000
  band No.  band energies     occupation 
      1     -30.0561      2.00000
      2     -15.0292      2.00000
      3     -13.7663      2.00000
      4     -13.6103      2.00000
      5     -12.0950      2.00000
      6     -12.0950      2.00000
      7     -11.5591      2.00000
      8      -1.7101      2.00000
      9      -0.2225      2.00000
     10      -0.2225      2.00000
     11       0.1741      2.00000
     12       0.2616      2.00000
     13       0.2616      2.00000
     14       0.6661      2.00000
     15       1.9359      2.00000
     16       1.9359      2.00000
     17       4.4870      0.00000
     18       6.2356      0.00000
     19       6.2356      0.00000
     20       9.9416      0.00000

 k-point     4 :       0.2500    0.2500    0.0000
  band No.  band energies     occupation 
      1     -30.0571      2.00000
      2     -14.7543      2.00000
      3     -13.9463      2.00000
      4     -13.7342      2.00000
      5     -12.0933      2.00000
      6     -11.9324      2.00000
      7     -11.8032      2.00000
      8      -1.2062      2.00000
      9      -0.7450      2.00000
     10      -0.4173      2.00000
     11      -0.2592      2.00000
     12       0.4367      2.00000
     13       0.9472      2.00000
     14       1.2903      2.00000
     15       1.5776      2.00000
     16       1.9023      2.00000
     17       5.3486      0.00000
     18       5.4869      0.00000
     19       5.7499      0.00000
     20       9.6140      0.00000

 k-point     5 :       0.5000    0.2500    0.0000
  band No.  band energies     occupation 
      1     -30.0462      2.00000
      2     -14.7298      2.00000
      3     -13.8539      2.00000
      4     -13.7630      2.00000
      5     -12.0667      2.00000
      6     -11.8990      2.00000
      7     -11.6736      2.00000
      8      -1.7428      2.00000
      9      -1.3549      2.00000
     10      -0.8194      2.00000
     11      -0.2271      2.00000
     12       0.0033      2.00000
     13       0.7675      2.00000
     14       1.1873      2.00000
     15       1.3182      2.00000
     16       1.9908      2.00000
     17       5.4478      0.00000
     18       6.2356      0.00000
     19       6.3494      0.00000
     20      10.4343      0.00000

 k-point     6 :       0.5000    0.5000    0.0000
  band No.  band energies     occupation 
      1     -30.0363      2.00000
      2     -14.1536      2.00000
      3     -14.0577      2.00000
      4     -14.0577      2.00000
      5     -12.0381      2.00000
      6     -11.7393      2.00000
      7     -11.7393      2.00000
      8      -2.0162      2.00000
      9      -1.9074      2.00000
     10      -1.5816      2.00000
     11      -0.2383      2.00000
     12      -0.2383      2.00000
     13       0.9096      2.00000
     14       1.0816      2.00000
     15       1.0816      2.00000
     16       2.5352      2.00000
     17       6.2383      0.00000
     18       6.2383      0.00000
     19       6.6754      0.00000
     20      10.5578      0.00000

 k-point     7 :       0.2500    0.2500    0.2500
  band No.  band energies     occupation 
      1     -30.0469      2.00000
      2     -14.5705      2.00000
      3     -13.8236      2.00000
      4     -13.8236      2.00000
      5     -12.0793      2.00000
      6     -12.0793      2.00000
      7     -11.7408      2.00000
      8      -1.4112      2.00000
      9      -0.7386      2.00000
     10      -0.7386      2.00000
     11      -0.3309      2.00000
     12      -0.3309      2.00000
     13      -0.1484      2.00000
     14       1.7121      2.00000
     15       1.7121      2.00000
     16       2.0230      2.00000
     17       5.8045      0.00000
     18       5.8661      0.00000
     19       5.8661      0.00000
     20      10.2707      0.00000

 k-point     8 :       0.5000    0.2500    0.2500
  band No.  band energies     occupation 
      1     -30.0367      2.00000
      2     -14.4395      2.00000
      3     -13.8451      2.00000
      4     -13.6757      2.00000
      5     -12.2522      2.00000
      6     -11.8715      2.00000
      7     -11.8660      2.00000
      8      -1.7513      2.00000
      9      -1.3077      2.00000
     10      -0.8997      2.00000
     11      -0.7978      2.00000
     12      -0.6624      2.00000
     13      -0.0927      2.00000
     14       1.6927      2.00000
     15       1.8256      2.00000
     16       2.1115      2.00000
     17       5.9348      0.00000
     18       6.4189      0.00000
     19       6.4465      0.00000
     20      10.9195      0.00000

 k-point     9 :       0.5000    0.5000    0.2500
  band No.  band energies     occupation 
      1     -30.0271      2.00000
      2     -13.8778      2.00000
      3     -13.8593      2.00000
      4     -13.8593      2.00000
      5     -12.2273      2.00000
      6     -12.0305      2.00000
      7     -12.0305      2.00000
      8      -1.8888      2.00000
      9      -1.5728      2.00000
     10      -1.5667      2.00000
     11      -0.7976      2.00000
     12      -0.7976      2.00000
     13      -0.5410      2.00000
     14       1.9665      2.00000
     15       1.9665      2.00000
     16       2.5813      2.00000
     17       6.5147      0.00000
     18       6.5147      0.00000
     19       6.7821      0.00000
     20      10.0286      0.00000

 k-point    10 :       0.5000    0.5000    0.5000
  band No.  band energies     occupation 
      1     -30.0178      2.00000
      2     -13.5740      2.00000
      3     -13.5740      2.00000
      4     -13.5740      2.00000
      5     -12.4056      2.00000
      6     -12.4056      2.00000
      7     -12.4056      2.00000
      8      -2.0086      2.00000
      9      -1.5641      2.00000
     10      -1.5641      2.00000
     11      -1.1154      2.00000
     12      -1.1154      2.00000
     13      -1.1154      2.00000
     14       2.6287      2.00000
     15       2.6287      2.00000
     16       2.6287      2.00000
     17       6.8923      0.00000
     18       9.5712      0.00000
     19       9.5719      0.00000
     20       9.6932      0.00000


--------------------------------------------------------------------------------------------------------


 soft charge-density along one line, spin component           1
         0         1         2         3         4         5         6         7         8         9
 total charge-density along one line
 
 pseudopotential strength for first ion, spin component:           1
-11.346  -7.402   0.000   0.000  -0.000  -0.000  -0.000   0.000
 -7.402  -5.734   0.000   0.000  -0.000  -0.000  -0.000   0.000
  0.000   0.000 -14.872   0.000   0.000   0.103  -0.000  -0.000
  0.000   0.000   0.000 -14.872   0.000  -0.000   0.103  -0.000
 -0.000  -0.000   0.000   0.000 -14.872  -0.000  -0.000   0.103
 -0.000  -0.000   0.103  -0.000  -0.000   0.037  -0.000  -0.000
 -0.000  -0.000  -0.000   0.103  -0.000  -0.000   0.037  -0.000
  0.000   0.000  -0.000  -0.000   0.103  -0.000  -0.000   0.037
  0.000   0.000  -0.000  -0.000   0.000   0.000   0.000  -0.000
  0.000   0.000   0.000   0.000  -0.000  -0.000  -0.000   0.000
  0.000   0.000  -0.000   0.000   0.000   0.000  -0.000  -0.000
  0.000   0.000  -0.000  -0.000   0.000   0.000   0.000  -0.000
 -0.000  -0.000  -0.000   0.000  -0.000   0.000  -0.000   0.000
  0.000   0.000  -0.000  -0.000   0.000  -0.000  -0.000   0.000
  0.000   0.000   0.000   0.000  -0.000   0.000   0.000  -0.000
  0.000   0.000  -0.000   0.000   0.000  -0.000  -0.000   0.000
  0.000   0.000  -0.000  -0.000   0.000  -0.000   0.000   0.000
 -0.000  -0.000  -0.000   0.000  -0.000   0.000   0.000  -0.000
 total augmentation occupancy for first ion, spin component:           1
  2.105  -0.226   0.000   0.000   0.000   0.000   0.000   0.000   0.000  -0.000   0.000   0.000   0.000   0.000   0.000   0.000
 -0.226   0.471   0.000   0.000   0.000   0.000   0.000   0.000  -0.000   0.000   0.000  -0.000  -0.000  -0.000  -0.000   0.000
  0.000   0.000   2.025   0.000  -0.000   0.071   0.000   0.000   0.000   0.000   0.000   0.000   0.000   0.000   0.000   0.000
  0.000   0.000   0.000   2.025  -0.000  -0.000   0.071  -0.000   0.000   0.000   0.000   0.000   0.000   0.000   0.000   0.000
  0.000   0.000  -0.000  -0.000   2.025   0.000   0.000   0.071   0.000   0.000   0.000   0.000   0.000   0.000   0.000   0.000
  0.000   0.000   0.071  -0.000   0.000   0.297  -0.000  -0.000   0.000   0.000   0.000   0.000   0.000   0.000   0.000   0.000
  0.000   0.000   0.000   0.071   0.000  -0.000   0.297   0.000   0.000   0.000   0.000   0.000   0.000   0.000   0.000   0.000
  0.000   0.000   0.000  -0.000   0.071  -0.000   0.000   0.297   0.000   0.000   0.000   0.000   0.000   0.000   0.000   0.000
  0.000  -0.000   0.000   0.000   0.000   0.000   0.000   0.000   0.094  -0.000   0.000  -0.000  -0.000  -0.425  -0.000   0.000
 -0.000   0.000   0.000   0.000   0.000   0.000   0.000   0.000  -0.000   0.094  -0.000  -0.000  -0.000   0.000  -0.425   0.000
  0.000  -0.000   0.000   0.000   0.000   0.000   0.000   0.000  -0.000  -0.000   0.063   0.000   0.000  -0.000   0.000  -0.276
  0.000  -0.000   0.000   0.000   0.000   0.000   0.000   0.000  -0.000   0.000  -0.000   0.094   0.000  -0.000   0.000  -0.000
  0.000   0.000   0.000   0.000   0.000   0.000   0.000   0.000   0.000   0.000  -0.000  -0.000   0.063  -0.000  -0.000  -0.000
 -0.000  -0.000   0.000   0.000   0.000   0.000   0.000   0.000  -0.425   0.000  -0.000  -0.000  -0.000   2.038  -0.000   0.000
 -0.000  -0.000   0.000   0.000   0.000   0.000   0.000   0.000   0.000  -0.425   0.000   0.000  -0.000  -0.000   2.038   0.000
 -0.000   0.000   0.000   0.000   0.000   0.000   0.000   0.000   0.000   0.000  -0.276  -0.000  -0.000   0.000   0.000   1.273
  0.000   0.000   0.000   0.000   0.000   0.000   0.000   0.000  -0.000   0.000  -0.000  -0.425  -0.000   0.000  -0.000  -0.000
  0.000   0.000   0.000   0.000   0.000   0.000   0.000   0.000   0.000   0.000  -0.000  -0.000  -0.276   0.000   0.000   0.000


------------------------ aborting loop because EDIFF is reached ----------------------------------------


    CHARGE:  cpu time    0.0100: real time    0.0108
    FORLOC:  cpu time    0.0020: real time    0.0020
    FORNL :  cpu time    0.0310: real time    0.0305
    STRESS:  cpu time    0.1120: real time    0.1124
    FORCOR:  cpu time    0.0170: real time    0.0163
    FORHAR:  cpu time    0.0040: real time    0.0042
    MIXING:  cpu time    0.0000: real time    0.0009
    OFIELD:  cpu time    0.0000: real time    0.0000

  FORCE on cell =-STRESS in cart. coord.  units (eV):
  Direction    XX          YY          ZZ          XY          YZ          ZX
  --------------------------------------------------------------------------------------
  Alpha Z   185.39986   185.39986   185.39986
  Ewald    -644.69310  -644.69310  -644.69310     0.00000    -0.00000    -0.00000
  Hartree   147.12414   147.12414   147.12414    -0.00000    -0.00000    -0.00000
  E(xc)    -145.39447  -145.39447  -145.39447     0.00000     0.00000     0.00000
  Local      -9.69266    -9.69266    -9.69266    -0.00000     0.00000     0.00000
  n-local  -123.19553  -119.17987  -114.84420    -0.31607    -0.32342    -0.12714
  augment    28.92359    28.92359    28.92359    -0.00000     0.00000     0.00000
  Kinetic   550.56119   562.09463   566.62724    -1.75236    -1.98390    -0.75624
  Fock        0.00000     0.00000     0.00000     0.00000     0.00000     0.00000
  -------------------------------------------------------------------------------------
  Total       2.35518     2.35518     2.35518     0.00000     0.00000    -0.00000
  in kB      63.35523    63.35523    63.35523     0.00000     0.00000    -0.00000
  external pressure =       63.36 kB  Pullay stress =        0.00 kB


 VOLUME and BASIS-vectors are now :
 -----------------------------------------------------------------------------
  energy-cutoff  :      500.00
  volume of cell :       59.56
      direct lattice vectors                 reciprocal lattice vectors
     3.905268000  0.000000000  0.000000000     0.256064373  0.000000000  0.000000000
     0.000000000  3.905268000  0.000000000     0.000000000  0.256064373  0.000000000
     0.000000000  0.000000000  3.905268000     0.000000000  0.000000000  0.256064373

  length of vectors
     3.905268000  3.905268000  3.905268000     0.256064373  0.256064373  0.256064373


 FORCES acting on ions
    electron-ion (+dipol)            ewald-force                    non-local-force                 convergence-correction
 -----------------------------------------------------------------------------------------------
   -.442E-14 -.413E-14 -.453E-14   -.987E-14 0.226E-14 -.502E-14   0.000E+00 0.000E+00 0.000E+00   -.213E-15 0.638E-15 0.254E-15
   0.531E-14 -.460E-12 -.463E-13   0.387E-14 0.424E-14 -.122E-14   0.000E+00 0.000E+00 0.000E+00   0.328E-16 -.574E-15 0.305E-14
   0.154E-12 -.142E-11 -.152E-11   0.648E-14 0.208E-14 -.144E-14   0.000E+00 0.000E+00 0.000E+00   -.802E-14 0.418E-14 -.738E-14
   0.154E-12 -.542E-14 -.193E-11   0.284E-14 -.378E-14 0.434E-14   0.000E+00 0.000E+00 0.000E+00   -.731E-14 0.620E-14 -.435E-14
   -.687E-14 0.153E-12 0.152E-12   -.327E-14 -.425E-14 0.433E-14   0.000E+00 0.000E+00 0.000E+00   0.237E-14 -.995E-15 -.200E-14
 -----------------------------------------------------------------------------------------------
   0.303E-12 -.173E-11 -.336E-11   0.432E-16 0.547E-15 0.100E-14   0.000E+00 0.000E+00 0.000E+00   -.131E-13 0.945E-14 -.104E-13
 
 
 POSITION                                       TOTAL-FORCE (eV/Angst)
 -----------------------------------------------------------------------------------
      0.00000      0.00000      0.00000         0.000000      0.000000      0.000000
      1.95263      1.95263      1.95263         0.000000      0.000000      0.000000
      1.95263      1.95263      0.00000         0.000000      0.000000      0.000000
      1.95263      0.00000      1.95263         0.000000      0.000000      0.000000
      0.00000      1.95263      1.95263         0.000000      0.000000      0.000000
 -----------------------------------------------------------------------------------
    total drift:                                0.000000     -0.000000     -0.000000


--------------------------------------------------------------------------------------------------------



  FREE ENERGIE OF THE ION-ELECTRON SYSTEM (eV)
  ---------------------------------------------------
  free  energy   TOTEN  =       -39.67168219 eV

  energy  without entropy=      -39.67168219  energy(sigma->0) =      -39.67168219
 


--------------------------------------------------------------------------------------------------------


    POTLOK:  cpu time    0.0200: real time    0.0194


--------------------------------------------------------------------------------------------------------


     LOOP+:  cpu time    2.6376: real time    2.6647
    4ORBIT:  cpu time    0.0000: real time    0.0000
 BZINTS: Fermi energy:  2.634290; 32.000000 electrons
         Band energy:-212.416811;  BLOECHL correction:  0.000000

 total amount of memory used by VASP MPI-rank0    38061. kBytes
=======================================================================

   base      :      30000. kBytes
   nonl-proj :       3432. kBytes
   fftplans  :       1176. kBytes
   grid      :       2105. kBytes
   one-center:         46. kBytes
   wavefun   :       1302. kBytes
 
  
  
 General timing and accounting informations for this job:
 ========================================================
  
                  Total CPU time used (sec):        3.358
                            User time (sec):        3.247
                          System time (sec):        0.112
                         Elapsed time (sec):        3.514
  
                   Maximum memory used (kb):       38300.
                   Average memory used (kb):           0.
  
                          Minor page faults:        11366
                          Major page faults:          202
                 Voluntary context switches:         2985
