<?xml version="1.0" encoding="ISO-8859-1"?>
<modeling>
 <generator>
  <i name="program" type="string">vasp </i>
  <i name="version" type="string">5.4.4.18Apr17-6-g9f103f2a35  </i>
  <i name="subversion" type="string">(build Jun 30 2017 11:15:00) complex            parallel </i>
  <i name="platform" type="string">STALLO_VASP_5.4.4 </i>
  <i name="date" type="string">2019 10 26 </i>
  <i name="time" type="string">17:42:26 </i>
 </generator>
 <incar>
  <i type="string" name="PREC">normal    ! low/normal/accurate</i>
  <i type="string" name="ALGO"> Fast      ! Algorithm for electronic re</i>
  <i type="int" name="ISPIN">     1</i>
  <i type="int" name="NELMIN">     4</i>
  <i name="EDIFF">      0.00001000</i>
  <i type="int" name="NSW">     0</i>
  <i name="ENCUT">    500.00000000</i>
  <i type="logical" name="LREAL"> F  </i>
  <i type="int" name="ISMEAR">    -5</i>
  <i name="SIGMA">      0.20000000</i>
  <i type="logical" name="LWAVE"> F  </i>
  <v type="int" name="KPOINT_BSE">    -1     0     0     0</v>
 </incar>
 <structure name="primitive_cell" >
  <crystal>
   <varray name="basis" >
    <v>       3.90526800       0.00000000       0.00000000 </v>
    <v>       0.00000000       3.90526800       0.00000000 </v>
    <v>       0.00000000       0.00000000       3.90526800 </v>
   </varray>
   <i name="volume">     59.55970368 </i>
   <varray name="rec_basis" >
    <v>       0.25606437       0.00000000       0.00000000 </v>
    <v>       0.00000000       0.25606437       0.00000000 </v>
    <v>       0.00000000       0.00000000       0.25606437 </v>
   </varray>
  </crystal>
  <varray name="positions" >
   <v>       0.00000000       0.00000000       0.00000000 </v>
   <v>      -0.50000000      -0.50000000       0.00000000 </v>
   <v>      -0.50000000       0.00000000      -0.50000000 </v>
   <v>       0.00000000      -0.50000000      -0.50000000 </v>
   <v>      -0.50000000      -0.50000000      -0.50000000 </v>
  </varray>
 </structure>
 <varray name="primitive_index" >
  <v type="int" >        1 </v>
  <v type="int" >        3 </v>
  <v type="int" >        4 </v>
  <v type="int" >        5 </v>
  <v type="int" >        2 </v>
 </varray>
 <kpoints>
  <generation param="Gamma">
   <v type="int" name="divisions">       4        4        4 </v>
   <v name="usershift">      0.00000000       0.00000000       0.00000000 </v>
   <v name="genvec1">      0.25000000       0.00000000       0.00000000 </v>
   <v name="genvec2">      0.00000000       0.25000000       0.00000000 </v>
   <v name="genvec3">      0.00000000       0.00000000       0.25000000 </v>
   <v name="shift">      0.00000000       0.00000000       0.00000000 </v>
  </generation>
  <varray name="kpointlist" >
   <v>       0.00000000       0.00000000       0.00000000 </v>
   <v>       0.25000000       0.00000000       0.00000000 </v>
   <v>       0.50000000       0.00000000       0.00000000 </v>
   <v>       0.25000000       0.25000000       0.00000000 </v>
   <v>       0.50000000       0.25000000       0.00000000 </v>
   <v>       0.50000000       0.50000000       0.00000000 </v>
   <v>       0.25000000       0.25000000       0.25000000 </v>
   <v>       0.50000000       0.25000000       0.25000000 </v>
   <v>       0.50000000       0.50000000       0.25000000 </v>
   <v>       0.50000000       0.50000000       0.50000000 </v>
  </varray>
  <varray name="weights" >
   <v>       0.01562500 </v>
   <v>       0.09375000 </v>
   <v>       0.04687500 </v>
   <v>       0.18750000 </v>
   <v>       0.18750000 </v>
   <v>       0.04687500 </v>
   <v>       0.12500000 </v>
   <v>       0.18750000 </v>
   <v>       0.09375000 </v>
   <v>       0.01562500 </v>
  </varray>
  <varray name="tetrahedronlist"  type="int" >
   <v type="int" >       12        1        2        2        4 </v>
   <v type="int" >       12        2        2        4        4 </v>
   <v type="int" >       12        2        4        4        7 </v>
   <v type="int" >       12        2        3        4        5 </v>
   <v type="int" >       12        2        4        4        5 </v>
   <v type="int" >       12        4        4        5        7 </v>
   <v type="int" >       12        3        4        5        5 </v>
   <v type="int" >       24        4        5        5        8 </v>
   <v type="int" >       24        4        5        7        8 </v>
   <v type="int" >       12        4        5        6        7 </v>
   <v type="int" >       12        5        6        7        8 </v>
   <v type="int" >       12        6        7        8        9 </v>
   <v type="int" >       12        5        5        6        8 </v>
   <v type="int" >       12        5        6        8        9 </v>
   <v type="int" >       12        5        7        8        8 </v>
   <v type="int" >       12        5        8        8        9 </v>
   <v type="int" >       12        2        3        4        7 </v>
   <v type="int" >       12        3        4        5        7 </v>
   <v type="int" >       12        3        5        7        8 </v>
   <v type="int" >       12        4        5        6        9 </v>
   <v type="int" >       12        4        5        8        9 </v>
   <v type="int" >       12        4        7        8        9 </v>
   <v type="int" >       12        2        3        5        8 </v>
   <v type="int" >       12        2        4        5        8 </v>
   <v type="int" >       12        2        4        7        8 </v>
   <v type="int" >       12        1        2        4        7 </v>
   <v type="int" >       12        7        8        8        9 </v>
   <v type="int" >       12        8        8        9        9 </v>
   <v type="int" >       12        8        9        9       10 </v>
   <v type="int" >       12        7        8        9       10 </v>
  </varray>
  <i name="volumeweight">      0.00260417 </i>
 </kpoints>
 <parameters>
  <separator name="general" >
   <i type="string" name="SYSTEM">unknown system</i>
   <i type="logical" name="LCOMPAT"> F  </i>
  </separator>
  <separator name="electronic" >
   <i type="string" name="PREC">normal</i>
   <i name="ENMAX">    500.00000000</i>
   <i name="ENAUG">    605.39200000</i>
   <i name="EDIFF">      0.00001000</i>
   <i type="int" name="IALGO">    68</i>
   <i type="int" name="IWAVPR">    10</i>
   <i type="int" name="NBANDS">    20</i>
   <i name="NELECT">     32.00000000</i>
   <i type="int" name="TURBO">     0</i>
   <i type="int" name="IRESTART">     0</i>
   <i type="int" name="NREBOOT">     0</i>
   <i type="int" name="NMIN">     0</i>
   <i name="EREF">      0.00000000</i>
   <separator name="electronic smearing" >
    <i type="int" name="ISMEAR">    -5</i>
    <i name="SIGMA">      0.20000000</i>
    <i name="KSPACING">      0.50000000</i>
    <i type="logical" name="KGAMMA"> T  </i>
   </separator>
   <separator name="electronic projectors" >
    <i type="logical" name="LREAL"> F  </i>
    <v name="ROPT">      0.00000000      0.00000000      0.00000000</v>
    <i type="int" name="LMAXPAW">  -100</i>
    <i type="int" name="LMAXMIX">     2</i>
    <i type="logical" name="NLSPLINE"> F  </i>
   </separator>
   <separator name="electronic startup" >
    <i type="int" name="ISTART">     0</i>
    <i type="int" name="ICHARG">     2</i>
    <i type="int" name="INIWAV">     1</i>
   </separator>
   <separator name="electronic spin" >
    <i type="int" name="ISPIN">     1</i>
    <i type="logical" name="LNONCOLLINEAR"> F  </i>
    <v name="MAGMOM">      1.00000000      1.00000000      1.00000000      1.00000000      1.00000000</v>
    <i name="NUPDOWN">     -1.00000000</i>
    <i type="logical" name="LSORBIT"> F  </i>
    <v name="SAXIS">      0.00000000      0.00000000      1.00000000</v>
    <i type="logical" name="LSPIRAL"> F  </i>
    <v name="QSPIRAL">      0.00000000      0.00000000      0.00000000</v>
    <i type="logical" name="LZEROZ"> F  </i>
   </separator>
   <separator name="electronic exchange-correlation" >
    <i type="logical" name="LASPH"> F  </i>
    <i type="logical" name="LMETAGGA"> F  </i>
   </separator>
   <separator name="electronic convergence" >
    <i type="int" name="NELM">    60</i>
    <i type="int" name="NELMDL">     0</i>
    <i type="int" name="NELMIN">     4</i>
    <i name="ENINI">    500.00000000</i>
    <separator name="electronic convergence detail" >
     <i type="logical" name="LDIAG"> T  </i>
     <i type="logical" name="LSUBROT"> F  </i>
     <i name="WEIMIN">      0.00000000</i>
     <i name="EBREAK">      0.00000013</i>
     <i name="DEPER">      0.30000000</i>
     <i type="int" name="NRMM">     4</i>
     <i name="TIME">      0.40000000</i>
    </separator>
   </separator>
   <separator name="electronic mixer" >
    <i name="AMIX">      0.40000000</i>
    <i name="BMIX">      1.00000000</i>
    <i name="AMIN">      0.10000000</i>
    <i name="AMIX_MAG">      1.60000000</i>
    <i name="BMIX_MAG">      1.00000000</i>
    <separator name="electronic mixer details" >
     <i type="int" name="IMIX">     4</i>
     <i type="logical" name="MIXFIRST"> F  </i>
     <i type="int" name="MAXMIX">   -45</i>
     <i name="WC">    100.00000000</i>
     <i type="int" name="INIMIX">     1</i>
     <i type="int" name="MIXPRE">     1</i>
     <i type="int" name="MREMOVE">     5</i>
    </separator>
   </separator>
   <separator name="electronic dipolcorrection" >
    <i type="logical" name="LDIPOL"> F  </i>
    <i type="logical" name="LMONO"> F  </i>
    <i type="int" name="IDIPOL">     0</i>
    <i name="EPSILON">      1.00000000</i>
    <v name="DIPOL">   -100.00000000   -100.00000000   -100.00000000</v>
    <i name="EFIELD">      0.00000000</i>
   </separator>
  </separator>
  <separator name="grids" >
   <i type="int" name="NGX">    24</i>
   <i type="int" name="NGY">    24</i>
   <i type="int" name="NGZ">    24</i>
   <i type="int" name="NGXF">    48</i>
   <i type="int" name="NGYF">    48</i>
   <i type="int" name="NGZF">    48</i>
   <i type="logical" name="ADDGRID"> F  </i>
  </separator>
  <separator name="ionic" >
   <i type="int" name="NSW">     0</i>
   <i type="int" name="IBRION">    -1</i>
   <i type="int" name="MDALGO">     0</i>
   <i type="int" name="ISIF">     2</i>
   <i name="PSTRESS">      0.00000000</i>
   <i name="EDIFFG">      0.00010000</i>
   <i type="int" name="NFREE">     0</i>
   <i name="POTIM">      0.50000000</i>
   <i name="SMASS">     -3.00000000</i>
   <i name="SCALEE">      1.00000000</i>
  </separator>
  <separator name="ionic md" >
   <i name="TEBEG">      0.00010000</i>
   <i name="TEEND">      0.00010000</i>
   <i type="int" name="NBLOCK">     1</i>
   <i type="int" name="KBLOCK">     1</i>
   <i type="int" name="NPACO">   256</i>
   <i name="APACO">     16.00000000</i>
  </separator>
  <separator name="symmetry" >
   <i type="int" name="ISYM">     2</i>
   <i name="SYMPREC">      0.00001000</i>
  </separator>
  <separator name="dos" >
   <i type="int" name="LORBIT">     0</i>
   <v name="RWIGS">     -1.00000000     -1.00000000     -1.00000000</v>
   <i type="int" name="NEDOS">   301</i>
   <i name="EMIN">     10.00000000</i>
   <i name="EMAX">    -10.00000000</i>
   <i name="EFERMI">      0.00000000</i>
  </separator>
  <separator name="writing" >
   <i type="int" name="NWRITE">     2</i>
   <i type="logical" name="LWAVE"> F  </i>
   <i type="logical" name="LDOWNSAMPLE"> F  </i>
   <i type="logical" name="LCHARG"> T  </i>
   <i type="logical" name="LPARD"> F  </i>
   <i type="logical" name="LVTOT"> F  </i>
   <i type="logical" name="LVHAR"> F  </i>
   <i type="logical" name="LELF"> F  </i>
   <i type="logical" name="LOPTICS"> F  </i>
   <v name="STM">      0.00000000      0.00000000      0.00000000      0.00000000      0.00000000      0.00000000      0.00000000</v>
  </separator>
  <separator name="performance" >
   <i type="int" name="NPAR">     2</i>
   <i type="int" name="NSIM">     4</i>
   <i type="int" name="NBLK">    -1</i>
   <i type="logical" name="LPLANE"> T  </i>
   <i type="logical" name="LSCALAPACK"> T  </i>
   <i type="logical" name="LSCAAWARE"> F  </i>
   <i type="logical" name="LSCALU"> F  </i>
   <i type="logical" name="LASYNC"> F  </i>
   <i type="logical" name="LORBITALREAL"> F  </i>
  </separator>
  <separator name="miscellaneous" >
   <i type="int" name="IDIOT">     3</i>
   <i type="int" name="ISPECIAL">     0</i>
   <i type="logical" name="LMUSIC"> F  </i>
   <v name="POMASS">     87.62000000     47.88000000     16.00000000</v>
   <v name="DARWINR">      0.00000000      0.00000000      0.00000000</v>
   <v name="DARWINV">      1.00000000      1.00000000      1.00000000</v>
   <i type="logical" name="LCORR"> T  </i>
  </separator>
  <i type="logical" name="GGA_COMPAT"> T  </i>
  <i type="logical" name="LBERRY"> F  </i>
  <i type="int" name="ICORELEVEL">     0</i>
  <i type="logical" name="LDAU"> F  </i>
  <i type="int" name="I_CONSTRAINED_M">     0</i>
  <separator name="electronic exchange-correlation" >
   <i type="string" name="GGA">--</i>
   <i type="int" name="VOSKOWN">     0</i>
   <i type="logical" name="LHFCALC"> F  </i>
   <i type="string" name="PRECFOCK"></i>
   <i type="logical" name="LSYMGRAD"> F  </i>
   <i type="logical" name="LHFONE"> F  </i>
   <i type="logical" name="LRHFCALC"> F  </i>
   <i type="logical" name="LTHOMAS"> F  </i>
   <i type="logical" name="LMODELHF"> F  </i>
   <i name="ENCUT4O">     -1.00000000</i>
   <i type="int" name="EXXOEP">     0</i>
   <i type="int" name="FOURORBIT">     0</i>
   <i name="AEXX">      0.00000000</i>
   <i name="HFALPHA">      0.00000000</i>
   <i name="MCALPHA">      0.00000000</i>
   <i name="ALDAX">      1.00000000</i>
   <i name="AGGAX">      1.00000000</i>
   <i name="ALDAC">      1.00000000</i>
   <i name="AGGAC">      1.00000000</i>
   <i type="int" name="NKREDX">     1</i>
   <i type="int" name="NKREDY">     1</i>
   <i type="int" name="NKREDZ">     1</i>
   <i type="logical" name="SHIFTRED"> F  </i>
   <i type="logical" name="ODDONLY"> F  </i>
   <i type="logical" name="EVENONLY"> F  </i>
   <i type="int" name="LMAXFOCK">     0</i>
   <i type="int" name="NMAXFOCKAE">     0</i>
   <i type="logical" name="LFOCKAEDFT"> F  </i>
   <i name="HFSCREEN">      0.00000000</i>
   <i name="HFSCREENC">      0.00000000</i>
   <i type="int" name="NBANDSGWLOW">     0</i>
  </separator>
  <separator name="vdW DFT" >
   <i type="logical" name="LUSE_VDW"> F  </i>
   <i name="Zab_VDW">     -0.84910000</i>
   <i name="PARAM1">      0.12340000</i>
   <i name="PARAM2">      1.00000000</i>
   <i name="PARAM3">      0.00000000</i>
  </separator>
  <separator name="model GW" >
   <i type="int" name="MODEL_GW">     0</i>
   <i name="MODEL_EPS0">      7.14716444</i>
   <i name="MODEL_ALPHA">      1.00000000</i>
  </separator>
  <separator name="linear response parameters" >
   <i type="logical" name="LEPSILON"> F  </i>
   <i type="logical" name="LRPA"> F  </i>
   <i type="logical" name="LNABLA"> F  </i>
   <i type="logical" name="LVEL"> F  </i>
   <i type="int" name="KINTER">     0</i>
   <i name="CSHIFT">      0.10000000</i>
   <i name="OMEGAMAX">     -1.00000000</i>
   <i name="DEG_THRESHOLD">      0.00200000</i>
   <i name="RTIME">     -0.10000000</i>
   <i name="WPLASMAI">      0.00000000</i>
   <v name="DFIELD">      0.00000000      0.00000000      0.00000000</v>
   <v name="WPLASMA">      0.00000000      0.00000000      0.00000000      0.00000000      0.00000000      0.00000000      0.00000000      0.00000000      0.00000000</v>
  </separator>
  <separator name="orbital magnetization" >
   <i type="logical" name="NUCIND"> F  </i>
   <v name="MAGPOS">      0.00000000      0.00000000      0.00000000</v>
   <i type="logical" name="LNICSALL"> T  </i>
   <i type="logical" name="ORBITALMAG"> F  </i>
   <i type="logical" name="LMAGBLOCH"> F  </i>
   <i type="logical" name="LCHIMAG"> F  </i>
   <i type="logical" name="LGAUGE"> T  </i>
   <i type="int" name="MAGATOM">     0</i>
   <v name="MAGDIPOL">      0.00000000      0.00000000      0.00000000</v>
   <v name="AVECCONST">      0.00000000      0.00000000      0.00000000</v>
  </separator>
  <separator name="response functions" >
   <i type="logical" name="LADDER"> F  </i>
   <i type="logical" name="LRPAFORCE"> F  </i>
   <i type="logical" name="LFXC"> F  </i>
   <i type="logical" name="LHARTREE"> T  </i>
   <i type="int" name="IBSE">     0</i>
   <v type="int" name="KPOINT">    -1     0     0     0</v>
   <i type="logical" name="LTCTE"> F  </i>
   <i type="logical" name="LTETE"> F  </i>
   <i type="logical" name="LTRIPLET"> F  </i>
   <i type="logical" name="LFXCEPS"> F  </i>
   <i type="logical" name="LFXHEG"> F  </i>
   <i type="int" name="NATURALO">     2</i>
   <i type="logical" name="L2ORDER"> F  </i>
   <i type="logical" name="LMP2LT"> F  </i>
   <i type="logical" name="LUSEW"> F  </i>
   <i name="ENCUTGW">     -2.00000000</i>
   <i name="ENCUTGWSOFT">     -2.00000000</i>
   <i name="ENCUTLF">     -1.00000000</i>
   <i type="int" name="LMAXMP2">    -1</i>
   <i name="SCISSOR">      0.00000000</i>
   <i type="int" name="NOMEGA">     0</i>
   <i type="int" name="NOMEGAR">     0</i>
   <i type="int" name="NBANDSGW">    -1</i>
   <i type="int" name="NBANDSO">    -1</i>
   <i type="int" name="NBANDSV">    -1</i>
   <i type="int" name="NELM">     1</i>
   <i type="int" name="NELMHF">     1</i>
   <i type="int" name="DIM">     3</i>
   <i type="int" name="ANTIRES">     0</i>
   <i name="OMEGAMAX">    -30.00000000</i>
   <i name="OMEGAMIN">    -30.00000000</i>
   <i name="OMEGATL">   -200.00000000</i>
   <i type="int" name="OMEGAGRID">   140</i>
   <i name="CSHIFT">     -0.10000000</i>
   <i type="logical" name="SELFENERGY"> F  </i>
   <i type="logical" name="LSPECTRAL"> F  </i>
   <i type="logical" name="LSPECTRALGW"> F  </i>
   <i type="logical" name="LSINGLES"> F  </i>
   <i type="logical" name="LFERMIGW"> F  </i>
   <i type="logical" name="ODDONLYGW"> F  </i>
   <i type="logical" name="EVENONLYGW"> F  </i>
   <i type="int" name="NKREDLFX">     1</i>
   <i type="int" name="NKREDLFY">     1</i>
   <i type="int" name="NKREDLFZ">     1</i>
   <i type="int" name="MAXMEM">  2800</i>
   <i type="int" name="TELESCOPE">     0</i>
   <i type="int" name="TAUPAR">     1</i>
   <i type="int" name="OMEGAPAR">    -1</i>
   <i name="LAMBDA">      1.00000000</i>
  </separator>
  <separator name="External order field" >
   <i name="OFIELD_KAPPA">      0.00000000</i>
   <v name="OFIELD_K">      0.00000000      0.00000000      0.00000000</v>
   <i name="OFIELD_Q6_NEAR">      0.00000000</i>
   <i name="OFIELD_Q6_FAR">      0.00000000</i>
   <i name="OFIELD_A">      0.00000000</i>
  </separator>
 </parameters>
 <atominfo>
  <atoms>       5 </atoms>
  <types>       3 </types>
  <array name="atoms" >
   <dimension dim="1">ion</dimension>
   <field type="string">element</field>
   <field type="int">atomtype</field>
   <set>
    <rc><c>Sr</c><c>   1</c></rc>
    <rc><c>Ti</c><c>   2</c></rc>
    <rc><c>O </c><c>   3</c></rc>
    <rc><c>O </c><c>   3</c></rc>
    <rc><c>O </c><c>   3</c></rc>
   </set>
  </array>
  <array name="atomtypes" >
   <dimension dim="1">type</dimension>
   <field type="int">atomspertype</field>
   <field type="string">element</field>
   <field>mass</field>
   <field>valence</field>
   <field type="string">pseudopotential</field>
   <set>
    <rc><c>   1</c><c>Sr</c><c>     87.62000000</c><c>     10.00000000</c><c> PAW_PBE Sr_sv 07Sep2000                </c></rc>
    <rc><c>   1</c><c>Ti</c><c>     47.88000000</c><c>      4.00000000</c><c> PAW_PBE Ti 08Apr2002                   </c></rc>
    <rc><c>   3</c><c>O </c><c>     16.00000000</c><c>      6.00000000</c><c> PAW_PBE O 08Apr2002                    </c></rc>
   </set>
  </array>
 </atominfo>
 <structure name="initialpos" >
  <crystal>
   <varray name="basis" >
    <v>       3.90526800       0.00000000       0.00000000 </v>
    <v>       0.00000000       3.90526800       0.00000000 </v>
    <v>       0.00000000       0.00000000       3.90526800 </v>
   </varray>
   <i name="volume">     59.55970368 </i>
   <varray name="rec_basis" >
    <v>       0.25606437       0.00000000       0.00000000 </v>
    <v>       0.00000000       0.25606437       0.00000000 </v>
    <v>       0.00000000       0.00000000       0.25606437 </v>
   </varray>
  </crystal>
  <varray name="positions" >
   <v>       0.00000000       0.00000000       0.00000000 </v>
   <v>       0.50000000       0.50000000       0.50000000 </v>
   <v>       0.50000000       0.50000000       0.00000000 </v>
   <v>       0.50000000       0.00000000       0.50000000 </v>
   <v>       0.00000000       0.50000000       0.50000000 </v>
  </varray>
 </structure>
 <calculation>
  <scstep>
   <time name="dav">    0.13    0.13</time>
   <time name="total">    0.15    0.18</time>
   <energy>
    <i name="alphaZ">    185.39985751 </i>
    <i name="ewald">  -1934.07799583 </i>
    <i name="hartreedc">   -403.14003404 </i>
    <i name="XCdc">     82.31788258 </i>
    <i name="pawpsdc">   1333.61297253 </i>
    <i name="pawaedc">  -1284.78446064 </i>
    <i name="eentropy">      0.00000000 </i>
    <i name="bandstr">     91.36415527 </i>
    <i name="atom">   2234.31706254 </i>
    <i name="e_fr_energy">    305.00943992 </i>
    <i name="e_wo_entrp">    305.00943992 </i>
    <i name="e_0_energy">    305.00943992 </i>
   </energy>
  </scstep>
  <scstep>
   <time name="dav">    0.13    0.14</time>
   <time name="total">    0.13    0.14</time>
   <energy>
    <i name="e_fr_energy">    -17.44707559 </i>
    <i name="e_wo_entrp">    -17.44707559 </i>
    <i name="e_0_energy">    -17.44707559 </i>
   </energy>
  </scstep>
  <scstep>
   <time name="dav">    0.13    0.13</time>
   <time name="total">    0.13    0.13</time>
   <energy>
    <i name="e_fr_energy">    -49.13615886 </i>
    <i name="e_wo_entrp">    -49.13615886 </i>
    <i name="e_0_energy">    -49.13615886 </i>
   </energy>
  </scstep>
  <scstep>
   <time name="dav">    0.17    0.17</time>
   <time name="total">    0.17    0.17</time>
   <energy>
    <i name="e_fr_energy">    -50.20873239 </i>
    <i name="e_wo_entrp">    -50.20873239 </i>
    <i name="e_0_energy">    -50.20873239 </i>
   </energy>
  </scstep>
  <scstep>
   <time name="dav">    0.13    0.13</time>
   <time name="total">    0.15    0.15</time>
   <energy>
    <i name="e_fr_energy">    -50.22741136 </i>
    <i name="e_wo_entrp">    -50.22741136 </i>
    <i name="e_0_energy">    -50.22741136 </i>
   </energy>
  </scstep>
  <scstep>
   <time name="diag">    0.03    0.03</time>
   <time name="diis">    0.08    0.08</time>
   <time name="orth">    0.00    0.00</time>
   <time name="total">    0.14    0.14</time>
   <energy>
    <i name="e_fr_energy">    -40.37805857 </i>
    <i name="e_wo_entrp">    -40.37805857 </i>
    <i name="e_0_energy">    -40.37805857 </i>
   </energy>
  </scstep>
  <scstep>
   <time name="diag">    0.02    0.02</time>
   <time name="diis">    0.09    0.09</time>
   <time name="orth">    0.00    0.00</time>
   <time name="total">    0.15    0.15</time>
   <energy>
    <i name="e_fr_energy">    -39.77689919 </i>
    <i name="e_wo_entrp">    -39.77689919 </i>
    <i name="e_0_energy">    -39.77689919 </i>
   </energy>
  </scstep>
  <scstep>
   <time name="diag">    0.02    0.03</time>
   <time name="diis">    0.09    0.09</time>
   <time name="orth">    0.00    0.00</time>
   <time name="total">    0.15    0.15</time>
   <energy>
    <i name="e_fr_energy">    -39.69006188 </i>
    <i name="e_wo_entrp">    -39.69006188 </i>
    <i name="e_0_energy">    -39.69006188 </i>
   </energy>
  </scstep>
  <scstep>
   <time name="diag">    0.02    0.03</time>
   <time name="diis">    0.10    0.10</time>
   <time name="orth">    0.00    0.00</time>
   <time name="total">    0.15    0.16</time>
   <energy>
    <i name="e_fr_energy">    -39.67747451 </i>
    <i name="e_wo_entrp">    -39.67747451 </i>
    <i name="e_0_energy">    -39.67747451 </i>
   </energy>
  </scstep>
  <scstep>
   <time name="diag">    0.02    0.02</time>
   <time name="diis">    0.08    0.09</time>
   <time name="orth">    0.00    0.00</time>
   <time name="total">    0.14    0.14</time>
   <energy>
    <i name="e_fr_energy">    -39.67325221 </i>
    <i name="e_wo_entrp">    -39.67325221 </i>
    <i name="e_0_energy">    -39.67325221 </i>
   </energy>
  </scstep>
  <scstep>
   <time name="diag">    0.02    0.03</time>
   <time name="diis">    0.09    0.09</time>
   <time name="orth">    0.00    0.00</time>
   <time name="total">    0.15    0.15</time>
   <energy>
    <i name="e_fr_energy">    -39.67133521 </i>
    <i name="e_wo_entrp">    -39.67133521 </i>
    <i name="e_0_energy">    -39.67133521 </i>
   </energy>
  </scstep>
  <scstep>
   <time name="diag">    0.02    0.03</time>
   <time name="diis">    0.10    0.10</time>
   <time name="orth">    0.00    0.00</time>
   <time name="total">    0.16    0.16</time>
   <energy>
    <i name="e_fr_energy">    -39.67171060 </i>
    <i name="e_wo_entrp">    -39.67171060 </i>
    <i name="e_0_energy">    -39.67171060 </i>
   </energy>
  </scstep>
  <scstep>
   <time name="diag">    0.02    0.02</time>
   <time name="diis">    0.10    0.12</time>
   <time name="orth">    0.00    0.02</time>
   <time name="total">    0.16    0.22</time>
   <energy>
    <i name="e_fr_energy">    -39.67162111 </i>
    <i name="e_wo_entrp">    -39.67162111 </i>
    <i name="e_0_energy">    -39.67162111 </i>
   </energy>
  </scstep>
  <scstep>
   <time name="diag">    0.03    0.03</time>
   <time name="diis">    0.09    0.10</time>
   <time name="orth">    0.00    0.00</time>
   <time name="total">    0.16    0.17</time>
   <energy>
    <i name="e_fr_energy">    -39.67167602 </i>
    <i name="e_wo_entrp">    -39.67167602 </i>
    <i name="e_0_energy">    -39.67167602 </i>
   </energy>
  </scstep>
  <scstep>
   <time name="diag">    0.02    0.03</time>
   <time name="diis">    0.08    0.08</time>
   <time name="orth">    0.00    0.00</time>
   <time name="total">    0.14    0.14</time>
   <energy>
    <i name="e_fr_energy">    -39.67167785 </i>
    <i name="e_wo_entrp">    -39.67167785 </i>
    <i name="e_0_energy">    -39.67167785 </i>
   </energy>
  </scstep>
  <scstep>
   <time name="diag">    0.02    0.03</time>
   <time name="diis">    0.07    0.07</time>
   <time name="orth">    0.00    0.00</time>
   <time name="total">    0.12    0.12</time>
   <energy>
    <i name="alphaZ">    185.39985751 </i>
    <i name="ewald">  -1934.07799583 </i>
    <i name="hartreedc">   -441.42367524 </i>
    <i name="XCdc">     86.20371889 </i>
    <i name="pawpsdc">   1562.20200194 </i>
    <i name="pawaedc">  -1519.87584120 </i>
    <i name="eentropy">      0.00000000 </i>
    <i name="bandstr">   -212.41681079 </i>
    <i name="atom">   2234.31706254 </i>
    <i name="e_fr_energy">    -39.67168219 </i>
    <i name="e_wo_entrp">    -39.67168219 </i>
    <i name="e_0_energy">    -39.67168219 </i>
   </energy>
  </scstep>
  <structure>
   <crystal>
    <varray name="basis" >
     <v>       3.90526800       0.00000000       0.00000000 </v>
     <v>       0.00000000       3.90526800       0.00000000 </v>
     <v>       0.00000000       0.00000000       3.90526800 </v>
    </varray>
    <i name="volume">     59.55970368 </i>
    <varray name="rec_basis" >
     <v>       0.25606437       0.00000000       0.00000000 </v>
     <v>       0.00000000       0.25606437       0.00000000 </v>
     <v>       0.00000000       0.00000000       0.25606437 </v>
    </varray>
   </crystal>
   <varray name="positions" >
    <v>       0.00000000       0.00000000       0.00000000 </v>
    <v>       0.50000000       0.50000000       0.50000000 </v>
    <v>       0.50000000       0.50000000       0.00000000 </v>
    <v>       0.50000000       0.00000000       0.50000000 </v>
    <v>       0.00000000       0.50000000       0.50000000 </v>
   </varray>
  </structure>
  <varray name="forces" >
   <v>       0.00000000       0.00000000       0.00000000 </v>
   <v>       0.00000000       0.00000000       0.00000000 </v>
   <v>       0.00000000       0.00000000       0.00000000 </v>
   <v>       0.00000000       0.00000000       0.00000000 </v>
   <v>       0.00000000       0.00000000       0.00000000 </v>
  </varray>
  <varray name="stress" >
   <v>      63.35522671       0.00000000      -0.00000000 </v>
   <v>       0.00000000      63.35522671      -0.00000000 </v>
   <v>       0.00000000       0.00000000      63.35522671 </v>
  </varray>
  <energy>
   <i name="e_fr_energy">    -39.67168219 </i>
   <i name="e_wo_entrp">    -39.67168219 </i>
   <i name="e_0_energy">      0.00000000 </i>
  </energy>
  <time name="totalsc">    2.68    2.85</time>
  <eigenvalues>
   <array>
    <dimension dim="1">band</dimension>
    <dimension dim="2">kpoint</dimension>
    <dimension dim="3">spin</dimension>
    <field>eigene</field>
    <field>occ</field>
    <set>
     <set comment="spin 1">
      <set comment="kpoint 1">
       <r>  -30.0796    1.0000 </r>
       <r>  -14.8133    1.0000 </r>
       <r>  -13.8070    1.0000 </r>
       <r>  -13.8070    1.0000 </r>
       <r>  -12.1436    1.0000 </r>
       <r>  -12.1436    1.0000 </r>
       <r>  -12.1436    1.0000 </r>
       <r>   -0.2079    1.0000 </r>
       <r>   -0.2079    1.0000 </r>
       <r>   -0.2079    1.0000 </r>
       <r>    1.4823    1.0000 </r>
       <r>    1.4823    1.0000 </r>
       <r>    1.4823    1.0000 </r>
       <r>    2.3228    1.0000 </r>
       <r>    2.3228    1.0000 </r>
       <r>    2.3228    1.0000 </r>
       <r>    4.3286    0.0000 </r>
       <r>    4.3286    0.0000 </r>
       <r>    4.3286    0.0000 </r>
       <r>    8.0329    0.0000 </r>
      </set>
      <set comment="kpoint 2">
       <r>  -30.0679    1.0000 </r>
       <r>  -14.8837    1.0000 </r>
       <r>  -13.7930    1.0000 </r>
       <r>  -13.7866    1.0000 </r>
       <r>  -12.1194    1.0000 </r>
       <r>  -12.1194    1.0000 </r>
       <r>  -11.8157    1.0000 </r>
       <r>   -0.9297    1.0000 </r>
       <r>   -0.2378    1.0000 </r>
       <r>   -0.2378    1.0000 </r>
       <r>    0.8195    1.0000 </r>
       <r>    0.8195    1.0000 </r>
       <r>    0.9871    1.0000 </r>
       <r>    1.0399    1.0000 </r>
       <r>    2.0714    1.0000 </r>
       <r>    2.0714    1.0000 </r>
       <r>    4.4060    0.0000 </r>
       <r>    5.3931    0.0000 </r>
       <r>    5.3931    0.0000 </r>
       <r>    9.0177    0.0000 </r>
      </set>
      <set comment="kpoint 3">
       <r>  -30.0561    1.0000 </r>
       <r>  -15.0292    1.0000 </r>
       <r>  -13.7663    1.0000 </r>
       <r>  -13.6103    1.0000 </r>
       <r>  -12.0950    1.0000 </r>
       <r>  -12.0950    1.0000 </r>
       <r>  -11.5591    1.0000 </r>
       <r>   -1.7101    1.0000 </r>
       <r>   -0.2225    1.0000 </r>
       <r>   -0.2225    1.0000 </r>
       <r>    0.1741    1.0000 </r>
       <r>    0.2616    1.0000 </r>
       <r>    0.2616    1.0000 </r>
       <r>    0.6661    1.0000 </r>
       <r>    1.9359    1.0000 </r>
       <r>    1.9359    1.0000 </r>
       <r>    4.4870    0.0000 </r>
       <r>    6.2356    0.0000 </r>
       <r>    6.2356    0.0000 </r>
       <r>    9.9416    0.0000 </r>
      </set>
      <set comment="kpoint 4">
       <r>  -30.0571    1.0000 </r>
       <r>  -14.7543    1.0000 </r>
       <r>  -13.9463    1.0000 </r>
       <r>  -13.7342    1.0000 </r>
       <r>  -12.0933    1.0000 </r>
       <r>  -11.9324    1.0000 </r>
       <r>  -11.8032    1.0000 </r>
       <r>   -1.2062    1.0000 </r>
       <r>   -0.7450    1.0000 </r>
       <r>   -0.4173    1.0000 </r>
       <r>   -0.2592    1.0000 </r>
       <r>    0.4367    1.0000 </r>
       <r>    0.9472    1.0000 </r>
       <r>    1.2903    1.0000 </r>
       <r>    1.5776    1.0000 </r>
       <r>    1.9023    1.0000 </r>
       <r>    5.3486    0.0000 </r>
       <r>    5.4869    0.0000 </r>
       <r>    5.7499    0.0000 </r>
       <r>    9.6140    0.0000 </r>
      </set>
      <set comment="kpoint 5">
       <r>  -30.0462    1.0000 </r>
       <r>  -14.7298    1.0000 </r>
       <r>  -13.8539    1.0000 </r>
       <r>  -13.7630    1.0000 </r>
       <r>  -12.0667    1.0000 </r>
       <r>  -11.8990    1.0000 </r>
       <r>  -11.6736    1.0000 </r>
       <r>   -1.7428    1.0000 </r>
       <r>   -1.3549    1.0000 </r>
       <r>   -0.8194    1.0000 </r>
       <r>   -0.2271    1.0000 </r>
       <r>    0.0033    1.0000 </r>
       <r>    0.7675    1.0000 </r>
       <r>    1.1873    1.0000 </r>
       <r>    1.3182    1.0000 </r>
       <r>    1.9908    1.0000 </r>
       <r>    5.4478    0.0000 </r>
       <r>    6.2356    0.0000 </r>
       <r>    6.3494    0.0000 </r>
       <r>   10.4343    0.0000 </r>
      </set>
      <set comment="kpoint 6">
       <r>  -30.0363    1.0000 </r>
       <r>  -14.1536    1.0000 </r>
       <r>  -14.0577    1.0000 </r>
       <r>  -14.0577    1.0000 </r>
       <r>  -12.0381    1.0000 </r>
       <r>  -11.7393    1.0000 </r>
       <r>  -11.7393    1.0000 </r>
       <r>   -2.0162    1.0000 </r>
       <r>   -1.9074    1.0000 </r>
       <r>   -1.5816    1.0000 </r>
       <r>   -0.2383    1.0000 </r>
       <r>   -0.2383    1.0000 </r>
       <r>    0.9096    1.0000 </r>
       <r>    1.0816    1.0000 </r>
       <r>    1.0816    1.0000 </r>
       <r>    2.5352    1.0000 </r>
       <r>    6.2383    0.0000 </r>
       <r>    6.2383    0.0000 </r>
       <r>    6.6754    0.0000 </r>
       <r>   10.5578    0.0000 </r>
      </set>
      <set comment="kpoint 7">
       <r>  -30.0469    1.0000 </r>
       <r>  -14.5705    1.0000 </r>
       <r>  -13.8236    1.0000 </r>
       <r>  -13.8236    1.0000 </r>
       <r>  -12.0793    1.0000 </r>
       <r>  -12.0793    1.0000 </r>
       <r>  -11.7408    1.0000 </r>
       <r>   -1.4112    1.0000 </r>
       <r>   -0.7386    1.0000 </r>
       <r>   -0.7386    1.0000 </r>
       <r>   -0.3309    1.0000 </r>
       <r>   -0.3309    1.0000 </r>
       <r>   -0.1484    1.0000 </r>
       <r>    1.7121    1.0000 </r>
       <r>    1.7121    1.0000 </r>
       <r>    2.0230    1.0000 </r>
       <r>    5.8045    0.0000 </r>
       <r>    5.8661    0.0000 </r>
       <r>    5.8661    0.0000 </r>
       <r>   10.2707    0.0000 </r>
      </set>
      <set comment="kpoint 8">
       <r>  -30.0367    1.0000 </r>
       <r>  -14.4395    1.0000 </r>
       <r>  -13.8451    1.0000 </r>
       <r>  -13.6757    1.0000 </r>
       <r>  -12.2522    1.0000 </r>
       <r>  -11.8715    1.0000 </r>
       <r>  -11.8660    1.0000 </r>
       <r>   -1.7513    1.0000 </r>
       <r>   -1.3077    1.0000 </r>
       <r>   -0.8997    1.0000 </r>
       <r>   -0.7978    1.0000 </r>
       <r>   -0.6624    1.0000 </r>
       <r>   -0.0927    1.0000 </r>
       <r>    1.6927    1.0000 </r>
       <r>    1.8256    1.0000 </r>
       <r>    2.1115    1.0000 </r>
       <r>    5.9348    0.0000 </r>
       <r>    6.4189    0.0000 </r>
       <r>    6.4465    0.0000 </r>
       <r>   10.9195    0.0000 </r>
      </set>
      <set comment="kpoint 9">
       <r>  -30.0271    1.0000 </r>
       <r>  -13.8778    1.0000 </r>
       <r>  -13.8593    1.0000 </r>
       <r>  -13.8593    1.0000 </r>
       <r>  -12.2273    1.0000 </r>
       <r>  -12.0305    1.0000 </r>
       <r>  -12.0305    1.0000 </r>
       <r>   -1.8888    1.0000 </r>
       <r>   -1.5728    1.0000 </r>
       <r>   -1.5667    1.0000 </r>
       <r>   -0.7976    1.0000 </r>
       <r>   -0.7976    1.0000 </r>
       <r>   -0.5410    1.0000 </r>
       <r>    1.9665    1.0000 </r>
       <r>    1.9665    1.0000 </r>
       <r>    2.5813    1.0000 </r>
       <r>    6.5147    0.0000 </r>
       <r>    6.5147    0.0000 </r>
       <r>    6.7821    0.0000 </r>
       <r>   10.0286    0.0000 </r>
      </set>
      <set comment="kpoint 10">
       <r>  -30.0178    1.0000 </r>
       <r>  -13.5740    1.0000 </r>
       <r>  -13.5740    1.0000 </r>
       <r>  -13.5740    1.0000 </r>
       <r>  -12.4056    1.0000 </r>
       <r>  -12.4056    1.0000 </r>
       <r>  -12.4056    1.0000 </r>
       <r>   -2.0086    1.0000 </r>
       <r>   -1.5641    1.0000 </r>
       <r>   -1.5641    1.0000 </r>
       <r>   -1.1154    1.0000 </r>
       <r>   -1.1154    1.0000 </r>
       <r>   -1.1154    1.0000 </r>
       <r>    2.6287    1.0000 </r>
       <r>    2.6287    1.0000 </r>
       <r>    2.6287    1.0000 </r>
       <r>    6.8923    0.0000 </r>
       <r>    9.5712    0.0000 </r>
       <r>    9.5719    0.0000 </r>
       <r>    9.6932    0.0000 </r>
      </set>
     </set>
    </set>
   </array>
  </eigenvalues>
  <separator name="orbital magnetization" >
   <v name="MAGDIPOLOUT">      0.00000000      0.00000000      0.00000000</v>
  </separator>
  <dos>
   <i name="efermi">      2.63429028 </i>
   <total>
    <array>
     <dimension dim="1">gridpoints</dimension>
     <dimension dim="2">spin</dimension>
     <field>energy</field>
     <field>total</field>
     <field>integrated</field>
     <set>
      <set comment="spin 1">
       <r>   -32.1296     0.0000     0.0000 </r>
       <r>   -31.9793     0.0000     0.0000 </r>
       <r>   -31.8289     0.0000     0.0000 </r>
       <r>   -31.6786     0.0000     0.0000 </r>
       <r>   -31.5283     0.0000     0.0000 </r>
       <r>   -31.3780     0.0000     0.0000 </r>
       <r>   -31.2276     0.0000     0.0000 </r>
       <r>   -31.0773     0.0000     0.0000 </r>
       <r>   -30.9270     0.0000     0.0000 </r>
       <r>   -30.7766     0.0000     0.0000 </r>
       <r>   -30.6263     0.0000     0.0000 </r>
       <r>   -30.4760     0.0000     0.0000 </r>
       <r>   -30.3256     0.0000     0.0000 </r>
       <r>   -30.1753     0.0000     0.0000 </r>
       <r>   -30.0250     7.8705     1.9812 </r>
       <r>   -29.8747     0.0000     2.0000 </r>
       <r>   -29.7243     0.0000     2.0000 </r>
       <r>   -29.5740     0.0000     2.0000 </r>
       <r>   -29.4237     0.0000     2.0000 </r>
       <r>   -29.2733     0.0000     2.0000 </r>
       <r>   -29.1230     0.0000     2.0000 </r>
       <r>   -28.9727     0.0000     2.0000 </r>
       <r>   -28.8223     0.0000     2.0000 </r>
       <r>   -28.6720     0.0000     2.0000 </r>
       <r>   -28.5217     0.0000     2.0000 </r>
       <r>   -28.3713     0.0000     2.0000 </r>
       <r>   -28.2210     0.0000     2.0000 </r>
       <r>   -28.0707     0.0000     2.0000 </r>
       <r>   -27.9204     0.0000     2.0000 </r>
       <r>   -27.7700     0.0000     2.0000 </r>
       <r>   -27.6197     0.0000     2.0000 </r>
       <r>   -27.4694     0.0000     2.0000 </r>
       <r>   -27.3190     0.0000     2.0000 </r>
       <r>   -27.1687     0.0000     2.0000 </r>
       <r>   -27.0184     0.0000     2.0000 </r>
       <r>   -26.8680     0.0000     2.0000 </r>
       <r>   -26.7177     0.0000     2.0000 </r>
       <r>   -26.5674     0.0000     2.0000 </r>
       <r>   -26.4171     0.0000     2.0000 </r>
       <r>   -26.2667     0.0000     2.0000 </r>
       <r>   -26.1164     0.0000     2.0000 </r>
       <r>   -25.9661     0.0000     2.0000 </r>
       <r>   -25.8157     0.0000     2.0000 </r>
       <r>   -25.6654     0.0000     2.0000 </r>
       <r>   -25.5151     0.0000     2.0000 </r>
       <r>   -25.3647     0.0000     2.0000 </r>
       <r>   -25.2144     0.0000     2.0000 </r>
       <r>   -25.0641     0.0000     2.0000 </r>
       <r>   -24.9137     0.0000     2.0000 </r>
       <r>   -24.7634     0.0000     2.0000 </r>
       <r>   -24.6131     0.0000     2.0000 </r>
       <r>   -24.4628     0.0000     2.0000 </r>
       <r>   -24.3124     0.0000     2.0000 </r>
       <r>   -24.1621     0.0000     2.0000 </r>
       <r>   -24.0118     0.0000     2.0000 </r>
       <r>   -23.8614     0.0000     2.0000 </r>
       <r>   -23.7111     0.0000     2.0000 </r>
       <r>   -23.5608     0.0000     2.0000 </r>
       <r>   -23.4104     0.0000     2.0000 </r>
       <r>   -23.2601     0.0000     2.0000 </r>
       <r>   -23.1098     0.0000     2.0000 </r>
       <r>   -22.9595     0.0000     2.0000 </r>
       <r>   -22.8091     0.0000     2.0000 </r>
       <r>   -22.6588     0.0000     2.0000 </r>
       <r>   -22.5085     0.0000     2.0000 </r>
       <r>   -22.3581     0.0000     2.0000 </r>
       <r>   -22.2078     0.0000     2.0000 </r>
       <r>   -22.0575     0.0000     2.0000 </r>
       <r>   -21.9071     0.0000     2.0000 </r>
       <r>   -21.7568     0.0000     2.0000 </r>
       <r>   -21.6065     0.0000     2.0000 </r>
       <r>   -21.4562     0.0000     2.0000 </r>
       <r>   -21.3058     0.0000     2.0000 </r>
       <r>   -21.1555     0.0000     2.0000 </r>
       <r>   -21.0052     0.0000     2.0000 </r>
       <r>   -20.8548     0.0000     2.0000 </r>
       <r>   -20.7045     0.0000     2.0000 </r>
       <r>   -20.5542     0.0000     2.0000 </r>
       <r>   -20.4038     0.0000     2.0000 </r>
       <r>   -20.2535     0.0000     2.0000 </r>
       <r>   -20.1032     0.0000     2.0000 </r>
       <r>   -19.9528     0.0000     2.0000 </r>
       <r>   -19.8025     0.0000     2.0000 </r>
       <r>   -19.6522     0.0000     2.0000 </r>
       <r>   -19.5019     0.0000     2.0000 </r>
       <r>   -19.3515     0.0000     2.0000 </r>
       <r>   -19.2012     0.0000     2.0000 </r>
       <r>   -19.0509     0.0000     2.0000 </r>
       <r>   -18.9005     0.0000     2.0000 </r>
       <r>   -18.7502     0.0000     2.0000 </r>
       <r>   -18.5999     0.0000     2.0000 </r>
       <r>   -18.4495     0.0000     2.0000 </r>
       <r>   -18.2992     0.0000     2.0000 </r>
       <r>   -18.1489     0.0000     2.0000 </r>
       <r>   -17.9986     0.0000     2.0000 </r>
       <r>   -17.8482     0.0000     2.0000 </r>
       <r>   -17.6979     0.0000     2.0000 </r>
       <r>   -17.5476     0.0000     2.0000 </r>
       <r>   -17.3972     0.0000     2.0000 </r>
       <r>   -17.2469     0.0000     2.0000 </r>
       <r>   -17.0966     0.0000     2.0000 </r>
       <r>   -16.9462     0.0000     2.0000 </r>
       <r>   -16.7959     0.0000     2.0000 </r>
       <r>   -16.6456     0.0000     2.0000 </r>
       <r>   -16.4952     0.0000     2.0000 </r>
       <r>   -16.3449     0.0000     2.0000 </r>
       <r>   -16.1946     0.0000     2.0000 </r>
       <r>   -16.0443     0.0000     2.0000 </r>
       <r>   -15.8939     0.0000     2.0000 </r>
       <r>   -15.7436     0.0000     2.0000 </r>
       <r>   -15.5933     0.0000     2.0000 </r>
       <r>   -15.4429     0.0000     2.0000 </r>
       <r>   -15.2926     0.0000     2.0000 </r>
       <r>   -15.1423     0.0000     2.0000 </r>
       <r>   -14.9919     0.0666     2.0008 </r>
       <r>   -14.8416     3.4206     2.1488 </r>
       <r>   -14.6913     4.0848     2.7881 </r>
       <r>   -14.5410     2.3968     3.2642 </r>
       <r>   -14.3906     1.5332     3.5454 </r>
       <r>   -14.2403     1.1170     3.7454 </r>
       <r>   -14.0900     0.6583     3.8785 </r>
       <r>   -13.9396     3.9126     4.0680 </r>
       <r>   -13.7893    14.2500     6.3800 </r>
       <r>   -13.6390     0.6262     7.9904 </r>
       <r>   -13.4886     0.0000     8.0000 </r>
       <r>   -13.3383     0.0000     8.0000 </r>
       <r>   -13.1880     0.0000     8.0000 </r>
       <r>   -13.0376     0.0000     8.0000 </r>
       <r>   -12.8873     0.0000     8.0000 </r>
       <r>   -12.7370     0.0000     8.0000 </r>
       <r>   -12.5867     0.0000     8.0000 </r>
       <r>   -12.4363     0.0000     8.0000 </r>
       <r>   -12.2860     0.9827     8.0392 </r>
       <r>   -12.1357     9.8111     8.7914 </r>
       <r>   -11.9853    10.1492    10.8748 </r>
       <r>   -11.8350     7.0133    12.4973 </r>
       <r>   -11.6847     3.3853    13.8736 </r>
       <r>   -11.5343     0.0000    14.0000 </r>
       <r>   -11.3840     0.0000    14.0000 </r>
       <r>   -11.2337     0.0000    14.0000 </r>
       <r>   -11.0834     0.0000    14.0000 </r>
       <r>   -10.9330     0.0000    14.0000 </r>
       <r>   -10.7827     0.0000    14.0000 </r>
       <r>   -10.6324     0.0000    14.0000 </r>
       <r>   -10.4820     0.0000    14.0000 </r>
       <r>   -10.3317     0.0000    14.0000 </r>
       <r>   -10.1814     0.0000    14.0000 </r>
       <r>   -10.0310     0.0000    14.0000 </r>
       <r>    -9.8807     0.0000    14.0000 </r>
       <r>    -9.7304     0.0000    14.0000 </r>
       <r>    -9.5801     0.0000    14.0000 </r>
       <r>    -9.4297     0.0000    14.0000 </r>
       <r>    -9.2794     0.0000    14.0000 </r>
       <r>    -9.1291     0.0000    14.0000 </r>
       <r>    -8.9787     0.0000    14.0000 </r>
       <r>    -8.8284     0.0000    14.0000 </r>
       <r>    -8.6781     0.0000    14.0000 </r>
       <r>    -8.5277     0.0000    14.0000 </r>
       <r>    -8.3774     0.0000    14.0000 </r>
       <r>    -8.2271     0.0000    14.0000 </r>
       <r>    -8.0767     0.0000    14.0000 </r>
       <r>    -7.9264     0.0000    14.0000 </r>
       <r>    -7.7761     0.0000    14.0000 </r>
       <r>    -7.6258     0.0000    14.0000 </r>
       <r>    -7.4754     0.0000    14.0000 </r>
       <r>    -7.3251     0.0000    14.0000 </r>
       <r>    -7.1748     0.0000    14.0000 </r>
       <r>    -7.0244     0.0000    14.0000 </r>
       <r>    -6.8741     0.0000    14.0000 </r>
       <r>    -6.7238     0.0000    14.0000 </r>
       <r>    -6.5734     0.0000    14.0000 </r>
       <r>    -6.4231     0.0000    14.0000 </r>
       <r>    -6.2728     0.0000    14.0000 </r>
       <r>    -6.1225     0.0000    14.0000 </r>
       <r>    -5.9721     0.0000    14.0000 </r>
       <r>    -5.8218     0.0000    14.0000 </r>
       <r>    -5.6715     0.0000    14.0000 </r>
       <r>    -5.5211     0.0000    14.0000 </r>
       <r>    -5.3708     0.0000    14.0000 </r>
       <r>    -5.2205     0.0000    14.0000 </r>
       <r>    -5.0701     0.0000    14.0000 </r>
       <r>    -4.9198     0.0000    14.0000 </r>
       <r>    -4.7695     0.0000    14.0000 </r>
       <r>    -4.6191     0.0000    14.0000 </r>
       <r>    -4.4688     0.0000    14.0000 </r>
       <r>    -4.3185     0.0000    14.0000 </r>
       <r>    -4.1682     0.0000    14.0000 </r>
       <r>    -4.0178     0.0000    14.0000 </r>
       <r>    -3.8675     0.0000    14.0000 </r>
       <r>    -3.7172     0.0000    14.0000 </r>
       <r>    -3.5668     0.0000    14.0000 </r>
       <r>    -3.4165     0.0000    14.0000 </r>
       <r>    -3.2662     0.0000    14.0000 </r>
       <r>    -3.1158     0.0000    14.0000 </r>
       <r>    -2.9655     0.0000    14.0000 </r>
       <r>    -2.8152     0.0000    14.0000 </r>
       <r>    -2.6649     0.0000    14.0000 </r>
       <r>    -2.5145     0.0000    14.0000 </r>
       <r>    -2.3642     0.0000    14.0000 </r>
       <r>    -2.2139     0.0000    14.0000 </r>
       <r>    -2.0635     0.0000    14.0000 </r>
       <r>    -1.9132     1.0986    14.0363 </r>
       <r>    -1.7629     3.7892    14.4388 </r>
       <r>    -1.6125     3.4688    15.0024 </r>
       <r>    -1.4622     4.3794    15.6124 </r>
       <r>    -1.3119     4.4106    16.2857 </r>
       <r>    -1.1616     4.0214    16.9134 </r>
       <r>    -1.0112     3.7277    17.4915 </r>
       <r>    -0.8609     4.7703    18.0794 </r>
       <r>    -0.7106     6.3095    19.0035 </r>
       <r>    -0.5602     6.4065    19.9463 </r>
       <r>    -0.4099     6.9419    20.9467 </r>
       <r>    -0.2596     9.7377    22.0757 </r>
       <r>    -0.1092     3.7583    22.7855 </r>
       <r>     0.0411     3.4290    23.3145 </r>
       <r>     0.1914     3.3084    23.8242 </r>
       <r>     0.3418     2.9551    24.2954 </r>
       <r>     0.4921     2.7714    24.7232 </r>
       <r>     0.6424     2.6704    25.1319 </r>
       <r>     0.7927     2.3931    25.5273 </r>
       <r>     0.9431     1.8743    25.8237 </r>
       <r>     1.0934     1.7277    26.0919 </r>
       <r>     1.2437     4.0035    26.5236 </r>
       <r>     1.3941     4.3053    27.1310 </r>
       <r>     1.5444     5.1511    27.8413 </r>
       <r>     1.6947     5.2123    28.6312 </r>
       <r>     1.8451     4.2338    29.3818 </r>
       <r>     1.9954    11.0448    30.3729 </r>
       <r>     2.1457     3.0497    31.3370 </r>
       <r>     2.2960     1.7876    31.6906 </r>
       <r>     2.4464     1.0270    31.9021 </r>
       <r>     2.5967     0.1800    31.9981 </r>
       <r>     2.7470     0.0000    32.0000 </r>
       <r>     2.8974     0.0000    32.0000 </r>
       <r>     3.0477     0.0000    32.0000 </r>
       <r>     3.1980     0.0000    32.0000 </r>
       <r>     3.3484     0.0000    32.0000 </r>
       <r>     3.4987     0.0000    32.0000 </r>
       <r>     3.6490     0.0000    32.0000 </r>
       <r>     3.7994     0.0000    32.0000 </r>
       <r>     3.9497     0.0000    32.0000 </r>
       <r>     4.1000     0.0000    32.0000 </r>
       <r>     4.2503     0.0000    32.0000 </r>
       <r>     4.4007     0.1699    32.0041 </r>
       <r>     4.5510     0.3506    32.0428 </r>
       <r>     4.7013     0.5567    32.1110 </r>
       <r>     4.8517     0.7682    32.2105 </r>
       <r>     5.0020     0.9850    32.3422 </r>
       <r>     5.1523     1.2071    32.5069 </r>
       <r>     5.3027     1.4345    32.7054 </r>
       <r>     5.4530     3.4995    33.0180 </r>
       <r>     5.6033     3.3876    33.5058 </r>
       <r>     5.7536     3.8617    34.0507 </r>
       <r>     5.9040     4.2581    34.6557 </r>
       <r>     6.0543     4.9036    35.3425 </r>
       <r>     6.2046     5.6070    36.1321 </r>
       <r>     6.3550     4.4043    36.9613 </r>
       <r>     6.5053     2.3816    37.5148 </r>
       <r>     6.6556     0.9913    37.7475 </r>
       <r>     6.8060     0.2060    37.8224 </r>
       <r>     6.9563     0.1719    37.8502 </r>
       <r>     7.1066     0.1527    37.8745 </r>
       <r>     7.2569     0.1346    37.8961 </r>
       <r>     7.4073     0.1177    37.9151 </r>
       <r>     7.5576     0.1019    37.9316 </r>
       <r>     7.7079     0.0873    37.9458 </r>
       <r>     7.8583     0.0738    37.9579 </r>
       <r>     8.0086     0.0614    37.9680 </r>
       <r>     8.1589     0.0529    37.9765 </r>
       <r>     8.3093     0.0535    37.9844 </r>
       <r>     8.4596     0.0631    37.9930 </r>
       <r>     8.6099     0.0819    38.0038 </r>
       <r>     8.7603     0.1097    38.0181 </r>
       <r>     8.9106     0.1466    38.0373 </r>
       <r>     9.0609     0.2103    38.0630 </r>
       <r>     9.2112     0.3214    38.1030 </r>
       <r>     9.3616     0.4334    38.1597 </r>
       <r>     9.5119     0.5461    38.2333 </r>
       <r>     9.6622     0.6655    38.3241 </r>
       <r>     9.8126     0.8881    38.4386 </r>
       <r>     9.9629     1.2957    38.6005 </r>
       <r>    10.1132     1.7285    38.8306 </r>
       <r>    10.2636     1.9808    39.1113 </r>
       <r>    10.4139     2.0205    39.4156 </r>
       <r>    10.5642     1.7967    39.7203 </r>
       <r>    10.7145     0.8738    39.9180 </r>
       <r>    10.8649     0.1896    39.9950 </r>
       <r>    11.0152     0.0000    40.0000 </r>
       <r>    11.1655     0.0000    40.0000 </r>
       <r>    11.3159     0.0000    40.0000 </r>
       <r>    11.4662     0.0000    40.0000 </r>
       <r>    11.6165     0.0000    40.0000 </r>
       <r>    11.7669     0.0000    40.0000 </r>
       <r>    11.9172     0.0000    40.0000 </r>
       <r>    12.0675     0.0000    40.0000 </r>
       <r>    12.2179     0.0000    40.0000 </r>
       <r>    12.3682     0.0000    40.0000 </r>
       <r>    12.5185     0.0000    40.0000 </r>
       <r>    12.6688     0.0000    40.0000 </r>
       <r>    12.8192     0.0000    40.0000 </r>
       <r>    12.9695     0.0000    40.0000 </r>
      </set>
     </set>
    </array>
   </total>
  </dos>
 </calculation>
 <structure name="finalpos" >
  <crystal>
   <varray name="basis" >
    <v>       3.90526800       0.00000000       0.00000000 </v>
    <v>       0.00000000       3.90526800       0.00000000 </v>
    <v>       0.00000000       0.00000000       3.90526800 </v>
   </varray>
   <i name="volume">     59.55970368 </i>
   <varray name="rec_basis" >
    <v>       0.25606437       0.00000000       0.00000000 </v>
    <v>       0.00000000       0.25606437       0.00000000 </v>
    <v>       0.00000000       0.00000000       0.25606437 </v>
   </varray>
  </crystal>
  <varray name="positions" >
   <v>       0.00000000       0.00000000       0.00000000 </v>
   <v>       0.50000000       0.50000000       0.50000000 </v>
   <v>       0.50000000       0.50000000       0.00000000 </v>
   <v>       0.50000000       0.00000000       0.50000000 </v>
   <v>       0.00000000       0.50000000       0.50000000 </v>
  </varray>
 </structure>
</modeling>
