unknown system                          
   4.00000000000000     
     0.993908   -0.000000    0.000000
    -0.000000    0.993908    0.000000
    -0.000000   -0.000000    0.993908
   Pt
     4
Direct
  0.000000  0.000000  0.000000
  0.000000  0.500000  0.500000
  0.500000  0.000000  0.500000
  0.500000  0.500000  0.000000
 
   60   60   60
  240.90      238.01      229.81      217.58      203.01      187.71      172.77      158.58      144.88      131.06    
  116.59      101.32      85.596      70.235      56.187      44.249      34.822      27.820      22.744      18.927    
  16.024      13.853      12.222      10.991      10.050      9.3347      8.7968      8.4092      8.1482      7.9994    
  7.9504      7.9994      8.1482      8.4092      8.7968      9.3347      10.050      10.991      12.222      13.853    
  16.024      18.927      22.744      27.820      34.822      44.249      56.187      70.235      85.596      101.32    
  116.59      131.06      144.88      158.58      172.77      187.71      203.01      217.58      229.81      238.01    
  238.01      235.18      227.15      215.18      200.91      185.90      171.21      157.22      143.65      129.94    
  115.56      100.38      84.784      69.566      55.670      43.878      34.576      27.669      22.654      18.875    
  16.002      13.851      12.236      11.014      10.081      9.3711      8.8378      8.4536      8.1951      8.0477    
  7.9994      8.0477      8.1951      8.4536      8.8378      9.3711      10.081      11.014      12.236      13.851    
  16.002      18.875      22.654      27.669      34.576      43.878      55.670      69.566      84.784      100.38    
  115.56      129.94      143.65      157.22      171.21      185.90      200.91      215.18      227.15      235.18    
  229.81      227.15      219.63      208.38      194.94      180.73      166.73      153.26      140.08      126.65    
  112.53      97.645      82.408      67.612      54.164      42.801      33.862      27.231      22.394      18.728    
  15.940      13.851      12.279      11.089      10.179      9.4859      8.9656      8.5906      8.3388      8.1951    
  8.1482      8.1951      8.3388      8.5906      8.9656      9.4859      10.179      11.089      12.279      13.851    
  15.940      18.728      22.394      27.231      33.862      42.801      54.164      67.612      82.408      97.645    
  112.53      126.65      140.08      153.26      166.73      180.73      194.94      208.38      219.63      227.15    
  217.58      215.18      208.38      198.19      185.94      172.89      159.87      147.14      134.48      121.46    
  107.73      93.307      78.648      64.528      51.797      41.115      32.753      26.551      21.990      18.506    
  15.856      13.865      12.365      11.225      10.353      9.6873      9.1891      8.8304      8.5906      8.4536    
  8.4092      8.4536      8.5906      8.8304      9.1891      9.6873      10.353      11.225      12.365      13.865    
  15.856      18.506      21.990      26.551      32.753      41.115      51.797      64.528      78.648      93.307    
  107.73      121.46      134.48      147.14      159.87      172.89      185.94      198.19      208.38      215.18    
  203.01      200.91      194.94      185.94      175.04      163.27      151.31      139.38      127.29      114.73    
  101.47      87.657      73.766      60.547      48.762      38.970      31.351      25.698      21.486      18.240    
  15.774      13.915      12.510      11.439      10.619      9.9929      9.5254      9.1891      8.9656      8.8378    
  8.7968      8.8378      8.9656      9.1891      9.5254      9.9929      10.619      11.439      12.510      13.915    
  15.774      18.240      21.486      25.698      31.351      38.970      48.762      60.547      73.766      87.657    
  101.47      114.73      127.29      139.38      151.31      163.27      175.04      185.94      194.94      200.91    
  187.71      185.90      180.73      172.89      163.27      152.70      141.71      130.49      118.93      106.82    
  94.118      81.033      68.080      55.949      45.292      36.543      29.782      24.748      20.929      17.970    
  15.723      14.023      12.736      11.751      10.996      10.420      9.9929      9.6873      9.4859      9.3711    
  9.3347      9.3711      9.4859      9.6873      9.9929      10.420      10.996      11.751      12.736      14.023    
  15.723      17.970      20.929      24.748      29.782      36.543      45.292      55.949      68.080      81.033    
  94.118      106.82      118.93      130.49      141.71      152.70      163.27      172.89      180.73      185.90    
  172.77      171.21      166.73      159.87      151.31      141.71      131.50      120.85      109.73      98.093    
  86.012      73.785      61.923      51.030      41.630      34.015      28.168      23.773      20.374      17.738    
  15.735      14.217      13.065      12.182      11.507      10.996      10.619      10.353      10.179      10.081    
  10.050      10.081      10.179      10.353      10.619      10.996      11.507      12.182      13.065      14.217    
  15.735      17.738      20.374      23.773      28.168      34.015      41.630      51.030      61.923      73.785    
  86.012      98.093      109.73      120.85      131.50      141.71      151.31      159.87      166.73      171.21    
  158.58      157.22      153.26      147.14      139.38      130.49      120.85      110.63      99.934      88.820    
  77.476      66.250      55.618      46.073      37.999      31.549      26.613      22.837      19.871      17.583    
  15.842      14.525      13.523      12.761      12.182      11.751      11.439      11.225      11.089      11.014    
  10.991      11.014      11.089      11.225      11.439      11.751      12.182      12.761      13.523      14.525    
  15.842      17.583      19.871      22.837      26.613      31.549      37.999      46.073      55.618      66.250    
  77.476      88.820      99.934      110.63      120.85      130.49      139.38      147.14      153.26      157.22    
  144.88      143.65      140.08      134.48      127.29      118.93      109.73      99.934      89.715      79.252    
  68.809      58.740      49.455      41.325      34.589      29.274      25.190      21.991      19.473      17.542    
  16.078      14.976      14.145      13.523      13.065      12.736      12.510      12.365      12.279      12.236    
  12.222      12.236      12.279      12.365      12.510      12.736      13.065      13.523      14.145      14.976    
  16.078      17.542      19.473      21.991      25.190      29.274      34.589      41.325      49.455      58.740    
  68.809      79.252      89.715      99.934      109.73      118.93      127.29      134.48      140.08      143.65    
  131.06      129.94      126.65      121.46      114.73      106.82      98.093      88.820      79.252      69.648    
  60.300      51.539      43.684      36.982      31.534      27.269      23.938      21.286      19.221      17.651    
  16.477      15.608      14.976      14.525      14.217      14.023      13.915      13.865      13.851      13.851    
  13.853      13.851      13.851      13.865      13.915      14.023      14.217      14.525      14.976      15.608    
  16.477      17.651      19.221      21.286      23.938      27.269      31.534      36.982      43.684      51.539    
  60.300      69.648      79.252      88.820      98.093      106.82      114.73      121.46      126.65      129.94    
  116.59      115.56      112.53      107.73      101.47      94.118      86.012      77.476      68.809      60.300    
  52.239      44.899      38.501      33.174      28.910      25.559      22.883      20.767      19.151      17.950    
  17.083      16.477      16.078      15.842      15.735      15.723      15.774      15.856      15.940      16.002    
  16.024      16.002      15.940      15.856      15.774      15.723      15.735      15.842      16.078      16.477    
  17.083      17.950      19.151      20.767      22.883      25.559      28.910      33.174      38.501      44.899    
  52.239      60.300      68.809      77.476      86.012      94.118      101.47      107.73      112.53      115.56    
  101.32      100.38      97.645      93.307      87.657      81.033      73.785      66.250      58.740      51.539    
  44.899      39.021      34.034      29.962      26.725      24.133      22.061      20.472      19.301      18.482    
  17.950      17.651      17.542      17.583      17.738      17.970      18.240      18.506      18.728      18.875    
  18.927      18.875      18.728      18.506      18.240      17.970      17.738      17.583      17.542      17.651    
  17.950      18.482      19.301      20.472      22.061      24.133      26.725      29.962      34.034      39.021    
  44.899      51.539      58.740      66.250      73.785      81.033      87.657      93.307      97.645      100.38    
  85.596      84.784      82.408      78.648      73.766      68.080      61.923      55.618      49.455      43.684    
  38.501      34.034      30.325      27.335      24.929      22.995      21.508      20.431      19.712      19.301    
  19.151      19.221      19.473      19.871      20.374      20.929      21.486      21.990      22.394      22.654    
  22.744      22.654      22.394      21.990      21.486      20.929      20.374      19.871      19.473      19.221    
  19.151      19.301      19.712      20.431      21.508      22.995      24.929      27.335      30.325      34.034    
  38.501      43.684      49.455      55.618      61.923      68.080      73.766      78.648      82.408      84.784    
  70.235      69.566      67.612      64.528      60.547      55.949      51.030      46.073      41.325      36.982    
  33.174      29.962      27.335      25.202      23.483      22.170      21.245      20.677      20.431      20.472    
  20.767      21.286      21.991      22.837      23.773      24.748      25.698      26.551      27.231      27.669    
  27.820      27.669      27.231      26.551      25.698      24.748      23.773      22.837      21.991      21.286    
  20.767      20.472      20.431      20.677      21.245      22.170      23.483      25.202      27.335      29.962    
  33.174      36.982      41.325      46.073      51.030      55.949      60.547      64.528      67.612      69.566    
  56.187      55.670      54.164      51.797      48.762      45.292      41.630      37.999      34.589      31.534    
  28.910      26.725      24.929      23.483      22.398      21.672      21.294      21.245      21.508      22.061    
  22.883      23.938      25.190      26.613      28.168      29.782      31.351      32.753      33.862      34.576    
  34.822      34.576      33.862      32.753      31.351      29.782      28.168      26.613      25.190      23.938    
  22.883      22.061      21.508      21.245      21.294      21.672      22.398      23.483      24.929      26.725    
  28.910      31.534      34.589      37.999      41.630      45.292      48.762      51.797      54.164      55.670    
  44.249      43.878      42.801      41.115      38.970      36.543      34.015      31.549      29.274      27.269    
  25.559      24.133      22.995      22.170      21.672      21.506      21.672      22.170      22.995      24.133    
  25.559      27.269      29.274      31.549      34.015      36.543      38.970      41.115      42.801      43.878    
  44.249      43.878      42.801      41.115      38.970      36.543      34.015      31.549      29.274      27.269    
  25.559      24.133      22.995      22.170      21.672      21.506      21.672      22.170      22.995      24.133    
  25.559      27.269      29.274      31.549      34.015      36.543      38.970      41.115      42.801      43.878    
  34.822      34.576      33.862      32.753      31.351      29.782      28.168      26.613      25.190      23.938    
  22.883      22.061      21.508      21.245      21.294      21.672      22.398      23.483      24.929      26.725    
  28.910      31.534      34.589      37.999      41.630      45.292      48.762      51.797      54.164      55.670    
  56.187      55.670      54.164      51.797      48.762      45.292      41.630      37.999      34.589      31.534    
  28.910      26.725      24.929      23.483      22.398      21.672      21.294      21.245      21.508      22.061    
  22.883      23.938      25.190      26.613      28.168      29.782      31.351      32.753      33.862      34.576    
  27.820      27.669      27.231      26.551      25.698      24.748      23.773      22.837      21.991      21.286    
  20.767      20.472      20.431      20.677      21.245      22.170      23.483      25.202      27.335      29.962    
  33.174      36.982      41.325      46.073      51.030      55.949      60.547      64.528      67.612      69.566    
  70.235      69.566      67.612      64.528      60.547      55.949      51.030      46.073      41.325      36.982    
  33.174      29.962      27.335      25.202      23.483      22.170      21.245      20.677      20.431      20.472    
  20.767      21.286      21.991      22.837      23.773      24.748      25.698      26.551      27.231      27.669    
  22.744      22.654      22.394      21.990      21.486      20.929      20.374      19.871      19.473      19.221    
  19.151      19.301      19.712      20.431      21.508      22.995      24.929      27.335      30.325      34.034    
  38.501      43.684      49.455      55.618      61.923      68.080      73.766      78.648      82.408      84.784    
  85.596      84.784      82.408      78.648      73.766      68.080      61.923      55.618      49.455      43.684    
  38.501      34.034      30.325      27.335      24.929      22.995      21.508      20.431      19.712      19.301    
  19.151      19.221      19.473      19.871      20.374      20.929      21.486      21.990      22.394      22.654    
  18.927      18.875      18.728      18.506      18.240      17.970      17.738      17.583      17.542      17.651    
  17.950      18.482      19.301      20.472      22.061      24.133      26.725      29.962      34.034      39.021    
  44.899      51.539      58.740      66.250      73.785      81.033      87.657      93.307      97.645      100.38    
  101.32      100.38      97.645      93.307      87.657      81.033      73.785      66.250      58.740      51.539    
  44.899      39.021      34.034      29.962      26.725      24.133      22.061      20.472      19.301      18.482    
  17.950      17.651      17.542      17.583      17.738      17.970      18.240      18.506      18.728      18.875    
  16.024      16.002      15.940      15.856      15.774      15.723      15.735      15.842      16.078      16.477    
  17.083      17.950      19.151      20.767      22.883      25.559      28.910      33.174      38.501      44.899    
  52.239      60.300      68.809      77.476      86.012      94.118      101.47      107.73      112.53      115.56    
  116.59      115.56      112.53      107.73      101.47      94.118      86.012      77.476      68.809      60.300    
  52.239      44.899      38.501      33.174      28.910      25.559      22.883      20.767      19.151      17.950    
  17.083      16.477      16.078      15.842      15.735      15.723      15.774      15.856      15.940      16.002    
  13.853      13.851      13.851      13.865      13.915      14.023      14.217      14.525      14.976      15.608    
  16.477      17.651      19.221      21.286      23.938      27.269      31.534      36.982      43.684      51.539    
  60.300      69.648      79.252      88.820      98.093      106.82      114.73      121.46      126.65      129.94    
  131.06      129.94      126.65      121.46      114.73      106.82      98.093      88.820      79.252      69.648    
  60.300      51.539      43.684      36.982      31.534      27.269      23.938      21.286      19.221      17.651    
  16.477      15.608      14.976      14.525      14.217      14.023      13.915      13.865      13.851      13.851    
  12.222      12.236      12.279      12.365      12.510      12.736      13.065      13.523      14.145      14.976    
  16.078      17.542      19.473      21.991      25.190      29.274      34.589      41.325      49.455      58.740    
  68.809      79.252      89.715      99.934      109.73      118.93      127.29      134.48      140.08      143.65    
  144.88      143.65      140.08      134.48      127.29      118.93      109.73      99.934      89.715      79.252    
  68.809      58.740      49.455      41.325      34.589      29.274      25.190      21.991      19.473      17.542    
  16.078      14.976      14.145      13.523      13.065      12.736      12.510      12.365      12.279      12.236    
  10.991      11.014      11.089      11.225      11.439      11.751      12.182      12.761      13.523      14.525    
  15.842      17.583      19.871      22.837      26.613      31.549      37.999      46.073      55.618      66.250    
  77.476      88.820      99.934      110.63      120.85      130.49      139.38      147.14      153.26      157.22    
  158.58      157.22      153.26      147.14      139.38      130.49      120.85      110.63      99.934      88.820    
  77.476      66.250      55.618      46.073      37.999      31.549      26.613      22.837      19.871      17.583    
  15.842      14.525      13.523      12.761      12.182      11.751      11.439      11.225      11.089      11.014    
  10.050      10.081      10.179      10.353      10.619      10.996      11.507      12.182      13.065      14.217    
  15.735      17.738      20.374      23.773      28.168      34.015      41.630      51.030      61.923      73.785    
  86.012      98.093      109.73      120.85      131.50      141.71      151.31      159.87      166.73      171.21    
  172.77      171.21      166.73      159.87      151.31      141.71      131.50      120.85      109.73      98.093    
  86.012      73.785      61.923      51.030      41.630      34.015      28.168      23.773      20.374      17.738    
  15.735      14.217      13.065      12.182      11.507      10.996      10.619      10.353      10.179      10.081    
  9.3347      9.3711      9.4859      9.6873      9.9929      10.420      10.996      11.751      12.736      14.023    
  15.723      17.970      20.929      24.748      29.782      36.543      45.292      55.949      68.080      81.033    
  94.118      106.82      118.93      130.49      141.71      152.70      163.27      172.89      180.73      185.90    
  187.71      185.90      180.73      172.89      163.27      152.70      141.71      130.49      118.93      106.82    
  94.118      81.033      68.080      55.949      45.292      36.543      29.782      24.748      20.929      17.970    
  15.723      14.023      12.736      11.751      10.996      10.420      9.9929      9.6873      9.4859      9.3711    
  8.7968      8.8378      8.9656      9.1891      9.5254      9.9929      10.619      11.439      12.510      13.915    
  15.774      18.240      21.486      25.698      31.351      38.970      48.762      60.547      73.766      87.657    
  101.47      114.73      127.29      139.38      151.31      163.27      175.04      185.94      194.94      200.91    
  203.01      200.91      194.94      185.94      175.04      163.27      151.31      139.38      127.29      114.73    
  101.47      87.657      73.766      60.547      48.762      38.970      31.351      25.698      21.486      18.240    
  15.774      13.915      12.510      11.439      10.619      9.9929      9.5254      9.1891      8.9656      8.8378    
  8.4092      8.4536      8.5906      8.8304      9.1891      9.6873      10.353      11.225      12.365      13.865    
  15.856      18.506      21.990      26.551      32.753      41.115      51.797      64.528      78.648      93.307    
  107.73      121.46      134.48      147.14      159.87      172.89      185.94      198.19      208.38      215.18    
  217.58      215.18      208.38      198.19      185.94      172.89      159.87      147.14      134.48      121.46    
  107.73      93.307      78.648      64.528      51.797      41.115      32.753      26.551      21.990      18.506    
  15.856      13.865      12.365      11.225      10.353      9.6873      9.1891      8.8304      8.5906      8.4536    
  8.1482      8.1951      8.3388      8.5906      8.9656      9.4859      10.179      11.089      12.279      13.851    
  15.940      18.728      22.394      27.231      33.862      42.801      54.164      67.612      82.408      97.645    
  112.53      126.65      140.08      153.26      166.73      180.73      194.94      208.38      219.63      227.15    
  229.81      227.15      219.63      208.38      194.94      180.73      166.73      153.26      140.08      126.65    
  112.53      97.645      82.408      67.612      54.164      42.801      33.862      27.231      22.394      18.728    
  15.940      13.851      12.279      11.089      10.179      9.4859      8.9656      8.5906      8.3388      8.1951    
  7.9994      8.0477      8.1951      8.4536      8.8378      9.3711      10.081      11.014      12.236      13.851    
  16.002      18.875      22.654      27.669      34.576      43.878      55.670      69.566      84.784      100.38    
  115.56      129.94      143.65      157.22      171.21      185.90      200.91      215.18      227.15      235.18    
  238.01      235.18      227.15      215.18      200.91      185.90      171.21      157.22      143.65      129.94    
  115.56      100.38      84.784      69.566      55.670      43.878      34.576      27.669      22.654      18.875    
  16.002      13.851      12.236      11.014      10.081      9.3711      8.8378      8.4536      8.1951      8.0477    
  7.9504      7.9994      8.1482      8.4092      8.7968      9.3347      10.050      10.991      12.222      13.853    
  16.024      18.927      22.744      27.820      34.822      44.249      56.187      70.235      85.596      101.32    
  116.59      131.06      144.88      158.58      172.77      187.71      203.01      217.58      229.81      238.01    
  240.90      238.01      229.81      217.58      203.01      187.71      172.77      158.58      144.88      131.06    
  116.59      101.32      85.596      70.235      56.187      44.249      34.822      27.820      22.744      18.927    
  16.024      13.853      12.222      10.991      10.050      9.3347      8.7968      8.4092      8.1482      7.9994    
  7.9994      8.0477      8.1951      8.4536      8.8378      9.3711      10.081      11.014      12.236      13.851    
  16.002      18.875      22.654      27.669      34.576      43.878      55.670      69.566      84.784      100.38    
  115.56      129.94      143.65      157.22      171.21      185.90      200.91      215.18      227.15      235.18    
  238.01      235.18      227.15      215.18      200.91      185.90      171.21      157.22      143.65      129.94    
  115.56      100.38      84.784      69.566      55.670      43.878      34.576      27.669      22.654      18.875    
  16.002      13.851      12.236      11.014      10.081      9.3711      8.8378      8.4536      8.1951      8.0477    
  8.1482      8.1951      8.3388      8.5906      8.9656      9.4859      10.179      11.089      12.279      13.851    
  15.940      18.728      22.394      27.231      33.862      42.801      54.164      67.612      82.408      97.645    
  112.53      126.65      140.08      153.26      166.73      180.73      194.94      208.38      219.63      227.15    
  229.81      227.15      219.63      208.38      194.94      180.73      166.73      153.26      140.08      126.65    
  112.53      97.645      82.408      67.612      54.164      42.801      33.862      27.231      22.394      18.728    
  15.940      13.851      12.279      11.089      10.179      9.4859      8.9656      8.5906      8.3388      8.1951    
  8.4092      8.4536      8.5906      8.8304      9.1891      9.6873      10.353      11.225      12.365      13.865    
  15.856      18.506      21.990      26.551      32.753      41.115      51.797      64.528      78.648      93.307    
  107.73      121.46      134.48      147.14      159.87      172.89      185.94      198.19      208.38      215.18    
  217.58      215.18      208.38      198.19      185.94      172.89      159.87      147.14      134.48      121.46    
  107.73      93.307      78.648      64.528      51.797      41.115      32.753      26.551      21.990      18.506    
  15.856      13.865      12.365      11.225      10.353      9.6873      9.1891      8.8304      8.5906      8.4536    
  8.7968      8.8378      8.9656      9.1891      9.5254      9.9929      10.619      11.439      12.510      13.915    
  15.774      18.240      21.486      25.698      31.351      38.970      48.762      60.547      73.766      87.657    
  101.47      114.73      127.29      139.38      151.31      163.27      175.04      185.94      194.94      200.91    
  203.01      200.91      194.94      185.94      175.04      163.27      151.31      139.38      127.29      114.73    
  101.47      87.657      73.766      60.547      48.762      38.970      31.351      25.698      21.486      18.240    
  15.774      13.915      12.510      11.439      10.619      9.9929      9.5254      9.1891      8.9656      8.8378    
  9.3347      9.3711      9.4859      9.6873      9.9929      10.420      10.996      11.751      12.736      14.023    
  15.723      17.970      20.929      24.748      29.782      36.543      45.292      55.949      68.080      81.033    
  94.118      106.82      118.93      130.49      141.71      152.70      163.27      172.89      180.73      185.90    
  187.71      185.90      180.73      172.89      163.27      152.70      141.71      130.49      118.93      106.82    
  94.118      81.033      68.080      55.949      45.292      36.543      29.782      24.748      20.929      17.970    
  15.723      14.023      12.736      11.751      10.996      10.420      9.9929      9.6873      9.4859      9.3711    
  10.050      10.081      10.179      10.353      10.619      10.996      11.507      12.182      13.065      14.217    
  15.735      17.738      20.374      23.773      28.168      34.015      41.630      51.030      61.923      73.785    
  86.012      98.093      109.73      120.85      131.50      141.71      151.31      159.87      166.73      171.21    
  172.77      171.21      166.73      159.87      151.31      141.71      131.50      120.85      109.73      98.093    
  86.012      73.785      61.923      51.030      41.630      34.015      28.168      23.773      20.374      17.738    
  15.735      14.217      13.065      12.182      11.507      10.996      10.619      10.353      10.179      10.081    
  10.991      11.014      11.089      11.225      11.439      11.751      12.182      12.761      13.523      14.525    
  15.842      17.583      19.871      22.837      26.613      31.549      37.999      46.073      55.618      66.250    
  77.476      88.820      99.934      110.63      120.85      130.49      139.38      147.14      153.26      157.22    
  158.58      157.22      153.26      147.14      139.38      130.49      120.85      110.63      99.934      88.820    
  77.476      66.250      55.618      46.073      37.999      31.549      26.613      22.837      19.871      17.583    
  15.842      14.525      13.523      12.761      12.182      11.751      11.439      11.225      11.089      11.014    
  12.222      12.236      12.279      12.365      12.510      12.736      13.065      13.523      14.145      14.976    
  16.078      17.542      19.473      21.991      25.190      29.274      34.589      41.325      49.455      58.740    
  68.809      79.252      89.715      99.934      109.73      118.93      127.29      134.48      140.08      143.65    
  144.88      143.65      140.08      134.48      127.29      118.93      109.73      99.934      89.715      79.252    
  68.809      58.740      49.455      41.325      34.589      29.274      25.190      21.991      19.473      17.542    
  16.078      14.976      14.145      13.523      13.065      12.736      12.510      12.365      12.279      12.236    
  13.853      13.851      13.851      13.865      13.915      14.023      14.217      14.525      14.976      15.608    
  16.477      17.651      19.221      21.286      23.938      27.269      31.534      36.982      43.684      51.539    
  60.300      69.648      79.252      88.820      98.093      106.82      114.73      121.46      126.65      129.94    
  131.06      129.94      126.65      121.46      114.73      106.82      98.093      88.820      79.252      69.648    
  60.300      51.539      43.684      36.982      31.534      27.269      23.938      21.286      19.221      17.651    
  16.477      15.608      14.976      14.525      14.217      14.023      13.915      13.865      13.851      13.851    
  16.024      16.002      15.940      15.856      15.774      15.723      15.735      15.842      16.078      16.477    
  17.083      17.950      19.151      20.767      22.883      25.559      28.910      33.174      38.501      44.899    
  52.239      60.300      68.809      77.476      86.012      94.118      101.47      107.73      112.53      115.56    
  116.59      115.56      112.53      107.73      101.47      94.118      86.012      77.476      68.809      60.300    
  52.239      44.899      38.501      33.174      28.910      25.559      22.883      20.767      19.151      17.950    