unknown system                          
   4.00000000000000     
     0.994396   -0.000000    0.000000
    -0.000000    0.994396    0.000000
     0.000000   -0.000000    0.994396
   Pt
     4
Direct
 -0.000000 -0.000000  0.000000
  0.000000  0.500000  0.500000
  0.500000  0.000000  0.500000
  0.500000  0.500000 -0.000000
 
   60   60   60
 0.24076348000E+03 0.23787277462E+03 0.22967733054E+03 0.21745620326E+03 0.20289980269E+03
 0.18761181432E+03 0.17268833618E+03 0.15851050607E+03 0.14481911291E+03 0.13101460645E+03
 0.11655739553E+03 0.10129213923E+03 0.85586652078E+02 0.70235956986E+02 0.56194463350E+02
 0.44259618695E+02 0.34832511931E+02 0.27829488081E+02 0.22752081575E+02 0.18934125086E+02
 0.16030859376E+02 0.13858845775E+02 0.12227638624E+02 0.10995760190E+02 0.10055246857E+02
 0.93393529694E+01 0.88013002181E+01 0.84134823941E+01 0.81523767232E+01 0.80034557386E+01
 0.79545059192E+01 0.80034557386E+01 0.81523767232E+01 0.84134823941E+01 0.88013002181E+01
 0.93393529694E+01 0.10055246857E+02 0.10995760190E+02 0.12227638624E+02 0.13858845775E+02
 0.16030859376E+02 0.18934125086E+02 0.22752081575E+02 0.27829488081E+02 0.34832511931E+02
 0.44259618695E+02 0.56194463350E+02 0.70235956986E+02 0.85586652078E+02 0.10129213923E+03
 0.11655739553E+03 0.13101460645E+03 0.14481911291E+03 0.15851050607E+03 0.17268833618E+03
 0.18761181432E+03 0.20289980269E+03 0.21745620326E+03 0.22967733054E+03 0.23787277462E+03
 0.23787277462E+03 0.23504504832E+03 0.22702657239E+03 0.21506416914E+03 0.20080393260E+03
 0.18580511315E+03 0.17112972700E+03 0.15714317813E+03 0.14358976147E+03 0.12988815932E+03
 0.11552193928E+03 0.10035750343E+03 0.84774699978E+02 0.69566761213E+02 0.55677628505E+02
 0.43888779848E+02 0.34586377705E+02 0.27677921211E+02 0.22661865179E+02 0.18882804942E+02
 0.16008280039E+02 0.13857062737E+02 0.12241203910E+02 0.11019589185E+02 0.10086255816E+02
 0.93757503748E+01 0.88422468295E+01 0.84579009950E+01 0.81993496834E+01 0.80518644544E+01
 0.80034557386E+01 0.80518644544E+01 0.81993496834E+01 0.84579009950E+01 0.88422468295E+01
 0.93757503748E+01 0.10086255816E+02 0.11019589185E+02 0.12241203910E+02 0.13857062737E+02
 0.16008280039E+02 0.18882804942E+02 0.22661865179E+02 0.27677921211E+02 0.34586377705E+02
 0.43888779848E+02 0.55677628505E+02 0.69566761213E+02 0.84774699978E+02 0.10035750343E+03
 0.11552193928E+03 0.12988815932E+03 0.14358976147E+03 0.15714317813E+03 0.17112972700E+03
 0.18580511315E+03 0.20080393260E+03 0.21506416914E+03 0.22702657239E+03 0.23504504832E+03
 0.22967733054E+03 0.22702657239E+03 0.21950494205E+03 0.20826754700E+03 0.19483488516E+03
 0.18064113164E+03 0.16665373620E+03 0.15319523229E+03 0.14002084199E+03 0.12660275037E+03
 0.11249508463E+03 0.97624498783E+02 0.82400704533E+02 0.67613673862E+02 0.54171909791E+02
 0.42811119183E+02 0.33872844472E+02 0.27239461911E+02 0.22401431921E+02 0.18735364391E+02
 0.15946883048E+02 0.13857005849E+02 0.12284678208E+02 0.11094009047E+02 0.10184065646E+02
 0.94906556050E+01 0.89701298652E+01 0.85949934042E+01 0.83431162295E+01 0.81993496834E+01
 0.81523767232E+01 0.81993496834E+01 0.83431162295E+01 0.85949934042E+01 0.89701298652E+01
 0.94906556050E+01 0.10184065646E+02 0.11094009047E+02 0.12284678208E+02 0.13857005849E+02
 0.15946883048E+02 0.18735364391E+02 0.22401431921E+02 0.27239461911E+02 0.33872844472E+02
 0.42811119183E+02 0.54171909791E+02 0.67613673862E+02 0.82400704533E+02 0.97624498783E+02
 0.11249508463E+03 0.12660275037E+03 0.14002084199E+03 0.15319523229E+03 0.16665373620E+03
 0.18064113164E+03 0.19483488516E+03 0.20826754700E+03 0.21950494205E+03 0.22702657239E+03
 0.21745620326E+03 0.21506416914E+03 0.20826754700E+03 0.19808423738E+03 0.18584763984E+03
 0.17280752116E+03 0.15979472929E+03 0.14707539407E+03 0.13443000095E+03 0.12141762118E+03
 0.10769859762E+03 0.93289712695E+02 0.78642243484E+02 0.64530978492E+02 0.51805596710E+02
 0.41125648827E+02 0.32762640152E+02 0.26559997795E+02 0.21998119194E+02 0.18513225692E+02
 0.15862474219E+02 0.13871411623E+02 0.12371044343E+02 0.11230598182E+02 0.10357851850E+02
 0.96921365644E+01 0.91937701603E+01 0.88349414216E+01 0.85949934042E+01 0.84579009950E+01
 0.84134823941E+01 0.84579009950E+01 0.85949934042E+01 0.88349414216E+01 0.91937701603E+01
 0.96921365644E+01 0.10357851850E+02 0.11230598182E+02 0.12371044343E+02 0.13871411623E+02
 0.15862474219E+02 0.18513225692E+02 0.21998119194E+02 0.26559997795E+02 0.32762640152E+02
 0.41125648827E+02 0.51805596710E+02 0.64530978492E+02 0.78642243484E+02 0.93289712695E+02
 0.10769859762E+03 0.12141762118E+03 0.13443000095E+03 0.14707539407E+03 0.15979472929E+03
 0.17280752116E+03 0.18584763984E+03 0.19808423738E+03 0.20826754700E+03 0.21506416914E+03
 0.20289980269E+03 0.20080393260E+03 0.19483488516E+03 0.18584763984E+03 0.17495554022E+03
 0.16319529502E+03 0.15124626961E+03 0.13932112869E+03 0.12724409026E+03 0.11468859240E+03
 0.10144837602E+03 0.87643694584E+02 0.73763334156E+02 0.60551641430E+02 0.48771662244E+02
 0.38981009373E+02 0.31360971272E+02 0.25706689842E+02 0.21493617606E+02 0.18247378495E+02
 0.15780340252E+02 0.13920960687E+02 0.12516189288E+02 0.11444522786E+02 0.10624257149E+02
 0.99978463349E+01 0.95301810743E+01 0.91937701603E+01 0.89701298652E+01 0.88422468295E+01
 0.88013002181E+01 0.88422468295E+01 0.89701298652E+01 0.91937701603E+01 0.95301810743E+01
 0.99978463349E+01 0.10624257149E+02 0.11444522786E+02 0.12516189288E+02 0.13920960687E+02
 0.15780340252E+02 0.18247378495E+02 0.21493617606E+02 0.25706689842E+02 0.31360971272E+02
 0.38981009373E+02 0.48771662244E+02 0.60551641430E+02 0.73763334156E+02 0.87643694584E+02
 0.10144837602E+03 0.11468859240E+03 0.12724409026E+03 0.13932112869E+03 0.15124626961E+03
 0.16319529502E+03 0.17495554022E+03 0.18584763984E+03 0.19483488516E+03 0.20080393260E+03
 0.18761181432E+03 0.18580511315E+03 0.18064113164E+03 0.17280752116E+03 0.16319529502E+03
 0.15263077683E+03 0.14165335282E+03 0.13044116216E+03 0.11888571482E+03 0.10679343857E+03
 0.94099379734E+02 0.81024398533E+02 0.68080816905E+02 0.55955517523E+02 0.45302351626E+02
 0.36553801852E+02 0.29791390550E+02 0.24755904684E+02 0.20937146589E+02 0.17977537809E+02
 0.15729460868E+02 0.14029359414E+02 0.12742263095E+02 0.11756354253E+02 0.11001162970E+02
 0.10425147746E+02 0.99978463349E+01 0.96921365644E+01 0.94906556050E+01 0.93757503748E+01
 0.93393529694E+01 0.93757503748E+01 0.94906556050E+01 0.96921365644E+01 0.99978463349E+01
 0.10425147746E+02 0.11001162970E+02 0.11756354253E+02 0.12742263095E+02 0.14029359414E+02
 0.15729460868E+02 0.17977537809E+02 0.20937146589E+02 0.24755904684E+02 0.29791390550E+02
 0.36553801852E+02 0.45302351626E+02 0.55955517523E+02 0.68080816905E+02 0.81024398533E+02
 0.94099379734E+02 0.10679343857E+03 0.11888571482E+03 0.13044116216E+03 0.14165335282E+03
 0.15263077683E+03 0.16319529502E+03 0.17280752116E+03 0.18064113164E+03 0.18580511315E+03
 0.17268833618E+03 0.17112972700E+03 0.16665373620E+03 0.15979472929E+03 0.15124626961E+03
 0.14165335282E+03 0.13144884491E+03 0.12080355401E+03 0.10969605380E+03 0.98070508477E+02
 0.85999321398E+02 0.73781877223E+02 0.61926950492E+02 0.51038343351E+02 0.41639814750E+02
 0.34025175998E+02 0.28176910876E+02 0.23781048441E+02 0.20381470633E+02 0.17744785970E+02
 0.15741966389E+02 0.14223766763E+02 0.13070660346E+02 0.12187784483E+02 0.11512872710E+02
 0.11001162970E+02 0.10624257149E+02 0.10357851850E+02 0.10184065646E+02 0.10086255816E+02
 0.10055246857E+02 0.10086255816E+02 0.10184065646E+02 0.10357851850E+02 0.10624257149E+02
 0.11001162970E+02 0.11512872710E+02 0.12187784483E+02 0.13070660346E+02 0.14223766763E+02
 0.15741966389E+02 0.17744785970E+02 0.20381470633E+02 0.23781048441E+02 0.28176910876E+02
 0.34025175998E+02 0.41639814750E+02 0.51038343351E+02 0.61926950492E+02 0.73781877223E+02
 0.85999321398E+02 0.98070508477E+02 0.10969605380E+03 0.12080355401E+03 0.13144884491E+03
 0.14165335282E+03 0.15124626961E+03 0.15979472929E+03 0.16665373620E+03 0.17112972700E+03
 0.15851050607E+03 0.15714317813E+03 0.15319523229E+03 0.14707539407E+03 0.13932112869E+03
 0.13044116216E+03 0.12080355401E+03 0.11060035101E+03 0.99909490116E+02 0.88804317856E+02
 0.77469694057E+02 0.66250885261E+02 0.55623969668E+02 0.46082304390E+02 0.38009704638E+02
 0.31558772067E+02 0.26621810810E+02 0.22844854046E+02 0.19879213383E+02 0.17590028836E+02
 0.15849149609E+02 0.14531066453E+02 0.13529563291E+02 0.12766948132E+02 0.12187784483E+02
 0.11756354253E+02 0.11444522786E+02 0.11230598182E+02 0.11094009047E+02 0.11019589185E+02
 0.10995760190E+02 0.11019589185E+02 0.11094009047E+02 0.11230598182E+02 0.11444522786E+02
 0.11756354253E+02 0.12187784483E+02 0.12766948132E+02 0.13529563291E+02 0.14531066453E+02
 0.15849149609E+02 0.17590028836E+02 0.19879213383E+02 0.22844854046E+02 0.26621810810E+02
 0.31558772067E+02 0.38009704638E+02 0.46082304390E+02 0.55623969668E+02 0.66250885261E+02
 0.77469694057E+02 0.88804317856E+02 0.99909490116E+02 0.11060035101E+03 0.12080355401E+03
 0.13044116216E+03 0.13932112869E+03 0.14707539407E+03 0.15319523229E+03 0.15714317813E+03
 0.14481911291E+03 0.14358976147E+03 0.14002084199E+03 0.13443000095E+03 0.12724409026E+03
 0.11888571482E+03 0.10969605380E+03 0.99909490116E+02 0.89698234267E+02 0.79243746492E+02
 0.68807955267E+02 0.58744335158E+02 0.49462806681E+02 0.41335166775E+02 0.34599098661E+02
 0.29283205191E+02 0.25198357645E+02 0.21999462521E+02 0.19480686068E+02 0.17549143735E+02
 0.16084792175E+02 0.14982312683E+02 0.14150873332E+02 0.13529563291E+02 0.13070660346E+02
 0.12742263095E+02 0.12516189288E+02 0.12371044343E+02 0.12284678208E+02 0.12241203910E+02
 0.12227638624E+02 0.12241203910E+02 0.12284678208E+02 0.12371044343E+02 0.12516189288E+02
 0.12742263095E+02 0.13070660346E+02 0.13529563291E+02 0.14150873332E+02 0.14982312683E+02
 0.16084792175E+02 0.17549143735E+02 0.19480686068E+02 0.21999462521E+02 0.25198357645E+02
 0.29283205191E+02 0.34599098661E+02 0.41335166775E+02 0.49462806681E+02 0.58744335158E+02
 0.68807955267E+02 0.79243746492E+02 0.89698234267E+02 0.99909490116E+02 0.10969605380E+03
 0.11888571482E+03 0.12724409026E+03 0.13443000095E+03 0.14002084199E+03 0.14358976147E+03
 0.13101460645E+03 0.12988815932E+03 0.12660275037E+03 0.12141762118E+03 0.11468859240E+03
 0.10679343857E+03 0.98070508477E+02 0.88804317856E+02 0.79243746492E+02 0.69646413837E+02
 0.60303817920E+02 0.51546191052E+02 0.43693490906E+02 0.36991827417E+02 0.31543569578E+02
 0.27278023745E+02 0.23946243852E+02 0.21293885900E+02 0.19228517995E+02 0.17658696092E+02
 0.16483968417E+02 0.15615127265E+02 0.14982312683E+02 0.14531066453E+02 0.14223766763E+02
 0.14029359414E+02 0.13920960687E+02 0.13871411623E+02 0.13857005849E+02 0.13857062737E+02
 0.13858845775E+02 0.13857062737E+02 0.13857005849E+02 0.13871411623E+02 0.13920960687E+02
 0.14029359414E+02 0.14223766763E+02 0.14531066453E+02 0.14982312683E+02 0.15615127265E+02
 0.16483968417E+02 0.17658696092E+02 0.19228517995E+02 0.21293885900E+02 0.23946243852E+02
 0.27278023745E+02 0.31543569578E+02 0.36991827417E+02 0.43693490906E+02 0.51546191052E+02
 0.60303817920E+02 0.69646413837E+02 0.79243746492E+02 0.88804317856E+02 0.98070508477E+02
 0.10679343857E+03 0.11468859240E+03 0.12141762118E+03 0.12660275037E+03 0.12988815932E+03
 0.11655739553E+03 0.11552193928E+03 0.11249508463E+03 0.10769859762E+03 0.10144837602E+03
 0.94099379734E+02 0.85999321398E+02 0.77469694057E+02 0.68807955267E+02 0.60303817920E+02
 0.52246029308E+02 0.44908042338E+02 0.38511063409E+02 0.33183609732E+02 0.28918812195E+02
 0.25567767255E+02 0.22891588662E+02 0.20774970879E+02 0.19158973325E+02 0.17957064276E+02
 0.17089863008E+02 0.16483968417E+02 0.16084792175E+02 0.15849149609E+02 0.15741966389E+02
 0.15729460868E+02 0.15780340252E+02 0.15862474219E+02 0.15946883048E+02 0.16008280039E+02
 0.16030859376E+02 0.16008280039E+02 0.15946883048E+02 0.15862474219E+02 0.15780340252E+02
 0.15729460868E+02 0.15741966389E+02 0.15849149609E+02 0.16084792175E+02 0.16483968417E+02
 0.17089863008E+02 0.17957064276E+02 0.19158973325E+02 0.20774970879E+02 0.22891588662E+02
 0.25567767255E+02 0.28918812195E+02 0.33183609732E+02 0.38511063409E+02 0.44908042338E+02
 0.52246029308E+02 0.60303817920E+02 0.68807955267E+02 0.77469694057E+02 0.85999321398E+02
 0.94099379734E+02 0.10144837602E+03 0.10769859762E+03 0.11249508463E+03 0.11552193928E+03
 0.10129213923E+03 0.10035750343E+03 0.97624498783E+02 0.93289712695E+02 0.87643694584E+02
 0.81024398533E+02 0.73781877223E+02 0.66250885261E+02 0.58744335158E+02 0.51546191052E+02
 0.44908042338E+02 0.39030511613E+02 0.34043476229E+02 0.29971543124E+02 0.26733549944E+02
 0.24141475171E+02 0.22069657469E+02 0.20479834382E+02 0.19308535969E+02 0.18489846395E+02
 0.17957064276E+02 0.17658696092E+02 0.17549143735E+02 0.17590028836E+02 0.17744785970E+02
 0.17977537809E+02 0.18247378495E+02 0.18513225692E+02 0.18735364391E+02 0.18882804942E+02
 0.18934125086E+02 0.18882804942E+02 0.18735364391E+02 0.18513225692E+02 0.18247378495E+02
 0.17977537809E+02 0.17744785970E+02 0.17590028836E+02 0.17549143735E+02 0.17658696092E+02
 0.17957064276E+02 0.18489846395E+02 0.19308535969E+02 0.20479834382E+02 0.22069657469E+02
 0.24141475171E+02 0.26733549944E+02 0.29971543124E+02 0.34043476229E+02 0.39030511613E+02
 0.44908042338E+02 0.51546191052E+02 0.58744335158E+02 0.66250885261E+02 0.73781877223E+02
 0.81024398533E+02 0.87643694584E+02 0.93289712695E+02 0.97624498783E+02 0.10035750343E+03
 0.85586652078E+02 0.84774699978E+02 0.82400704533E+02 0.78642243484E+02 0.73763334156E+02
 0.68080816905E+02 0.61926950492E+02 0.55623969668E+02 0.49462806681E+02 0.43693490906E+02
 0.38511063409E+02 0.34043476229E+02 0.30334312661E+02 0.27343859183E+02 0.24937269595E+02
 0.23002978210E+02 0.21516257057E+02 0.20438418473E+02 0.19720100527E+02 0.19308535969E+02
 0.19158973325E+02 0.19228517995E+02 0.19480686068E+02 0.19879213383E+02 0.20381470633E+02
 0.20937146589E+02 0.21493617606E+02 0.21998119194E+02 0.22401431921E+02 0.22661865179E+02
 0.22752081575E+02 0.22661865179E+02 0.22401431921E+02 0.21998119194E+02 0.21493617606E+02
 0.20937146589E+02 0.20381470633E+02 0.19879213383E+02 0.19480686068E+02 0.19228517995E+02
 0.19158973325E+02 0.19308535969E+02 0.19720100527E+02 0.20438418473E+02 0.21516257057E+02
 0.23002978210E+02 0.24937269595E+02 0.27343859183E+02 0.30334312661E+02 0.34043476229E+02
 0.38511063409E+02 0.43693490906E+02 0.49462806681E+02 0.55623969668E+02 0.61926950492E+02
 0.68080816905E+02 0.73763334156E+02 0.78642243484E+02 0.82400704533E+02 0.84774699978E+02
 0.70235956986E+02 0.69566761213E+02 0.67613673862E+02 0.64530978492E+02 0.60551641430E+02
 0.55955517523E+02 0.51038343351E+02 0.46082304390E+02 0.41335166775E+02 0.36991827417E+02
 0.33183609732E+02 0.29971543124E+02 0.27343859183E+02 0.25210446225E+02 0.23491840239E+02
 0.22178584462E+02 0.21253244206E+02 0.20685005219E+02 0.20438418473E+02 0.20479834382E+02
 0.20774970879E+02 0.21293885900E+02 0.21999462521E+02 0.22844854046E+02 0.23781048441E+02
 0.24755904684E+02 0.25706689842E+02 0.26559997795E+02 0.27239461911E+02 0.27677921211E+02
 0.27829488081E+02 0.27677921211E+02 0.27239461911E+02 0.26559997795E+02 0.25706689842E+02
 0.24755904684E+02 0.23781048441E+02 0.22844854046E+02 0.21999462521E+02 0.21293885900E+02
 0.20774970879E+02 0.20479834382E+02 0.20438418473E+02 0.20685005219E+02 0.21253244206E+02
 0.22178584462E+02 0.23491840239E+02 0.25210446225E+02 0.27343859183E+02 0.29971543124E+02
 0.33183609732E+02 0.36991827417E+02 0.41335166775E+02 0.46082304390E+02 0.51038343351E+02
 0.55955517523E+02 0.60551641430E+02 0.64530978492E+02 0.67613673862E+02 0.69566761213E+02
 0.56194463350E+02 0.55677628505E+02 0.54171909791E+02 0.51805596710E+02 0.48771662244E+02
 0.45302351626E+02 0.41639814750E+02 0.38009704638E+02 0.34599098661E+02 0.31543569578E+02
 0.28918812195E+02 0.26733549944E+02 0.24937269595E+02 0.23491840239E+02 0.22406452328E+02
 0.21680477387E+02 0.21301720399E+02 0.21253244206E+02 0.21516257057E+02 0.22069657469E+02
 0.22891588662E+02 0.23946243852E+02 0.25198357645E+02 0.26621810810E+02 0.28176910876E+02
 0.29791390550E+02 0.31360971272E+02 0.32762640152E+02 0.33872844472E+02 0.34586377705E+02
 0.34832511931E+02 0.34586377705E+02 0.33872844472E+02 0.32762640152E+02 0.31360971272E+02
 0.29791390550E+02 0.28176910876E+02 0.26621810810E+02 0.25198357645E+02 0.23946243852E+02
 0.22891588662E+02 0.22069657469E+02 0.21516257057E+02 0.21253244206E+02 0.21301720399E+02
 0.21680477387E+02 0.22406452328E+02 0.23491840239E+02 0.24937269595E+02 0.26733549944E+02
 0.28918812195E+02 0.31543569578E+02 0.34599098661E+02 0.38009704638E+02 0.41639814750E+02
 0.45302351626E+02 0.48771662244E+02 0.51805596710E+02 0.54171909791E+02 0.55677628505E+02
 0.44259618695E+02 0.43888779848E+02 0.42811119183E+02 0.41125648827E+02 0.38981009373E+02
 0.36553801852E+02 0.34025175998E+02 0.31558772067E+02 0.29283205191E+02 0.27278023745E+02
 0.25567767255E+02 0.24141475171E+02 0.23002978210E+02 0.22178584462E+02 0.21680477387E+02
 0.21513937476E+02 0.21680477387E+02 0.22178584462E+02 0.23002978210E+02 0.24141475171E+02
 0.25567767255E+02 0.27278023745E+02 0.29283205191E+02 0.31558772067E+02 0.34025175998E+02
 0.36553801852E+02 0.38981009373E+02 0.41125648827E+02 0.42811119183E+02 0.43888779848E+02
 0.44259618695E+02 0.43888779848E+02 0.42811119183E+02 0.41125648827E+02 0.38981009373E+02
 0.36553801852E+02 0.34025175998E+02 0.31558772067E+02 0.29283205191E+02 0.27278023745E+02
 0.25567767255E+02 0.24141475171E+02 0.23002978210E+02 0.22178584462E+02 0.21680477387E+02
 0.21513937476E+02 0.21680477387E+02 0.22178584462E+02 0.23002978210E+02 0.24141475171E+02
 0.25567767255E+02 0.27278023745E+02 0.29283205191E+02 0.31558772067E+02 0.34025175998E+02
 0.36553801852E+02 0.38981009373E+02 0.41125648827E+02 0.42811119183E+02 0.43888779848E+02
 0.34832511931E+02 0.34586377705E+02 0.33872844472E+02 0.32762640152E+02 0.31360971272E+02
 0.29791390550E+02 0.28176910876E+02 0.26621810810E+02 0.25198357645E+02 0.23946243852E+02
 0.22891588662E+02 0.22069657469E+02 0.21516257057E+02 0.21253244206E+02 0.21301720399E+02
 0.21680477387E+02 0.22406452328E+02 0.23491840239E+02 0.24937269595E+02 0.26733549944E+02
 0.28918812195E+02 0.31543569578E+02 0.34599098661E+02 0.38009704638E+02 0.41639814750E+02
 0.45302351626E+02 0.48771662244E+02 0.51805596710E+02 0.54171909791E+02 0.55677628505E+02
 0.56194463350E+02 0.55677628505E+02 0.54171909791E+02 0.51805596710E+02 0.48771662244E+02
 0.45302351626E+02 0.41639814750E+02 0.38009704638E+02 0.34599098661E+02 0.31543569578E+02
 0.28918812195E+02 0.26733549944E+02 0.24937269595E+02 0.23491840239E+02 0.22406452328E+02
 0.21680477387E+02 0.21301720399E+02 0.21253244206E+02 0.21516257057E+02 0.22069657469E+02
 0.22891588662E+02 0.23946243852E+02 0.25198357645E+02 0.26621810810E+02 0.28176910876E+02
 0.29791390550E+02 0.31360971272E+02 0.32762640152E+02 0.33872844472E+02 0.34586377705E+02
 0.27829488081E+02 0.27677921211E+02 0.27239461911E+02 0.26559997795E+02 0.25706689842E+02
 0.24755904684E+02 0.23781048441E+02 0.22844854046E+02 0.21999462521E+02 0.21293885900E+02
 0.20774970879E+02 0.20479834382E+02 0.20438418473E+02 0.20685005219E+02 0.21253244206E+02
 0.22178584462E+02 0.23491840239E+02 0.25210446225E+02 0.27343859183E+02 0.29971543124E+02
 0.33183609732E+02 0.36991827417E+02 0.41335166775E+02 0.46082304390E+02 0.51038343351E+02
 0.55955517523E+02 0.60551641430E+02 0.64530978492E+02 0.67613673862E+02 0.69566761213E+02
 0.70235956986E+02 0.69566761213E+02 0.67613673862E+02 0.64530978492E+02 0.60551641430E+02
 0.55955517523E+02 0.51038343351E+02 0.46082304390E+02 0.41335166775E+02 0.36991827417E+02
 0.33183609732E+02 0.29971543124E+02 0.27343859183E+02 0.25210446225E+02 0.23491840239E+02
 0.22178584462E+02 0.21253244206E+02 0.20685005219E+02 0.20438418473E+02 0.20479834382E+02
 0.20774970879E+02 0.21293885900E+02 0.21999462521E+02 0.22844854046E+02 0.23781048441E+02
 0.24755904684E+02 0.25706689842E+02 0.26559997795E+02 0.27239461911E+02 0.27677921211E+02
 0.22752081575E+02 0.22661865179E+02 0.22401431921E+02 0.21998119194E+02 0.21493617606E+02
 0.20937146589E+02 0.20381470633E+02 0.19879213383E+02 0.19480686068E+02 0.19228517995E+02
 0.19158973325E+02 0.19308535969E+02 0.19720100527E+02 0.20438418473E+02 0.21516257057E+02
 0.23002978210E+02 0.24937269595E+02 0.27343859183E+02 0.30334312661E+02 0.34043476229E+02
 0.38511063409E+02 0.43693490906E+02 0.49462806681E+02 0.55623969668E+02 0.61926950492E+02
 0.68080816905E+02 0.73763334156E+02 0.78642243484E+02 0.82400704533E+02 0.84774699978E+02
 0.85586652078E+02 0.84774699978E+02 0.82400704533E+02 0.78642243484E+02 0.73763334156E+02
 0.68080816905E+02 0.61926950492E+02 0.55623969668E+02 0.49462806681E+02 0.43693490906E+02
 0.38511063409E+02 0.34043476229E+02 0.30334312661E+02 0.27343859183E+02 0.24937269595E+02
 0.23002978210E+02 0.21516257057E+02 0.20438418473E+02 0.19720100527E+02 0.19308535969E+02
 0.19158973325E+02 0.19228517995E+02 0.19480686068E+02 0.19879213383E+02 0.20381470633E+02
 0.20937146589E+02 0.21493617606E+02 0.21998119194E+02 0.22401431921E+02 0.22661865179E+02
 0.18934125086E+02 0.18882804942E+02 0.18735364391E+02 0.18513225692E+02 0.18247378495E+02
 0.17977537809E+02 0.17744785970E+02 0.17590028836E+02 0.17549143735E+02 0.17658696092E+02
 0.17957064276E+02 0.18489846395E+02 0.19308535969E+02 0.20479834382E+02 0.22069657469E+02
 0.24141475171E+02 0.26733549944E+02 0.29971543124E+02 0.34043476229E+02 0.39030511613E+02
 0.44908042338E+02 0.51546191052E+02 0.58744335158E+02 0.66250885261E+02 0.73781877223E+02
 0.81024398533E+02 0.87643694584E+02 0.93289712695E+02 0.97624498783E+02 0.10035750343E+03
 0.10129213923E+03 0.10035750343E+03 0.97624498783E+02 0.93289712695E+02 0.87643694584E+02
 0.81024398533E+02 0.73781877223E+02 0.66250885261E+02 0.58744335158E+02 0.51546191052E+02
 0.44908042338E+02 0.39030511613E+02 0.34043476229E+02 0.29971543124E+02 0.26733549944E+02
 0.24141475171E+02 0.22069657469E+02 0.20479834382E+02 0.19308535969E+02 0.18489846395E+02
 0.17957064276E+02 0.17658696092E+02 0.17549143735E+02 0.17590028836E+02 0.17744785970E+02
 0.17977537809E+02 0.18247378495E+02 0.18513225692E+02 0.18735364391E+02 0.18882804942E+02
 0.16030859376E+02 0.16008280039E+02 0.15946883048E+02 0.15862474219E+02 0.15780340252E+02
 0.15729460868E+02 0.15741966389E+02 0.15849149609E+02 0.16084792175E+02 0.16483968417E+02
 0.17089863008E+02 0.17957064276E+02 0.19158973325E+02 0.20774970879E+02 0.22891588662E+02
 0.25567767255E+02 0.28918812195E+02 0.33183609732E+02 0.38511063409E+02 0.44908042338E+02
 0.52246029308E+02 0.60303817920E+02 0.68807955267E+02 0.77469694057E+02 0.85999321398E+02
 0.94099379734E+02 0.10144837602E+03 0.10769859762E+03 0.11249508463E+03 0.11552193928E+03
 0.11655739553E+03 0.11552193928E+03 0.11249508463E+03 0.10769859762E+03 0.10144837602E+03
 0.94099379734E+02 0.85999321398E+02 0.77469694057E+02 0.68807955267E+02 0.60303817920E+02
 0.52246029308E+02 0.44908042338E+02 0.38511063409E+02 0.33183609732E+02 0.28918812195E+02
 0.25567767255E+02 0.22891588662E+02 0.20774970879E+02 0.19158973325E+02 0.17957064276E+02
 0.17089863008E+02 0.16483968417E+02 0.16084792175E+02 0.15849149609E+02 0.15741966389E+02
 0.15729460868E+02 0.15780340252E+02 0.15862474219E+02 0.15946883048E+02 0.16008280039E+02
 0.13858845775E+02 0.13857062737E+02 0.13857005849E+02 0.13871411623E+02 0.13920960687E+02
 0.14029359414E+02 0.14223766763E+02 0.14531066453E+02 0.14982312683E+02 0.15615127265E+02
 0.16483968417E+02 0.17658696092E+02 0.19228517995E+02 0.21293885900E+02 0.23946243852E+02
 0.27278023745E+02 0.31543569578E+02 0.36991827417E+02 0.43693490906E+02 0.51546191052E+02
 0.60303817920E+02 0.69646413837E+02 0.79243746492E+02 0.88804317856E+02 0.98070508477E+02
 0.10679343857E+03 0.11468859240E+03 0.12141762118E+03 0.12660275037E+03 0.12988815932E+03
 0.13101460645E+03 0.12988815932E+03 0.12660275037E+03 0.12141762118E+03 0.11468859240E+03
 0.10679343857E+03 0.98070508477E+02 0.88804317856E+02 0.79243746492E+02 0.69646413837E+02
 0.60303817920E+02 0.51546191052E+02 0.43693490906E+02 0.36991827417E+02 0.31543569578E+02
 0.27278023745E+02 0.23946243852E+02 0.21293885900E+02 0.19228517995E+02 0.17658696092E+02
 0.16483968417E+02 0.15615127265E+02 0.14982312683E+02 0.14531066453E+02 0.14223766763E+02
 0.14029359414E+02 0.13920960687E+02 0.13871411623E+02 0.13857005849E+02 0.13857062737E+02
 0.12227638624E+02 0.12241203910E+02 0.12284678208E+02 0.12371044343E+02 0.12516189288E+02
 0.12742263095E+02 0.13070660346E+02 0.13529563291E+02 0.14150873332E+02 0.14982312683E+02
 0.16084792175E+02 0.17549143735E+02 0.19480686068E+02 0.21999462521E+02 0.25198357645E+02
 0.29283205191E+02 0.34599098661E+02 0.41335166775E+02 0.49462806681E+02 0.58744335158E+02
 0.68807955267E+02 0.79243746492E+02 0.89698234267E+02 0.99909490116E+02 0.10969605380E+03
 0.11888571482E+03 0.12724409026E+03 0.13443000095E+03 0.14002084199E+03 0.14358976147E+03
 0.14481911291E+03 0.14358976147E+03 0.14002084199E+03 0.13443000095E+03 0.12724409026E+03
 0.11888571482E+03 0.10969605380E+03 0.99909490116E+02 0.89698234267E+02 0.79243746492E+02
 0.68807955267E+02 0.58744335158E+02 0.49462806681E+02 0.41335166775E+02 0.34599098661E+02
 0.29283205191E+02 0.25198357645E+02 0.21999462521E+02 0.19480686068E+02 0.17549143735E+02
 0.16084792175E+02 0.14982312683E+02 0.14150873332E+02 0.13529563291E+02 0.13070660346E+02
 0.12742263095E+02 0.12516189288E+02 0.12371044343E+02 0.12284678208E+02 0.12241203910E+02
 0.10995760190E+02 0.11019589185E+02 0.11094009047E+02 0.11230598182E+02 0.11444522786E+02
 0.11756354253E+02 0.12187784483E+02 0.12766948132E+02 0.13529563291E+02 0.14531066453E+02
 0.15849149609E+02 0.17590028836E+02 0.19879213383E+02 0.22844854046E+02 0.26621810810E+02
 0.31558772067E+02 0.38009704638E+02 0.46082304390E+02 0.55623969668E+02 0.66250885261E+02
 0.77469694057E+02 0.88804317856E+02 0.99909490116E+02 0.11060035101E+03 0.12080355401E+03
 0.13044116216E+03 0.13932112869E+03 0.14707539407E+03 0.15319523229E+03 0.15714317813E+03
 0.15851050607E+03 0.15714317813E+03 0.15319523229E+03 0.14707539407E+03 0.13932112869E+03
 0.13044116216E+03 0.12080355401E+03 0.11060035101E+03 0.99909490116E+02 0.88804317856E+02
 0.77469694057E+02 0.66250885261E+02 0.55623969668E+02 0.46082304390E+02 0.38009704638E+02
 0.31558772067E+02 0.26621810810E+02 0.22844854046E+02 0.19879213383E+02 0.17590028836E+02
 0.15849149609E+02 0.14531066453E+02 0.13529563291E+02 0.12766948132E+02 0.12187784483E+02
 0.11756354253E+02 0.11444522786E+02 0.11230598182E+02 0.11094009047E+02 0.11019589185E+02
 0.10055246857E+02 0.10086255816E+02 0.10184065646E+02 0.10357851850E+02 0.10624257149E+02
 0.11001162970E+02 0.11512872710E+02 0.12187784483E+02 0.13070660346E+02 0.14223766763E+02
 0.15741966389E+02 0.17744785970E+02 0.20381470633E+02 0.23781048441E+02 0.28176910876E+02
 0.34025175998E+02 0.41639814750E+02 0.51038343351E+02 0.61926950492E+02 0.73781877223E+02
 0.85999321398E+02 0.98070508477E+02 0.10969605380E+03 0.12080355401E+03 0.13144884491E+03
 0.14165335282E+03 0.15124626961E+03 0.15979472929E+03 0.16665373620E+03 0.17112972700E+03
 0.17268833618E+03 0.17112972700E+03 0.16665373620E+03 0.15979472929E+03 0.15124626961E+03
 0.14165335282E+03 0.13144884491E+03 0.12080355401E+03 0.10969605380E+03 0.98070508477E+02
 0.85999321398E+02 0.73781877223E+02 0.61926950492E+02 0.51038343351E+02 0.41639814750E+02
 0.34025175998E+02 0.28176910876E+02 0.23781048441E+02 0.20381470633E+02 0.17744785970E+02
 0.15741966389E+02 0.14223766763E+02 0.13070660346E+02 0.12187784483E+02 0.11512872710E+02
 0.11001162970E+02 0.10624257149E+02 0.10357851850E+02 0.10184065646E+02 0.10086255816E+02
 0.93393529694E+01 0.93757503748E+01 0.94906556050E+01 0.96921365644E+01 0.99978463349E+01
 0.10425147746E+02 0.11001162970E+02 0.11756354253E+02 0.12742263095E+02 0.14029359414E+02
 0.15729460868E+02 0.17977537809E+02 0.20937146589E+02 0.24755904684E+02 0.29791390550E+02
 0.36553801852E+02 0.45302351626E+02 0.55955517523E+02 0.68080816905E+02 0.81024398533E+02
 0.94099379734E+02 0.10679343857E+03 0.11888571482E+03 0.13044116216E+03 0.14165335282E+03
 0.15263077683E+03 0.16319529502E+03 0.17280752116E+03 0.18064113164E+03 0.18580511315E+03
 0.18761181432E+03 0.18580511315E+03 0.18064113164E+03 0.17280752116E+03 0.16319529502E+03
 0.15263077683E+03 0.14165335282E+03 0.13044116216E+03 0.11888571482E+03 0.10679343857E+03
 0.94099379734E+02 0.81024398533E+02 0.68080816905E+02 0.55955517523E+02 0.45302351626E+02
 0.36553801852E+02 0.29791390550E+02 0.24755904684E+02 0.20937146589E+02 0.17977537809E+02
 0.15729460868E+02 0.14029359414E+02 0.12742263095E+02 0.11756354253E+02 0.11001162970E+02
 0.10425147746E+02 0.99978463349E+01 0.96921365644E+01 0.94906556050E+01 0.93757503748E+01
 0.88013002181E+01 0.88422468295E+01 0.89701298652E+01 0.91937701603E+01 0.95301810743E+01
 0.99978463349E+01 0.10624257149E+02 0.11444522786E+02 0.12516189288E+02 0.13920960687E+02
 0.15780340252E+02 0.18247378495E+02 0.21493617606E+02 0.25706689842E+02 0.31360971272E+02
 0.38981009373E+02 0.48771662244E+02 0.60551641430E+02 0.73763334156E+02 0.87643694584E+02
 0.10144837602E+03 0.11468859240E+03 0.12724409026E+03 0.13932112869E+03 0.15124626961E+03
 0.16319529502E+03 0.17495554022E+03 0.18584763984E+03 0.19483488516E+03 0.20080393260E+03
 0.20289980269E+03 0.20080393260E+03 0.19483488516E+03 0.18584763984E+03 0.17495554022E+03
 0.16319529502E+03 0.15124626961E+03 0.13932112869E+03 0.12724409026E+03 0.11468859240E+03
 0.10144837602E+03 0.87643694584E+02 0.73763334156E+02 0.60551641430E+02 0.48771662244E+02
 0.38981009373E+02 0.31360971272E+02 0.25706689842E+02 0.21493617606E+02 0.18247378495E+02
 0.15780340252E+02 0.13920960687E+02 0.12516189288E+02 0.11444522786E+02 0.10624257149E+02
 0.99978463349E+01 0.95301810743E+01 0.91937701603E+01 0.89701298652E+01 0.88422468295E+01
 0.84134823941E+01 0.84579009950E+01 0.85949934042E+01 0.88349414216E+01 0.91937701603E+01