    4    4   80    1
  0.1574142E+02  0.3978334E-09  0.3978334E-09  0.3978334E-09  0.5000000E-15
  1.000000000000000E-004
  CAR 
 unknown system                          
     40     20     24
 
  0.0000000E+00  0.0000000E+00  0.0000000E+00  0.2915452E-02
    1       -2.493478   1.000000
    2        0.640204   1.000000
    3        0.640204   1.000000
    4        0.640204   1.000000
    5        1.065827   1.000000
    6        1.065827   1.000000
    7        1.065827   1.000000
    8        3.720341   1.000000
    9        3.720341   1.000000
   10        3.720341   1.000000
   11        5.742621   1.000000
   12        5.742621   1.000000
   13        7.267249   0.506025
   14        7.267249   0.506025
   15        7.267249   0.506025
   16        7.709129   0.000937
   17        7.709129   0.000937
   18        7.709129   0.000937
   19        7.709129   0.000937
   20        7.709129   0.000937
   21        7.709129   0.000937
   22        9.147419   0.000000
   23        9.147419   0.000000
   24        9.147419   0.000000
 
  0.1428571E+00  0.0000000E+00  0.0000000E+00  0.1749271E-01
    1       -2.230792   1.000000
    2        0.731148   1.000000
    3        0.830739   1.000000
    4        0.830739   1.000000
    5        1.173002   1.000000
    6        1.227365   1.000000
    7        1.227365   1.000000
    8        3.554973   1.000000
    9        3.854289   1.000000
   10        3.854289   1.000000
   11        5.560389   1.000000
   12        5.810833   1.000000
   13        6.480951   1.000000
   14        6.480951   1.000000
   15        6.993363   0.974517
   16        6.993363   0.974517
   17        7.183183   0.728917
   18        7.388011   0.200786
   19        7.388011   0.200786
   20        7.709711   0.000924
   21        7.709711   0.000924
   22        7.899895   0.000004
   23       10.522291   0.000000
   24       10.522291   0.000000
 
  0.2857143E+00  0.0000000E+00  0.0000000E+00  0.1749271E-01
    1       -1.477046   1.000000
    2        0.880356   1.000000
    3        1.338034   1.000000
    4        1.338034   1.000000
    5        1.483263   1.000000
    6        1.709255   1.000000
    7        1.709255   1.000000
    8        3.117210   1.000000
    9        4.249837   1.000000
   10        4.249837   1.000000
   11        4.932015   1.000000
   12        4.932015   1.000000
   13        5.088589   1.000000
   14        5.878980   1.000000
   15        6.005405   1.000000
   16        6.278757   1.000000
   17        6.278757   1.000000
   18        6.614172   0.999998
   19        6.614172   0.999998
   20        6.953124   0.987334
   21        7.711036   0.000895
   22        7.711036   0.000895
   23       12.488684   0.000000
   24       12.488684   0.000000
 
  0.4285714E+00  0.0000000E+00  0.0000000E+00  0.1749271E-01
    1       -0.378541   1.000000
    2        0.613478   1.000000
    3        1.884800   1.000000
    4        1.884800   1.000000
    5        1.961119   1.000000
    6        2.501066   1.000000
    7        2.501066   1.000000
    8        2.540297   1.000000
    9        3.584994   1.000000
   10        3.584994   1.000000
   11        4.581822   1.000000
   12        4.617609   1.000000
   13        4.884818   1.000000
   14        4.884818   1.000000
   15        5.549291   1.000000
   16        5.549291   1.000000
   17        5.708784   1.000000
   18        5.708784   1.000000
   19        6.296277   1.000000
   20        6.633908   0.999996
   21        7.712136   0.000872
   22        7.712136   0.000872
   23       14.209755   0.000000
   24       14.209898   0.000000
 
  0.1428571E+00  0.1428571E+00  0.0000000E+00  0.3498542E-01
    1       -1.977115   1.000000
    2        0.926902   1.000000
    3        0.926902   1.000000
    4        0.963804   1.000000
    5        1.328527   1.000000
    6        1.328527   1.000000
    7        1.422314   1.000000
    8        3.487055   1.000000
    9        3.905425   1.000000
   10        3.950054   1.000000
   11        5.519008   1.000000
   12        5.787426   1.000000
   13        5.945782   1.000000
   14        5.945782   1.000000
   15        5.949277   1.000000
   16        6.772647   0.999778
   17        6.988517   0.976485
   18        6.988517   0.976485
   19        7.386650   0.203499
   20        7.386650   0.203499
   21        7.503443   0.048958
   22        9.383643   0.000000
   23        9.383643   0.000000
   24       11.413555   0.000000
 
  0.2857143E+00  0.1428571E+00  0.0000000E+00  0.6997085E-01
    1       -1.249080   1.000000
    2        1.087791   1.000000
    3        1.365045   1.000000
    4        1.453609   1.000000
    5        1.620621   1.000000
    6        1.790953   1.000000
    7        1.932450   1.000000
    8        3.128312   1.000000
    9        4.189273   1.000000
   10        4.258102   1.000000
   11        4.483535   1.000000
   12        4.766041   1.000000
   13        4.868230   1.000000
   14        5.183308   1.000000
   15        6.026359   1.000000
   16        6.169848   1.000000
   17        6.360734   1.000000
   18        6.610007   0.999998
   19        6.623868   0.999997
   20        7.382682   0.211527
   21        7.395733   0.185817
   22        7.869189   0.000011
   23       11.000800   0.000000
   24       13.141559   0.000000
 
  0.4285714E+00  0.1428571E+00  0.0000000E+00  0.6997085E-01
    1       -0.182153   1.000000
    2        0.810716   1.000000
    3        1.953858   1.000000
    4        2.039576   1.000000
    5        2.067952   1.000000
    6        2.523829   1.000000
    7        2.545144   1.000000
    8        2.604809   1.000000
    9        3.279851   1.000000
   10        3.560038   1.000000
   11        4.107801   1.000000
   12        4.186189   1.000000
   13        4.882968   1.000000
   14        5.194339   1.000000
   15        5.554763   1.000000
   16        5.656044   1.000000
   17        5.704072   1.000000
   18        5.863265   1.000000
   19        6.448465   1.000000
   20        7.001537   0.970885
   21        7.375917   0.225636
   22        7.377346   0.222612
   23       12.218784   0.000000
   24       12.961189   0.000000
 
  0.2857143E+00  0.2857143E+00  0.0000000E+00  0.3498542E-01
    1       -0.597747   1.000000
    2        1.569645   1.000000
    3        1.660188   1.000000
    4        1.660188   1.000000
    5        2.023624   1.000000
    6        2.023624   1.000000
    7        2.407815   1.000000
    8        3.040618   1.000000
    9        3.697620   1.000000
   10        3.697620   1.000000
   11        4.120420   1.000000
   12        4.237947   1.000000
   13        4.431870   1.000000
   14        5.078395   1.000000
   15        5.812476   1.000000
   16        6.165015   1.000000
   17        6.165015   1.000000
   18        6.397275   1.000000
   19        6.602820   0.999999
   20        6.602820   0.999999
   21        6.928198   0.992079
   22        9.225866   0.000000
   23        9.225866   0.000000
   24       12.304702   0.000000
 
  0.4285714E+00  0.2857143E+00  0.0000000E+00  0.6997085E-01
    1        0.360770   1.000000
    2        1.331416   1.000000
    3        2.022922   1.000000
    4        2.367796   1.000000
    5        2.389927   1.000000
    6        2.659867   1.000000
    7        2.736106   1.000000
    8        2.741434   1.000000
    9        2.748341   1.000000
   10        3.453167   1.000000
   11        3.459804   1.000000
   12        3.867932   1.000000
   13        4.939240   1.000000
   14        5.078707   1.000000
   15        5.412446   1.000000
   16        5.579761   1.000000
   17        5.591258   1.000000
   18        5.711837   1.000000
   19        6.612727   0.999998
   20        6.688264   0.999980
   21        7.104257   0.878522
   22        7.994607   0.000000
   23       10.371153   0.000000
   24       11.280064   0.000000
 
  0.4285714E+00  0.4285714E+00  0.0000000E+00  0.3498542E-01
    1        1.107737   1.000000
    2        1.871032   1.000000
    3        1.871032   1.000000
    4        2.027764   1.000000
    5        2.788860   1.000000
    6        2.788860   1.000000
    7        2.838319   1.000000
    8        3.066945   1.000000
    9        3.148493   1.000000
   10        3.148493   1.000000
   11        3.194913   1.000000
   12        3.648258   1.000000
   13        4.839967   1.000000
   14        5.075022   1.000000
   15        5.137231   1.000000
   16        5.137231   1.000000
   17        5.212939   1.000000
   18        5.804573   1.000000
   19        5.804573   1.000000
   20        6.105606   1.000000
   21        8.028637   0.000000
   22        9.054950   0.000000
   23        9.054950   0.000000
   24       10.060050   0.000000
 
  0.1428571E+00  0.1428571E+00  0.1428571E+00  0.2332362E-01
    1       -1.736495   1.000000
    2        1.050863   1.000000
    3        1.050863   1.000000
    4        1.050863   1.000000
    5        1.527776   1.000000
    6        1.527776   1.000000
    7        1.527776   1.000000
    8        3.449711   1.000000
    9        3.975102   1.000000
   10        3.975102   1.000000
   11        5.497187   1.000000
   12        5.497187   1.000000
   13        5.497187   1.000000
   14        5.645679   1.000000
   15        5.645679   1.000000
   16        6.460672   1.000000
   17        6.460672   1.000000
   18        6.460672   1.000000
   19        7.511098   0.043710
   20        7.511098   0.043710
   21        7.511098   0.043710
   22       10.130895   0.000000
   23       10.130895   0.000000
   24       10.130895   0.000000
 
  0.2857143E+00  0.1428571E+00  0.1428571E+00  0.6997085E-01
    1       -1.047954   1.000000
    2        1.185483   1.000000
    3        1.431428   1.000000
    4        1.431428   1.000000
    5        1.830932   1.000000
    6        2.038068   1.000000
    7        2.038068   1.000000
    8        3.178463   1.000000
    9        4.154335   1.000000
   10        4.198572   1.000000
   11        4.403558   1.000000
   12        4.403558   1.000000
   13        4.517109   1.000000
   14        5.377367   1.000000
   15        5.826656   1.000000
   16        5.989996   1.000000
   17        6.002534   1.000000
   18        6.002534   1.000000
   19        7.342975   0.301405
   20        7.358403   0.264525
   21        7.358403   0.264525
   22        8.241657   0.000000
   23       11.488811   0.000000
   24       11.488811   0.000000
 
  0.4285714E+00  0.1428571E+00  0.1428571E+00  0.6997085E-01
    1       -0.042681   1.000000
    2        0.900675   1.000000
    3        2.029421   1.000000
    4        2.029421   1.000000
    5        2.257289   1.000000
    6        2.478668   1.000000
    7        2.478668   1.000000
    8        2.730823   1.000000
    9        3.485161   1.000000
   10        3.485161   1.000000
   11        3.899482   1.000000
   12        4.061904   1.000000
   13        4.596175   1.000000
   14        5.159072   1.000000
   15        5.502759   1.000000
   16        5.502759   1.000000
   17        5.656559   1.000000
   18        6.464788   1.000000
   19        6.697835   0.999973
   20        6.957728   0.986229
   21        7.230775   0.607577
   22        7.230775   0.607577
   23       12.595968   0.000000
   24       12.595968   0.000000
 
  0.2857143E+00  0.2857143E+00  0.1428571E+00  0.6997085E-01
    1       -0.480662   1.000000
    2        1.476818   1.000000
    3        1.476818   1.000000
    4        1.547394   1.000000
    5        2.369591   1.000000
    6        2.369591   1.000000
    7        2.497757   1.000000
    8        3.210671   1.000000
    9        3.738853   1.000000
   10        3.738853   1.000000
   11        4.097268   1.000000
   12        4.103723   1.000000
   13        4.209647   1.000000
   14        5.445716   1.000000
   15        5.471435   1.000000
   16        5.471435   1.000000
   17        5.473149   1.000000
   18        6.298218   1.000000
   19        7.169568   0.759847
   20        7.178917   0.738817
   21        7.178917   0.738817
   22        9.419005   0.000000
   23        9.419005   0.000000
   24       12.532628   0.000000
 
  0.4285714E+00  0.2857143E+00  0.1428571E+00  0.1399417E+00
    1        0.330851   1.000000
    2        1.120579   1.000000
    3        1.821648   1.000000
    4        1.853304   1.000000
    5        2.698631   1.000000
    6        2.698787   1.000000
    7        2.797992   1.000000
    8        3.066946   1.000000
    9        3.445134   1.000000
   10        3.492186   1.000000
   11        3.780926   1.000000
   12        3.859576   1.000000
   13        4.415878   1.000000
   14        4.862902   1.000000
   15        5.091677   1.000000
   16        5.168676   1.000000
   17        5.778644   1.000000
   18        6.583516   0.999999
   19        6.920239   0.993222
   20        6.920543   0.993181
   21        6.992110   0.975039
   22        7.909156   0.000003
   23       10.559357   0.000000
   24       11.578574   0.000000
 
  0.4285714E+00  0.4285714E+00  0.1428571E+00  0.6997085E-01
    1        0.832586   1.000000
    2        1.367335   1.000000
    3        1.367335   1.000000
    4        1.586811   1.000000
    5        3.011744   1.000000
    6        3.205829   1.000000
    7        3.205829   1.000000
    8        3.373595   1.000000
    9        3.521857   1.000000
   10        3.521857   1.000000
   11        3.729629   1.000000
   12        3.908325   1.000000
   13        4.345713   1.000000
   14        4.657341   1.000000
   15        4.657341   1.000000
   16        4.684265   1.000000
   17        5.825202   1.000000
   18        6.362172   1.000000
   19        6.362172   1.000000
   20        6.517461   1.000000
   21        7.907384   0.000003
   22        8.998637   0.000000
   23        8.998637   0.000000
   24       10.108547   0.000000
 
  0.2857143E+00  0.2857143E+00  0.2857143E+00  0.2332362E-01
    1       -0.151692   1.000000
    2        1.339578   1.000000
    3        1.339578   1.000000
    4        1.339578   1.000000
    5        2.832221   1.000000
    6        2.832221   1.000000
    7        2.832221   1.000000
    8        3.622080   1.000000
    9        3.897478   1.000000
   10        3.897478   1.000000
   11        3.897478   1.000000
   12        4.021133   1.000000
   13        4.021133   1.000000
   14        4.844924   1.000000
   15        4.844924   1.000000
   16        4.844924   1.000000
   17        6.145427   1.000000
   18        6.145427   1.000000
   19        7.384918   0.206980
   20        7.384918   0.206980
   21        7.384918   0.206980
   22       10.040299   0.000000
   23       10.040299   0.000000
   24       10.040299   0.000000
 
  0.4285714E+00  0.2857143E+00  0.2857143E+00  0.6997085E-01
    1        0.331719   1.000000
    2        0.879528   1.000000
    3        1.306434   1.000000
    4        1.306434   1.000000
    5        2.971347   1.000000
    6        2.971347   1.000000
    7        3.365087   1.000000
    8        3.798929   1.000000
    9        3.844051   1.000000
   10        3.894802   1.000000
   11        4.062291   1.000000
   12        4.261105   1.000000
   13        4.261105   1.000000
   14        4.348841   1.000000
   15        4.562257   1.000000
   16        4.562257   1.000000
   17        6.537904   1.000000
   18        6.798342   0.999567
   19        7.179255   0.738041
   20        7.179255   0.738041
   21        7.257794   0.532661
   22        7.936669   0.000001
   23       10.763965   0.000000
   24       10.763964   0.000000
 
  0.4285714E+00  0.4285714E+00  0.2857143E+00  0.6997085E-01
    1        0.479361   1.000000
    2        0.813474   1.000000
    3        0.813474   1.000000
    4        0.954178   1.000000
    5        3.257595   1.000000
    6        3.391908   1.000000
    7        3.391908   1.000000
    8        3.719147   1.000000
    9        3.907772   1.000000
   10        4.094222   1.000000
   11        4.094222   1.000000
   12        4.153030   1.000000
   13        4.702884   1.000000
   14        4.715487   1.000000
   15        4.715487   1.000000
   16        4.885326   1.000000
   17        6.569329   1.000000
   18        7.037929   0.949147
   19        7.037929   0.949147
   20        7.061946   0.928787
   21        7.541223   0.027291
   22        8.771666   0.000000
   23        8.771666   0.000000
   24        9.839739   0.000000
 
  0.4285714E+00  0.4285714E+00  0.4285714E+00  0.2332362E-01
    1        0.355460   1.000000
    2        0.517418   1.000000
    3        0.517418   1.000000
    4        0.517418   1.000000
    5        3.549633   1.000000
    6        3.549633   1.000000
    7        3.549633   1.000000
    8        3.720881   1.000000
    9        3.720881   1.000000
   10        3.807821   1.000000
   11        3.807821   1.000000
   12        3.807821   1.000000
   13        5.818116   1.000000
   14        5.818116   1.000000
   15        5.818116   1.000000
   16        6.096933   1.000000
   17        7.121467   0.852205
   18        7.121467   0.852204
   19        7.305438   0.399386
   20        7.305438   0.399386
   21        7.305438   0.399386
   22        8.393226   0.000000
   23        8.393226   0.000000
   24        8.393226   0.000000
