<?xml version="1.0" encoding="ISO-8859-1"?>
<modeling>
 <generator>
  <i name="program" type="string">vasp </i>
  <i name="version" type="string">5.4.1  </i>
  <i name="subversion" type="string">05Feb16 (build Mar 02 2016 14:09:44) complex                          parallel </i>
  <i name="platform" type="string">Abel-impi-ifc-cuda </i>
  <i name="date" type="string">2019 09 20 </i>
  <i name="time" type="string">09:52:37 </i>
 </generator>
 <incar>
  <i type="string" name="PREC">accurate  ! normal/accurate</i>
  <i type="string" name="ALGO"> Fast      ! Algorithm for electronic re</i>
  <i type="logical" name="ADDGRID"> T  </i>
  <i type="int" name="ISPIN">     1</i>
  <i type="int" name="MAXMIX">    80</i>
  <i type="int" name="NELMIN">     4</i>
  <i type="int" name="IBRION">     1</i>
  <i name="EDIFF">      0.00001000</i>
  <i name="EDIFFG">     -0.01000000</i>
  <i type="int" name="NSW">    80</i>
  <i type="int" name="ISIF">     3</i>
  <i name="ENCUT">    500.00000000</i>
  <i type="string" name="LREAL"> Auto      ! Projection in reciprocal sp</i>
  <i type="int" name="ISMEAR">     0</i>
  <i name="SIGMA">      0.20000000</i>
  <i type="int" name="NWRITE">     1</i>
  <v type="int" name="KPOINT_BSE">    -1     0     0     0</v>
 </incar>
 <kpoints>
  <generation param="Gamma">
   <v type="int" name="divisions">       7        7        7 </v>
   <v name="usershift">      0.00000000       0.00000000       0.00000000 </v>
   <v name="genvec1">      0.14285714       0.00000000       0.00000000 </v>
   <v name="genvec2">      0.00000000       0.14285714       0.00000000 </v>
   <v name="genvec3">      0.00000000       0.00000000       0.14285714 </v>
   <v name="shift">      0.00000000       0.00000000       0.00000000 </v>
  </generation>
  <varray name="kpointlist" >
   <v>       0.00000000       0.00000000       0.00000000 </v>
   <v>       0.14285714       0.00000000       0.00000000 </v>
   <v>       0.28571429       0.00000000       0.00000000 </v>
   <v>       0.42857143       0.00000000       0.00000000 </v>
   <v>       0.14285714       0.14285714       0.00000000 </v>
   <v>       0.28571429       0.14285714       0.00000000 </v>
   <v>       0.42857143       0.14285714       0.00000000 </v>
   <v>       0.28571429       0.28571429       0.00000000 </v>
   <v>       0.42857143       0.28571429       0.00000000 </v>
   <v>       0.42857143       0.42857143       0.00000000 </v>
   <v>       0.14285714       0.14285714       0.14285714 </v>
   <v>       0.28571429       0.14285714       0.14285714 </v>
   <v>       0.42857143       0.14285714       0.14285714 </v>
   <v>       0.28571429       0.28571429       0.14285714 </v>
   <v>       0.42857143       0.28571429       0.14285714 </v>
   <v>       0.42857143       0.42857143       0.14285714 </v>
   <v>       0.28571429       0.28571429       0.28571429 </v>
   <v>       0.42857143       0.28571429       0.28571429 </v>
   <v>       0.42857143       0.42857143       0.28571429 </v>
   <v>       0.42857143       0.42857143       0.42857143 </v>
  </varray>
  <varray name="weights" >
   <v>       0.00291545 </v>
   <v>       0.01749271 </v>
   <v>       0.01749271 </v>
   <v>       0.01749271 </v>
   <v>       0.03498542 </v>
   <v>       0.06997085 </v>
   <v>       0.06997085 </v>
   <v>       0.03498542 </v>
   <v>       0.06997085 </v>
   <v>       0.03498542 </v>
   <v>       0.02332362 </v>
   <v>       0.06997085 </v>
   <v>       0.06997085 </v>
   <v>       0.06997085 </v>
   <v>       0.13994169 </v>
   <v>       0.06997085 </v>
   <v>       0.02332362 </v>
   <v>       0.06997085 </v>
   <v>       0.06997085 </v>
   <v>       0.02332362 </v>
  </varray>
 </kpoints>
 <parameters>
  <separator name="general" >
   <i type="string" name="SYSTEM">unknown system</i>
   <i type="logical" name="LCOMPAT"> F  </i>
  </separator>
  <separator name="electronic" >
   <i type="string" name="PREC">accura</i>
   <i name="ENMAX">    500.00000000</i>
   <i name="ENAUG">    358.96600000</i>
   <i name="EDIFF">      0.00001000</i>
   <i type="int" name="IALGO">    68</i>
   <i type="int" name="IWAVPR">    11</i>
   <i type="int" name="NBANDS">    24</i>
   <i name="NELECT">     40.00000000</i>
   <i type="int" name="TURBO">     0</i>
   <i type="int" name="IRESTART">     0</i>
   <i type="int" name="NREBOOT">     0</i>
   <i type="int" name="NMIN">     0</i>
   <i name="EREF">      0.00000000</i>
   <separator name="electronic smearing" >
    <i type="int" name="ISMEAR">     0</i>
    <i name="SIGMA">      0.20000000</i>
    <i name="KSPACING">      0.50000000</i>
    <i type="logical" name="KGAMMA"> T  </i>
   </separator>
   <separator name="electronic projectors" >
    <i type="logical" name="LREAL"> T  </i>
    <v name="ROPT">     -0.00025000</v>
    <i type="int" name="LMAXPAW">  -100</i>
    <i type="int" name="LMAXMIX">     2</i>
    <i type="logical" name="NLSPLINE"> F  </i>
   </separator>
   <separator name="electronic startup" >
    <i type="int" name="ISTART">     0</i>
    <i type="int" name="ICHARG">     2</i>
    <i type="int" name="INIWAV">     1</i>
   </separator>
   <separator name="electronic spin" >
    <i type="int" name="ISPIN">     1</i>
    <i type="logical" name="LNONCOLLINEAR"> F  </i>
    <v name="MAGMOM">      1.00000000      1.00000000      1.00000000      1.00000000</v>
    <i name="NUPDOWN">     -1.00000000</i>
    <i type="logical" name="LSORBIT"> F  </i>
    <v name="SAXIS">      0.00000000      0.00000000      1.00000000</v>
    <i type="logical" name="LSPIRAL"> F  </i>
    <v name="QSPIRAL">      0.00000000      0.00000000      0.00000000</v>
    <i type="logical" name="LZEROZ"> F  </i>
   </separator>
   <separator name="electronic exchange-correlation" >
    <i type="logical" name="LASPH"> F  </i>
    <i type="logical" name="LMETAGGA"> F  </i>
   </separator>
   <separator name="electronic convergence" >
    <i type="int" name="NELM">    60</i>
    <i type="int" name="NELMDL">    -5</i>
    <i type="int" name="NELMIN">     4</i>
    <i name="ENINI">    500.00000000</i>
    <separator name="electronic convergence detail" >
     <i type="logical" name="LDIAG"> T  </i>
     <i type="logical" name="LSUBROT"> F  </i>
     <i name="WEIMIN">      0.00100000</i>
     <i name="EBREAK">      0.00000010</i>
     <i name="DEPER">      0.30000000</i>
     <i type="int" name="NRMM">     4</i>
     <i name="TIME">      0.40000000</i>
    </separator>
   </separator>
   <separator name="electronic mixer" >
    <i name="AMIX">      0.40000000</i>
    <i name="BMIX">      1.00000000</i>
    <i name="AMIN">      0.10000000</i>
    <i name="AMIX_MAG">      1.60000000</i>
    <i name="BMIX_MAG">      1.00000000</i>
    <separator name="electronic mixer details" >
     <i type="int" name="IMIX">     4</i>
     <i type="logical" name="MIXFIRST"> F  </i>
     <i type="int" name="MAXMIX">    80</i>
     <i name="WC">    100.00000000</i>
     <i type="int" name="INIMIX">     1</i>
     <i type="int" name="MIXPRE">     1</i>
     <i type="int" name="MREMOVE">     5</i>
    </separator>
   </separator>
   <separator name="electronic dipolcorrection" >
    <i type="logical" name="LDIPOL"> F  </i>
    <i type="logical" name="LMONO"> F  </i>
    <i type="int" name="IDIPOL">     0</i>
    <i name="EPSILON">      1.00000000</i>
    <v name="DIPOL">   -100.00000000   -100.00000000   -100.00000000</v>
    <i name="EFIELD">      0.00000000</i>
   </separator>
  </separator>
  <separator name="grids" >
   <i type="int" name="NGX">    30</i>
   <i type="int" name="NGY">    30</i>
   <i type="int" name="NGZ">    30</i>
   <i type="int" name="NGXF">    60</i>
   <i type="int" name="NGYF">    60</i>
   <i type="int" name="NGZF">    60</i>
   <i type="logical" name="ADDGRID"> T  </i>
  </separator>
  <separator name="ionic" >
   <i type="int" name="NSW">    80</i>
   <i type="int" name="IBRION">     1</i>
   <i type="int" name="ISIF">     3</i>
   <i name="PSTRESS">      0.00000000</i>
   <i name="EDIFFG">     -0.01000000</i>
   <i type="int" name="NFREE">     0</i>
   <i name="POTIM">      0.50000000</i>
   <i name="SMASS">     -3.00000000</i>
   <i name="SCALEE">      1.00000000</i>
  </separator>
  <separator name="ionic md" >
   <i name="TEBEG">      0.00010000</i>
   <i name="TEEND">      0.00010000</i>
   <i type="int" name="NBLOCK">     1</i>
   <i type="int" name="KBLOCK">    80</i>
   <i type="int" name="NPACO">   256</i>
   <i name="APACO">     16.00000000</i>
  </separator>
  <separator name="symmetry" >
   <i type="int" name="ISYM">     2</i>
   <i name="SYMPREC">      0.00001000</i>
  </separator>
  <separator name="dos" >
   <i type="logical" name="LORBIT"> F  </i>
   <v name="RWIGS">     -1.00000000</v>
   <i type="int" name="NEDOS">   301</i>
   <i name="EMIN">     10.00000000</i>
   <i name="EMAX">    -10.00000000</i>
   <i name="EFERMI">      0.00000000</i>
  </separator>
  <separator name="writing" >
   <i type="int" name="NWRITE">     1</i>
   <i type="logical" name="LWAVE"> T  </i>
   <i type="logical" name="LCHARG"> T  </i>
   <i type="logical" name="LPARD"> F  </i>
   <i type="logical" name="LVTOT"> F  </i>
   <i type="logical" name="LVHAR"> F  </i>
   <i type="logical" name="LELF"> F  </i>
   <i type="logical" name="LOPTICS"> F  </i>
   <v name="STM">      0.00000000      0.00000000      0.00000000      0.00000000      0.00000000      0.00000000      0.00000000</v>
  </separator>
  <separator name="performance" >
   <i type="int" name="NPAR">     2</i>
   <i type="int" name="NSIM">     4</i>
   <i type="int" name="NBLK">    -1</i>
   <i type="logical" name="LPLANE"> T  </i>
   <i type="logical" name="LSCALAPACK"> F  </i>
   <i type="logical" name="LSCAAWARE"> F  </i>
   <i type="logical" name="LSCALU"> F  </i>
   <i type="logical" name="LASYNC"> F  </i>
   <i type="logical" name="LORBITALREAL"> F  </i>
  </separator>
  <separator name="miscellaneous" >
   <i type="int" name="IDIOT">     3</i>
   <i type="logical" name="LMUSIC"> F  </i>
   <v name="POMASS">    195.08000000</v>
   <v name="DARWINR">      0.00000000</v>
   <v name="DARWINV">      1.00000000</v>
   <i type="logical" name="LCORR"> T  </i>
  </separator>
  <i type="logical" name="GGA_COMPAT"> T  </i>
  <i type="logical" name="LBERRY"> F  </i>
  <i type="int" name="ICORELEVEL">     0</i>
  <i type="logical" name="LDAU"> F  </i>
  <i type="int" name="I_CONSTRAINED_M">     0</i>
  <separator name="electronic exchange-correlation" >
   <i type="string" name="GGA">--</i>
   <i type="int" name="VOSKOWN">     0</i>
   <i type="logical" name="LHFCALC"> F  </i>
   <i type="string" name="PRECFOCK"></i>
   <i type="logical" name="LSYMGRAD"> F  </i>
   <i type="logical" name="LHFONE"> F  </i>
   <i type="logical" name="LRHFCALC"> F  </i>
   <i type="logical" name="LTHOMAS"> F  </i>
   <i type="logical" name="LMODELHF"> F  </i>
   <i name="ENCUT4O">     -1.00000000</i>
   <i type="int" name="EXXOEP">     0</i>
   <i type="int" name="FOURORBIT">     0</i>
   <i name="AEXX">      0.00000000</i>
   <i name="HFALPHA">      0.00000000</i>
   <i name="MCALPHA">      0.00000000</i>
   <i name="ALDAX">      1.00000000</i>
   <i name="AGGAX">      1.00000000</i>
   <i name="ALDAC">      1.00000000</i>
   <i name="AGGAC">      1.00000000</i>
   <i type="int" name="NKREDX">     1</i>
   <i type="int" name="NKREDY">     1</i>
   <i type="int" name="NKREDZ">     1</i>
   <i type="logical" name="SHIFTRED"> F  </i>
   <i type="logical" name="ODDONLY"> F  </i>
   <i type="logical" name="EVENONLY"> F  </i>
   <i type="int" name="LMAXFOCK">     0</i>
   <i type="int" name="NMAXFOCKAE">     0</i>
   <i type="logical" name="LFOCKAEDFT"> F  </i>
   <i name="HFSCREEN">      0.00000000</i>
   <i name="HFSCREENC">      0.00000000</i>
   <i type="int" name="NBANDSGWLOW">     0</i>
  </separator>
  <separator name="vdW DFT" >
   <i type="logical" name="LUSE_VDW"> F  </i>
   <i name="Zab_VDW">     -0.84910000</i>
   <i name="PARAM1">      0.12340000</i>
   <i name="PARAM2">      1.00000000</i>
   <i name="PARAM3">      0.00000000</i>
  </separator>
  <separator name="model GW" >
   <i type="int" name="MODEL_GW">     0</i>
   <i name="MODEL_EPS0">      9.44484945</i>
   <i name="MODEL_ALPHA">      1.00000000</i>
  </separator>
  <separator name="linear response parameters" >
   <i type="logical" name="LEPSILON"> F  </i>
   <i type="logical" name="LRPA"> F  </i>
   <i type="logical" name="LNABLA"> F  </i>
   <i type="logical" name="LVEL"> F  </i>
   <i type="int" name="KINTER">     0</i>
   <i name="CSHIFT">      0.10000000</i>
   <i name="OMEGAMAX">     -1.00000000</i>
   <i name="DEG_THRESHOLD">      0.00200000</i>
  </separator>
  <separator name="orbital magnetization" >
   <i type="logical" name="NUCIND"> F  </i>
   <v name="MAGPOS">      0.00000000      0.00000000      0.00000000</v>
   <i type="logical" name="LNICSALL"> T  </i>
   <i type="logical" name="ORBITALMAG"> F  </i>
   <i type="logical" name="LMAGBLOCH"> F  </i>
   <i type="logical" name="LCHIMAG"> F  </i>
   <i type="logical" name="LGAUGE"> T  </i>
   <i type="int" name="MAGATOM">     0</i>
   <v name="MAGDIPOL">      0.00000000      0.00000000      0.00000000</v>
   <v name="AVECCONST">      0.00000000      0.00000000      0.00000000</v>
  </separator>
  <separator name="response functions" >
   <i type="logical" name="LADDER"> F  </i>
   <i type="logical" name="LFXC"> F  </i>
   <i type="logical" name="LHARTREE"> T  </i>
   <i type="int" name="IBSE">     0</i>
   <v type="int" name="KPOINT">    -1     0     0     0</v>
   <i type="logical" name="LTCTE"> F  </i>
   <i type="logical" name="LTETE"> F  </i>
   <i type="logical" name="LTRIPLET"> F  </i>
   <i type="logical" name="LFXCEPS"> F  </i>
   <i type="logical" name="LFXHEG"> F  </i>
   <i type="int" name="NATURALO">     0</i>
   <i type="logical" name="L2ORDER"> F  </i>
   <i type="logical" name="LUSEW"> F  </i>
   <i name="ENCUTGW">     -2.00000000</i>
   <i name="ENCUTGWSOFT">     -2.00000000</i>
   <i name="ENCUTLF">     -1.00000000</i>
   <i type="int" name="LMAXMP2">    -1</i>
   <i name="SCISSOR">      0.00000000</i>
   <i type="int" name="NOMEGA">     0</i>
   <i type="int" name="NOMEGAR">     0</i>
   <i type="int" name="NBANDSGW">    -1</i>
   <i type="int" name="NBANDSO">    -1</i>
   <i type="int" name="NBANDSV">    -1</i>
   <i type="int" name="NELM">     1</i>
   <i type="int" name="NELMHF">     1</i>
   <i type="int" name="DIM">     3</i>
   <i type="int" name="ANTIRES">     0</i>
   <i name="OMEGAMAX">    -30.00000000</i>
   <i name="OMEGAMIN">    -30.00000000</i>
   <i name="OMEGATL">   -200.00000000</i>
   <i type="int" name="OMEGAGRID">     0</i>
   <i name="CSHIFT">     -0.10000000</i>
   <i type="logical" name="SELFENERGY"> F  </i>
   <i type="logical" name="LSPECTRAL"> F  </i>
   <i type="logical" name="LSPECTRALGW"> F  </i>
   <i type="logical" name="LSINGLES"> F  </i>
   <i type="logical" name="LFERMIGW"> F  </i>
   <i type="logical" name="ODDONLYGW"> F  </i>
   <i type="logical" name="EVENONLYGW"> F  </i>
   <i type="int" name="NKREDLFX">     1</i>
   <i type="int" name="NKREDLFY">     1</i>
   <i type="int" name="NKREDLFZ">     1</i>
   <i type="int" name="MAXMEM">  1800</i>
   <i type="int" name="TELESCOPE">     0</i>
   <i type="int" name="TAUPAR">     1</i>
   <i type="int" name="OMEGAPAR">    -1</i>
   <i name="LAMBDA">      1.00000000</i>
  </separator>
  <separator name="External order field" >
   <i name="OFIELD_KAPPA">      0.00000000</i>
   <v name="OFIELD_K">      0.00000000      0.00000000      0.00000000</v>
   <i name="OFIELD_Q6_NEAR">      0.00000000</i>
   <i name="OFIELD_Q6_FAR">      0.00000000</i>
   <i name="OFIELD_A">      0.00000000</i>
  </separator>
 </parameters>
 <atominfo>
  <atoms>       4 </atoms>
  <types>       1 </types>
  <array name="atoms" >
   <dimension dim="1">ion</dimension>
   <field type="string">element</field>
   <field type="int">atomtype</field>
   <set>
    <rc><c>Pt</c><c>   1</c></rc>
    <rc><c>Pt</c><c>   1</c></rc>
    <rc><c>Pt</c><c>   1</c></rc>
    <rc><c>Pt</c><c>   1</c></rc>
   </set>
  </array>
  <array name="atomtypes" >
   <dimension dim="1">type</dimension>
   <field type="int">atomspertype</field>
   <field type="string">element</field>
   <field>mass</field>
   <field>valence</field>
   <field type="string">pseudopotential</field>
   <set>
    <rc><c>   4</c><c>Pt</c><c>    195.08000000</c><c>     10.00000000</c><c> PAW_PBE Pt 05Jan2001                   </c></rc>
   </set>
  </array>
 </atominfo>
 <structure name="initialpos" >
  <crystal>
   <varray name="basis" >
    <v>       3.97833417       0.00000000       0.00000000 </v>
    <v>       0.00000000       3.97833417       0.00000000 </v>
    <v>       0.00000000       0.00000000       3.97833417 </v>
   </varray>
   <i name="volume">     62.96566299 </i>
   <varray name="rec_basis" >
    <v>       0.25136149       0.00000000       0.00000000 </v>
    <v>       0.00000000       0.25136149       0.00000000 </v>
    <v>       0.00000000       0.00000000       0.25136149 </v>
   </varray>
  </crystal>
  <varray name="positions" >
   <v>       0.00000000       0.00000000       0.00000000 </v>
   <v>       0.00000000       0.50000000       0.50000000 </v>
   <v>       0.50000000       0.00000000       0.50000000 </v>
   <v>       0.50000000       0.50000000       0.00000000 </v>
  </varray>
 </structure>
 <calculation>
  <scstep>
   <time name="dav">    0.69    0.70</time>
   <time name="total">    0.81    0.81</time>
   <energy>
    <i name="alphaZ">    369.71332778 </i>
    <i name="ewald">  -3319.02931730 </i>
    <i name="hartreedc">   -301.37612394 </i>
    <i name="XCdc">     14.50613608 </i>
    <i name="pawpsdc">   2292.98197300 </i>
    <i name="pawaedc">  -2179.84848231 </i>
    <i name="eentropy">     -0.02467881 </i>
    <i name="bandstr">    674.19938542 </i>
    <i name="atom">   2916.45266723 </i>
    <i name="e_fr_energy">    467.57488715 </i>
    <i name="e_wo_entrp">    467.59956596 </i>
    <i name="e_0_energy">    467.58722655 </i>
   </energy>
  </scstep>
  <scstep>
   <time name="dav">    0.68    0.68</time>
   <time name="total">    0.69    0.69</time>
   <energy>
    <i name="e_fr_energy">      6.95129987 </i>
    <i name="e_wo_entrp">      6.98657980 </i>
    <i name="e_0_energy">      6.96893983 </i>
   </energy>
  </scstep>
  <scstep>
   <time name="dav">    0.93    0.93</time>
   <time name="total">    0.93    0.94</time>
   <energy>
    <i name="e_fr_energy">    -24.78978038 </i>
    <i name="e_wo_entrp">    -24.66167821 </i>
    <i name="e_0_energy">    -24.72572930 </i>
   </energy>
  </scstep>
  <scstep>
   <time name="dav">    0.71    0.71</time>
   <time name="total">    0.71    0.72</time>
   <energy>
    <i name="e_fr_energy">    -25.77228266 </i>
    <i name="e_wo_entrp">    -25.63854969 </i>
    <i name="e_0_energy">    -25.70541618 </i>
   </energy>
  </scstep>
  <scstep>
   <time name="dav">    0.82    0.82</time>
   <time name="total">    0.95    0.95</time>
   <energy>
    <i name="e_fr_energy">    -25.80074001 </i>
    <i name="e_wo_entrp">    -25.66653067 </i>
    <i name="e_0_energy">    -25.73363534 </i>
   </energy>
  </scstep>
  <scstep>
   <time name="diag">    0.09    0.09</time>
   <time name="diis">    0.48    0.48</time>
   <time name="orth">    0.01    0.01</time>
   <time name="total">    0.80    0.81</time>
   <energy>
    <i name="e_fr_energy">    -24.45284246 </i>
    <i name="e_wo_entrp">    -24.30659062 </i>
    <i name="e_0_energy">    -24.37971654 </i>
   </energy>
  </scstep>
  <scstep>
   <time name="diag">    0.09    0.09</time>
   <time name="diis">    0.49    0.50</time>
   <time name="orth">    0.01    0.01</time>
   <time name="total">    0.82    0.83</time>
   <energy>
    <i name="e_fr_energy">    -24.34866595 </i>
    <i name="e_wo_entrp">    -24.19914498 </i>
    <i name="e_0_energy">    -24.27390546 </i>
   </energy>
  </scstep>
  <scstep>
   <time name="diag">    0.09    0.09</time>
   <time name="diis">    0.49    0.49</time>
   <time name="orth">    0.01    0.01</time>
   <time name="total">    0.81    0.82</time>
   <energy>
    <i name="e_fr_energy">    -24.33485878 </i>
    <i name="e_wo_entrp">    -24.18682045 </i>
    <i name="e_0_energy">    -24.26083962 </i>
   </energy>
  </scstep>
  <scstep>
   <time name="diag">    0.09    0.09</time>
   <time name="diis">    0.50    0.50</time>
   <time name="orth">    0.01    0.01</time>
   <time name="total">    0.83    0.83</time>
   <energy>
    <i name="e_fr_energy">    -24.33481530 </i>
    <i name="e_wo_entrp">    -24.18665241 </i>
    <i name="e_0_energy">    -24.26073386 </i>
   </energy>
  </scstep>
  <scstep>
   <time name="diag">    0.09    0.09</time>
   <time name="diis">    0.49    0.49</time>
   <time name="orth">    0.01    0.01</time>
   <time name="total">    0.81    0.82</time>
   <energy>
    <i name="e_fr_energy">    -24.33498744 </i>
    <i name="e_wo_entrp">    -24.18670953 </i>
    <i name="e_0_energy">    -24.26084849 </i>
   </energy>
  </scstep>
  <scstep>
   <time name="diag">    0.09    0.09</time>
   <time name="diis">    0.49    0.49</time>
   <time name="orth">    0.01    0.01</time>
   <time name="total">    0.81    0.81</time>
   <energy>
    <i name="e_fr_energy">    -24.33483801 </i>
    <i name="e_wo_entrp">    -24.18671568 </i>
    <i name="e_0_energy">    -24.26077684 </i>
   </energy>
  </scstep>
  <scstep>
   <time name="diag">    0.09    0.09</time>
   <time name="diis">    0.33    0.33</time>
   <time name="orth">    0.01    0.01</time>
   <time name="total">    0.53    0.54</time>
   <energy>
    <i name="alphaZ">    369.71332778 </i>
    <i name="ewald">  -3319.02931730 </i>
    <i name="hartreedc">   -262.10035247 </i>
    <i name="XCdc">     13.06057242 </i>
    <i name="pawpsdc">   2372.65834207 </i>
    <i name="pawaedc">  -2269.47267873 </i>
    <i name="eentropy">     -0.14812858 </i>
    <i name="bandstr">    154.53072762 </i>
    <i name="atom">   2916.45266723 </i>
    <i name="e_fr_energy">    -24.33483996 </i>
    <i name="e_wo_entrp">    -24.18671138 </i>
    <i name="e_0_energy">    -24.26077567 </i>
   </energy>
  </scstep>
  <structure>
   <crystal>
    <varray name="basis" >
     <v>       3.97833417       0.00000000       0.00000000 </v>
     <v>       0.00000000       3.97833417       0.00000000 </v>
     <v>       0.00000000       0.00000000       3.97833417 </v>
    </varray>
    <i name="volume">     62.96566299 </i>
    <varray name="rec_basis" >
     <v>       0.25136149       0.00000000       0.00000000 </v>
     <v>       0.00000000       0.25136149       0.00000000 </v>
     <v>       0.00000000       0.00000000       0.25136149 </v>
    </varray>
   </crystal>
   <varray name="positions" >
    <v>       0.00000000       0.00000000       0.00000000 </v>
    <v>       0.00000000       0.50000000       0.50000000 </v>
    <v>       0.50000000       0.00000000       0.50000000 </v>
    <v>       0.50000000       0.50000000       0.00000000 </v>
   </varray>
  </structure>
  <varray name="forces" >
   <v>      -0.00000000      -0.00000000       0.00000000 </v>
   <v>       0.00000000       0.00000000       0.00000000 </v>
   <v>       0.00000000       0.00000000      -0.00000000 </v>
   <v>       0.00000000      -0.00000000      -0.00000000 </v>
  </varray>
  <varray name="stress" >
   <v>      -1.43254880      -0.00000000       0.00000000 </v>
   <v>      -0.00000000      -1.43254880       0.00000000 </v>
   <v>      -0.00000000      -0.00000000      -1.43254880 </v>
  </varray>
  <energy>
   <i name="e_fr_energy">    -24.33483996 </i>
   <i name="e_wo_entrp">    -24.26077567 </i>
   <i name="e_0_energy">     -0.14812858 </i>
  </energy>
  <time name="totalsc">   13.16   13.34</time>
 </calculation>
 <calculation>
  <scstep>
   <time name="dav">    0.74    0.74</time>
   <time name="total">    0.97    0.98</time>
   <energy>
    <i name="alphaZ">    370.46746475 </i>
    <i name="ewald">  -3321.28449051 </i>
    <i name="hartreedc">   -262.26204071 </i>
    <i name="XCdc">     13.12612835 </i>
    <i name="pawpsdc">   2372.56201582 </i>
    <i name="pawaedc">  -2269.37972137 </i>
    <i name="eentropy">     -0.14723949 </i>
    <i name="bandstr">    156.12905439 </i>
    <i name="atom">   2916.45266723 </i>
    <i name="e_fr_energy">    -24.33616154 </i>
    <i name="e_wo_entrp">    -24.18892204 </i>
    <i name="e_0_energy">    -24.26254179 </i>
   </energy>
  </scstep>
  <scstep>
   <time name="diag">    0.09    0.09</time>
   <time name="diis">    0.49    0.49</time>
   <time name="orth">    0.01    0.01</time>
   <time name="total">    0.81    0.81</time>
   <energy>
    <i name="e_fr_energy">    -24.33514810 </i>
    <i name="e_wo_entrp">    -24.18719776 </i>
    <i name="e_0_energy">    -24.26117293 </i>
   </energy>
  </scstep>
  <scstep>
   <time name="diag">    0.09    0.09</time>
   <time name="diis">    0.48    0.48</time>
   <time name="orth">    0.01    0.01</time>
   <time name="total">    0.81    0.81</time>
   <energy>
    <i name="e_fr_energy">    -24.33487455 </i>
    <i name="e_wo_entrp">    -24.18706015 </i>
    <i name="e_0_energy">    -24.26096735 </i>
   </energy>
  </scstep>
  <scstep>
   <time name="diag">    0.09    0.09</time>
   <time name="diis">    0.49    0.49</time>
   <time name="orth">    0.01    0.01</time>
   <time name="total">    0.81    0.82</time>
   <energy>
    <i name="e_fr_energy">    -24.33472124 </i>
    <i name="e_wo_entrp">    -24.18705251 </i>
    <i name="e_0_energy">    -24.26088688 </i>
   </energy>
  </scstep>
  <scstep>
   <time name="diag">    0.09    0.09</time>
   <time name="diis">    0.34    0.34</time>
   <time name="orth">    0.01    0.01</time>
   <time name="total">    0.54    0.55</time>
   <energy>
    <i name="alphaZ">    370.46746475 </i>
    <i name="ewald">  -3321.28449051 </i>
    <i name="hartreedc">   -261.38781384 </i>
    <i name="XCdc">     13.09600849 </i>
    <i name="pawpsdc">   2374.12754392 </i>
    <i name="pawaedc">  -2270.98368484 </i>
    <i name="eentropy">     -0.14765875 </i>
    <i name="bandstr">    155.32523802 </i>
    <i name="atom">   2916.45266723 </i>
    <i name="e_fr_energy">    -24.33472553 </i>
    <i name="e_wo_entrp">    -24.18706678 </i>
    <i name="e_0_energy">    -24.26089615 </i>
   </energy>
  </scstep>
  <structure>
   <crystal>
    <varray name="basis" >
     <v>       3.97563286      -0.00000000       0.00000000 </v>
     <v>      -0.00000000       3.97563286       0.00000000 </v>
     <v>      -0.00000000      -0.00000000       3.97563286 </v>
    </varray>
    <i name="volume">     62.83748781 </i>
    <varray name="rec_basis" >
     <v>       0.25153228       0.00000000       0.00000000 </v>
     <v>       0.00000000       0.25153228       0.00000000 </v>
     <v>      -0.00000000      -0.00000000       0.25153228 </v>
    </varray>
   </crystal>
   <varray name="positions" >
    <v>      -0.00000000      -0.00000000       0.00000000 </v>
    <v>       0.00000000       0.50000000       0.50000000 </v>
    <v>       0.50000000       0.00000000       0.50000000 </v>
    <v>       0.50000000       0.50000000      -0.00000000 </v>
   </varray>
  </structure>
  <varray name="forces" >
   <v>       0.00000000      -0.00000000      -0.00000000 </v>
   <v>       0.00000000       0.00000000       0.00000000 </v>
   <v>      -0.00000000      -0.00000000       0.00000000 </v>
   <v>      -0.00000000       0.00000000      -0.00000000 </v>
  </varray>
  <varray name="stress" >
   <v>       3.72925415       0.00000000      -0.00000000 </v>
   <v>       0.00000000       3.72925415      -0.00000000 </v>
   <v>       0.00000000       0.00000000       3.72925415 </v>
  </varray>
  <energy>
   <i name="e_fr_energy">    -24.33472553 </i>
   <i name="e_wo_entrp">    -24.26089615 </i>
   <i name="e_0_energy">     -0.14765875 </i>
  </energy>
  <time name="totalsc">    7.38    7.43</time>
 </calculation>
 <calculation>
  <scstep>
   <time name="dav">    0.70    0.70</time>
   <time name="total">    0.93    1.07</time>
   <energy>
    <i name="alphaZ">    369.92282793 </i>
    <i name="ewald">  -3319.65611452 </i>
    <i name="hartreedc">   -261.24588500 </i>
    <i name="XCdc">     13.04781522 </i>
    <i name="pawpsdc">   2374.08047884 </i>
    <i name="pawaedc">  -2270.93856787 </i>
    <i name="eentropy">     -0.14831327 </i>
    <i name="bandstr">    154.14949378 </i>
    <i name="atom">   2916.45266723 </i>
    <i name="e_fr_energy">    -24.33559766 </i>
    <i name="e_wo_entrp">    -24.18728439 </i>
    <i name="e_0_energy">    -24.26144102 </i>
   </energy>
  </scstep>
  <scstep>
   <time name="diag">    0.09    0.09</time>
   <time name="diis">    0.48    0.48</time>
   <time name="orth">    0.01    0.01</time>
   <time name="total">    0.80    1.01</time>
   <energy>
    <i name="e_fr_energy">    -24.33483950 </i>
    <i name="e_wo_entrp">    -24.18686014 </i>
    <i name="e_0_energy">    -24.26084982 </i>
   </energy>
  </scstep>
  <scstep>
   <time name="diag">    0.09    0.09</time>
   <time name="diis">    0.42    0.42</time>
   <time name="orth">    0.01    0.01</time>
   <time name="total">    0.74    0.75</time>
   <energy>
    <i name="e_fr_energy">    -24.33484985 </i>
    <i name="e_wo_entrp">    -24.18685265 </i>
    <i name="e_0_energy">    -24.26085125 </i>
   </energy>
  </scstep>
  <scstep>
   <time name="diag">    0.09    0.09</time>
   <time name="diis">    0.26    0.26</time>
   <time name="orth">    0.01    0.01</time>
   <time name="total">    0.46    0.47</time>
   <energy>
    <i name="alphaZ">    369.92282793 </i>
    <i name="ewald">  -3319.65611452 </i>
    <i name="hartreedc">   -261.89151554 </i>
    <i name="XCdc">     13.07004634 </i>
    <i name="pawpsdc">   2372.97933969 </i>
    <i name="pawaedc">  -2269.80733795 </i>
    <i name="eentropy">     -0.14800080 </i>
    <i name="bandstr">    154.74323778 </i>
    <i name="atom">   2916.45266723 </i>
    <i name="e_fr_energy">    -24.33484983 </i>
    <i name="e_wo_entrp">    -24.18684903 </i>
    <i name="e_0_energy">    -24.26084943 </i>
   </energy>
  </scstep>
  <structure>
   <crystal>
    <varray name="basis" >
     <v>       3.97758301      -0.00000000       0.00000000 </v>
     <v>      -0.00000000       3.97758301       0.00000000 </v>
     <v>       0.00000000      -0.00000000       3.97758301 </v>
    </varray>
    <i name="volume">     62.93000335 </i>
    <varray name="rec_basis" >
     <v>       0.25140896       0.00000000      -0.00000000 </v>
     <v>       0.00000000       0.25140896       0.00000000 </v>
     <v>      -0.00000000      -0.00000000       0.25140896 </v>
    </varray>
   </crystal>
   <varray name="positions" >
    <v>      -0.00000000      -0.00000000       0.00000000 </v>
    <v>       0.00000000       0.50000000       0.50000000 </v>
    <v>       0.50000000       0.00000000       0.50000000 </v>
    <v>       0.50000000       0.50000000      -0.00000000 </v>
   </varray>
  </structure>
  <varray name="forces" >
   <v>       0.00000000      -0.00000000       0.00000000 </v>
   <v>      -0.00000000       0.00000000       0.00000000 </v>
   <v>      -0.00000000      -0.00000000       0.00000000 </v>
   <v>       0.00000000       0.00000000      -0.00000000 </v>
  </varray>
  <varray name="stress" >
   <v>       0.08646865      -0.00000000       0.00000000 </v>
   <v>      -0.00000000       0.08646865       0.00000000 </v>
   <v>      -0.00000000      -0.00000000       0.08646865 </v>
  </varray>
  <energy>
   <i name="e_fr_energy">    -24.33484983 </i>
   <i name="e_wo_entrp">    -24.26084943 </i>
   <i name="e_0_energy">     -0.14800080 </i>
  </energy>
  <time name="totalsc">    6.31    6.69</time>
  <eigenvalues>
   <array>
    <dimension dim="1">band</dimension>
    <dimension dim="2">kpoint</dimension>
    <dimension dim="3">spin</dimension>
    <field>eigene</field>
    <field>occ</field>
    <set>
     <set comment="spin 1">
      <set comment="kpoint 1">
       <r>   -2.4935    1.0000 </r>
       <r>    0.6402    1.0000 </r>
       <r>    0.6402    1.0000 </r>
       <r>    0.6402    1.0000 </r>
       <r>    1.0658    1.0000 </r>
       <r>    1.0658    1.0000 </r>
       <r>    1.0658    1.0000 </r>
       <r>    3.7203    1.0000 </r>
       <r>    3.7203    1.0000 </r>
       <r>    3.7203    1.0000 </r>
       <r>    5.7426    1.0000 </r>
       <r>    5.7426    1.0000 </r>
       <r>    7.2672    0.5060 </r>
       <r>    7.2672    0.5060 </r>
       <r>    7.2672    0.5060 </r>
       <r>    7.7091    0.0009 </r>
       <r>    7.7091    0.0009 </r>
       <r>    7.7091    0.0009 </r>
       <r>    7.7091    0.0009 </r>
       <r>    7.7091    0.0009 </r>
       <r>    7.7091    0.0009 </r>
       <r>    9.1474    0.0000 </r>
       <r>    9.1474    0.0000 </r>
       <r>    9.1474    0.0000 </r>
      </set>
      <set comment="kpoint 2">
       <r>   -2.2308    1.0000 </r>
       <r>    0.7311    1.0000 </r>
       <r>    0.8307    1.0000 </r>
       <r>    0.8307    1.0000 </r>
       <r>    1.1730    1.0000 </r>
       <r>    1.2274    1.0000 </r>
       <r>    1.2274    1.0000 </r>
       <r>    3.5550    1.0000 </r>
       <r>    3.8543    1.0000 </r>
       <r>    3.8543    1.0000 </r>
       <r>    5.5604    1.0000 </r>
       <r>    5.8108    1.0000 </r>
       <r>    6.4810    1.0000 </r>
       <r>    6.4810    1.0000 </r>
       <r>    6.9934    0.9745 </r>
       <r>    6.9934    0.9745 </r>
       <r>    7.1832    0.7289 </r>
       <r>    7.3880    0.2008 </r>
       <r>    7.3880    0.2008 </r>
       <r>    7.7097    0.0009 </r>
       <r>    7.7097    0.0009 </r>
       <r>    7.8999    0.0000 </r>
       <r>   10.5223    0.0000 </r>
       <r>   10.5223    0.0000 </r>
      </set>
      <set comment="kpoint 3">
       <r>   -1.4770    1.0000 </r>
       <r>    0.8804    1.0000 </r>
       <r>    1.3380    1.0000 </r>
       <r>    1.3380    1.0000 </r>
       <r>    1.4833    1.0000 </r>
       <r>    1.7093    1.0000 </r>
       <r>    1.7093    1.0000 </r>
       <r>    3.1172    1.0000 </r>
       <r>    4.2498    1.0000 </r>
       <r>    4.2498    1.0000 </r>
       <r>    4.9320    1.0000 </r>
       <r>    4.9320    1.0000 </r>
       <r>    5.0886    1.0000 </r>
       <r>    5.8790    1.0000 </r>
       <r>    6.0054    1.0000 </r>
       <r>    6.2788    1.0000 </r>
       <r>    6.2788    1.0000 </r>
       <r>    6.6142    1.0000 </r>
       <r>    6.6142    1.0000 </r>
       <r>    6.9531    0.9873 </r>
       <r>    7.7110    0.0009 </r>
       <r>    7.7110    0.0009 </r>
       <r>   12.4887    0.0000 </r>
       <r>   12.4887    0.0000 </r>
      </set>
      <set comment="kpoint 4">
       <r>   -0.3785    1.0000 </r>
       <r>    0.6135    1.0000 </r>
       <r>    1.8848    1.0000 </r>
       <r>    1.8848    1.0000 </r>
       <r>    1.9611    1.0000 </r>
       <r>    2.5011    1.0000 </r>
       <r>    2.5011    1.0000 </r>
       <r>    2.5403    1.0000 </r>
       <r>    3.5850    1.0000 </r>
       <r>    3.5850    1.0000 </r>
       <r>    4.5818    1.0000 </r>
       <r>    4.6176    1.0000 </r>
       <r>    4.8848    1.0000 </r>
       <r>    4.8848    1.0000 </r>
       <r>    5.5493    1.0000 </r>
       <r>    5.5493    1.0000 </r>
       <r>    5.7088    1.0000 </r>
       <r>    5.7088    1.0000 </r>
       <r>    6.2963    1.0000 </r>
       <r>    6.6339    1.0000 </r>
       <r>    7.7121    0.0009 </r>
       <r>    7.7121    0.0009 </r>
       <r>   14.2098    0.0000 </r>
       <r>   14.2099    0.0000 </r>
      </set>
      <set comment="kpoint 5">
       <r>   -1.9771    1.0000 </r>
       <r>    0.9269    1.0000 </r>
       <r>    0.9269    1.0000 </r>
       <r>    0.9638    1.0000 </r>
       <r>    1.3285    1.0000 </r>
       <r>    1.3285    1.0000 </r>
       <r>    1.4223    1.0000 </r>
       <r>    3.4871    1.0000 </r>
       <r>    3.9054    1.0000 </r>
       <r>    3.9501    1.0000 </r>
       <r>    5.5190    1.0000 </r>
       <r>    5.7874    1.0000 </r>
       <r>    5.9458    1.0000 </r>
       <r>    5.9458    1.0000 </r>
       <r>    5.9493    1.0000 </r>
       <r>    6.7726    0.9998 </r>
       <r>    6.9885    0.9765 </r>
       <r>    6.9885    0.9765 </r>
       <r>    7.3866    0.2035 </r>
       <r>    7.3866    0.2035 </r>
       <r>    7.5034    0.0490 </r>
       <r>    9.3836    0.0000 </r>
       <r>    9.3836    0.0000 </r>
       <r>   11.4136    0.0000 </r>
      </set>
      <set comment="kpoint 6">
       <r>   -1.2491    1.0000 </r>
       <r>    1.0878    1.0000 </r>
       <r>    1.3650    1.0000 </r>
       <r>    1.4536    1.0000 </r>
       <r>    1.6206    1.0000 </r>
       <r>    1.7910    1.0000 </r>
       <r>    1.9324    1.0000 </r>
       <r>    3.1283    1.0000 </r>
       <r>    4.1893    1.0000 </r>
       <r>    4.2581    1.0000 </r>
       <r>    4.4835    1.0000 </r>
       <r>    4.7660    1.0000 </r>
       <r>    4.8682    1.0000 </r>
       <r>    5.1833    1.0000 </r>
       <r>    6.0264    1.0000 </r>
       <r>    6.1698    1.0000 </r>
       <r>    6.3607    1.0000 </r>
       <r>    6.6100    1.0000 </r>
       <r>    6.6239    1.0000 </r>
       <r>    7.3827    0.2115 </r>
       <r>    7.3957    0.1858 </r>
       <r>    7.8692    0.0000 </r>
       <r>   11.0008    0.0000 </r>
       <r>   13.1416    0.0000 </r>
      </set>
      <set comment="kpoint 7">
       <r>   -0.1822    1.0000 </r>
       <r>    0.8107    1.0000 </r>
       <r>    1.9539    1.0000 </r>
       <r>    2.0396    1.0000 </r>
       <r>    2.0680    1.0000 </r>
       <r>    2.5238    1.0000 </r>
       <r>    2.5451    1.0000 </r>
       <r>    2.6048    1.0000 </r>
       <r>    3.2799    1.0000 </r>
       <r>    3.5600    1.0000 </r>
       <r>    4.1078    1.0000 </r>
       <r>    4.1862    1.0000 </r>
       <r>    4.8830    1.0000 </r>
       <r>    5.1943    1.0000 </r>
       <r>    5.5548    1.0000 </r>
       <r>    5.6560    1.0000 </r>
       <r>    5.7041    1.0000 </r>
       <r>    5.8633    1.0000 </r>
       <r>    6.4485    1.0000 </r>
       <r>    7.0015    0.9709 </r>
       <r>    7.3759    0.2256 </r>
       <r>    7.3773    0.2226 </r>
       <r>   12.2188    0.0000 </r>
       <r>   12.9612    0.0000 </r>
      </set>
      <set comment="kpoint 8">
       <r>   -0.5977    1.0000 </r>
       <r>    1.5696    1.0000 </r>
       <r>    1.6602    1.0000 </r>
       <r>    1.6602    1.0000 </r>
       <r>    2.0236    1.0000 </r>
       <r>    2.0236    1.0000 </r>
       <r>    2.4078    1.0000 </r>
       <r>    3.0406    1.0000 </r>
       <r>    3.6976    1.0000 </r>
       <r>    3.6976    1.0000 </r>
       <r>    4.1204    1.0000 </r>
       <r>    4.2379    1.0000 </r>
       <r>    4.4319    1.0000 </r>
       <r>    5.0784    1.0000 </r>
       <r>    5.8125    1.0000 </r>
       <r>    6.1650    1.0000 </r>
       <r>    6.1650    1.0000 </r>
       <r>    6.3973    1.0000 </r>
       <r>    6.6028    1.0000 </r>
       <r>    6.6028    1.0000 </r>
       <r>    6.9282    0.9921 </r>
       <r>    9.2259    0.0000 </r>
       <r>    9.2259    0.0000 </r>
       <r>   12.3047    0.0000 </r>
      </set>
      <set comment="kpoint 9">
       <r>    0.3608    1.0000 </r>
       <r>    1.3314    1.0000 </r>
       <r>    2.0229    1.0000 </r>
       <r>    2.3678    1.0000 </r>
       <r>    2.3899    1.0000 </r>
       <r>    2.6599    1.0000 </r>
       <r>    2.7361    1.0000 </r>
       <r>    2.7414    1.0000 </r>
       <r>    2.7483    1.0000 </r>
       <r>    3.4532    1.0000 </r>
       <r>    3.4598    1.0000 </r>
       <r>    3.8679    1.0000 </r>
       <r>    4.9392    1.0000 </r>
       <r>    5.0787    1.0000 </r>
       <r>    5.4124    1.0000 </r>
       <r>    5.5798    1.0000 </r>
       <r>    5.5913    1.0000 </r>
       <r>    5.7118    1.0000 </r>
       <r>    6.6127    1.0000 </r>
       <r>    6.6883    1.0000 </r>
       <r>    7.1043    0.8785 </r>
       <r>    7.9946    0.0000 </r>
       <r>   10.3712    0.0000 </r>
       <r>   11.2801    0.0000 </r>
      </set>
      <set comment="kpoint 10">
       <r>    1.1077    1.0000 </r>
       <r>    1.8710    1.0000 </r>
       <r>    1.8710    1.0000 </r>
       <r>    2.0278    1.0000 </r>
       <r>    2.7889    1.0000 </r>
       <r>    2.7889    1.0000 </r>
       <r>    2.8383    1.0000 </r>
       <r>    3.0669    1.0000 </r>
       <r>    3.1485    1.0000 </r>
       <r>    3.1485    1.0000 </r>
       <r>    3.1949    1.0000 </r>
       <r>    3.6483    1.0000 </r>
       <r>    4.8400    1.0000 </r>
       <r>    5.0750    1.0000 </r>
       <r>    5.1372    1.0000 </r>
       <r>    5.1372    1.0000 </r>
       <r>    5.2129    1.0000 </r>
       <r>    5.8046    1.0000 </r>
       <r>    5.8046    1.0000 </r>
       <r>    6.1056    1.0000 </r>
       <r>    8.0286    0.0000 </r>
       <r>    9.0549    0.0000 </r>
       <r>    9.0549    0.0000 </r>
       <r>   10.0600    0.0000 </r>
      </set>
      <set comment="kpoint 11">
       <r>   -1.7365    1.0000 </r>
       <r>    1.0509    1.0000 </r>
       <r>    1.0509    1.0000 </r>
       <r>    1.0509    1.0000 </r>
       <r>    1.5278    1.0000 </r>
       <r>    1.5278    1.0000 </r>
       <r>    1.5278    1.0000 </r>
       <r>    3.4497    1.0000 </r>
       <r>    3.9751    1.0000 </r>
       <r>    3.9751    1.0000 </r>
       <r>    5.4972    1.0000 </r>
       <r>    5.4972    1.0000 </r>
       <r>    5.4972    1.0000 </r>
       <r>    5.6457    1.0000 </r>
       <r>    5.6457    1.0000 </r>
       <r>    6.4607    1.0000 </r>
       <r>    6.4607    1.0000 </r>
       <r>    6.4607    1.0000 </r>
       <r>    7.5111    0.0437 </r>
       <r>    7.5111    0.0437 </r>
       <r>    7.5111    0.0437 </r>
       <r>   10.1309    0.0000 </r>
       <r>   10.1309    0.0000 </r>
       <r>   10.1309    0.0000 </r>
      </set>
      <set comment="kpoint 12">
       <r>   -1.0480    1.0000 </r>
       <r>    1.1855    1.0000 </r>
       <r>    1.4314    1.0000 </r>
       <r>    1.4314    1.0000 </r>
       <r>    1.8309    1.0000 </r>
       <r>    2.0381    1.0000 </r>
       <r>    2.0381    1.0000 </r>
       <r>    3.1785    1.0000 </r>
       <r>    4.1543    1.0000 </r>
       <r>    4.1986    1.0000 </r>
       <r>    4.4036    1.0000 </r>
       <r>    4.4036    1.0000 </r>
       <r>    4.5171    1.0000 </r>
       <r>    5.3774    1.0000 </r>
       <r>    5.8267    1.0000 </r>
       <r>    5.9900    1.0000 </r>
       <r>    6.0025    1.0000 </r>
       <r>    6.0025    1.0000 </r>
       <r>    7.3430    0.3014 </r>
       <r>    7.3584    0.2645 </r>
       <r>    7.3584    0.2645 </r>
       <r>    8.2417    0.0000 </r>
       <r>   11.4888    0.0000 </r>
       <r>   11.4888    0.0000 </r>
      </set>
      <set comment="kpoint 13">
       <r>   -0.0427    1.0000 </r>
       <r>    0.9007    1.0000 </r>
       <r>    2.0294    1.0000 </r>
       <r>    2.0294    1.0000 </r>
       <r>    2.2573    1.0000 </r>
       <r>    2.4787    1.0000 </r>
       <r>    2.4787    1.0000 </r>
       <r>    2.7308    1.0000 </r>
       <r>    3.4852    1.0000 </r>
       <r>    3.4852    1.0000 </r>
       <r>    3.8995    1.0000 </r>
       <r>    4.0619    1.0000 </r>
       <r>    4.5962    1.0000 </r>
       <r>    5.1591    1.0000 </r>
       <r>    5.5028    1.0000 </r>
       <r>    5.5028    1.0000 </r>
       <r>    5.6566    1.0000 </r>
       <r>    6.4648    1.0000 </r>
       <r>    6.6978    1.0000 </r>
       <r>    6.9577    0.9862 </r>
       <r>    7.2308    0.6076 </r>
       <r>    7.2308    0.6076 </r>
       <r>   12.5960    0.0000 </r>
       <r>   12.5960    0.0000 </r>
      </set>
      <set comment="kpoint 14">
       <r>   -0.4807    1.0000 </r>
       <r>    1.4768    1.0000 </r>
       <r>    1.4768    1.0000 </r>
       <r>    1.5474    1.0000 </r>
       <r>    2.3696    1.0000 </r>
       <r>    2.3696    1.0000 </r>
       <r>    2.4978    1.0000 </r>
       <r>    3.2107    1.0000 </r>
       <r>    3.7389    1.0000 </r>
       <r>    3.7389    1.0000 </r>
       <r>    4.0973    1.0000 </r>
       <r>    4.1037    1.0000 </r>
       <r>    4.2096    1.0000 </r>
       <r>    5.4457    1.0000 </r>
       <r>    5.4714    1.0000 </r>
       <r>    5.4714    1.0000 </r>
       <r>    5.4731    1.0000 </r>
       <r>    6.2982    1.0000 </r>
       <r>    7.1696    0.7598 </r>
       <r>    7.1789    0.7388 </r>
       <r>    7.1789    0.7388 </r>
       <r>    9.4190    0.0000 </r>
       <r>    9.4190    0.0000 </r>
       <r>   12.5326    0.0000 </r>
      </set>
      <set comment="kpoint 15">
       <r>    0.3309    1.0000 </r>
       <r>    1.1206    1.0000 </r>
       <r>    1.8216    1.0000 </r>
       <r>    1.8533    1.0000 </r>
       <r>    2.6986    1.0000 </r>
       <r>    2.6988    1.0000 </r>
       <r>    2.7980    1.0000 </r>
       <r>    3.0669    1.0000 </r>
       <r>    3.4451    1.0000 </r>
       <r>    3.4922    1.0000 </r>
       <r>    3.7809    1.0000 </r>
       <r>    3.8596    1.0000 </r>
       <r>    4.4159    1.0000 </r>
       <r>    4.8629    1.0000 </r>
       <r>    5.0917    1.0000 </r>
       <r>    5.1687    1.0000 </r>
       <r>    5.7786    1.0000 </r>
       <r>    6.5835    1.0000 </r>
       <r>    6.9202    0.9932 </r>
       <r>    6.9205    0.9932 </r>
       <r>    6.9921    0.9750 </r>
       <r>    7.9092    0.0000 </r>
       <r>   10.5594    0.0000 </r>
       <r>   11.5786    0.0000 </r>
      </set>
      <set comment="kpoint 16">
       <r>    0.8326    1.0000 </r>
       <r>    1.3673    1.0000 </r>
       <r>    1.3673    1.0000 </r>
       <r>    1.5868    1.0000 </r>
       <r>    3.0117    1.0000 </r>
       <r>    3.2058    1.0000 </r>
       <r>    3.2058    1.0000 </r>
       <r>    3.3736    1.0000 </r>
       <r>    3.5219    1.0000 </r>
       <r>    3.5219    1.0000 </r>
       <r>    3.7296    1.0000 </r>
       <r>    3.9083    1.0000 </r>
       <r>    4.3457    1.0000 </r>
       <r>    4.6573    1.0000 </r>
       <r>    4.6573    1.0000 </r>
       <r>    4.6843    1.0000 </r>
       <r>    5.8252    1.0000 </r>
       <r>    6.3622    1.0000 </r>
       <r>    6.3622    1.0000 </r>
       <r>    6.5175    1.0000 </r>
       <r>    7.9074    0.0000 </r>
       <r>    8.9986    0.0000 </r>
       <r>    8.9986    0.0000 </r>
       <r>   10.1085    0.0000 </r>
      </set>
      <set comment="kpoint 17">
       <r>   -0.1517    1.0000 </r>
       <r>    1.3396    1.0000 </r>
       <r>    1.3396    1.0000 </r>
       <r>    1.3396    1.0000 </r>
       <r>    2.8322    1.0000 </r>
       <r>    2.8322    1.0000 </r>
       <r>    2.8322    1.0000 </r>
       <r>    3.6221    1.0000 </r>
       <r>    3.8975    1.0000 </r>
       <r>    3.8975    1.0000 </r>
       <r>    3.8975    1.0000 </r>
       <r>    4.0211    1.0000 </r>
       <r>    4.0211    1.0000 </r>
       <r>    4.8449    1.0000 </r>
       <r>    4.8449    1.0000 </r>
       <r>    4.8449    1.0000 </r>
       <r>    6.1454    1.0000 </r>
       <r>    6.1454    1.0000 </r>
       <r>    7.3849    0.2070 </r>
       <r>    7.3849    0.2070 </r>
       <r>    7.3849    0.2070 </r>
       <r>   10.0403    0.0000 </r>
       <r>   10.0403    0.0000 </r>
       <r>   10.0403    0.0000 </r>
      </set>
      <set comment="kpoint 18">
       <r>    0.3317    1.0000 </r>
       <r>    0.8795    1.0000 </r>
       <r>    1.3064    1.0000 </r>
       <r>    1.3064    1.0000 </r>
       <r>    2.9713    1.0000 </r>
       <r>    2.9713    1.0000 </r>
       <r>    3.3651    1.0000 </r>
       <r>    3.7989    1.0000 </r>
       <r>    3.8441    1.0000 </r>
       <r>    3.8948    1.0000 </r>
       <r>    4.0623    1.0000 </r>
       <r>    4.2611    1.0000 </r>
       <r>    4.2611    1.0000 </r>
       <r>    4.3488    1.0000 </r>
       <r>    4.5623    1.0000 </r>
       <r>    4.5623    1.0000 </r>
       <r>    6.5379    1.0000 </r>
       <r>    6.7983    0.9996 </r>
       <r>    7.1793    0.7380 </r>
       <r>    7.1793    0.7380 </r>
       <r>    7.2578    0.5327 </r>
       <r>    7.9367    0.0000 </r>
       <r>   10.7640    0.0000 </r>
       <r>   10.7640    0.0000 </r>
      </set>
      <set comment="kpoint 19">
       <r>    0.4794    1.0000 </r>
       <r>    0.8135    1.0000 </r>
       <r>    0.8135    1.0000 </r>
       <r>    0.9542    1.0000 </r>
       <r>    3.2576    1.0000 </r>
       <r>    3.3919    1.0000 </r>
       <r>    3.3919    1.0000 </r>
       <r>    3.7191    1.0000 </r>
       <r>    3.9078    1.0000 </r>
       <r>    4.0942    1.0000 </r>
       <r>    4.0942    1.0000 </r>
       <r>    4.1530    1.0000 </r>
       <r>    4.7029    1.0000 </r>
       <r>    4.7155    1.0000 </r>
       <r>    4.7155    1.0000 </r>
       <r>    4.8853    1.0000 </r>
       <r>    6.5693    1.0000 </r>
       <r>    7.0379    0.9491 </r>
       <r>    7.0379    0.9491 </r>
       <r>    7.0619    0.9288 </r>
       <r>    7.5412    0.0273 </r>
       <r>    8.7717    0.0000 </r>
       <r>    8.7717    0.0000 </r>
       <r>    9.8397    0.0000 </r>
      </set>
      <set comment="kpoint 20">
       <r>    0.3555    1.0000 </r>
       <r>    0.5174    1.0000 </r>
       <r>    0.5174    1.0000 </r>
       <r>    0.5174    1.0000 </r>
       <r>    3.5496    1.0000 </r>
       <r>    3.5496    1.0000 </r>
       <r>    3.5496    1.0000 </r>
       <r>    3.7209    1.0000 </r>
       <r>    3.7209    1.0000 </r>
       <r>    3.8078    1.0000 </r>
       <r>    3.8078    1.0000 </r>
       <r>    3.8078    1.0000 </r>
       <r>    5.8181    1.0000 </r>
       <r>    5.8181    1.0000 </r>
       <r>    5.8181    1.0000 </r>
       <r>    6.0969    1.0000 </r>
       <r>    7.1215    0.8522 </r>
       <r>    7.1215    0.8522 </r>
       <r>    7.3054    0.3994 </r>
       <r>    7.3054    0.3994 </r>
       <r>    7.3054    0.3994 </r>
       <r>    8.3932    0.0000 </r>
       <r>    8.3932    0.0000 </r>
       <r>    8.3932    0.0000 </r>
      </set>
     </set>
    </set>
   </array>
  </eigenvalues>
  <separator name="orbital magnetization" >
   <v name="MAGDIPOLOUT">      0.00000000      0.00000000      0.00000000</v>
  </separator>
 </calculation>
 <structure name="finalpos" >
  <crystal>
   <varray name="basis" >
    <v>       3.97758301      -0.00000000       0.00000000 </v>
    <v>      -0.00000000       3.97758301       0.00000000 </v>
    <v>       0.00000000      -0.00000000       3.97758301 </v>
   </varray>
   <i name="volume">     62.93000335 </i>
   <varray name="rec_basis" >
    <v>       0.25140896       0.00000000      -0.00000000 </v>
    <v>       0.00000000       0.25140896       0.00000000 </v>
    <v>      -0.00000000      -0.00000000       0.25140896 </v>
   </varray>
  </crystal>
  <varray name="positions" >
   <v>      -0.00000000      -0.00000000       0.00000000 </v>
   <v>       0.00000000       0.50000000       0.50000000 </v>
   <v>       0.50000000       0.00000000       0.50000000 </v>
   <v>       0.50000000       0.50000000      -0.00000000 </v>
  </varray>
 </structure>
</modeling>
