unknown system                          
           1
     3.975633   -0.000000    0.000000
    -0.000000    3.975633    0.000000
    -0.000000   -0.000000    3.975633
   Pt
   4
Direct configuration=     1
   0.00000000  0.00000000  0.00000000
   0.00000000  0.50000000  0.50000000
   0.50000000  0.00000000  0.50000000
   0.50000000  0.50000000  0.00000000
unknown system                          
           1
     3.977583   -0.000000    0.000000
    -0.000000    3.977583    0.000000
     0.000000   -0.000000    3.977583
   Pt
   4
Direct configuration=     2
  -0.00000000 -0.00000000  0.00000000
   0.00000000  0.50000000  0.50000000
   0.50000000  0.00000000  0.50000000
   0.50000000  0.50000000 -0.00000000
unknown system                          
           1
     3.977583   -0.000000    0.000000
    -0.000000    3.977583    0.000000
     0.000000   -0.000000    3.977583
   Pt
   4
Direct configuration=     3
  -0.00000000 -0.00000000  0.00000000
   0.00000000  0.50000000  0.50000000
   0.50000000  0.00000000  0.50000000
   0.50000000  0.50000000 -0.00000000
