unknown system                          
   1.00000000000000     
     4.913700    0.000000    0.000000
    -2.456850    4.255389    0.000000
     0.000000    0.000000    5.405130
   Si   O 
     3     6
Direct
  0.469800  0.000000  0.666670
  0.000000  0.469800  0.333330
  0.530200  0.530200  0.000000
  0.414500  0.266200  0.785600
  0.733800  0.148300  0.452270
  0.851700  0.585500  0.118930
  0.148300  0.733800  0.547730
  0.266200  0.414500  0.214400
  0.585500  0.851700  0.881070
 
   48   48   56
  1.4533      1.3843      1.3882      1.4432      1.5327      1.6471      1.7814      1.9323      2.0969      2.2707    
  2.4472      2.6180      2.7762      2.9204      3.0588      3.2094      3.3971      3.6480      3.9950      4.4949    
  5.2487      6.4013      8.1162      10.535      13.750      17.792      22.627      28.120      33.960      39.587    
  44.213      46.995      47.331      45.111      40.774      35.125      29.028      23.161      17.927      13.505    
  9.9405      7.2052      5.2155      3.8397      2.9195      2.3061      1.8914      1.6163      1.3843      1.3096    
  1.3169      1.3872      1.5031      1.6538      1.8335      2.0382      2.2632      2.5026      2.7481      2.9879    
  3.2074      3.3943      3.5441      3.6647      3.7766      3.9084      4.0913      4.3623      4.7784      5.4314    
  6.4448      7.9467      10.034      12.746      16.059      19.870      23.970      28.024      31.566      34.072    
  35.094      34.415      32.133      28.636      24.456      20.109      15.985      12.328      9.2698      6.8525    
  5.0452      3.7582      2.8694      2.2600      1.8401      1.5565      1.3882      1.3169      1.3314      1.4167    
  1.5566      1.7397      1.9599      2.2140      2.4982      2.8065      3.1293      3.4518      3.7532      4.0106    
  4.2059      4.3324      4.4001      4.4349      4.4722      4.5500      4.7099      5.0075      5.5211      6.3463    
  7.5749      9.2675      11.431      14.004      16.844      19.728      22.365      24.423      25.597      25.682    
  24.640      22.620      19.912      16.855      13.764      10.884      8.3809      6.3406      4.7733      3.6258    
  2.8101      2.2353      1.8316      1.5562      1.4432      1.3872      1.4167      1.5200      1.6840      1.8981    
  2.1563      2.4570      2.7999      3.1817      3.5927      4.0151      4.4226      4.7826      5.0620      5.2367    
  5.3010      5.2711      5.1823      5.0807      5.0139      5.0283      5.1749      5.5160      6.1227      7.0571    
  8.3472      9.9693      11.841      13.824      15.729      17.336      18.425      18.829      18.472      17.390    
  15.724      13.677      11.474      9.3202      7.3720      5.7274      4.4225      3.4394      2.7236      2.2097    
  1.8436      1.5929      1.5327      1.5031      1.5566      1.6840      1.8749      2.1206      2.4165      2.7634    
  3.1655      3.6245      4.1341      4.6755      5.2169      5.7148      6.1209      6.3919      6.5018      6.4510    
  6.2675      6.0019      5.7146      5.4644      5.3027      5.2766      5.4332      5.8168      6.4568      7.3549    
  8.4765      9.7452      11.042      12.218      13.112      13.593      13.580      13.062      12.094      10.790    
  9.2978      7.7675      6.3265      5.0637      4.0250      3.2170      2.6143      2.1755      1.8622      1.6510    
  1.6471      1.6538      1.7397      1.8981      2.1206      2.4004      2.7351      3.1288      3.5903      4.1285    
  4.7440      5.4211      6.1235      6.7969      7.3759      7.7961      8.0079      7.9900      7.7567      7.3557    
  6.8577      6.3418      5.8802      5.5283      5.3241      5.2934      5.4555      5.8207      6.3789      7.0898    
  7.8804      8.6533      9.3015      9.7254      9.8514      9.6460      9.1226      8.3373      7.3763      6.3391    
  5.3208      4.3961      3.6104      2.9786      2.4934      2.1352      1.8832      1.7228      1.7814      1.8335    
  1.9599      2.1563      2.4165      2.7351      3.1115      3.5525      4.0724      4.6887      5.4119      6.2336    
  7.1179      8.0017      8.8016      9.4287      9.8053      9.8838      9.6578      9.1653      8.4813      7.7031    
  6.9303      6.2449      5.7000      5.3220      5.1204      5.0954      5.2365      5.5184      5.8994      6.3227    
  6.7201      7.0194      7.1584      7.0991      6.8346      6.3860      5.7959      5.1226      4.4312      3.7805    
  3.2104      2.7387      2.3677      2.0929      1.9076      1.8053      1.9323      2.0382      2.2140      2.4570    
  2.7634      3.1288      3.5525      4.0426      4.6191      5.3088      6.1341      7.0983      8.1731      9.2923    
  10.357      11.250      11.862      12.110      11.962      11.436      10.607      9.5833      8.4916      7.4485    
  6.5427      5.8242      5.3044      4.9685      4.7909      4.7467      4.8110      4.9515      5.1234      5.2745    
  5.3565      5.3350      5.1946      4.9378      4.5830      4.1602      3.7066      3.2604      2.8546      2.5118    
  2.2434      2.0523      1.9378      1.8982      2.0969      2.2632      2.4982      2.7999      3.1655      3.5903    
  4.0724      4.6191      5.2529      6.0091      6.9238      8.0169      9.2743      10.635      11.992      13.204    
  14.124      14.627      14.640      14.156      13.239      12.005      10.603      9.1864      7.8866      6.7905    
  5.9317      5.2974      4.8518      4.5573      4.3830      4.3009      4.2796      4.2838      4.2783      4.2326    
  4.1268      3.9551      3.7249      3.4508      3.1504      2.8442      2.5570      2.3137      2.1317      2.0185    
  1.9747      2.0006      2.2707      2.5026      2.8065      3.1817      3.6245      4.1285      4.6887      5.3088    
  6.0091      6.8292      7.8187      9.0173      10.431      12.016      13.666      15.227      16.517      17.362    
  17.635      17.288      16.361      14.971      13.290      11.504      9.7850      8.2624      7.0089      6.0396    
  5.3240      4.8085      4.4391      4.1751      3.9891      3.8579      3.7558      3.6554      3.5344      3.3812    
  3.1949      2.9822      2.7549      2.5285      2.3221      2.1549      2.0432      1.9965      2.0185      2.1098    
  2.4472      2.7481      3.1293      3.5927      4.1341      4.7440      5.4119      6.1341      6.9238      7.8187    
  8.8762      10.154      11.685      13.449      15.359      17.263      18.953      20.209      20.844      20.746    
  19.914      18.453      16.547      14.417      12.275      10.296      8.6006      7.2416      6.2087      5.4450    
  4.8780      4.4480      4.1171      3.8613      3.6587      3.4864      3.3229      3.1511      2.9610      2.7531    
  2.5393      2.3385      2.1696      2.0479      1.9854      1.9912      2.0699      2.2220      2.6180      2.9879    
  3.4518      4.0151      4.6755      5.4211      6.2336      7.0983      8.0169      9.0173      10.154      11.497    
  13.103      14.983      17.086      19.274      21.343      23.039      24.113      24.381      23.774      22.359    
  20.317      17.897      15.356      12.922      10.761      8.9669      7.5566      6.4893      5.6917      5.0874    
  4.6157      4.2369      3.9261      3.6645      3.4335      3.2143      2.9926      2.7633      2.5328      2.3179    
  2.1403      2.0213      1.9763      2.0131      2.1330      2.3346      2.7762      3.2074      3.7532      4.4226    
  5.2169      6.1235      7.1179      8.1731      9.2743      10.431      11.685      13.103      14.755      16.688    
  18.890      21.264      23.629      25.726      27.265      27.987      27.737      26.515      24.470      21.861    
  18.986      16.125      13.499      11.245      9.4188      8.0071      6.9452      6.1444      5.5200      5.0105    
  4.5801      4.2081      3.8780      3.5754      3.2890      3.0120      2.7427      2.4887      2.2704      2.1162    
  2.0509      2.0854      2.2192      2.4491      2.9204      3.3943      4.0106      4.7826      5.7148      6.7969    
  8.0017      9.2923      10.635      12.016      13.449      14.983      16.688      18.630      20.837      23.270    
  25.797      28.187      30.139      31.339      31.545      30.665      28.785      26.143      23.055      19.845    
  16.790      14.088      11.846      10.080      8.7360      7.7197      6.9291      6.2817      5.7225      5.2195    
  4.7557      4.3228      3.9173      3.5373      3.1826      2.8576      2.5770      2.3648      2.2466      2.2394    
  2.3488      2.5750      3.0588      3.5441      4.2059      5.0620      6.1209      7.3759      8.8016      10.357    
  11.992      13.666      15.359      17.086      18.890      20.837      22.987      25.357      27.882      30.398    
  32.631      34.249      34.940      34.512      32.962      30.472      27.349      23.941      20.574      17.505    
  14.894      12.796      11.177      9.9461      8.9911      8.2090      7.5197      6.8727      6.2440      5.6285    
  5.0314      4.4640      3.9416      3.4792      3.0900      2.7868      2.5850      2.5011      2.5474      2.7309    
  3.2094      3.6647      4.3324      5.2367      6.3919      7.7961      9.4287      11.250      13.204      15.227    
  17.263      19.274      21.264      23.270      25.357      27.580      29.951      32.393      34.705      36.581    
  37.685      37.750      36.661      34.506      31.552      28.161      24.689      21.427      18.576      16.231    
  14.392      12.984      11.890      10.990      10.180      9.3879      8.5731      7.7259      6.8608      6.0094    
  5.2103      4.4986      3.8990      3.4256      3.0868      2.8889      2.8379      2.9406      3.3971      3.7766    
  4.4001      5.3010      6.5018      8.0079      9.8053      11.862      14.124      16.517      18.953      21.343    
  23.629      25.797      27.882      29.951      32.066      34.212      36.272      38.060      39.324      39.789    
  39.257      37.688      35.225      32.154      28.842      25.644      22.785      20.384      18.468      16.979    
  15.809      14.831      13.926      13.003      11.997      10.885      9.6857      8.4508      7.2470      6.1378    
  5.1754      4.3961      3.8173      3.4371      3.2431      3.2274      3.6480      3.9084      4.4349      5.2711    
  6.4510      7.9900      9.8838      12.110      14.627      17.362      20.209      23.039      25.726      28.187    
  30.398      32.393      34.212      35.822      37.227      38.435      39.383      39.914      39.828      38.990    
  37.398      35.183      32.570      29.838      27.290      25.128      23.378      21.993      20.877      19.911    
  18.975      17.960      16.782      15.395      13.811      12.095      10.346      8.6706      7.1652      5.9019    
  4.9221      4.2316      3.8074      3.6183      3.9950      4.0913      4.4722      5.1823      6.2675      7.7567    
  9.6578      11.962      14.640      17.635      20.844      24.113      27.265      30.139      32.631      34.705    
  36.272      37.227      37.645      37.736      37.725      37.720      37.670      37.442      36.915      36.039    
  34.834      33.366      31.760      30.225      28.959      27.950      27.115      26.349      25.526      24.523    
  23.232      21.585      19.577      17.283      14.842      12.421      10.173      8.2160      6.6251      5.4329    
  4.6283      4.1660      4.4949      4.3623      4.5500      5.0807      6.0019      7.3557      9.1653      11.436    
  14.156      17.288      20.746      24.381      27.987      31.339      34.249      36.581      38.060      38.435    
  37.736      36.307      34.681      33.357      32.625      32.522      32.923      33.633      34.432      35.081    
  35.384      35.287      34.953      34.654      34.421      34.162      33.739      32.987      31.747      29.906    
  27.446      24.462      21.154      17.770      14.542      11.645      9.1977      7.2683      5.8738      4.9749    
  5.2487      4.7784      4.7099      5.0139      5.7146      6.8577      8.4813      10.607      13.239      16.361    
  19.914      23.774      27.737      31.545      34.940      37.685      39.324      39.383      37.725      34.681    
  31.003      27.621      25.315      24.513      25.278      27.401      30.465      33.888      37.029      39.410    
  40.913      41.817      42.556      43.213      43.640      43.592      42.783      40.984      38.120      34.320    
  29.889      25.216      20.667      16.513      12.925      9.9957      7.7636      6.2076      6.4013      5.4314    
  5.0075      5.0283      5.4644      6.3418      7.7031      9.5833      12.005      14.971      18.453      22.359    
  26.515      30.665      34.512      37.750      39.789      39.914      37.720      33.357      27.621      21.770    
  17.123      14.664      14.864      17.710      22.751      29.141      35.761      41.553      45.918      48.914    
  51.114      53.125      54.968      56.296      56.610      55.423      52.467      47.833      41.965      35.511    
  29.107      23.220      18.106      13.867      10.524      8.0582      8.1162      6.4448      5.5211      5.1749    
  5.3027      5.8802      6.9303      8.4916      10.603      13.290      16.547      20.317      24.470      28.785    
  32.962      36.661      39.257      39.828      37.670      32.625      25.315      17.123      9.7998      4.9237    
  3.5307      6.0171      12.149      21.033      31.188      40.924      48.973      54.960      59.399      63.215    
  67.008      70.477      72.867      73.278      71.021      65.934      58.512      49.741      40.732      32.366    
  25.122      19.131      14.354      10.710      10.535      7.9467      6.3463      5.5160      5.2766      5.5283    
  6.2449      7.4485      9.1864      11.504      14.417      17.897      21.861      26.143      30.472      34.506    
  37.688      38.990      37.442      32.522      24.513      14.664      4.9237     -2.6466     -6.4185     -5.4405    
 0.49356      10.733      23.705      37.232      49.309      58.911      66.271      72.454      78.554      84.769    
  90.186      93.431      93.178      88.691      80.211      68.946      56.613      44.804      34.522      26.097    
  19.434      14.309      13.750      10.034      7.5749      6.1227      5.4332      5.3241      5.7000      6.5427    
  7.8866      9.7850      12.275      15.356      18.986      23.055      27.349      31.552      35.225      37.398    
  36.915      32.923      25.278      14.864      3.5307     -6.4185     -12.863     -14.276     -9.8891     0.13714    
  14.497      30.857      46.607      59.941      70.557      79.458      88.068      97.209      106.23      113.38    
  116.63      114.40      106.24      93.178      77.378      61.335      46.966      35.171      25.968      18.964    
  17.792      12.746      9.2675      7.0571      5.8168      5.2934      5.3220      5.8242      6.7905      8.2624    
  10.296      12.922      16.125      19.845      23.941      28.161      32.154      35.183      36.039      33.633    
  27.401      17.710      6.0171     -5.4405     -14.276     -18.492     -16.746     -8.5626      5.3322      22.867    
  41.153      57.674      71.389      82.959      93.965      105.73      118.23      129.72      137.61      139.42    
  133.61      120.49      102.21      81.967      62.827      46.720      34.170      24.756      22.627      16.059    
  11.431      8.3472      6.4568      5.4555      5.1204      5.3044      5.9317      7.0089      8.6006      10.761    
  13.499      16.790      20.574      24.689      28.842      32.570      34.834      34.432      30.465      22.751    
  12.149     0.49356     -9.8891     -16.746     -18.247     -13.251     -1.7151      14.917      33.930      52.387    
  68.481      82.240      95.112      108.78      123.92      139.25      152.03      159.21      157.89      146.98    
  128.20      105.10      81.514      60.676      44.096      31.694      28.120      19.870      14.004      9.9693    
  7.3549      5.8207      5.0954      4.9685      5.2974      6.0396      7.2416      8.9669      11.245      14.088    
  17.505      21.427      25.644      29.838      33.366      35.081      33.888      29.141      21.033      10.733    
 0.13714     -8.5626     -13.251     -12.210     -4.5946      9.0293      26.571      45.133      62.334      77.403    
  91.311      105.85      122.27      140.07      156.81      169.34      173.90      167.72      151.05      127.30    
  100.95      76.033      55.335      39.588      33.960      23.970      16.844      11.841      8.4765      6.3789    
  5.2365      4.7909      4.8518      5.3240      6.2087      7.5566      9.4188      11.846      14.894      18.576    
  22.785      27.290      31.760      35.384      37.029      35.761      31.188      23.705      14.497      5.3322    
 -1.7151     -4.5946     -1.7681      7.1700      21.096      37.643      54.245      69.411      83.372      97.653    
  113.84      132.24      151.05      167.38      177.51      177.52      165.77      144.30      117.75      90.652    
  66.741      47.872      39.587      28.024      19.728      13.824      9.7452      7.0898      5.5184      4.7467    
  4.5573      4.8085      5.4450      6.4893      8.0071      10.080      12.796      16.231      20.384      25.128    
  30.225      35.287      39.410      41.553      40.924      37.232      30.857      22.867      14.917      9.0293    
  7.1700      10.617      19.347      31.905      46.041      59.872      72.856      85.901      100.54      117.68    
  136.43      154.26      168.00      173.68      168.30      151.99      128.23      101.67      76.472      55.513    
  44.213      31.566      22.365      15.729      11.042      7.8804      5.8994      4.8110      4.3830      4.4391    
  4.8780      5.6917      6.9452      8.7360      11.177      14.392      18.468      23.378      28.959      34.953    
  40.913      45.918      48.973      49.309      46.607      41.153      33.930      26.571      21.096      19.347    
  22.276      29.511      39.554      50.618      61.615      72.683      84.918      99.446      116.20      133.45    
  148.35      157.64      158.07      148.23      129.80      106.52      82.487      61.170      46.995      34.072    
  24.423      17.336      12.218      8.6533      6.3227      4.9515      4.3009      4.1751      4.4480      5.0874    
  6.1444      7.7197      9.9461      12.984      16.979      21.993      27.950      34.654      41.817      48.914    
  54.960      58.911      59.941      57.674      52.387      45.133      37.643      31.905      29.511      31.070    
  36.058      43.215      51.317      59.882      69.361      80.681      94.215      109.08      123.24      133.87    
  138.18      134.22      122.07      103.95      83.325      63.616      47.331      35.094      25.597      18.425    
  13.112      9.3015      6.7201      5.1234      4.2796      3.9891      4.1171      4.6157      5.5200      6.9291    
  8.9911      11.890      15.809      20.877      27.115      34.421      42.556      51.114      59.399      66.271    
  70.557      71.389      68.481      62.334      54.245      46.041      39.554      36.058      35.908      38.581    
  43.135      48.821      55.520      63.684      73.681      85.189      97.042      107.25      113.45      113.64    
  107.05      94.632      78.751      62.241      45.111      34.415      25.682      18.829      13.593      9.7254    
  7.0194      5.2745      4.2838      3.8579      3.8613      4.2369      5.0105      6.2817      8.2090      10.990    
  14.831      19.911      26.349      34.162      43.213      53.125      63.215      72.454      79.458      82.959    
  82.240      77.403      69.411      59.872      50.618      43.215      38.581      36.865      37.622      40.213    
  44.214      49.593      56.414      64.550      73.434      81.878      88.189      90.644      88.155      80.798    
  69.862      57.334      40.774      32.133      24.640      18.472      13.580      9.8514      7.1584      5.3565    
  4.2783      3.7558      3.6587      3.9261      4.5801      5.7225      7.5197      10.180      13.926      18.975    
  25.526      33.739      43.640      54.968      67.008      78.554      88.068      93.965      95.112      91.311    
  83.372      72.856      61.615      51.317      43.135      37.622      34.786      34.281      35.674      38.629    
  42.874      48.206      54.306      60.526      65.830      68.974      68.926      65.304      58.593      49.959    
  35.125      28.636      22.620      17.390      13.062      9.6460      7.0991      5.3350      4.2326      3.6554    
  3.4864      3.6645      4.2081      5.2195      6.8727      9.3879      13.003      17.960      24.523      32.987    
  43.592      56.296      70.477      84.769      97.209      105.73      108.78      105.85      97.653      85.901    
  72.683      59.882      48.821      40.213      34.281      30.918      29.828      30.577      32.723      35.906    
  39.807      44.027      47.970      50.856      51.893      50.580      46.933      41.499      29.028      24.456    
  19.912      15.724      12.094      9.1226      6.8346      5.1946      4.1268      3.5344      3.3229      3.4335    
  3.8780      4.7557      6.2440      8.5731      11.997      16.782      23.232      31.747      42.783      56.610    
  72.867      90.186      106.23      118.23      123.92      122.27      113.84      100.54      84.918      69.361    
  55.520      44.214      35.674      29.828      26.433      25.118      25.427      26.907      29.168      31.857    
  34.580      36.854      38.147      38.022      36.301      33.156      23.161      20.109      16.855      13.677    
  10.790      8.3373      6.3860      4.9378      3.9551      3.3812      3.1511      3.2143      3.5754      4.3228    
  5.6285      7.7259      10.885      15.395      21.585      29.906      40.984      55.423      73.278      93.431    
  113.38      129.72      139.25      140.07      132.24      117.68      99.446      80.681      63.684      49.593    
  38.629      30.577      25.118      21.906      20.534      20.549      21.517      23.056      24.822      26.468    
  27.638      28.005      27.358      25.681      17.927      15.985      13.764      11.474      9.2978      7.3763    
  5.7959      4.5830      3.7249      3.1949      2.9610      2.9926      3.2890      3.9173      5.0314      6.8608    
  9.6857      13.811      19.577      27.446      38.120      52.467      71.021      93.178      116.63      137.61    
  152.03      156.81      151.05      136.43      116.20      94.215      73.681      56.414      42.874      32.723    
  25.427      20.534      17.650      16.356      16.213      16.810      17.802      18.890      19.803      20.298    
  20.185      19.379      13.505      12.328      10.884      9.3202      7.7675      6.3391      5.1226      4.1602    
  3.4508      2.9822      2.7531      2.7633      3.0120      3.5373      4.4640      6.0094      8.4508      12.095    
  17.283      24.462      34.320      47.833      65.934      88.691      114.40      139.42      159.21      169.34    
  167.38      154.26      133.45      109.08      85.189      64.550      48.206      35.906      26.907      20.549    
  16.356      13.912      12.781      12.550      12.871      13.458      14.067      14.500      14.607      14.285    
  9.9405      9.2698      8.3809      7.3720      6.3265      5.3208      4.4312      3.7066      3.1504      2.7549    
  2.5393      2.5328      2.7427      3.1826      3.9416      5.2103      7.2470      10.346      14.842      21.154    
  29.889      41.965      58.512      80.211      106.24      133.61      157.89      173.90      177.51      168.00    
  148.35      123.24      97.042      73.434      54.306      39.807      29.168      21.517      16.213      12.781    
  10.790      9.8369      9.5729      9.7048      9.9933      10.266      10.406      10.319      7.2052      6.8525    
  6.3406      5.7274      5.0637      4.3961      3.7805      3.2604      2.8442      2.5285      2.3385      2.3179    
  2.4887      2.8576      3.4792      4.4986      6.1378      8.6706      12.421      17.770      25.216      35.511    
  49.741      68.946      93.178      120.49      146.98      167.72      177.52      173.68      157.64      133.87    
  107.25      81.878      60.526      44.027      31.857      23.056      16.810      12.550      9.8369      8.2783    
  7.5185      7.2506      7.2342      7.3102      7.3818      7.3709      5.2155      5.0452      4.7733      4.4225    
  4.0250      3.6104      3.2104      2.8546      2.5570      2.3221      2.1696      2.1403      2.2704      2.5770    
  3.0900      3.8990      5.1754      7.1652      10.173      14.542      20.667      29.107      40.732      56.613    
  77.378      102.21      128.20      151.05      165.77      168.30      158.07      138.18      113.45      88.189    
  65.830      47.970      34.580      24.822      17.802      12.871      9.5729      7.5185      6.3460      5.7412    
  5.4642      5.3556      5.3200      5.2927      3.8397      3.7582      3.6258      3.4394      3.2170      2.9786    
  2.7387      2.5118      2.3137      2.1549      2.0479      2.0213      2.1162      2.3648      2.7868      3.4256    
  4.3961      5.9019      8.2160      11.645      16.513      23.220      32.366      44.804      61.335      81.967    
  105.10      127.30      144.30      151.99      148.23      134.22      113.64      90.644      68.974      50.856    
  36.854      26.468      18.890      13.458      9.7048      7.2506      5.7412      4.8653      4.3814      4.1213    
  3.9806      3.9004      2.9195      2.8694      2.8101      2.7236      2.6143      2.4934      2.3677      2.2434    
  2.1317      2.0432      1.9854      1.9763      2.0509      2.2466      2.5850      3.0868      3.8173      4.9221    
  6.6251      9.1977      12.925      18.106      25.122      34.522      46.966      62.827      81.514      100.95    
  117.75      128.23      129.80      122.07      107.05      88.155      68.926      51.893      38.147      27.638    
  19.803      14.067      9.9933      7.2342      5.4642      4.3814      3.7385      3.3580      3.1296      2.9948    
  2.3061      2.2600      2.2353      2.2097      2.1755      2.1352      2.0929      2.0523      2.0185      1.9965    
  1.9912      2.0131      2.0854      2.2394      2.5011      2.8889      3.4371      4.2316      5.4329      7.2683    
  9.9957      13.867      19.131      26.097      35.171      46.720      60.676      76.033      90.652      101.67    
  106.52      103.95      94.632      80.798      65.304      50.580      38.022      28.005      20.298      14.500    
  10.266      7.3102      5.3556      4.1213      3.3580      2.8828      2.5846      2.4040      1.8914      1.8401    
  1.8316      1.8436      1.8622      1.8832      1.9076      1.9378      1.9747      2.0185      2.0699      2.1330    
  2.2192      2.3488      2.5474      2.8379      3.2431      3.8074      4.6283      5.8738      7.7636      10.524    
  14.354      19.434      25.968      34.170      44.096      55.335      66.741      76.472      82.487      83.325    
  78.751      69.862      58.593      46.933      36.301      27.358      20.185      14.607      10.406      7.3818    
  5.3200      3.9806      3.1296      2.5846      2.2323      2.0128      1.6163      1.5565      1.5562      1.5929    
  1.6510      1.7228      1.8053      1.8982      2.0006      2.1098      2.2220      2.3346      2.4491      2.5750    
  2.7309      2.9406      3.2274      3.6183      4.1660      4.9749      6.2076      8.0582      10.710      14.309    
  18.964      24.756      31.694      39.588      47.872      55.513      61.170      63.616      62.241      57.334    
  49.959      41.499      33.156      25.681      19.379      14.285      10.319      7.3709      5.2927      3.9004    
  2.9948      2.4040      2.0128      1.7604      1.4642      1.4165      1.4202      1.4550      1.5087      1.5768    
  1.6573      1.7483      1.8476      1.9524      2.0589      2.1621      2.2582      2.3468      2.4351      2.5395    
  2.6829      2.8880      3.1780      3.5879      4.1826      5.0640      6.3566      8.1742      10.586      13.595    
  17.132      21.043      25.076      28.851      31.885      33.684      33.901      32.476      29.658      25.910    
  21.750      17.622      13.838      10.583      7.9305      5.8803      4.3746      3.3198      2.6044      2.1230    
  1.7977      1.5853      1.3794      1.3267      1.3336      1.3823      1.4594      1.5588      1.6784      1.8153    
  1.9649      2.1216      2.2804      2.4346      2.5751      2.6938      2.7889      2.8682      2.9498      3.0577    
  3.2169      3.4533      3.8026      4.3235      5.1021      6.2372      7.8095      9.8523      12.333      15.148    
  18.119      20.993      23.456      25.176      25.877      25.423      23.874      21.466      18.531      15.412    
  12.391      9.6764      7.3916      5.5832      4.2260      3.2461      2.5530      2.0670      1.7307      1.5086    
  1.3893      1.3416      1.3560      1.4185      1.5172      1.6447      1.7979      1.9739      2.1680      2.3735    
  2.5839      2.7903      2.9811      3.1428      3.2645      3.3435      3.3885      3.4202      3.4666      3.5562    
  3.7163      3.9806      4.3996      5.0408      5.9755      7.2553      8.8889      10.825      12.947      15.078    