unknown system                          
   1.00000000000000     
     4.913700    0.000000    0.000000
    -2.456850    4.255389    0.000000
     0.000000    0.000000    5.405130
   Si   O 
     3     6
Direct
  0.469800  0.000000  0.666670
  0.000000  0.469800  0.333330
  0.530200  0.530200  0.000000
  0.414500  0.266200  0.785600
  0.733800  0.148300  0.452270
  0.851700  0.585500  0.118930
  0.148300  0.733800  0.547730
  0.266200  0.414500  0.214400
  0.585500  0.851700  0.881070
 
   48   48   56
 0.14532952521E+01 0.13842978845E+01 0.13881955589E+01 0.14431573571E+01 0.15326562767E+01
 0.16470953858E+01 0.17813741028E+01 0.19322884846E+01 0.20968577171E+01 0.22707377410E+01
 0.24472004448E+01 0.26179848877E+01 0.27761954967E+01 0.29204417020E+01 0.30587511125E+01
 0.32094444917E+01 0.33971099882E+01 0.36480441095E+01 0.39949708402E+01 0.44949362865E+01
 0.52486517370E+01 0.64012681341E+01 0.81161519890E+01 0.10535286555E+02 0.13749987433E+02
 0.17791853172E+02 0.22626731698E+02 0.28119654728E+02 0.33959530337E+02 0.39586813706E+02
 0.44212767821E+02 0.46995338551E+02 0.47331154861E+02 0.45110666910E+02 0.40773579301E+02
 0.35124556373E+02 0.29027963319E+02 0.23160837850E+02 0.17926702153E+02 0.13504779356E+02
 0.99404837037E+01 0.72052485592E+01 0.52154957537E+01 0.38396683851E+01 0.29194746253E+01
 0.23060555909E+01 0.18914399693E+01 0.16162652882E+01 0.13842978845E+01 0.13095555479E+01
 0.13168992222E+01 0.13872056756E+01 0.15031464255E+01 0.16537856517E+01 0.18335130009E+01
 0.20382237813E+01 0.22631898768E+01 0.25025527626E+01 0.27481079911E+01 0.29879005952E+01
 0.32074324396E+01 0.33942948714E+01 0.35440805590E+01 0.36646924814E+01 0.37766169019E+01
 0.39083710816E+01 0.40912857405E+01 0.43623165691E+01 0.47784097708E+01 0.54313859164E+01
 0.64447805815E+01 0.79466534544E+01 0.10033612120E+02 0.12746328171E+02 0.16059361641E+02
 0.19869529522E+02 0.23970362139E+02 0.28024161698E+02 0.31565809931E+02 0.34071575949E+02
 0.35094036772E+02 0.34414568559E+02 0.32133004727E+02 0.28635793852E+02 0.24456320711E+02
 0.20109199008E+02 0.15984550652E+02 0.12328117847E+02 0.92698463805E+01 0.68524563389E+01
 0.50452338606E+01 0.37581677082E+01 0.28694251131E+01 0.22600369272E+01 0.18400686267E+01
 0.15565190984E+01 0.13881955589E+01 0.13168992222E+01 0.13314442063E+01 0.14167032452E+01
 0.15566399266E+01 0.17396570415E+01 0.19598636742E+01 0.22140071309E+01 0.24982057706E+01
 0.28064662621E+01 0.31293153290E+01 0.34517929278E+01 0.37531777889E+01 0.40106244597E+01
 0.42058718025E+01 0.43323878102E+01 0.44001096640E+01 0.44349062490E+01 0.44721814733E+01
 0.45499617972E+01 0.47098954247E+01 0.50075036159E+01 0.55210848851E+01 0.63463223818E+01
 0.75749197510E+01 0.92674980347E+01 0.11431066355E+02 0.14003500644E+02 0.16843571665E+02
 0.19728394398E+02 0.22364881971E+02 0.24423332323E+02 0.25597460474E+02 0.25682135271E+02
 0.24640127770E+02 0.22620400007E+02 0.19911531133E+02 0.16854718370E+02 0.13764010496E+02
 0.10884243814E+02 0.83809387486E+01 0.63405776309E+01 0.47732581757E+01 0.36258464457E+01
 0.28100629965E+01 0.22353283472E+01 0.18316027645E+01 0.15562103748E+01 0.14431573571E+01
 0.13872056756E+01 0.14167032452E+01 0.15199561178E+01 0.16840010379E+01 0.18981199544E+01
 0.21563119941E+01 0.24570214299E+01 0.27999453326E+01 0.31817336115E+01 0.35926980808E+01
 0.40150694637E+01 0.44226042032E+01 0.47826012395E+01 0.50619761424E+01 0.52367352013E+01
 0.53009978332E+01 0.52710508848E+01 0.51822989600E+01 0.50806997903E+01 0.50138687592E+01
 0.50283008047E+01 0.51748763546E+01 0.55159890854E+01 0.61227217633E+01 0.70570673094E+01
 0.83472117942E+01 0.99692517773E+01 0.11840984495E+02 0.13823694871E+02 0.15728918890E+02
 0.17335715424E+02 0.18425390742E+02 0.18829249022E+02 0.18471792301E+02 0.17390422265E+02
 0.15724035937E+02 0.13677143449E+02 0.11474383992E+02 0.93201880614E+01 0.73719745159E+01
 0.57274152791E+01 0.44225474977E+01 0.34393694128E+01 0.27236053137E+01 0.22097051888E+01
 0.18435680384E+01 0.15928692626E+01 0.15326562767E+01 0.15031464255E+01 0.15566399266E+01
 0.16840010379E+01 0.18749250254E+01 0.21206434755E+01 0.24165260554E+01 0.27634070461E+01
 0.31654503732E+01 0.36245239137E+01 0.41341120787E+01 0.46755271049E+01 0.52168636560E+01
 0.57148476171E+01 0.61209289337E+01 0.63918786523E+01 0.65018256756E+01 0.64509716479E+01
 0.62675379011E+01 0.60018827380E+01 0.57146229010E+01 0.54644451965E+01 0.53027196855E+01
 0.52765615689E+01 0.54332072903E+01 0.58167951874E+01 0.64567676160E+01 0.73549160036E+01
 0.84764896949E+01 0.97451564913E+01 0.11042445184E+02 0.12217626405E+02 0.13112257304E+02
 0.13593118075E+02 0.13580302999E+02 0.13061766274E+02 0.12093947967E+02 0.10790224066E+02
 0.92977992142E+01 0.77674571711E+01 0.63265261441E+01 0.50636522478E+01 0.40250104717E+01
 0.32169697862E+01 0.26142592179E+01 0.21755071821E+01 0.18622414589E+01 0.16510377372E+01
 0.16470953858E+01 0.16537856517E+01 0.17396570415E+01 0.18981199544E+01 0.21206434755E+01
 0.24003521133E+01 0.27351022010E+01 0.31288248771E+01 0.35903486510E+01 0.41285342246E+01
 0.47440442493E+01 0.54211041480E+01 0.61235310728E+01 0.67968735387E+01 0.73758815829E+01
 0.77960655766E+01 0.80078754488E+01 0.79900073121E+01 0.77566909260E+01 0.73556618117E+01
 0.68577377146E+01 0.63418461385E+01 0.58801742038E+01 0.55283301338E+01 0.53241075450E+01
 0.52933838108E+01 0.54555425019E+01 0.58207034938E+01 0.63789434255E+01 0.70898138315E+01
 0.78803881163E+01 0.86533395078E+01 0.93014997910E+01 0.97254112968E+01 0.98513593484E+01
 0.96459879479E+01 0.91226481487E+01 0.83373322517E+01 0.73762771679E+01 0.63390941506E+01
 0.53207926152E+01 0.43961373776E+01 0.36103503005E+01 0.29786444079E+01 0.24934096779E+01
 0.21351554042E+01 0.18831653127E+01 0.17227569427E+01 0.17813741028E+01 0.18335130009E+01
 0.19598636742E+01 0.21563119941E+01 0.24165260554E+01 0.27351022010E+01 0.31114589992E+01
 0.35524519115E+01 0.40724190436E+01 0.46887372190E+01 0.54119445920E+01 0.62335894356E+01
 0.71179336697E+01 0.80016697304E+01 0.88016380648E+01 0.94286647977E+01 0.98053379752E+01
 0.98837923892E+01 0.96578128001E+01 0.91653285316E+01 0.84813246383E+01 0.77031010380E+01
 0.69302807353E+01 0.62448838368E+01 0.57000130056E+01 0.53219814552E+01 0.51204368099E+01
 0.50954329801E+01 0.52365047158E+01 0.55183928481E+01 0.58993679780E+01 0.63226912698E+01
 0.67200709769E+01 0.70193859675E+01 0.71583863700E+01 0.70991257073E+01 0.68346241348E+01
 0.63859848030E+01 0.57959083417E+01 0.51226082145E+01 0.44312353116E+01 0.37805267059E+01
 0.32103780320E+01 0.27386575145E+01 0.23676890959E+01 0.20928653676E+01 0.19075763287E+01
 0.18053065322E+01 0.19322884846E+01 0.20382237813E+01 0.22140071309E+01 0.24570214299E+01
 0.27634070461E+01 0.31288248771E+01 0.35524519115E+01 0.40425879792E+01 0.46190883352E+01
 0.53087796576E+01 0.61340610906E+01 0.70983199019E+01 0.81731277674E+01 0.92922903034E+01
 0.10356622182E+02 0.11249852358E+02 0.11861524727E+02 0.12110274125E+02 0.11961582761E+02
 0.11436130781E+02 0.10606616180E+02 0.95832572750E+01 0.84915657813E+01 0.74484591718E+01
 0.65427065378E+01 0.58241540101E+01 0.53044264654E+01 0.49685005951E+01 0.47909153967E+01
 0.47466960347E+01 0.48110063198E+01 0.49514611527E+01 0.51233878551E+01 0.52745482713E+01
 0.53565210219E+01 0.53350442000E+01 0.51945835753E+01 0.49378497675E+01 0.45830494093E+01
 0.41602441291E+01 0.37066148977E+01 0.32604309410E+01 0.28545978108E+01 0.25118039879E+01
 0.22433987167E+01 0.20523304748E+01 0.19377676354E+01 0.18982338336E+01 0.20968577171E+01
 0.22631898768E+01 0.24982057706E+01 0.27999453326E+01 0.31654503732E+01 0.35903486510E+01
 0.40724190436E+01 0.46190883352E+01 0.52529273745E+01 0.60090957037E+01 0.69237681767E+01
 0.80168911544E+01 0.92742754155E+01 0.10635201594E+02 0.11991914346E+02 0.13203876099E+02
 0.14123603644E+02 0.14626926086E+02 0.14640035254E+02 0.14156444946E+02 0.13238707257E+02
 0.12004521444E+02 0.10602763172E+02 0.91864389355E+01 0.78865877667E+01 0.67905387757E+01
 0.59316759124E+01 0.52974444959E+01 0.48518279402E+01 0.45572502004E+01 0.43829516745E+01
 0.43008500077E+01 0.42795700273E+01 0.42838345245E+01 0.42782715399E+01 0.42325578354E+01
 0.41267738124E+01 0.39551497655E+01 0.37249487523E+01 0.34508414763E+01 0.31503714430E+01
 0.28441790456E+01 0.25570060556E+01 0.23136702556E+01 0.21317376723E+01 0.20184547736E+01
 0.19747307423E+01 0.20006415689E+01 0.22707377410E+01 0.25025527626E+01 0.28064662621E+01
 0.31817336115E+01 0.36245239137E+01 0.41285342246E+01 0.46887372190E+01 0.53087796576E+01
 0.60090957037E+01 0.68292142073E+01 0.78186873891E+01 0.90172627535E+01 0.10431355773E+02
 0.12015615197E+02 0.13665932629E+02 0.15227286660E+02 0.16517272691E+02 0.17361990197E+02
 0.17635171850E+02 0.17288119864E+02 0.16360736357E+02 0.14971299190E+02 0.13289873056E+02
 0.11503959367E+02 0.97850211564E+01 0.82624399509E+01 0.70089456588E+01 0.60395554345E+01
 0.53239526502E+01 0.48084786538E+01 0.44390908609E+01 0.41750999277E+01 0.39890530488E+01
 0.38578793770E+01 0.37557943564E+01 0.36553868300E+01 0.35344073805E+01 0.33812034565E+01
 0.31949028341E+01 0.29822376006E+01 0.27548724114E+01 0.25285128172E+01 0.23220533157E+01
 0.21549294861E+01 0.20431551962E+01 0.19964639904E+01 0.20185285955E+01 0.21098328325E+01
 0.24472004448E+01 0.27481079911E+01 0.31293153290E+01 0.35926980808E+01 0.41341120787E+01
 0.47440442493E+01 0.54119445920E+01 0.61340610906E+01 0.69237681767E+01 0.78186873891E+01
 0.88762075547E+01 0.10154477258E+02 0.11685269854E+02 0.13449016037E+02 0.15359477319E+02
 0.17262504416E+02 0.18952719880E+02 0.20209189259E+02 0.20843519766E+02 0.20746081067E+02
 0.19914369140E+02 0.18453222861E+02 0.16547187578E+02 0.14416625988E+02 0.12274612083E+02
 0.10296225559E+02 0.86005999855E+01 0.72415580797E+01 0.62086996431E+01 0.54450114193E+01
 0.48780306271E+01 0.44479874022E+01 0.41171185547E+01 0.38612979441E+01 0.36587319121E+01
 0.34864464955E+01 0.33229017454E+01 0.31510507021E+01 0.29609740290E+01 0.27531050989E+01
 0.25392875631E+01 0.23384508693E+01 0.21695826783E+01 0.20479266903E+01 0.19854349759E+01
 0.19911898594E+01 0.20699227717E+01 0.22220224751E+01 0.26179848877E+01 0.29879005952E+01
 0.34517929278E+01 0.40150694637E+01 0.46755271049E+01 0.54211041480E+01 0.62335894356E+01
 0.70983199019E+01 0.80168911544E+01 0.90172627535E+01 0.10154477258E+02 0.11497360223E+02
 0.13102505003E+02 0.14983451330E+02 0.17085536719E+02 0.19274441563E+02 0.21342929982E+02
 0.23038656011E+02 0.24112905024E+02 0.24381080630E+02 0.23774266584E+02 0.22359124785E+02
 0.20317325564E+02 0.17896532208E+02 0.15355720006E+02 0.12921721902E+02 0.10761291761E+02
 0.89669183189E+01 0.75566263071E+01 0.64892572597E+01 0.56916510263E+01 0.50873531678E+01
 0.46157340623E+01 0.42369351683E+01 0.39261258883E+01 0.36645139715E+01 0.34334652429E+01
 0.32143226224E+01 0.29926430696E+01 0.27632780346E+01 0.25328110552E+01 0.23178889458E+01
 0.21403458803E+01 0.20212823117E+01 0.19762518185E+01 0.20130876865E+01 0.21330286549E+01
 0.23345634153E+01 0.27761954967E+01 0.32074324396E+01 0.37531777889E+01 0.44226042032E+01
 0.52168636560E+01 0.61235310728E+01 0.71179336697E+01 0.81731277674E+01 0.92742754155E+01
 0.10431355773E+02 0.11685269854E+02 0.13102505003E+02 0.14754986314E+02 0.16688403236E+02
 0.18889625771E+02 0.21264034130E+02 0.23628706762E+02 0.25726198288E+02 0.27265156948E+02
 0.27986696635E+02 0.27737085996E+02 0.26514856413E+02 0.24470255770E+02 0.21860704974E+02
 0.18985596760E+02 0.16125298186E+02 0.13498954622E+02 0.11244713701E+02 0.94187876053E+01
 0.80070980857E+01 0.69451674998E+01 0.61443929861E+01 0.55200237890E+01 0.50105357352E+01
 0.45801168362E+01 0.42080548350E+01 0.38780267726E+01 0.35753705927E+01 0.32889680330E+01
 0.30119964828E+01 0.27427326511E+01 0.24887146995E+01 0.22703500764E+01 0.21162373459E+01
 0.20508651437E+01 0.20853518430E+01 0.22191694935E+01 0.24490782973E+01 0.29204417020E+01
 0.33942948714E+01 0.40106244597E+01 0.47826012395E+01 0.57148476171E+01 0.67968735387E+01
 0.80016697304E+01 0.92922903034E+01 0.10635201594E+02 0.12015615197E+02 0.13449016037E+02
 0.14983451330E+02 0.16688403236E+02 0.18629894598E+02 0.20837242742E+02 0.23270434033E+02
 0.25796974338E+02 0.28187257765E+02 0.30139273342E+02 0.31339001800E+02 0.31545132284E+02
 0.30665090324E+02 0.28785422096E+02 0.26142747209E+02 0.23054579866E+02 0.19845076396E+02
 0.16790450343E+02 0.14088435535E+02 0.11845685106E+02 0.10079661935E+02 0.87360466590E+01
 0.77196622081E+01 0.69290643375E+01 0.62816796641E+01 0.57224574926E+01 0.52194985753E+01
 0.47557466291E+01 0.43228493107E+01 0.39172801854E+01 0.35373433040E+01 0.31826011154E+01
 0.28576225540E+01 0.25769862918E+01 0.23648266855E+01 0.22466139655E+01 0.22393756377E+01
 0.23488224152E+01 0.25749995689E+01 0.30587511125E+01 0.35440805590E+01 0.42058718025E+01
 0.50619761424E+01 0.61209289337E+01 0.73758815829E+01 0.88016380648E+01 0.10356622182E+02
 0.11991914346E+02 0.13665932629E+02 0.15359477319E+02 0.17085536719E+02 0.18889625771E+02
 0.20837242742E+02 0.22987419931E+02 0.25356653103E+02 0.27882353202E+02 0.30397507851E+02
 0.32631106667E+02 0.34249460362E+02 0.34940290699E+02 0.34512401940E+02 0.32962195679E+02
 0.30472054147E+02 0.27348592965E+02 0.23941060517E+02 0.20574454930E+02 0.17505198108E+02
 0.14893884103E+02 0.12796181453E+02 0.11177395612E+02 0.99460833802E+01 0.89910695812E+01
 0.82089580346E+01 0.75197246491E+01 0.68726796726E+01 0.62440016481E+01 0.56284799409E+01
 0.50313576080E+01 0.44640405058E+01 0.39415740428E+01 0.34791732419E+01 0.30899577102E+01
 0.27867618873E+01 0.25850021675E+01 0.25010880809E+01 0.25473885988E+01 0.27309223617E+01
 0.32094444917E+01 0.36646924814E+01 0.43323878102E+01 0.52367352013E+01 0.63918786523E+01
 0.77960655766E+01 0.94286647977E+01 0.11249852358E+02 0.13203876099E+02 0.15227286660E+02
 0.17262504416E+02 0.19274441563E+02 0.21264034130E+02 0.23270434033E+02 0.25356653103E+02
 0.27579751766E+02 0.29950824674E+02 0.32392608300E+02 0.34705205915E+02 0.36580898159E+02
 0.37685418885E+02 0.37749889093E+02 0.36661103878E+02 0.34506020450E+02 0.31551545090E+02
 0.28161206472E+02 0.24689019019E+02 0.21427165845E+02 0.18575803949E+02 0.16231317042E+02
 0.14392358790E+02 0.12983527115E+02 0.11889745789E+02 0.10989746852E+02 0.10180142223E+02
 0.93878731232E+01 0.85730525528E+01 0.77258667281E+01 0.68608330074E+01 0.60094113204E+01
 0.52102812193E+01 0.44986142993E+01 0.38990263321E+01 0.34256394584E+01 0.30868006669E+01
 0.28889408003E+01 0.28378771608E+01 0.29406289192E+01 0.33971099882E+01 0.37766169019E+01
 0.44001096640E+01 0.53009978332E+01 0.65018256756E+01 0.80078754488E+01 0.98053379752E+01
 0.11861524727E+02 0.14123603644E+02 0.16517272691E+02 0.18952719880E+02 0.21342929982E+02
 0.23628706762E+02 0.25796974338E+02 0.27882353202E+02 0.29950824674E+02 0.32066417772E+02
 0.34212158724E+02 0.36271505009E+02 0.38060302890E+02 0.39324050537E+02 0.39789033654E+02
 0.39256788454E+02 0.37687667009E+02 0.35224616168E+02 0.32154278190E+02 0.28842352794E+02
 0.25644271934E+02 0.22785147059E+02 0.20384267478E+02 0.18467578501E+02 0.16979172401E+02
 0.15809250593E+02 0.14830588312E+02 0.13926301177E+02 0.13002848226E+02 0.11997191759E+02
 0.10885231092E+02 0.96856794387E+01 0.84507684511E+01 0.72469606080E+01 0.61378126144E+01
 0.51753733056E+01 0.43961300064E+01 0.38173381418E+01 0.34371057278E+01 0.32431494815E+01
 0.32273790559E+01 0.36480441095E+01 0.39083710816E+01 0.44349062490E+01 0.52710508848E+01
 0.64509716479E+01 0.79900073121E+01 0.98837923892E+01 0.12110274125E+02 0.14626926086E+02
 0.17361990197E+02 0.20209189259E+02 0.23038656011E+02 0.25726198288E+02 0.28187257765E+02
 0.30397507851E+02 0.32392608300E+02 0.34212158724E+02 0.35822299564E+02 0.37227054962E+02
 0.38434992802E+02 0.39383444775E+02 0.39913598622E+02 0.39827672029E+02 0.38989887826E+02
 0.37397547598E+02 0.35182866329E+02 0.32570305523E+02 0.29837664731E+02 0.27290388329E+02
 0.25128020879E+02 0.23377911595E+02 0.21992951946E+02 0.20877033512E+02 0.19911031283E+02
 0.18974821298E+02 0.17960125358E+02 0.16781881339E+02 0.15395321277E+02 0.13811250614E+02
 0.12094903105E+02 0.10345656366E+02 0.86705985316E+01 0.71651642460E+01 0.59018924817E+01
 0.49221098704E+01 0.42315778047E+01 0.38074259375E+01 0.36183210077E+01 0.39949708402E+01
 0.40912857405E+01 0.44721814733E+01 0.51822989600E+01 0.62675379011E+01 0.77566909260E+01
 0.96578128001E+01 0.11961582761E+02 0.14640035254E+02 0.17635171850E+02 0.20843519766E+02
 0.24112905024E+02 0.27265156948E+02 0.30139273342E+02 0.32631106667E+02 0.34705205915E+02
 0.36271505008E+02 0.37227054961E+02 0.37644601669E+02 0.37736146586E+02 0.37725435850E+02
 0.37719568122E+02 0.37670473963E+02 0.37442384051E+02 0.36914839423E+02 0.36039261679E+02
 0.34833854387E+02 0.33365512867E+02 0.31760307993E+02 0.30224959362E+02 0.28959199423E+02
 0.27949853355E+02 0.27115359718E+02 0.26348707972E+02 0.25526341658E+02 0.24523459038E+02
 0.23232404573E+02 0.21585025648E+02 0.19577276030E+02 0.17283079982E+02 0.14841805746E+02
 0.12420539668E+02 0.10172945264E+02 0.82160298405E+01 0.66251065793E+01 0.54329149605E+01
 0.46283139263E+01 0.41660289545E+01 0.44949362865E+01 0.43623165691E+01 0.45499617972E+01
 0.50806997903E+01 0.60018827380E+01 0.73556618117E+01 0.91653285316E+01 0.11436130781E+02
 0.14156444946E+02 0.17288119864E+02 0.20746081067E+02 0.24381080630E+02 0.27986696635E+02
 0.31339001800E+02 0.34249460362E+02 0.36580898158E+02 0.38060302888E+02 0.38434992799E+02
 0.37736146584E+02 0.36307243594E+02 0.34680587725E+02 0.33357026271E+02 0.32624778139E+02
 0.32522097165E+02 0.32922584869E+02 0.33633075383E+02 0.34432033795E+02 0.35081340473E+02
 0.35383524758E+02 0.35286870648E+02 0.34952863045E+02 0.34653818472E+02 0.34421257336E+02
 0.34161964294E+02 0.33739045919E+02 0.32987124339E+02 0.31746595436E+02 0.29906284351E+02
 0.27446045157E+02 0.24462206776E+02 0.21154196636E+02 0.17770219823E+02 0.14541777951E+02
 0.11644968403E+02 0.91976632755E+01 0.72683009457E+01 0.58737537253E+01 0.49749280755E+01
 0.52486517370E+01 0.47784097708E+01 0.47098954247E+01 0.50138687592E+01 0.57146229010E+01
 0.68577377146E+01 0.84813246383E+01 0.10606616180E+02 0.13238707257E+02 0.16360736357E+02
 0.19914369140E+02 0.23774266584E+02 0.27737085996E+02 0.31545132284E+02 0.34940290699E+02
 0.37685418884E+02 0.39324050534E+02 0.39383444769E+02 0.37725435845E+02 0.34680587721E+02
 0.31002852715E+02 0.27620982245E+02 0.25315377609E+02 0.24513070552E+02 0.25277792360E+02
 0.27400588285E+02 0.30465243637E+02 0.33887959930E+02 0.37029274124E+02 0.39409823316E+02
 0.40913377952E+02 0.41817034387E+02 0.42555565154E+02 0.43212734860E+02 0.43640350310E+02
 0.43591984540E+02 0.42782560458E+02 0.40983857414E+02 0.38120335699E+02 0.34320054670E+02
 0.29888614432E+02 0.25215892262E+02 0.20666923320E+02 0.16513289681E+02 0.12924852449E+02
 0.99957449064E+01 0.77635633770E+01 0.62075514042E+01 0.64012681341E+01 0.54313859164E+01
 0.50075036159E+01 0.50283008047E+01 0.54644451965E+01 0.63418461385E+01 0.77031010380E+01
 0.95832572750E+01 0.12004521444E+02 0.14971299190E+02 0.18453222861E+02 0.22359124785E+02
 0.26514856413E+02 0.30665090324E+02 0.34512401940E+02 0.37749889092E+02 0.39789033650E+02
 0.39913598615E+02 0.37719568113E+02 0.33357026263E+02 0.27620982241E+02 0.21770379438E+02
 0.17123392065E+02 0.14663758054E+02 0.14864419813E+02 0.17709576206E+02 0.22751112846E+02
 0.29140839337E+02 0.35761167396E+02 0.41553372452E+02 0.45917674241E+02 0.48914389667E+02
 0.51113978482E+02 0.53125307789E+02 0.54967636968E+02 0.56296030309E+02 0.56609779029E+02
 0.55422941922E+02 0.52467240138E+02 0.47833055522E+02 0.41965444774E+02 0.35511451860E+02
 0.29107175686E+02 0.23219773330E+02 0.18106096284E+02 0.13866909079E+02 0.10524096543E+02
 0.80581945813E+01 0.81161519890E+01 0.64447805815E+01 0.55210848851E+01 0.51748763546E+01
 0.53027196855E+01 0.58801742038E+01 0.69302807353E+01 0.84915657813E+01 0.10602763172E+02
 0.13289873056E+02 0.16547187578E+02 0.20317325564E+02 0.24470255770E+02 0.28785422096E+02
 0.32962195679E+02 0.36661103878E+02 0.39256788450E+02 0.39827672021E+02 0.37670473952E+02
 0.32624778128E+02 0.25315377601E+02 0.17123392061E+02 0.97997795720E+01 0.49236972603E+01
 0.35306546869E+01 0.60171185360E+01 0.12148896657E+02 0.21033167773E+02 0.31187732039E+02
 0.40924005964E+02 0.48972520509E+02 0.54960170402E+02 0.59399194486E+02 0.63215096915E+02
 0.67007514788E+02 0.70477481826E+02 0.72866551002E+02 0.73277916988E+02 0.71020972989E+02
 0.65934343811E+02 0.58512125190E+02 0.49740628400E+02 0.40731962742E+02 0.32365999839E+02
 0.25121541721E+02 0.19131381141E+02 0.14353731802E+02 0.10710302603E+02 0.10535286555E+02
 0.79466534544E+01 0.63463223818E+01 0.55159890854E+01 0.52765615689E+01 0.55283301338E+01
 0.62448838368E+01 0.74484591718E+01 0.91864389355E+01 0.11503959367E+02 0.14416625988E+02
 0.17896532208E+02 0.21860704974E+02 0.26142747209E+02 0.30472054147E+02 0.34506020450E+02
 0.37687667006E+02 0.38989887819E+02 0.37442384039E+02 0.32522097152E+02 0.24513070541E+02
 0.14663758047E+02 0.49236972570E+01 -.26466257660E+01 -.64185471003E+01 -.54405044766E+01
 0.49356143655E+00 0.10732733165E+02 0.23704797938E+02 0.37232414177E+02 0.49309303218E+02
 0.58910840439E+02 0.66270615571E+02 0.72453896849E+02 0.78553741348E+02 0.84769336336E+02
 0.90185622891E+02 0.93431260047E+02 0.93178376252E+02 0.88690823772E+02 0.80211295115E+02
 0.68945785532E+02 0.56612612243E+02 0.44804009254E+02 0.34521504350E+02 0.26097266850E+02
 0.19433729497E+02 0.14309102978E+02 0.13749987433E+02 0.10033612120E+02 0.75749197511E+01
 0.61227217633E+01 0.54332072903E+01 0.53241075450E+01 0.57000130056E+01 0.65427065378E+01
 0.78865877667E+01 0.97850211564E+01 0.12274612083E+02 0.15355720006E+02 0.18985596760E+02
 0.23054579866E+02 0.27348592965E+02 0.31551545090E+02 0.35224616166E+02 0.37397547591E+02
 0.36914839412E+02 0.32922584856E+02 0.25277792347E+02 0.14864419803E+02 0.35306546812E+01
 -.64185471026E+01 -.12863062328E+02 -.14276358594E+02 -.98891428344E+01 0.13714117870E+00
 0.14496915769E+02 0.30857355174E+02 0.46606612508E+02 0.59941235096E+02 0.70557284507E+02
 0.79458356956E+02 0.88068070416E+02 0.97209327731E+02 0.10622518104E+03 0.11337526717E+03
 0.11663087783E+03 0.11440260345E+03 0.10624452274E+03 0.93178174370E+02 0.77378204464E+02
 0.61334825335E+02 0.46966168601E+02 0.35171064942E+02 0.25968383880E+02 0.18963953705E+02
 0.17791853172E+02 0.12746328171E+02 0.92674980347E+01 0.70570673094E+01 0.58167951874E+01
 0.52933838108E+01 0.53219814552E+01 0.58241540101E+01 0.67905387757E+01 0.82624399509E+01
 0.10296225559E+02 0.12921721902E+02 0.16125298186E+02 0.19845076396E+02 0.23941060517E+02
 0.28161206472E+02 0.32154278189E+02 0.35182866325E+02 0.36039261670E+02 0.33633075371E+02
 0.27400588273E+02 0.17709576195E+02 0.60171185292E+01 -.54405044801E+01 -.14276358595E+02
 -.18492112859E+02 -.16745567131E+02 -.85625770150E+01 0.53322235915E+01 0.22866947638E+02
 0.41153313033E+02 0.57674217731E+02 0.71389481288E+02 0.82958507214E+02 0.93964632909E+02
 0.10572668808E+03 0.11823142647E+03 0.12971697772E+03 0.13760749033E+03 0.13941932136E+03
 0.13361051288E+03 0.12048892384E+03 0.10221091335E+03 0.81966656004E+02 0.62827331869E+02
 0.46720478802E+02 0.34170399326E+02 0.24755594003E+02 0.22626731698E+02 0.16059361641E+02
 0.11431066355E+02 0.83472117942E+01 0.64567676160E+01 0.54555425019E+01 0.51204368099E+01
 0.53044264654E+01 0.59316759124E+01 0.70089456588E+01 0.86005999855E+01 0.10761291761E+02
 0.13498954622E+02 0.16790450343E+02 0.20574454930E+02 0.24689019019E+02 0.28842352794E+02
 0.32570305521E+02 0.34833854382E+02 0.34432033785E+02 0.30465243626E+02 0.22751112837E+02
 0.12148896651E+02 0.49356143304E+00 -.98891428355E+01 -.16745567131E+02 -.18246841186E+02
 -.13250683003E+02 -.17151272472E+01 0.14917208076E+02 0.33930006245E+02 0.52387098169E+02
 0.68481129987E+02 0.82239659067E+02 0.95112213217E+02 0.10878066568E+03 0.12392025172E+03
 0.13924996604E+03 0.15203294394E+03 0.15920979772E+03 0.15788590740E+03 0.14697534747E+03
 0.12820160000E+03 0.10509600201E+03 0.81513639137E+02 0.60675785932E+02 0.44095696317E+02
 0.31693874811E+02 0.28119654728E+02 0.19869529522E+02 0.14003500644E+02 0.99692517773E+01
 0.73549160036E+01 0.58207034938E+01 0.50954329801E+01 0.49685005951E+01 0.52974444959E+01
 0.60395554345E+01 0.72415580797E+01 0.89669183189E+01 0.11244713701E+02 0.14088435535E+02
 0.17505198108E+02 0.21427165845E+02 0.25644271934E+02 0.29837664731E+02 0.33365512864E+02
 0.35081340467E+02 0.33887959922E+02 0.29140839330E+02 0.21033167768E+02 0.10732733163E+02
 0.13714117868E+00 -.85625770139E+01 -.13250683001E+02 -.12209824072E+02 -.45945640852E+01
 0.90292975346E+01 0.26570626856E+02 0.45132801757E+02 0.62333533878E+02 0.77403176732E+02
 0.91311421640E+02 0.10584844886E+03 0.12226596187E+03 0.14007323390E+03 0.15680849133E+03
 0.16933622679E+03 0.17389957390E+03 0.16772276557E+03 0.15105112506E+03 0.12729913284E+03
 0.10095007616E+03 0.76033355997E+02 0.55334604635E+02 0.39588349873E+02 0.33959530337E+02
 0.23970362139E+02 0.16843571665E+02 0.11840984495E+02 0.84764896949E+01 0.63789434255E+01
 0.52365047158E+01 0.47909153967E+01 0.48518279402E+01 0.53239526502E+01 0.62086996431E+01
 0.75566263071E+01 0.94187876053E+01 0.11845685106E+02 0.14893884103E+02 0.18575803949E+02
 0.22785147059E+02 0.27290388329E+02 0.31760307992E+02 0.35383524756E+02 0.37029274119E+02
 0.35761167392E+02 0.31187732036E+02 0.23704797938E+02 0.14496915772E+02 0.53322235950E+01
 -.17151272438E+01 -.45945640829E+01 -.17680586072E+01 0.71700203502E+01 0.21096057486E+02
 0.37642582890E+02 0.54245365376E+02 0.69411265742E+02 0.83372049519E+02 0.97652870115E+02
 0.11383669703E+03 0.13223912190E+03 0.15105388954E+03 0.16737986641E+03 0.17750524883E+03
 0.17751748091E+03 0.16576612242E+03 0.14429781911E+03 0.11774511761E+03 0.90651930080E+02
 0.66740912640E+02 0.47871777876E+02 0.39586813706E+02 0.28024161698E+02 0.19728394398E+02
 0.13823694871E+02 0.97451564913E+01 0.70898138316E+01 0.55183928481E+01 0.47466960347E+01
 0.45572502004E+01 0.48084786538E+01 0.54450114193E+01 0.64892572597E+01 0.80070980857E+01
 0.10079661935E+02 0.12796181453E+02 0.16231317042E+02 0.20384267478E+02 0.25128020879E+02
 0.30224959362E+02 0.35286870648E+02 0.39409823314E+02 0.41553372451E+02 0.40924005964E+02
 0.37232414180E+02 0.30857355179E+02 0.22866947645E+02 0.14917208083E+02 0.90292975403E+01
 0.71700203536E+01 0.10616792891E+02 0.19346916354E+02 0.31905119959E+02 0.46040978186E+02
 0.59872323432E+02 0.72856126482E+02 0.85900519347E+02 0.10053733168E+03 0.11767564459E+03
 0.13642848587E+03 0.15426295520E+03 0.16800089068E+03 0.17368384360E+03 0.16830382494E+03
 0.15198919917E+03 0.12822592047E+03 0.10167376919E+03 0.76472454048E+02 0.55512564181E+02
 0.44212767821E+02 0.31565809931E+02 0.22364881971E+02 0.15728918890E+02 0.11042445184E+02
 0.78803881163E+01 0.58993679780E+01 0.48110063198E+01 0.43829516745E+01 0.44390908609E+01
 0.48780306271E+01 0.56916510263E+01 0.69451674998E+01 0.87360466590E+01 0.11177395612E+02
 0.14392358790E+02 0.18467578501E+02 0.23377911595E+02 0.28959199423E+02 0.34952863045E+02
 0.40913377952E+02 0.45917674242E+02 0.48972520510E+02 0.49309303223E+02 0.46606612515E+02
 0.41153313043E+02 0.33930006256E+02 0.26570626865E+02 0.21096057494E+02 0.19346916358E+02
 0.22276149252E+02 0.29510626647E+02 0.39554116349E+02 0.50618379514E+02 0.61614609180E+02
 0.72682996026E+02 0.84917776141E+02 0.99445747787E+02 0.11619861906E+03 0.13344647261E+03
 0.14834866284E+03 0.15764268140E+03 0.15806624966E+03 0.14822930313E+03 0.12979660204E+03
 0.10651725797E+03 0.82486975508E+02 0.61169812582E+02 0.46995338551E+02 0.34071575949E+02
 0.24423332323E+02 0.17335715424E+02 0.12217626405E+02 0.86533395078E+01 0.63226912698E+01
 0.49514611527E+01 0.43008500077E+01 0.41750999277E+01 0.44479874022E+01 0.50873531678E+01
 0.61443929861E+01 0.77196622081E+01 0.99460833802E+01 0.12983527115E+02 0.16979172401E+02
 0.21992951946E+02 0.27949853355E+02 0.34653818472E+02 0.41817034387E+02 0.48914389667E+02
 0.54960170404E+02 0.58910840444E+02 0.59941235104E+02 0.57674217742E+02 0.52387098182E+02
 0.45132801770E+02 0.37642582901E+02 0.31905119967E+02 0.29510626651E+02 0.31070256505E+02
 0.36058359019E+02 0.43215028259E+02 0.51317368784E+02 0.59881838620E+02 0.69361033854E+02
 0.80680948779E+02 0.94214826941E+02 0.10907992805E+03 0.12323622047E+03 0.13387149062E+03
 0.13818401557E+03 0.13422099502E+03 0.12206548216E+03 0.10395098525E+03 0.83324771226E+02
 0.63616030850E+02 0.47331154861E+02 0.35094036772E+02 0.25597460474E+02 0.18425390742E+02
 0.13112257304E+02 0.93014997910E+01 0.67200709769E+01 0.51233878551E+01 0.42795700273E+01
 0.39890530488E+01 0.41171185547E+01 0.46157340623E+01 0.55200237890E+01 0.69290643374E+01
 0.89910695812E+01 0.11889745789E+02 0.15809250593E+02 0.20877033512E+02 0.27115359718E+02
 0.34421257336E+02 0.42555565154E+02 0.51113978482E+02 0.59399194487E+02 0.66270615574E+02
 0.70557284513E+02 0.71389481298E+02 0.68481129999E+02 0.62333533891E+02 0.54245365389E+02
 0.46040978197E+02 0.39554116357E+02 0.36058359023E+02 0.35907701357E+02 0.38581434276E+02
 0.43134602317E+02 0.48820948892E+02 0.55519752564E+02 0.63683894496E+02 0.73680644287E+02
 0.85189406916E+02 0.97042209633E+02 0.10725338330E+03 0.11344908308E+03 0.11363612373E+03
 0.10705032287E+03 0.94632456534E+02 0.78750936817E+02 0.62240857434E+02 0.45110666910E+02
 0.34414568559E+02 0.25682135271E+02 0.18829249022E+02 0.13593118075E+02 0.97254112968E+01
 0.70193859675E+01 0.52745482713E+01 0.42838345245E+01 0.38578793770E+01 0.38612979441E+01
 0.42369351683E+01 0.50105357351E+01 0.62816796641E+01 0.82089580346E+01 0.10989746852E+02
 0.14830588312E+02 0.19911031283E+02 0.26348707972E+02 0.34161964294E+02 0.43212734860E+02
 0.53125307789E+02 0.63215096915E+02 0.72453896849E+02 0.79458356959E+02 0.82958507219E+02
 0.82239659076E+02 0.77403176743E+02 0.69411265754E+02 0.59872323443E+02 0.50618379522E+02
 0.43215028264E+02 0.38581434278E+02 0.36865284471E+02 0.37622086932E+02 0.40212957978E+02