   9   9   0   0
  0.1255774E+02  0.4913700E-09  0.4913700E-09  0.5405130E-09  0.5000000E-15
  1.000000000000000E-004
  CAR 
 unknown system                          
     13.72358103    -20.37702140  301      1.13477530      1.00000000
    -20.377  0.0000E+00  0.0000E+00
    -20.263  0.0000E+00  0.0000E+00
    -20.150  0.0000E+00  0.0000E+00
    -20.036  0.0000E+00  0.0000E+00
    -19.922  0.0000E+00  0.0000E+00
    -19.809  0.0000E+00  0.0000E+00
    -19.695  0.0000E+00  0.0000E+00
    -19.581  0.0000E+00  0.0000E+00
    -19.468  0.0000E+00  0.0000E+00
    -19.354  0.0000E+00  0.0000E+00
    -19.240  0.0000E+00  0.0000E+00
    -19.127  0.0000E+00  0.0000E+00
    -19.013  0.0000E+00  0.0000E+00
    -18.899  0.0000E+00  0.0000E+00
    -18.786  0.0000E+00  0.0000E+00
    -18.672  0.0000E+00  0.0000E+00
    -18.558  0.0000E+00  0.0000E+00
    -18.445  0.0000E+00  0.0000E+00
    -18.331  0.4594E+00  0.7050E-02
    -18.217  0.1434E+01  0.1252E+00
    -18.104  0.2263E+01  0.3370E+00
    -17.990  0.3506E+01  0.6571E+00
    -17.876  0.7291E+01  0.1268E+01
    -17.763  0.3945E+00  0.2025E+01
    -17.649  0.9215E+00  0.2097E+01
    -17.535  0.1688E+01  0.2245E+01
    -17.422  0.8724E+01  0.2709E+01
    -17.308  0.3374E+01  0.3588E+01
    -17.194  0.1434E+01  0.3820E+01
    -17.081  0.6657E+00  0.3935E+01
    -16.967  0.1454E+01  0.4019E+01
    -16.853  0.5622E+01  0.4346E+01
    -16.740  0.3811E+01  0.5293E+01
    -16.626  0.2079E+01  0.5602E+01
    -16.512  0.1337E+01  0.5792E+01
    -16.399  0.8193E+00  0.5914E+01
    -16.285  0.3568E+01  0.5989E+01
    -16.171  0.3419E+02  0.1148E+02
    -16.058  0.0000E+00  0.1200E+02
    -15.944  0.0000E+00  0.1200E+02
    -15.830  0.0000E+00  0.1200E+02
    -15.717  0.0000E+00  0.1200E+02
    -15.603  0.0000E+00  0.1200E+02
    -15.489  0.0000E+00  0.1200E+02
    -15.376  0.0000E+00  0.1200E+02
    -15.262  0.0000E+00  0.1200E+02
    -15.148  0.0000E+00  0.1200E+02
    -15.035  0.0000E+00  0.1200E+02
    -14.921  0.0000E+00  0.1200E+02
    -14.807  0.0000E+00  0.1200E+02
    -14.694  0.0000E+00  0.1200E+02
    -14.580  0.0000E+00  0.1200E+02
    -14.466  0.0000E+00  0.1200E+02
    -14.353  0.0000E+00  0.1200E+02
    -14.239  0.0000E+00  0.1200E+02
    -14.125  0.0000E+00  0.1200E+02
    -14.012  0.0000E+00  0.1200E+02
    -13.898  0.0000E+00  0.1200E+02
    -13.784  0.0000E+00  0.1200E+02
    -13.671  0.0000E+00  0.1200E+02
    -13.557  0.0000E+00  0.1200E+02
    -13.443  0.0000E+00  0.1200E+02
    -13.330  0.0000E+00  0.1200E+02
    -13.216  0.0000E+00  0.1200E+02
    -13.102  0.0000E+00  0.1200E+02
    -12.989  0.0000E+00  0.1200E+02
    -12.875  0.0000E+00  0.1200E+02
    -12.761  0.0000E+00  0.1200E+02
    -12.648  0.0000E+00  0.1200E+02
    -12.534  0.0000E+00  0.1200E+02
    -12.420  0.0000E+00  0.1200E+02
    -12.307  0.0000E+00  0.1200E+02
    -12.193  0.0000E+00  0.1200E+02
    -12.079  0.0000E+00  0.1200E+02
    -11.966  0.0000E+00  0.1200E+02
    -11.852  0.0000E+00  0.1200E+02
    -11.738  0.0000E+00  0.1200E+02
    -11.625  0.0000E+00  0.1200E+02
    -11.511  0.0000E+00  0.1200E+02
    -11.397  0.0000E+00  0.1200E+02
    -11.284  0.0000E+00  0.1200E+02
    -11.170  0.0000E+00  0.1200E+02
    -11.056  0.0000E+00  0.1200E+02
    -10.943  0.0000E+00  0.1200E+02
    -10.829  0.0000E+00  0.1200E+02
    -10.715  0.0000E+00  0.1200E+02
    -10.602  0.0000E+00  0.1200E+02
    -10.488  0.0000E+00  0.1200E+02
    -10.374  0.0000E+00  0.1200E+02
    -10.261  0.0000E+00  0.1200E+02
    -10.147  0.0000E+00  0.1200E+02
    -10.033  0.0000E+00  0.1200E+02
     -9.920  0.0000E+00  0.1200E+02
     -9.806  0.0000E+00  0.1200E+02
     -9.692  0.0000E+00  0.1200E+02
     -9.578  0.0000E+00  0.1200E+02
     -9.465  0.0000E+00  0.1200E+02
     -9.351  0.0000E+00  0.1200E+02
     -9.237  0.0000E+00  0.1200E+02
     -9.124  0.0000E+00  0.1200E+02
     -9.010  0.0000E+00  0.1200E+02
     -8.896  0.0000E+00  0.1200E+02
     -8.783  0.0000E+00  0.1200E+02
     -8.669  0.0000E+00  0.1200E+02
     -8.555  0.0000E+00  0.1200E+02
     -8.442  0.0000E+00  0.1200E+02
     -8.328  0.0000E+00  0.1200E+02
     -8.214  0.6843E-01  0.1200E+02
     -8.101  0.3805E+00  0.1203E+02
     -7.987  0.4818E+00  0.1208E+02
     -7.873  0.6759E+00  0.1214E+02
     -7.760  0.8788E+00  0.1223E+02
     -7.646  0.1156E+01  0.1234E+02
     -7.532  0.1540E+01  0.1250E+02
     -7.419  0.2505E+01  0.1271E+02
     -7.305  0.8637E+01  0.1345E+02
     -7.191  0.1577E+01  0.1383E+02
     -7.078  0.7059E+00  0.1395E+02
     -6.964  0.3545E+00  0.1401E+02
     -6.850  0.2394E+00  0.1403E+02
     -6.737  0.3856E+00  0.1407E+02
     -6.623  0.6225E+00  0.1412E+02
     -6.509  0.9490E+00  0.1421E+02
     -6.396  0.1613E+01  0.1434E+02
     -6.282  0.3539E+01  0.1463E+02
     -6.168  0.4704E+01  0.1517E+02
     -6.055  0.2316E+01  0.1555E+02
     -5.941  0.9451E+00  0.1574E+02
     -5.827  0.7241E+00  0.1584E+02
     -5.714  0.4783E+00  0.1591E+02
     -5.600  0.3053E+00  0.1595E+02
     -5.486  0.1875E+00  0.1598E+02
     -5.373  0.2791E+01  0.1617E+02
     -5.259  0.3482E+01  0.1657E+02
     -5.145  0.2722E+01  0.1692E+02
     -5.032  0.2373E+01  0.1721E+02
     -4.918  0.2013E+01  0.1745E+02
     -4.804  0.1449E+01  0.1766E+02
     -4.691  0.1042E+01  0.1779E+02
     -4.577  0.7878E+00  0.1790E+02
     -4.463  0.1784E+01  0.1801E+02
     -4.350  0.2240E+02  0.1892E+02
     -4.236  0.8345E+01  0.2026E+02
     -4.122  0.7008E+01  0.2109E+02
     -4.009  0.6860E+01  0.2175E+02
     -3.895  0.2853E+01  0.2217E+02
     -3.781  0.6579E+01  0.2313E+02
     -3.668  0.3624E+01  0.2367E+02
     -3.554  0.1116E+01  0.2397E+02
     -3.440  0.0000E+00  0.2400E+02
     -3.327  0.0000E+00  0.2400E+02
     -3.213  0.0000E+00  0.2400E+02
     -3.099  0.0000E+00  0.2400E+02
     -2.986  0.0000E+00  0.2400E+02
     -2.872  0.0000E+00  0.2400E+02
     -2.758  0.0000E+00  0.2400E+02
     -2.645  0.0000E+00  0.2400E+02
     -2.531  0.0000E+00  0.2400E+02
     -2.417  0.0000E+00  0.2400E+02
     -2.304  0.0000E+00  0.2400E+02
     -2.190  0.7987E+00  0.2400E+02
     -2.076  0.1245E+02  0.2488E+02
     -1.963  0.6322E+01  0.2603E+02
     -1.849  0.5946E+01  0.2668E+02
     -1.735  0.7410E+01  0.2752E+02
     -1.622  0.4696E+01  0.2816E+02
     -1.508  0.8527E+01  0.2923E+02
     -1.394  0.4373E+01  0.2988E+02
     -1.281  0.2864E+01  0.3008E+02
     -1.167  0.9735E+01  0.3122E+02
     -1.053  0.3510E+01  0.3185E+02
     -0.940  0.2076E+02  0.3293E+02
     -0.826  0.9272E+00  0.3388E+02
     -0.712  0.4426E+01  0.3419E+02
     -0.599  0.6555E+01  0.3489E+02
     -0.485  0.1142E+02  0.3601E+02
     -0.371  0.6995E+01  0.3725E+02
     -0.258  0.4549E+01  0.3783E+02
     -0.144  0.1039E+02  0.3868E+02
     -0.030  0.6249E+01  0.3989E+02
      0.083  0.1015E+02  0.4062E+02
      0.197  0.2463E+01  0.4197E+02
      0.311  0.9039E+01  0.4228E+02
      0.424  0.4853E+01  0.4348E+02
      0.538  0.5593E+01  0.4401E+02
      0.652  0.5028E+01  0.4453E+02
      0.765  0.1107E+02  0.4546E+02
      0.879  0.6048E+01  0.4635E+02
      0.993  0.1394E+02  0.4723E+02
      1.106  0.0000E+00  0.4800E+02
      1.220  0.0000E+00  0.4800E+02
      1.334  0.0000E+00  0.4800E+02
      1.447  0.0000E+00  0.4800E+02
      1.561  0.0000E+00  0.4800E+02
      1.675  0.0000E+00  0.4800E+02
      1.788  0.0000E+00  0.4800E+02
      1.902  0.0000E+00  0.4800E+02
      2.016  0.0000E+00  0.4800E+02
      2.129  0.0000E+00  0.4800E+02
      2.243  0.0000E+00  0.4800E+02
      2.357  0.0000E+00  0.4800E+02
      2.470  0.0000E+00  0.4800E+02
      2.584  0.0000E+00  0.4800E+02
      2.698  0.0000E+00  0.4800E+02
      2.811  0.0000E+00  0.4800E+02
      2.925  0.0000E+00  0.4800E+02
      3.039  0.0000E+00  0.4800E+02
      3.152  0.0000E+00  0.4800E+02
      3.266  0.0000E+00  0.4800E+02
      3.380  0.0000E+00  0.4800E+02
      3.493  0.0000E+00  0.4800E+02
      3.607  0.0000E+00  0.4800E+02
      3.721  0.0000E+00  0.4800E+02
      3.834  0.0000E+00  0.4800E+02
      3.948  0.0000E+00  0.4800E+02
      4.062  0.0000E+00  0.4800E+02
      4.175  0.0000E+00  0.4800E+02
      4.289  0.0000E+00  0.4800E+02
      4.403  0.0000E+00  0.4800E+02
      4.516  0.0000E+00  0.4800E+02
      4.630  0.0000E+00  0.4800E+02
      4.744  0.0000E+00  0.4800E+02
      4.857  0.0000E+00  0.4800E+02
      4.971  0.0000E+00  0.4800E+02
      5.085  0.0000E+00  0.4800E+02
      5.198  0.0000E+00  0.4800E+02
      5.312  0.0000E+00  0.4800E+02
      5.426  0.0000E+00  0.4800E+02
      5.539  0.0000E+00  0.4800E+02
      5.653  0.0000E+00  0.4800E+02
      5.767  0.0000E+00  0.4800E+02
      5.880  0.0000E+00  0.4800E+02
      5.994  0.0000E+00  0.4800E+02
      6.108  0.0000E+00  0.4800E+02
      6.221  0.0000E+00  0.4800E+02
      6.335  0.0000E+00  0.4800E+02
      6.449  0.0000E+00  0.4800E+02
      6.562  0.0000E+00  0.4800E+02
      6.676  0.0000E+00  0.4800E+02
      6.790  0.0000E+00  0.4800E+02
      6.903  0.0000E+00  0.4800E+02
      7.017  0.0000E+00  0.4800E+02
      7.131  0.3944E-03  0.4800E+02
      7.244  0.2581E-01  0.4800E+02
      7.358  0.9087E-01  0.4801E+02
      7.472  0.1768E+00  0.4802E+02
      7.585  0.2140E+00  0.4805E+02
      7.699  0.2321E+00  0.4807E+02
      7.813  0.2758E+00  0.4810E+02
      7.926  0.3224E+00  0.4813E+02
      8.040  0.3712E+00  0.4817E+02
      8.154  0.4182E+00  0.4822E+02
      8.267  0.4607E+00  0.4827E+02
      8.381  0.5103E+00  0.4832E+02
      8.495  0.5632E+00  0.4838E+02
      8.608  0.6178E+00  0.4845E+02
      8.722  0.6743E+00  0.4852E+02
      8.836  0.7361E+00  0.4860E+02
      8.949  0.8304E+00  0.4869E+02
      9.063  0.9550E+00  0.4879E+02
      9.177  0.1134E+01  0.4891E+02
      9.291  0.1340E+01  0.4905E+02
      9.404  0.1363E+01  0.4921E+02
      9.518  0.1396E+01  0.4936E+02
      9.632  0.1845E+01  0.4953E+02
      9.745  0.1458E+01  0.4973E+02
      9.859  0.1419E+01  0.4989E+02
      9.973  0.1582E+01  0.5006E+02
     10.086  0.1145E+01  0.5021E+02
     10.200  0.1793E+01  0.5034E+02
     10.314  0.7384E+01  0.5083E+02
     10.427  0.6408E+01  0.5188E+02
     10.541  0.4314E+01  0.5239E+02
     10.655  0.6587E+01  0.5308E+02
     10.768  0.7637E+01  0.5388E+02
     10.882  0.2991E+01  0.5442E+02
     10.996  0.4189E+01  0.5476E+02
     11.109  0.6291E+01  0.5542E+02
     11.223  0.3564E+01  0.5603E+02
     11.337  0.3764E+01  0.5638E+02
     11.450  0.7947E+01  0.5706E+02
     11.564  0.3539E+01  0.5775E+02
     11.678  0.5575E+00  0.5799E+02
     11.791  0.0000E+00  0.5800E+02
     11.905  0.0000E+00  0.5800E+02
     12.019  0.0000E+00  0.5800E+02
     12.132  0.0000E+00  0.5800E+02
     12.246  0.0000E+00  0.5800E+02
     12.360  0.0000E+00  0.5800E+02
     12.473  0.0000E+00  0.5800E+02
     12.587  0.0000E+00  0.5800E+02
     12.701  0.0000E+00  0.5800E+02
     12.814  0.0000E+00  0.5800E+02
     12.928  0.0000E+00  0.5800E+02
     13.042  0.0000E+00  0.5800E+02
     13.155  0.0000E+00  0.5800E+02
     13.269  0.0000E+00  0.5800E+02
     13.383  0.0000E+00  0.5800E+02
     13.496  0.0000E+00  0.5800E+02
     13.610  0.0000E+00  0.5800E+02
     13.724  0.0000E+00  0.5800E+02
