Automatically generated mesh
      88
Reciprocal lattice
    0.00000000000000    0.00000000000000    0.00000000000000             1
    0.14285714285714    0.00000000000000    0.00000000000000             4
    0.28571428571429    0.00000000000000    0.00000000000000             4
    0.42857142857143    0.00000000000000    0.00000000000000             4
    0.14285714285714    0.14285714285714    0.00000000000000             2
    0.28571428571429    0.14285714285714    0.00000000000000             4
    0.42857142857143    0.14285714285714    0.00000000000000             4
   -0.42857142857143    0.14285714285714    0.00000000000000             4
   -0.28571428571429    0.14285714285714    0.00000000000000             4
   -0.14285714285714    0.14285714285714    0.00000000000000             2
    0.28571428571429    0.28571428571429    0.00000000000000             2
    0.42857142857143    0.28571428571429    0.00000000000000             4
   -0.42857142857143    0.28571428571429    0.00000000000000             4
   -0.28571428571429    0.28571428571429    0.00000000000000             2
    0.42857142857143    0.42857142857143    0.00000000000000             2
   -0.42857142857143    0.42857142857143    0.00000000000000             2
    0.00000000000000    0.00000000000000    0.16666666666667             2
    0.14285714285714    0.00000000000000    0.16666666666667             4
    0.28571428571429    0.00000000000000    0.16666666666667             4
    0.42857142857143    0.00000000000000    0.16666666666667             4
   -0.42857142857143    0.00000000000000    0.16666666666667             4
   -0.28571428571429    0.00000000000000    0.16666666666667             4
   -0.14285714285714   -0.00000000000000    0.16666666666667             4
    0.14285714285714    0.14285714285714    0.16666666666667             4
    0.28571428571429    0.14285714285714    0.16666666666667             4
    0.42857142857143    0.14285714285714    0.16666666666667             4
   -0.42857142857143    0.14285714285714    0.16666666666667             4
   -0.28571428571429    0.14285714285714    0.16666666666667             4
   -0.14285714285714    0.14285714285714    0.16666666666667             2
    0.14285714285714    0.28571428571429    0.16666666666667             4
    0.28571428571429    0.28571428571429    0.16666666666667             4
    0.42857142857143    0.28571428571429    0.16666666666667             4
   -0.42857142857143    0.28571428571429    0.16666666666667             4
   -0.28571428571429    0.28571428571429    0.16666666666667             2
    0.14285714285714    0.42857142857143    0.16666666666667             4
    0.28571428571429    0.42857142857143    0.16666666666667             4
    0.42857142857143    0.42857142857143    0.16666666666667             4
   -0.42857142857143    0.42857142857143    0.16666666666667             2
    0.14285714285714   -0.42857142857143    0.16666666666667             4
    0.28571428571429   -0.42857142857143    0.16666666666667             4
    0.42857142857143   -0.42857142857143    0.16666666666667             2
    0.14285714285714   -0.28571428571429    0.16666666666667             4
    0.28571428571429   -0.28571428571429    0.16666666666667             2
    0.14285714285714   -0.14285714285714    0.16666666666667             2
    0.00000000000000    0.00000000000000    0.33333333333333             2
    0.14285714285714    0.00000000000000    0.33333333333333             4
    0.28571428571429    0.00000000000000    0.33333333333333             4
    0.42857142857143    0.00000000000000    0.33333333333333             4
   -0.42857142857143    0.00000000000000    0.33333333333333             4
   -0.28571428571429    0.00000000000000    0.33333333333333             4
   -0.14285714285714   -0.00000000000000    0.33333333333333             4
    0.14285714285714    0.14285714285714    0.33333333333333             4
    0.28571428571429    0.14285714285714    0.33333333333333             4
    0.42857142857143    0.14285714285714    0.33333333333333             4
   -0.42857142857143    0.14285714285714    0.33333333333333             4
   -0.28571428571429    0.14285714285714    0.33333333333333             4
   -0.14285714285714    0.14285714285714    0.33333333333333             2
    0.14285714285714    0.28571428571429    0.33333333333333             4
    0.28571428571429    0.28571428571429    0.33333333333333             4
    0.42857142857143    0.28571428571429    0.33333333333333             4
   -0.42857142857143    0.28571428571429    0.33333333333333             4
   -0.28571428571429    0.28571428571429    0.33333333333333             2
    0.14285714285714    0.42857142857143    0.33333333333333             4
    0.28571428571429    0.42857142857143    0.33333333333333             4
    0.42857142857143    0.42857142857143    0.33333333333333             4
   -0.42857142857143    0.42857142857143    0.33333333333333             2
    0.14285714285714   -0.42857142857143    0.33333333333333             4
    0.28571428571429   -0.42857142857143    0.33333333333333             4
    0.42857142857143   -0.42857142857143    0.33333333333333             2
    0.14285714285714   -0.28571428571429    0.33333333333333             4
    0.28571428571429   -0.28571428571429    0.33333333333333             2
    0.14285714285714   -0.14285714285714    0.33333333333333             2
    0.00000000000000    0.00000000000000    0.50000000000000             1
    0.14285714285714    0.00000000000000    0.50000000000000             4
    0.28571428571429    0.00000000000000    0.50000000000000             4
    0.42857142857143    0.00000000000000    0.50000000000000             4
    0.14285714285714    0.14285714285714    0.50000000000000             2
    0.28571428571429    0.14285714285714    0.50000000000000             4
    0.42857142857143    0.14285714285714    0.50000000000000             4
   -0.42857142857143    0.14285714285714    0.50000000000000             4
   -0.28571428571429    0.14285714285714    0.50000000000000             4
   -0.14285714285714    0.14285714285714    0.50000000000000             2
    0.28571428571429    0.28571428571429    0.50000000000000             2
    0.42857142857143    0.28571428571429    0.50000000000000             4
   -0.42857142857143    0.28571428571429    0.50000000000000             4
   -0.28571428571429    0.28571428571429    0.50000000000000             2
    0.42857142857143    0.42857142857143    0.50000000000000             2
   -0.42857142857143    0.42857142857143    0.50000000000000             2
Tetrahedra
       441    0.00056689342404
         4         2         2         5        23
         4         1         2         2        23
         4         1         2        17        23
         4         2         5        23        24
         4         2        18        23        24
         4         2        17        18        23
         4         3         5         6        24
         4         2         3         5        24
         4         2         3        18        24
         4         3         6        24        25
         4         3        19        24        25
         4         3        18        19        24
         4         4         6         7        25
         4         3         4         6        25
         4         3         4        19        25
         4         4         7        25        26
         4         4        20        25        26
         4         4        19        20        25
         4         4         7         8        26
         4         4         4         7        26
         4         4         4        20        26
         4         4         8        26        27
         4         4        21        26        27
         4         4        20        21        26
         4         3         8         9        27
         4         3         4         8        27
         4         3         4        21        27
         4         3         9        27        28
         4         3        22        27        28
         4         3        21        22        27
         4         2         9        10        28
         4         2         3         9        28
         4         2         3        22        28
         4         2        10        28        29
         4         2        23        28        29
         4         2        22        23        28
         4         1         2        10        29
         4         1         2        23        29
         4         1        17        23        29
         4         3         5         6        22
         4         2         3         5        22
         4         2         5        22        23
         4         5         6        22        30
         4         5        22        24        30
         4         5        22        23        24
         4         6         6        11        30
         4         5         6         6        30
         4         5         6        24        30
         4         6        11        30        31
         4         6        25        30        31
         4         6        24        25        30
         4         7        11        12        31
         4         6         7        11        31
         4         6         7        25        31
         4         7        12        31        32
         4         7        26        31        32
         4         7        25        26        31
         4         8        12        13        32
         4         7         8        12        32
         4         7         8        26        32
         4         8        13        32        33
         4         8        27        32        33
         4         8        26        27        32
         4         9        13        14        33
         4         8         9        13        33
         4         8         9        27        33
         4         9        14        33        34
         4         9        28        33        34
         4         9        27        28        33
         4         9        10        14        34
         4         9        10        28        34
         4        10        28        29        34
         4         4         6         7        21
         4         3         4         6        21
         4         3         6        21        22
         4         6         7        21        35
         4         6        21        30        35
         4         6        21        22        30
         4         7        11        12        35
         4         6         7        11        35
         4         6        11        30        35
         4        11        12        35        36
         4        11        31        35        36
         4        11        30        31        35
         4        12        12        15        36
         4        11        12        12        36
         4        11        12        31        36
         4        12        15        36        37
         4        12        32        36        37
         4        12        31        32        36
         4        13        15        16        37
         4        12        13        15        37
         4        12        13        32        37
         4        13        16        37        38
         4        13        33        37        38
         4        13        32        33        37
         4        13        14        16        38
         4        13        14        33        38
         4        14        33        34        38
         4         4         7         8        20
         4         4         4         7        20
         4         4         7        20        21
         4         7         8        20        39
         4         7        20        35        39
         4         7        20        21        35
         4         8        12        13        39
         4         7         8        12        39
         4         7        12        35        39
         4        12        13        39        40
         4        12        36        39        40
         4        12        35        36        39
         4        13        15        16        40
         4        12        13        15        40
         4        12        15        36        40
         4        15        16        40        41
         4        15        37        40        41
         4        15        36        37        40
         4        15        16        16        41
         4        15        16        37        41
         4        16        37        38        41
         4         3         8         9        19
         4         3         4         8        19
         4         4         8        19        20
         4         8         9        19        42
         4         8        19        39        42
         4         8        19        20        39
         4         9        13        14        42
         4         8         9        13        42
         4         8        13        39        42
         4        13        14        42        43
         4        13        40        42        43
         4        13        39        40        42
         4        13        14        16        43
         4        13        16        40        43
         4        16        40        41        43
         4         2         9        10        18
         4         2         3         9        18
         4         3         9        18        19
         4         9        10        18        44
         4         9        18        42        44
         4         9        18        19        42
         4         9        10        14        44
         4         9        14        42        44
         4        14        42        43        44
         4         1         2        10        17
         4         2        10        17        18
         4        10        17        18        44
         4        18        23        24        51
         4        17        18        23        51
         4        17        18        45        51
         4        18        24        51        52
         4        18        46        51        52
         4        18        45        46        51
         4        19        24        25        52
         4        18        19        24        52
         4        18        19        46        52
         4        19        25        52        53
         4        19        47        52        53
         4        19        46        47        52
         4        20        25        26        53
         4        19        20        25        53
         4        19        20        47        53
         4        20        26        53        54
         4        20        48        53        54
         4        20        47        48        53
         4        21        26        27        54
         4        20        21        26        54
         4        20        21        48        54
         4        21        27        54        55
         4        21        49        54        55
         4        21        48        49        54
         4        22        27        28        55
         4        21        22        27        55
         4        21        22        49        55
         4        22        28        55        56
         4        22        50        55        56
         4        22        49        50        55
         4        23        28        29        56
         4        22        23        28        56
         4        22        23        50        56
         4        23        29        56        57
         4        23        51        56        57
         4        23        50        51        56
         4        17        23        29        57
         4        17        23        51        57
         4        17        45        51        57
         4        22        24        30        50
         4        22        23        24        50
         4        23        24        50        51
         4        24        30        50        58
         4        24        50        52        58
         4        24        50        51        52
         4        25        30        31        58
         4        24        25        30        58
         4        24        25        52        58
         4        25        31        58        59
         4        25        53        58        59
         4        25        52        53        58
         4        26        31        32        59
         4        25        26        31        59
         4        25        26        53        59
         4        26        32        59        60
         4        26        54        59        60
         4        26        53        54        59
         4        27        32        33        60
         4        26        27        32        60
         4        26        27        54        60
         4        27        33        60        61
         4        27        55        60        61
         4        27        54        55        60
         4        28        33        34        61
         4        27        28        33        61
         4        27        28        55        61
         4        28        34        61        62
         4        28        56        61        62
         4        28        55        56        61
         4        28        29        34        62
         4        28        29        56        62
         4        29        56        57        62
         4        21        30        35        49
         4        21        22        30        49
         4        22        30        49        50
         4        30        35        49        63
         4        30        49        58        63
         4        30        49        50        58
         4        31        35        36        63
         4        30        31        35        63
         4        30        31        58        63
         4        31        36        63        64
         4        31        59        63        64
         4        31        58        59        63
         4        32        36        37        64
         4        31        32        36        64
         4        31        32        59        64
         4        32        37        64        65
         4        32        60        64        65
         4        32        59        60        64
         4        33        37        38        65
         4        32        33        37        65
         4        32        33        60        65
         4        33        38        65        66
         4        33        61        65        66
         4        33        60        61        65
         4        33        34        38        66
         4        33        34        61        66
         4        34        61        62        66
         4        20        35        39        48
         4        20        21        35        48
         4        21        35        48        49
         4        35        39        48        67
         4        35        48        63        67
         4        35        48        49        63
         4        36        39        40        67
         4        35        36        39        67
         4        35        36        63        67
         4        36        40        67        68
         4        36        64        67        68
         4        36        63        64        67
         4        37        40        41        68
         4        36        37        40        68
         4        36        37        64        68
         4        37        41        68        69
         4        37        65        68        69
         4        37        64        65        68
         4        37        38        41        69
         4        37        38        65        69
         4        38        65        66        69
         4        19        39        42        47
         4        19        20        39        47
         4        20        39        47        48
         4        39        42        47        70
         4        39        47        67        70
         4        39        47        48        67
         4        40        42        43        70
         4        39        40        42        70
         4        39        40        67        70
         4        40        43        70        71
         4        40        68        70        71
         4        40        67        68        70
         4        40        41        43        71
         4        40        41        68        71
         4        41        68        69        71
         4        18        42        44        46
         4        18        19        42        46
         4        19        42        46        47
         4        42        44        46        72
         4        42        46        70        72
         4        42        46        47        70
         4        42        43        44        72
         4        42        43        70        72
         4        43        70        71        72
         4        17        18        44        45
         4        18        44        45        46
         4        44        45        46        72
         4        46        51        52        74
         4        45        46        51        74
         4        45        46        73        74
         4        46        52        74        77
         4        46        74        74        77
         4        46        73        74        74
         4        47        52        53        77
         4        46        47        52        77
         4        46        47        74        77
         4        47        53        77        78
         4        47        75        77        78
         4        47        74        75        77
         4        48        53        54        78
         4        47        48        53        78
         4        47        48        75        78
         4        48        54        78        79
         4        48        76        78        79
         4        48        75        76        78
         4        49        54        55        79
         4        48        49        54        79
         4        48        49        76        79
         4        49        55        79        80
         4        49        76        79        80
         4        49        76        76        79
         4        50        55        56        80
         4        49        50        55        80
         4        49        50        76        80
         4        50        56        80        81
         4        50        75        80        81
         4        50        75        76        80
         4        51        56        57        81
         4        50        51        56        81
         4        50        51        75        81
         4        51        57        81        82
         4        51        74        81        82
         4        51        74        75        81
         4        45        51        57        82
         4        45        51        74        82
         4        45        73        74        82
         4        50        52        58        75
         4        50        51        52        75
         4        51        52        74        75
         4        52        58        75        78
         4        52        75        77        78
         4        52        74        75        77
         4        53        58        59        78
         4        52        53        58        78
         4        52        53        77        78
         4        53        59        78        83
         4        53        78        78        83
         4        53        77        78        78
         4        54        59        60        83
         4        53        54        59        83
         4        53        54        78        83
         4        54        60        83        84
         4        54        79        83        84
         4        54        78        79        83
         4        55        60        61        84
         4        54        55        60        84
         4        54        55        79        84
         4        55        61        84        85
         4        55        80        84        85
         4        55        79        80        84
         4        56        61        62        85
         4        55        56        61        85
         4        55        56        80        85
         4        56        62        85        86
         4        56        81        85        86
         4        56        80        81        85
         4        56        57        62        86
         4        56        57        81        86
         4        57        81        82        86
         4        49        58        63        76
         4        49        50        58        76
         4        50        58        75        76
         4        58        63        76        79
         4        58        76        78        79
         4        58        75        76        78
         4        59        63        64        79
         4        58        59        63        79
         4        58        59        78        79
         4        59        64        79        84
         4        59        79        83        84
         4        59        78        79        83
         4        60        64        65        84
         4        59        60        64        84
         4        59        60        83        84
         4        60        65        84        87
         4        60        84        84        87
         4        60        83        84        84
         4        61        65        66        87
         4        60        61        65        87
         4        60        61        84        87
         4        61        66        87        88
         4        61        85        87        88
         4        61        84        85        87
         4        61        62        66        88
         4        61        62        85        88
         4        62        85        86        88
         4        48        63        67        76
         4        48        49        63        76
         4        49        63        76        76
         4        63        67        76        80
         4        63        76        79        80
         4        63        76        76        79
         4        64        67        68        80
         4        63        64        67        80
         4        63        64        79        80
         4        64        68        80        85
         4        64        80        84        85
         4        64        79        80        84
         4        65        68        69        85
         4        64        65        68        85
         4        64        65        84        85
         4        65        69        85        88
         4        65        85        87        88
         4        65        84        85        87
         4        65        66        69        88
         4        65        66        87        88
         4        66        87        88        88
         4        47        67        70        75
         4        47        48        67        75
         4        48        67        75        76
         4        67        70        75        81
         4        67        75        80        81
         4        67        75        76        80
         4        68        70        71        81
         4        67        68        70        81
         4        67        68        80        81
         4        68        71        81        86
         4        68        81        85        86
         4        68        80        81        85
         4        68        69        71        86
         4        68        69        85        86
         4        69        85        86        88
         4        46        70        72        74
         4        46        47        70        74
         4        47        70        74        75
         4        70        72        74        82
         4        70        74        81        82
         4        70        74        75        81
         4        70        71        72        82
         4        70        71        81        82
         4        71        81        82        86
         4        45        46        72        73
         4        46        72        73        74
         4        72        73        74        82
