 vasp.5.4.4.18Apr17-6-g9f103f2a35 (build Jun 30 2017 11:15:00) complex          
  
 executed on    STALLO_VASP_5.4.4 date 2019.11.06  14:33:24
 running on    4 total cores
 distrk:  each k-point on    4 cores,    1 groups
 distr:  one band on NCORES_PER_BAND=   2 cores,    2 groups


--------------------------------------------------------------------------------------------------------


 INCAR:
 POTCAR:   PAW_PBE O 08Apr2002                    
 POTCAR:   PAW_PBE Sr_sv 07Sep2000                
 POTCAR:   PAW_PBE Ti 08Apr2002                   
 POTCAR:   PAW_PBE O 08Apr2002                    
   VRHFIN =O: s2p4                                                              
   LEXCH  = PE                                                                  
   EATOM  =   432.3788 eV,   31.7789 Ry                                         
                                                                                
   TITEL  = PAW_PBE O 08Apr2002                                                 
   LULTRA =        F    use ultrasoft PP ?                                      
   IUNSCR =        0    unscreen: 0-lin 1-nonlin 2-no                           
   RPACOR =     .000    partial core radius                                     
   POMASS =   16.000; ZVAL   =    6.000    mass and valenz                      
   RCORE  =    1.520    outmost cutoff radius                                   
   RWIGS  =    1.550; RWIGS  =     .820    wigner-seitz radius (au A)           
   ENMAX  =  400.000; ENMIN  =  300.000 eV                                      
   ICORE  =        2    local potential                                         
   LCOR   =        T    correct aug charges                                     
   LPAW   =        T    paw PP                                                  
   EAUG   =  605.392                                                            
   DEXC   =     .000                                                            
   RMAX   =    2.264    core radius for proj-oper                               
   RAUG   =    1.300    factor for augmentation sphere                          
   RDEP   =    1.550    radius for radial grids                                 
   QCUT   =   -5.520; QGAM   =   11.041    optimization parameters              
                                                                                
   Description                                                                  
     l     E      TYP  RCUT    TYP  RCUT                                        
     0   .000     23  1.200                                                     
     0  -.700     23  1.200                                                     
     1   .000     23  1.520                                                     
     1   .600     23  1.520                                                     
     2   .000      7  1.500                                                     
  local pseudopotential read in
  atomic valenz-charges read in
  non local Contribution for L=           0  read in
    real space projection operators read in
  non local Contribution for L=           0  read in
    real space projection operators read in
  non local Contribution for L=           1  read in
    real space projection operators read in
  non local Contribution for L=           1  read in
    real space projection operators read in
    PAW grid and wavefunctions read in
 
   number of l-projection  operators is LMAX  =           4
   number of lm-projection operators is LMMAX =           8
 
 POTCAR:   PAW_PBE Sr_sv 07Sep2000                
   VRHFIN =Sr: 4s4p5s                                                           
   LEXCH  = PE                                                                  
   EATOM  =   842.4562 eV,   61.9188 Ry                                         
                                                                                
   TITEL  = PAW_PBE Sr_sv 07Sep2000                                             
   LULTRA =        F    use ultrasoft PP ?                                      
   IUNSCR =        1    unscreen: 0-lin 1-nonlin 2-no                           
   RPACOR =    2.200    partial core radius                                     
   POMASS =   87.620; ZVAL   =   10.000    mass and valenz                      
   RCORE  =    2.500    outmost cutoff radius                                   
   RWIGS  =    4.040; RWIGS  =    2.138    wigner-seitz radius (au A)           
   ENMAX  =  229.282; ENMIN  =  171.961 eV                                      
   RCLOC  =    2.201    cutoff for local pot                                    
   LCOR   =        T    correct aug charges                                     
   LPAW   =        T    paw PP                                                  
   EAUG   =  366.804                                                            
   DEXC   =     .000                                                            
   RMAX   =    3.045    core radius for proj-oper                               
   RAUG   =    1.300    factor for augmentation sphere                          
   RDEP   =    2.562    radius for radial grids                                 
   QCUT   =   -4.105; QGAM   =    8.210    optimization parameters              
                                                                                
   Description                                                                  
     l     E      TYP  RCUT    TYP  RCUT                                        
     0   .000     23  2.480                                                     
     0   .000     23  2.480                                                     
     1   .000     23  2.500                                                     
     1   .000     23  2.500                                                     
     2   .000     23  2.500                                                     
     2   .000     23  2.500                                                     
  local pseudopotential read in
  partial core-charges read in
  atomic valenz-charges read in
  non local Contribution for L=           0  read in
    real space projection operators read in
  non local Contribution for L=           0  read in
    real space projection operators read in
  non local Contribution for L=           1  read in
    real space projection operators read in
  non local Contribution for L=           1  read in
    real space projection operators read in
  non local Contribution for L=           2  read in
    real space projection operators read in
  non local Contribution for L=           2  read in
    real space projection operators read in
    PAW grid and wavefunctions read in
 
   number of l-projection  operators is LMAX  =           6
   number of lm-projection operators is LMMAX =          18
 
 POTCAR:   PAW_PBE Ti 08Apr2002                   
   VRHFIN =Ti: d3 s1                                                            
   LEXCH  = PE                                                                  
   EATOM  =    94.7929 eV,    6.9671 Ry                                         
                                                                                
   TITEL  = PAW_PBE Ti 08Apr2002                                                
   LULTRA =        F    use ultrasoft PP ?                                      
   IUNSCR =        1    unscreen: 0-lin 1-nonlin 2-no                           
   RPACOR =    2.200    partial core radius                                     
   POMASS =   47.880; ZVAL   =    4.000    mass and valenz                      
   RCORE  =    2.800    outmost cutoff radius                                   
   RWIGS  =    2.500; RWIGS  =    1.323    wigner-seitz radius (au A)           
   ENMAX  =  178.330; ENMIN  =  133.747 eV                                      
   RCLOC  =    2.215    cutoff for local pot                                    
   LCOR   =        T    correct aug charges                                     
   LPAW   =        T    paw PP                                                  
   EAUG   =  328.883                                                            
   DEXC   =    -.043                                                            
   RMAX   =    3.453    core radius for proj-oper                               
   RAUG   =    1.300    factor for augmentation sphere                          
   RDEP   =    2.885    radius for radial grids                                 
   QCUT   =   -3.620; QGAM   =    7.241    optimization parameters              
                                                                                
   Description                                                                  
     l     E      TYP  RCUT    TYP  RCUT                                        
     2   .000     23  2.800                                                     
     2   .000     23  2.800                                                     
     0   .000     23  2.800                                                     
     0  1.500     23  2.800                                                     
     1  -.400     23  2.800                                                     
     3   .000      7   .000                                                     
  local pseudopotential read in
  partial core-charges read in
  atomic valenz-charges read in
  non local Contribution for L=           2  read in
    real space projection operators read in
  non local Contribution for L=           2  read in
    real space projection operators read in
  non local Contribution for L=           0  read in
    real space projection operators read in
  non local Contribution for L=           0  read in
    real space projection operators read in
  non local Contribution for L=           1  read in
    real space projection operators read in
    PAW grid and wavefunctions read in
 
   number of l-projection  operators is LMAX  =           5
   number of lm-projection operators is LMMAX =          15
 

 ----------------------------------------------------------------------------- 
|                                                                             |
|  ADVICE TO THIS USER RUNNING 'VASP/VAMP'   (HEAR YOUR MASTER'S VOICE ...):  |
|                                                                             |
|      You have a (more or less) 'large supercell' and for larger cells       |
|      it might be more efficient to use real space projection operators      |
|      So try LREAL= Auto  in the INCAR   file.                               |
|      Mind: If you want to do a very accurate calculations keep the          |
|      reciprocal projection scheme          (i.e. LREAL=.FALSE.)             |
|                                                                             |
 ----------------------------------------------------------------------------- 

 PAW_PBE O 08Apr2002                    :
 energy of atom  1       EATOM= -432.3788
 kinetic energy error for atom=    0.0224 (will be added to EATOM!!)
 PAW_PBE Sr_sv 07Sep2000                :
 energy of atom  2       EATOM= -842.4562
 kinetic energy error for atom=    0.0012 (will be added to EATOM!!)
 PAW_PBE Ti 08Apr2002                   :
 energy of atom  3       EATOM=  -94.7929
 kinetic energy error for atom=    0.0002 (will be added to EATOM!!)
 
 
 POSCAR:  O Sr Ti                                
  positions in direct lattice
  No initial velocities read in
 exchange correlation table for  LEXCH =        8
   RHO(1)=    0.500       N(1)  =     2000
   RHO(2)=  100.500       N(2)  =     4000
 


--------------------------------------------------------------------------------------------------------


 ion  position               nearest neighbor table
   1  0.500  0.500  0.234-  17 1.95  13 2.76  13 2.76  13 2.76  13 2.76
   2  0.500  0.000  0.310-  17 1.95  17 1.95  13 2.76  14 2.76  13 2.76  14 2.76
   3  0.000  0.500  0.310-  17 1.95  17 1.95  13 2.76  13 2.76  14 2.76  14 2.76
   4  0.500  0.500  0.386-  17 1.95  18 1.95  14 2.76  14 2.76  14 2.76  14 2.76
   5  0.500  0.000  0.462-  18 1.95  18 1.95  15 2.76  15 2.76  14 2.76  14 2.76
   6  0.000  0.500  0.462-  18 1.95  18 1.95  15 2.76  15 2.76  14 2.76  14 2.76
   7  0.500  0.500  0.538-  18 1.95  19 1.95  15 2.76  15 2.76  15 2.76  15 2.76
   8  0.500  0.000  0.614-  19 1.95  19 1.95  16 2.76  16 2.76  15 2.76  15 2.76
   9  0.000  0.500  0.614-  19 1.95  19 1.95  16 2.76  16 2.76  15 2.76  15 2.76
  10  0.500  0.500  0.690-  19 1.95  20 1.95  16 2.76  16 2.76  16 2.76  16 2.76
  11  0.500  0.000  0.766-  20 1.95  20 1.95  16 2.76  16 2.76
  12  0.000  0.500  0.766-  20 1.95  20 1.95  16 2.76  16 2.76
  13  0.000  0.000  0.234-   2 2.76   3 2.76   3 2.76   2 2.76   1 2.76   1 2.76   1 2.76   1 2.76
                            17 3.38  17 3.38  17 3.38  17 3.38  14 3.91
  14  0.000  0.000  0.386-   2 2.76   3 2.76   3 2.76   2 2.76   4 2.76   4 2.76   4 2.76   4 2.76
                             5 2.76   6 2.76   5 2.76   6 2.76  17 3.38  17 3.38  17 3.38  17 3.38
  15  0.000  0.000  0.538-   5 2.76   6 2.76   6 2.76   5 2.76   7 2.76   7 2.76   7 2.76   7 2.76
                             8 2.76   9 2.76   8 2.76   9 2.76  18 3.38  18 3.38  18 3.38  18 3.38
  16  0.000  0.000  0.690-   8 2.76   9 2.76  11 2.76  12 2.76   9 2.76  12 2.76   8 2.76  11 2.76
                            10 2.76  10 2.76  10 2.76  10 2.76  20 3.38  19 3.38  19 3.38  19 3.38
  17  0.500  0.500  0.310-   1 1.95   4 1.95   3 1.95   2 1.95   2 1.95   3 1.95  13 3.38  13 3.38
                            14 3.38  14 3.38  13 3.38  14 3.38  13 3.38  14 3.38
  18  0.500  0.500  0.462-   7 1.95   6 1.95   5 1.95   5 1.95   6 1.95   4 1.95  15 3.38  15 3.38
                            15 3.38  15 3.38  14 3.38  14 3.38  14 3.38  14 3.38
  19  0.500  0.500  0.614-  10 1.95   9 1.95   8 1.95   8 1.95   9 1.95   7 1.95  16 3.38  16 3.38
                            16 3.38  16 3.38  15 3.38  15 3.38  15 3.38  15 3.38
  20  0.500  0.500  0.766-  10 1.95  11 1.95  12 1.95  11 1.95  12 1.95  16 3.38  16 3.38  16 3.38
                            16 3.38
 
  LATTYP: Found a simple tetragonal cell.
 ALAT       =     3.9052680000
 C/A-ratio  =     6.5727724704
  
  Lattice vectors:
  
 A1 = (   3.9052680000,   0.0000000000,   0.0000000000)
 A2 = (   0.0000000000,   3.9052680000,   0.0000000000)
 A3 = (   0.0000000000,   0.0000000000,  25.6684380000)


Analysis of symmetry for initial positions (statically):
=====================================================================
 Subroutine PRICEL returns:
 Original cell was already a primitive cell.
 

 Routine SETGRP: Setting up the symmetry group for a 
 simple tetragonal supercell.


 Subroutine GETGRP returns: Found  8 space group operations
 (whereof  8 operations were pure point group operations)
 out of a pool of 16 trial point group operations.


The static configuration has the point symmetry C_4v.


Analysis of symmetry for dynamics (positions and initial velocities):
=====================================================================
 Subroutine PRICEL returns:
 Original cell was already a primitive cell.
 

 Routine SETGRP: Setting up the symmetry group for a 
 simple tetragonal supercell.


 Subroutine GETGRP returns: Found  8 space group operations
 (whereof  8 operations were pure point group operations)
 out of a pool of 16 trial point group operations.


The dynamic configuration has the point symmetry C_4v.


 Subroutine INISYM returns: Found  8 space group operations
 (whereof  8 operations are pure point group operations),
 and found     1 'primitive' translations

 
 
 KPOINTS: k-density: 4.0                          

Automatic generation of k-mesh.
Space group operators:
 irot       det(A)        alpha          n_x          n_y          n_z        tau_x        tau_y        tau_z
    1     1.000000     0.000000     1.000000     0.000000     0.000000     0.000000     0.000000     0.000000
    2     1.000000    90.000000     0.000000     0.000000    -1.000000     0.000000     0.000000     0.000000
    3     1.000000   180.000000     0.000000     0.000000     1.000000     0.000000     0.000000     0.000000
    4     1.000000    90.000000     0.000000     0.000000     1.000000     0.000000     0.000000     0.000000
    5    -1.000000   180.000000     0.000000     1.000000     0.000000     0.000000     0.000000     0.000000
    6    -1.000000   180.000000     0.707107     0.707107     0.000000     0.000000     0.000000     0.000000
    7    -1.000000   180.000000     1.000000     0.000000     0.000000     0.000000     0.000000     0.000000
    8    -1.000000   180.000000     0.707107    -0.707107     0.000000     0.000000     0.000000     0.000000
 
 Subroutine IBZKPT returns following result:
 ===========================================
 
 Found     10 irreducible k-points:
 
 Following reciprocal coordinates:
            Coordinates               Weight
  0.000000  0.000000  0.000000      1.000000
  0.142857  0.000000  0.000000      4.000000
  0.285714  0.000000  0.000000      4.000000
  0.428571  0.000000  0.000000      4.000000
  0.142857  0.142857  0.000000      4.000000
  0.285714  0.142857  0.000000      8.000000
  0.428571  0.142857  0.000000      8.000000
  0.285714  0.285714  0.000000      4.000000
  0.428571  0.285714  0.000000      8.000000
  0.428571  0.428571  0.000000      4.000000
 
 Following cartesian coordinates:
            Coordinates               Weight
  0.000000  0.000000  0.000000      1.000000
  0.036581  0.000000  0.000000      4.000000
  0.073161  0.000000  0.000000      4.000000
  0.109742  0.000000  0.000000      4.000000
  0.036581  0.036581  0.000000      4.000000
  0.073161  0.036581  0.000000      8.000000
  0.109742  0.036581  0.000000      8.000000
  0.073161  0.073161  0.000000      4.000000
  0.109742  0.073161  0.000000      8.000000
  0.109742  0.109742  0.000000      4.000000
 
 TETIRR: Found     65 inequivalent tetrahedra from      294


--------------------------------------------------------------------------------------------------------




 Dimension of arrays:
   k-points           NKPTS =     10   k-points in BZ     NKDIM =     10   number of bands    NBANDS=     76
   number of dos      NEDOS =    301   number of ions     NIONS =     20
   non local maximal  LDIM  =      6   non local SUM 2l+1 LMDIM =     18
   total plane-waves  NPLWV =  80640
   max r-space proj   IRMAX =      1   max aug-charges    IRDMAX=  14425
   dimension x,y,z NGX =    24 NGY =   24 NGZ =  140
   dimension x,y,z NGXF=    48 NGYF=   48 NGZF=  280
   support grid    NGXF=    48 NGYF=   48 NGZF=  280
   ions per type =              12   4   4
   NGX,Y,Z   is equivalent  to a cutoff of  10.22, 10.22,  9.07 a.u.
   NGXF,Y,Z  is equivalent  to a cutoff of  20.43, 20.43, 18.13 a.u.

 SYSTEM =  unknown system                          
 POSCAR =   O Sr Ti                                

 Startparameter for this run:
   NWRITE =      2    write-flag & timer
   PREC   = normal    normal or accurate (medium, high low for compatibility)
   ISTART =      0    job   : 0-new  1-cont  2-samecut
   ICHARG =      2    charge: 1-file 2-atom 10-const
   ISPIN  =      1    spin polarized calculation?
   LNONCOLLINEAR =      F non collinear calculations
   LSORBIT =      F    spin-orbit coupling
   INIWAV =      1    electr: 0-lowe 1-rand  2-diag
   LASPH  =      F    aspherical Exc in radial PAW
   METAGGA=      F    non-selfconsistent MetaGGA calc.

 Electronic Relaxation 1
   ENCUT  =  500.0 eV  36.75 Ry    6.06 a.u.   7.12  7.12 46.80*2*pi/ulx,y,z
   ENINI  =  500.0     initial cutoff
   ENAUG  =  605.4 eV  augmentation charge cutoff
   NELM   =     60;   NELMIN=  4; NELMDL= -5     # of ELM steps 
   EDIFF  = 0.1E-04   stopping-criterion for ELM
   LREAL  =      F    real-space projection
   NLSPLINE    = F    spline interpolate recip. space projectors
   LCOMPAT=      F    compatible to vasp.4.4
   GGA_COMPAT  = T    GGA compatible to vasp.4.4-vasp.4.6
   LMAXPAW     = -100 max onsite density
   LMAXMIX     =    2 max onsite mixed and CHGCAR
   VOSKOWN=      0    Vosko Wilk Nusair interpolation
   ROPT   =    0.00000   0.00000   0.00000
 Ionic relaxation
   EDIFFG = 0.1E-03   stopping-criterion for IOM
   NSW    =      0    number of steps for IOM
   NBLOCK =      1;   KBLOCK =      1    inner block; outer block 
   IBRION =     -1    ionic relax: 0-MD 1-quasi-New 2-CG
   NFREE  =      0    steps in history (QN), initial steepest desc. (CG)
   ISIF   =      2    stress and relaxation
   IWAVPR =     10    prediction:  0-non 1-charg 2-wave 3-comb
   ISYM   =      2    0-nonsym 1-usesym 2-fastsym
   LCORR  =      T    Harris-Foulkes like correction to forces

   POTIM  = 0.5000    time-step for ionic-motion
   TEIN   =    0.0    initial temperature
   TEBEG  =    0.0;   TEEND  =   0.0 temperature during run
   SMASS  =  -3.00    Nose mass-parameter (am)
   estimated Nose-frequenzy (Omega)   =  0.10E-29 period in steps =****** mass=  -0.349E-27a.u.
   SCALEE = 1.0000    scale energy and forces
   NPACO  =    256;   APACO  = 16.0  distance and # of slots for P.C.
   PSTRESS=    0.0 pullay stress

  Mass of Ions in am
   POMASS =  16.00 87.62 47.88
  Ionic Valenz
   ZVAL   =   6.00 10.00  4.00
  Atomic Wigner-Seitz radii
   RWIGS  =  -1.00 -1.00 -1.00
  virtual crystal weights 
   VCA    =   1.00  1.00  1.00
   NELECT =     128.0000    total number of electrons
   NUPDOWN=      -1.0000    fix difference up-down

 DOS related values:
   EMIN   =  10.00;   EMAX   =-10.00  energy-range for DOS
   EFERMI =   0.00
   ISMEAR =    -5;   SIGMA  =   0.20  broadening in eV -4-tet -1-fermi 0-gaus

 Electronic relaxation 2 (details)
   IALGO  =     68    algorithm
   LDIAG  =      T    sub-space diagonalisation (order eigenvalues)
   LSUBROT=      F    optimize rotation matrix (better conditioning)
   TURBO    =      0    0=normal 1=particle mesh
   IRESTART =      0    0=no restart 2=restart with 2 vectors
   NREBOOT  =      0    no. of reboots
   NMIN     =      0    reboot dimension
   EREF     =   0.00    reference energy to select bands
   IMIX   =      4    mixing-type and parameters
     AMIX     =   0.40;   BMIX     =  1.00
     AMIX_MAG =   1.60;   BMIX_MAG =  1.00
     AMIN     =   0.10
     WC   =   100.;   INIMIX=   1;  MIXPRE=   1;  MAXMIX= -45

 Intra band minimization:
   WEIMIN = 0.0000     energy-eigenvalue tresh-hold
   EBREAK =  0.33E-07  absolut break condition
   DEPER  =   0.30     relativ break condition  

   TIME   =   0.40     timestep for ELM

  volume/ion in A,a.u.               =      19.57       132.09
  Fermi-wavevector in a.u.,A,eV,Ry     =   1.127832  2.131294 17.306682  1.272005
  Thomas-Fermi vector in A             =   2.264520
 
 Write flags
   LWAVE        =      F    write WAVECAR
   LDOWNSAMPLE  =      F    k-point downsampling of WAVECAR
   LCHARG       =      T    write CHGCAR
   LVTOT        =      F    write LOCPOT, total local potential
   LVHAR        =      F    write LOCPOT, Hartree potential only
   LELF         =      F    write electronic localiz. function (ELF)
   LORBIT       =      0    0 simple, 1 ext, 2 COOP (PROOUT), +10 PAW based schemes


 Dipole corrections
   LMONO  =      F    monopole corrections only (constant potential shift)
   LDIPOL =      F    correct potential (dipole corrections)
   IDIPOL =      0    1-x, 2-y, 3-z, 4-all directions 
   EPSILON=  1.0000000 bulk dielectric constant

 Exchange correlation treatment:
   GGA     =    --    GGA type
   LEXCH   =     8    internal setting for exchange type
   VOSKOWN=      0    Vosko Wilk Nusair interpolation
   LHFCALC =     F    Hartree Fock is set to
   LHFONE  =     F    Hartree Fock one center treatment
   AEXX    =    0.0000 exact exchange contribution

 Linear response parameters
   LEPSILON=     F    determine dielectric tensor
   LRPA    =     F    only Hartree local field effects (RPA)
   LNABLA  =     F    use nabla operator in PAW spheres
   LVEL    =     F    velocity operator in full k-point grid
   LINTERFAST=   F  fast interpolation
   KINTER  =     0    interpolate to denser k-point grid
   CSHIFT  =0.1000    complex shift for real part using Kramers Kronig
   OMEGAMAX=  -1.0    maximum frequency
   DEG_THRESHOLD= 0.2000000E-02 threshold for treating states as degnerate
   RTIME   =   -0.100 relaxation time in fs
  (WPLASMAI=    0.000 imaginary part of plasma frequency in eV, 0.658/RTIME)
   DFIELD  = 0.0000000 0.0000000 0.0000000 field for delta impulse in time
 
 Orbital magnetization related:
   ORBITALMAG=     F  switch on orbital magnetization
   LCHIMAG   =     F  perturbation theory with respect to B field
   DQ        =  0.001000  dq finite difference perturbation B field
   LLRAUG    =     F  two centre corrections for induced B field



--------------------------------------------------------------------------------------------------------


 Static calculation
 charge density and potential will be updated during run
 non-spin polarized calculation
 RMM-DIIS sequential band-by-band and
  variant of blocked Davidson during initial phase
 perform sub-space diagonalisation
    before iterative eigenvector-optimisation
 modified Broyden-mixing scheme, WC =      100.0
 initial mixing is a Kerker type mixing with AMIX =  0.4000 and BMIX =      1.0000
 Hartree-type preconditioning will be used
 using additional bands           12
 reciprocal scheme for non local part
 use partial core corrections
 calculate Harris-corrections to forces 
   (improved forces if not selfconsistent)
 use gradient corrections 
 use of overlap-Matrix (Vanderbilt PP)
 Fermi weights with tetrahedron method with Bloechl corrections


--------------------------------------------------------------------------------------------------------


  energy-cutoff  :      500.00
  volume of cell :      391.47
      direct lattice vectors                 reciprocal lattice vectors
     3.905268000  0.000000000  0.000000000     0.256064373  0.000000000  0.000000000
     0.000000000  3.905268000  0.000000000     0.000000000  0.256064373  0.000000000
     0.000000000  0.000000000 25.668438000     0.000000000  0.000000000  0.038958350

  length of vectors
     3.905268000  3.905268000 25.668438000     0.256064373  0.256064373  0.038958350


 
 k-points in units of 2pi/SCALE and weight: k-density: 4.0                          
   0.00000000  0.00000000  0.00000000       0.020
   0.03658062  0.00000000  0.00000000       0.082
   0.07316125  0.00000000  0.00000000       0.082
   0.10974187  0.00000000  0.00000000       0.082
   0.03658062  0.03658062  0.00000000       0.082
   0.07316125  0.03658062  0.00000000       0.163
   0.10974187  0.03658062  0.00000000       0.163
   0.07316125  0.07316125  0.00000000       0.082
   0.10974187  0.07316125  0.00000000       0.163
   0.10974187  0.10974187  0.00000000       0.082
 
 k-points in reciprocal lattice and weights: k-density: 4.0                          
   0.00000000  0.00000000  0.00000000       0.020
   0.14285714  0.00000000  0.00000000       0.082
   0.28571429  0.00000000  0.00000000       0.082
   0.42857143  0.00000000  0.00000000       0.082
   0.14285714  0.14285714  0.00000000       0.082
   0.28571429  0.14285714  0.00000000       0.163
   0.42857143  0.14285714  0.00000000       0.163
   0.28571429  0.28571429  0.00000000       0.082
   0.42857143  0.28571429  0.00000000       0.163
   0.42857143  0.42857143  0.00000000       0.082
 
 position of ions in fractional coordinates (direct lattice) 
   0.50000000  0.50000000  0.23375010
   0.50000000  0.00000000  0.30982150
   0.00000000  0.50000000  0.30982150
   0.50000000  0.50000000  0.38589290
   0.50000000  0.00000000  0.46196430
   0.00000000  0.50000000  0.46196430
   0.50000000  0.50000000  0.53803570
   0.50000000  0.00000000  0.61410710
   0.00000000  0.50000000  0.61410710
   0.50000000  0.50000000  0.69017850
   0.50000000  0.00000000  0.76624990
   0.00000000  0.50000000  0.76624990
   0.00000000  0.00000000  0.23375010
   0.00000000  0.00000000  0.38589290
   0.00000000  0.00000000  0.53803570
   0.00000000  0.00000000  0.69017850
   0.50000000  0.50000000  0.30982150
   0.50000000  0.50000000  0.46196430
   0.50000000  0.50000000  0.61410710
   0.50000000  0.50000000  0.76624990
 
 position of ions in cartesian coordinates  (Angst):
   1.95263400  1.95263400  6.00000000
   1.95263400  0.00000000  7.95263400
   0.00000000  1.95263400  7.95263400
   1.95263400  1.95263400  9.90526800
   1.95263400  0.00000000 11.85790200
   0.00000000  1.95263400 11.85790200
   1.95263400  1.95263400 13.81053600
   1.95263400  0.00000000 15.76317000
   0.00000000  1.95263400 15.76317000
   1.95263400  1.95263400 17.71580400
   1.95263400  0.00000000 19.66843800
   0.00000000  1.95263400 19.66843800
   0.00000000  0.00000000  6.00000000
   0.00000000  0.00000000  9.90526800
   0.00000000  0.00000000 13.81053600
   0.00000000  0.00000000 17.71580400
   1.95263400  1.95263400  7.95263400
   1.95263400  1.95263400 11.85790200
   1.95263400  1.95263400 15.76317000
   1.95263400  1.95263400 19.66843800
 


--------------------------------------------------------------------------------------------------------


 k-point  1 :   0.0000 0.0000 0.0000  plane waves:    9877
 k-point  2 :   0.1429 0.0000 0.0000  plane waves:    9878
 k-point  3 :   0.2857 0.0000 0.0000  plane waves:    9950
 k-point  4 :   0.4286 0.0000 0.0000  plane waves:    9962
 k-point  5 :   0.1429 0.1429 0.0000  plane waves:    9898
 k-point  6 :   0.2857 0.1429 0.0000  plane waves:    9955
 k-point  7 :   0.4286 0.1429 0.0000  plane waves:    9953
 k-point  8 :   0.2857 0.2857 0.0000  plane waves:    9946
 k-point  9 :   0.4286 0.2857 0.0000  plane waves:    9948
 k-point 10 :   0.4286 0.4286 0.0000  plane waves:    9952

 maximum and minimum number of plane-waves per node :      4990     4921

 maximum number of plane-waves:      9962
 maximum index in each direction: 
   IXMAX=    7   IYMAX=    7   IZMAX=   46
   IXMIN=   -7   IYMIN=   -7   IZMIN=  -46


 parallel 3D FFT for wavefunctions:
    minimum data exchange during FFTs selected (reduces bandwidth)
 parallel 3D FFT for charge:
    minimum data exchange during FFTs selected (reduces bandwidth)


 total amount of memory used by VASP MPI-rank0   103002. kBytes
=======================================================================

   base      :      30000. kBytes
   nonl-proj :      23153. kBytes
   fftplans  :       6668. kBytes
   grid      :      11994. kBytes
   one-center:        155. kBytes
   wavefun   :      31032. kBytes
 
     INWAV:  cpu time    0.0010: real time    0.0003
 Broyden mixing: mesh for mixing (old mesh)
   NGX = 15   NGY = 15   NGZ = 93
  (NGX  = 48   NGY  = 48   NGZ  =280)
  gives a total of  20925 points

 initial charge density was supplied:
 charge density of overlapping atoms calculated
 number of electron     128.0000000 magnetization 
 keeping initial charge density in first step


--------------------------------------------------------------------------------------------------------


 Maximum index for augmentation-charges         3446 (set IRDMAX)


--------------------------------------------------------------------------------------------------------


 First call to EWALD:  gamma=   0.242
 Maximum number of real-space cells 5x 5x 1
 Maximum number of reciprocal cells 2x 2x 8

    FEWALD:  cpu time    0.0020: real time    0.0022


--------------------------------------- Iteration      1(   1)  ---------------------------------------


    POTLOK:  cpu time    0.0940: real time    0.1209
    SETDIJ:  cpu time    0.0110: real time    0.0122
     EDDAV:  cpu time    4.9452: real time    4.9564
 BZINTS: Fermi energy: 15.482834;128.000000 electrons
         Band energy: 158.727544;  BLOECHL correction: -0.041104
       DOS:  cpu time    0.0060: real time    0.0062
    --------------------------------------------
      LOOP:  cpu time    5.0562: real time    5.0957

 eigenvalue-minimisations  :  1528
 total energy-change (2. order) : 0.1618076E+04  (-0.5603736E+04)
 number of electron     128.0000000 magnetization 
 augmentation part      128.0000000 magnetization 

 Free energy of the ion-electron system (eV)
  ---------------------------------------------------
  alpha Z        PSCENC =       451.31605171
  Ewald energy   TEWEN  =     24913.70541863
  -Hartree energ DENC   =    -33364.93616084
  -exchange      EXHF   =         0.00000000
  -V(xc)+E(xc)   XCENC  =       326.68052994
  PAW double counting   =      5334.45189010    -5139.13784255
  entropy T*S    EENTRO =         0.00000000
  eigenvalues    EBANDS =       158.72754386
  atomic energy  EATOM  =      8937.26825017
  Solvation  Ediel_sol  =         0.00000000
  ---------------------------------------------------
  free energy    TOTEN  =      1618.07568102 eV

  energy without entropy =     1618.07568102  energy(sigma->0) =     1618.07568102


--------------------------------------------------------------------------------------------------------




--------------------------------------- Iteration      1(   2)  ---------------------------------------


     EDDAV:  cpu time    5.9071: real time    5.9099
 BZINTS: Fermi energy:  5.005115;128.000000 electrons
         Band energy:***********;  BLOECHL correction: -0.093112
       DOS:  cpu time    0.0050: real time    0.0054
    --------------------------------------------
      LOOP:  cpu time    5.9121: real time    5.9153

 eigenvalue-minimisations  :  1808
 total energy-change (2. order) :-0.1438770E+04  (-0.1382735E+04)
 number of electron     128.0000000 magnetization 
 augmentation part      128.0000000 magnetization 

 Free energy of the ion-electron system (eV)
  ---------------------------------------------------
  alpha Z        PSCENC =       451.31605171
  Ewald energy   TEWEN  =     24913.70541863
  -Hartree energ DENC   =    -33364.93616084
  -exchange      EXHF   =         0.00000000
  -V(xc)+E(xc)   XCENC  =       326.68052994
  PAW double counting   =      5334.45189010    -5139.13784255
  entropy T*S    EENTRO =         0.00000000
  eigenvalues    EBANDS =     -1280.04291595
  atomic energy  EATOM  =      8937.26825017
  Solvation  Ediel_sol  =         0.00000000
  ---------------------------------------------------
  free energy    TOTEN  =       179.30522121 eV

  energy without entropy =      179.30522121  energy(sigma->0) =      179.30522121


--------------------------------------------------------------------------------------------------------




--------------------------------------- Iteration      1(   3)  ---------------------------------------


     EDDAV:  cpu time    6.5430: real time    6.5473
 BZINTS: Fermi energy: -2.415611;128.000000 electrons
         Band energy:***********;  BLOECHL correction:  0.000000
       DOS:  cpu time    0.0010: real time    0.0015
    --------------------------------------------
      LOOP:  cpu time    6.5440: real time    6.5487

 eigenvalue-minimisations  :  2060
 total energy-change (2. order) :-0.3542385E+03  (-0.3448961E+03)
 number of electron     128.0000000 magnetization 
 augmentation part      128.0000000 magnetization 

 Free energy of the ion-electron system (eV)
  ---------------------------------------------------
  alpha Z        PSCENC =       451.31605171
  Ewald energy   TEWEN  =     24913.70541863
  -Hartree energ DENC   =    -33364.93616084
  -exchange      EXHF   =         0.00000000
  -V(xc)+E(xc)   XCENC  =       326.68052994
  PAW double counting   =      5334.45189010    -5139.13784255
  entropy T*S    EENTRO =         0.00000000
  eigenvalues    EBANDS =     -1634.28139071
  atomic energy  EATOM  =      8937.26825017
  Solvation  Ediel_sol  =         0.00000000
  ---------------------------------------------------
  free energy    TOTEN  =      -174.93325355 eV

  energy without entropy =     -174.93325355  energy(sigma->0) =     -174.93325355


--------------------------------------------------------------------------------------------------------




--------------------------------------- Iteration      1(   4)  ---------------------------------------


     EDDAV:  cpu time    6.4450: real time    6.4502
 BZINTS: Fermi energy: -4.242503;128.000000 electrons
         Band energy:***********;  BLOECHL correction:  0.000000
       DOS:  cpu time    0.0010: real time    0.0011
    --------------------------------------------
      LOOP:  cpu time    6.4460: real time    6.4513

 eigenvalue-minimisations  :  2016
 total energy-change (2. order) :-0.2541357E+02  (-0.2533497E+02)
 number of electron     128.0000000 magnetization 
 augmentation part      128.0000000 magnetization 

 Free energy of the ion-electron system (eV)
  ---------------------------------------------------
  alpha Z        PSCENC =       451.31605171
  Ewald energy   TEWEN  =     24913.70541863
  -Hartree energ DENC   =    -33364.93616084
  -exchange      EXHF   =         0.00000000
  -V(xc)+E(xc)   XCENC  =       326.68052994
  PAW double counting   =      5334.45189010    -5139.13784255
  entropy T*S    EENTRO =         0.00000000
  eigenvalues    EBANDS =     -1659.69495650
  atomic energy  EATOM  =      8937.26825017
  Solvation  Ediel_sol  =         0.00000000
  ---------------------------------------------------
  free energy    TOTEN  =      -200.34681934 eV

  energy without entropy =     -200.34681934  energy(sigma->0) =     -200.34681934


--------------------------------------------------------------------------------------------------------




--------------------------------------- Iteration      1(   5)  ---------------------------------------


     EDDAV:  cpu time    7.8758: real time    7.8798
 BZINTS: Fermi energy: -4.229034;128.000000 electrons
         Band energy:***********;  BLOECHL correction:  0.000000
       DOS:  cpu time    0.0020: real time    0.0012
    CHARGE:  cpu time    0.2060: real time    0.2063
    MIXING:  cpu time    0.0040: real time    0.0039
    --------------------------------------------
      LOOP:  cpu time    8.0878: real time    8.0912

 eigenvalue-minimisations  :  2592
 total energy-change (2. order) :-0.1407397E+01  (-0.1406718E+01)
 number of electron     127.9999793 magnetization 
 augmentation part       13.6903308 magnetization 

 Broyden mixing:
  rms(total) = 0.37112E+01    rms(broyden)= 0.37107E+01
  rms(prec ) = 0.39614E+01
  weight for this iteration     100.00

 Free energy of the ion-electron system (eV)
  ---------------------------------------------------
  alpha Z        PSCENC =       451.31605171
  Ewald energy   TEWEN  =     24913.70541863
  -Hartree energ DENC   =    -33364.93616084
  -exchange      EXHF   =         0.00000000
  -V(xc)+E(xc)   XCENC  =       326.68052994
  PAW double counting   =      5334.45189010    -5139.13784255
  entropy T*S    EENTRO =         0.00000000
  eigenvalues    EBANDS =     -1661.10235380
  atomic energy  EATOM  =      8937.26825017
  Solvation  Ediel_sol  =         0.00000000
  ---------------------------------------------------
  free energy    TOTEN  =      -201.75421663 eV

  energy without entropy =     -201.75421663  energy(sigma->0) =     -201.75421663


--------------------------------------------------------------------------------------------------------




--------------------------------------- Iteration      1(   6)  ---------------------------------------


    POTLOK:  cpu time    0.1010: real time    0.1066
    SETDIJ:  cpu time    0.0110: real time    0.0105
    EDDIAG:  cpu time    0.5649: real time    0.5657
  RMM-DIIS:  cpu time    4.2544: real time    4.2529
    ORTHCH:  cpu time    0.0850: real time    0.0856
 BZINTS: Fermi energy: -0.048355;128.000000 electrons
         Band energy:***********;  BLOECHL correction: -0.043851
       DOS:  cpu time    0.0060: real time    0.0056
    CHARGE:  cpu time    0.2090: real time    0.2092
    MIXING:  cpu time    0.0030: real time    0.0210
    --------------------------------------------
      LOOP:  cpu time    5.2342: real time    5.2570

 eigenvalue-minimisations  :  1671
 total energy-change (2. order) : 0.4049001E+02  (-0.2854329E+02)
 number of electron     127.9999847 magnetization 
 augmentation part       14.2672648 magnetization 

 Broyden mixing:
  rms(total) = 0.13640E+01    rms(broyden)= 0.13629E+01
  rms(prec ) = 0.14340E+01
  weight for this iteration     100.00

 eigenvalues of (default mixing * dielectric matrix)
  average eigenvalue GAMMA=   0.7732
  0.7732

 Free energy of the ion-electron system (eV)
  ---------------------------------------------------
  alpha Z        PSCENC =       451.31605171
  Ewald energy   TEWEN  =     24913.70541863
  -Hartree energ DENC   =    -33647.32518601
  -exchange      EXHF   =         0.00000000
  -V(xc)+E(xc)   XCENC  =       346.47014421
  PAW double counting   =      5952.53119897    -5770.33266764
  entropy T*S    EENTRO =         0.00000000
  eigenvalues    EBANDS =     -1344.89741908
  atomic energy  EATOM  =      8937.26825017
  Solvation  Ediel_sol  =         0.00000000
  ---------------------------------------------------
  free energy    TOTEN  =      -161.26420903 eV

  energy without entropy =     -161.26420903  energy(sigma->0) =     -161.26420903


--------------------------------------------------------------------------------------------------------




--------------------------------------- Iteration      1(   7)  ---------------------------------------


    POTLOK:  cpu time    0.1010: real time    0.1028
    SETDIJ:  cpu time    0.0110: real time    0.0106
    EDDIAG:  cpu time    0.5709: real time    0.5718
  RMM-DIIS:  cpu time    4.6633: real time    4.6628
    ORTHCH:  cpu time    0.0850: real time    0.0863
 BZINTS: Fermi energy: -0.969902;128.000000 electrons
         Band energy:***********;  BLOECHL correction:  0.000000
       DOS:  cpu time    0.0020: real time    0.0012
    CHARGE:  cpu time    0.2030: real time    0.2034
    MIXING:  cpu time    0.0040: real time    0.0036
    --------------------------------------------
      LOOP:  cpu time    5.6401: real time    5.6426

 eigenvalue-minimisations  :  1828
 total energy-change (2. order) : 0.3582368E+01  (-0.1267586E+01)
 number of electron     127.9999842 magnetization 
 augmentation part       13.5816017 magnetization 

 Broyden mixing:
  rms(total) = 0.71111E+00    rms(broyden)= 0.71105E+00
  rms(prec ) = 0.74038E+00
  weight for this iteration     100.00

 eigenvalues of (default mixing * dielectric matrix)
  average eigenvalue GAMMA=   1.0545
  0.9118  1.1972

 Free energy of the ion-electron system (eV)
  ---------------------------------------------------
  alpha Z        PSCENC =       451.31605171
  Ewald energy   TEWEN  =     24913.70541863
  -Hartree energ DENC   =    -33657.47981455
  -exchange      EXHF   =         0.00000000
  -V(xc)+E(xc)   XCENC  =       342.83697802
  PAW double counting   =      5978.16399886    -5800.93114672
  entropy T*S    EENTRO =         0.00000000
  eigenvalues    EBANDS =     -1322.56157746
  atomic energy  EATOM  =      8937.26825017
  Solvation  Ediel_sol  =         0.00000000
  ---------------------------------------------------
  free energy    TOTEN  =      -157.68184133 eV

  energy without entropy =     -157.68184133  energy(sigma->0) =     -157.68184133


--------------------------------------------------------------------------------------------------------




--------------------------------------- Iteration      1(   8)  ---------------------------------------


    POTLOK:  cpu time    0.1010: real time    0.1031
    SETDIJ:  cpu time    0.0110: real time    0.0105
    EDDIAG:  cpu time    0.5699: real time    0.5705
  RMM-DIIS:  cpu time    5.2592: real time    5.2593
    ORTHCH:  cpu time    0.0870: real time    0.0871
 BZINTS: Fermi energy: -0.632724;128.000000 electrons
         Band energy:***********;  BLOECHL correction:  0.000000
       DOS:  cpu time    0.0000: real time    0.0012
    CHARGE:  cpu time    0.2070: real time    0.2059
    MIXING:  cpu time    0.0040: real time    0.0036
    --------------------------------------------
      LOOP:  cpu time    6.2391: real time    6.2412

 eigenvalue-minimisations  :  2065
 total energy-change (2. order) : 0.7217864E+00  (-0.3134192E+00)
 number of electron     127.9999841 magnetization 
 augmentation part       13.7618651 magnetization 

 Broyden mixing:
  rms(total) = 0.31856E+00    rms(broyden)= 0.31854E+00
  rms(prec ) = 0.33901E+00
  weight for this iteration     100.00

 eigenvalues of (default mixing * dielectric matrix)
  average eigenvalue GAMMA=   1.2745
  2.2003  0.9095  0.7136

 Free energy of the ion-electron system (eV)
  ---------------------------------------------------
  alpha Z        PSCENC =       451.31605171
  Ewald energy   TEWEN  =     24913.70541863
  -Hartree energ DENC   =    -33673.63948541
  -exchange      EXHF   =         0.00000000
  -V(xc)+E(xc)   XCENC  =       342.48159796
  PAW double counting   =      6072.86866036    -5899.77744580
  entropy T*S    EENTRO =         0.00000000
  eigenvalues    EBANDS =     -1301.18310252
  atomic energy  EATOM  =      8937.26825017
  Solvation  Ediel_sol  =         0.00000000
  ---------------------------------------------------
  free energy    TOTEN  =      -156.96005490 eV

  energy without entropy =     -156.96005490  energy(sigma->0) =     -156.96005490


--------------------------------------------------------------------------------------------------------




--------------------------------------- Iteration      1(   9)  ---------------------------------------


    POTLOK:  cpu time    0.1020: real time    0.1040
    SETDIJ:  cpu time    0.0100: real time    0.0106
    EDDIAG:  cpu time    0.5759: real time    0.5752
  RMM-DIIS:  cpu time    5.3562: real time    5.3571
    ORTHCH:  cpu time    0.0810: real time    0.0814
 BZINTS: Fermi energy: -0.151212;128.000000 electrons
         Band energy:***********;  BLOECHL correction:  0.000000
       DOS:  cpu time    0.0010: real time    0.0012
    CHARGE:  cpu time    0.2000: real time    0.1997
    MIXING:  cpu time    0.0040: real time    0.0040
    --------------------------------------------
      LOOP:  cpu time    6.3300: real time    6.3332

 eigenvalue-minimisations  :  2091
 total energy-change (2. order) : 0.2070270E+00  (-0.1295976E+00)
 number of electron     127.9999838 magnetization 
 augmentation part       13.7872581 magnetization 

 Broyden mixing:
  rms(total) = 0.99370E-01    rms(broyden)= 0.99296E-01
  rms(prec ) = 0.11760E+00
  weight for this iteration     100.00

 eigenvalues of (default mixing * dielectric matrix)
  average eigenvalue GAMMA=   1.1797
  2.2431  0.8686  0.8686  0.7383

 Free energy of the ion-electron system (eV)
  ---------------------------------------------------
  alpha Z        PSCENC =       451.31605171
  Ewald energy   TEWEN  =     24913.70541863
  -Hartree energ DENC   =    -33700.31027320
  -exchange      EXHF   =         0.00000000
  -V(xc)+E(xc)   XCENC  =       342.15991386
  PAW double counting   =      6172.41334365    -6003.04155174
  entropy T*S    EENTRO =         0.00000000
  eigenvalues    EBANDS =     -1270.26418103
  atomic energy  EATOM  =      8937.26825017
  Solvation  Ediel_sol  =         0.00000000
  ---------------------------------------------------
  free energy    TOTEN  =      -156.75302794 eV

  energy without entropy =     -156.75302794  energy(sigma->0) =     -156.75302794


--------------------------------------------------------------------------------------------------------




--------------------------------------- Iteration      1(  10)  ---------------------------------------


    POTLOK:  cpu time    0.0940: real time    0.0954
    SETDIJ:  cpu time    0.0110: real time    0.0102
    EDDIAG:  cpu time    0.5529: real time    0.5528
  RMM-DIIS:  cpu time    6.2720: real time    6.2726
    ORTHCH:  cpu time    0.0880: real time    0.0878
 BZINTS: Fermi energy: -0.024976;128.000000 electrons
         Band energy:***********;  BLOECHL correction:  0.000000
       DOS:  cpu time    0.0010: real time    0.0014
    CHARGE:  cpu time    0.2060: real time    0.2054
    MIXING:  cpu time    0.0040: real time    0.0041
    --------------------------------------------
      LOOP:  cpu time    7.2289: real time    7.2299

 eigenvalue-minimisations  :  2428
 total energy-change (2. order) : 0.3905865E-01  (-0.2316193E-01)
 number of electron     127.9999839 magnetization 
 augmentation part       13.7358679 magnetization 

 Broyden mixing:
  rms(total) = 0.61936E-01    rms(broyden)= 0.61929E-01
  rms(prec ) = 0.77272E-01
  weight for this iteration     100.00

 eigenvalues of (default mixing * dielectric matrix)
  average eigenvalue GAMMA=   1.2183
  2.0540  1.6050  0.9989  0.7557  0.6779

 Free energy of the ion-electron system (eV)
  ---------------------------------------------------
  alpha Z        PSCENC =       451.31605171
  Ewald energy   TEWEN  =     24913.70541863
  -Hartree energ DENC   =    -33717.74429252
  -exchange      EXHF   =         0.00000000
  -V(xc)+E(xc)   XCENC  =       342.50904692
  PAW double counting   =      6193.06814443    -6024.10813768
  entropy T*S    EENTRO =         0.00000000
  eigenvalues    EBANDS =     -1252.72845095
  atomic energy  EATOM  =      8937.26825017
  Solvation  Ediel_sol  =         0.00000000
  ---------------------------------------------------
  free energy    TOTEN  =      -156.71396929 eV

  energy without entropy =     -156.71396929  energy(sigma->0) =     -156.71396929


--------------------------------------------------------------------------------------------------------




--------------------------------------- Iteration      1(  11)  ---------------------------------------


    POTLOK:  cpu time    0.1010: real time    0.1050
    SETDIJ:  cpu time    0.0110: real time    0.0106
    EDDIAG:  cpu time    0.5389: real time    0.5401
  RMM-DIIS:  cpu time    5.8491: real time    5.8486
    ORTHCH:  cpu time    0.0830: real time    0.0829
 BZINTS: Fermi energy:  0.143879;128.000000 electrons
         Band energy:***********;  BLOECHL correction:  0.000000
       DOS:  cpu time    0.0010: real time    0.0012
    CHARGE:  cpu time    0.2010: real time    0.2007
    MIXING:  cpu time    0.0040: real time    0.0040
    --------------------------------------------
      LOOP:  cpu time    6.7890: real time    6.7930

 eigenvalue-minimisations  :  2289
 total energy-change (2. order) : 0.2195384E-01  (-0.1672535E-01)
 number of electron     127.9999840 magnetization 
 augmentation part       13.6694916 magnetization 

 Broyden mixing:
  rms(total) = 0.41131E-01    rms(broyden)= 0.41115E-01
  rms(prec ) = 0.52733E-01
  weight for this iteration     100.00

 eigenvalues of (default mixing * dielectric matrix)
  average eigenvalue GAMMA=   1.3138
  2.3179  2.3179  0.9229  0.9229  0.7621  0.6393

 Free energy of the ion-electron system (eV)
  ---------------------------------------------------
  alpha Z        PSCENC =       451.31605171
  Ewald energy   TEWEN  =     24913.70541863
  -Hartree energ DENC   =    -33738.78783599
  -exchange      EXHF   =         0.00000000
  -V(xc)+E(xc)   XCENC  =       342.90882660
  PAW double counting   =      6208.30734150    -6039.31112791
  entropy T*S    EENTRO =         0.00000000
  eigenvalues    EBANDS =     -1232.09894016
  atomic energy  EATOM  =      8937.26825017
  Solvation  Ediel_sol  =         0.00000000
  ---------------------------------------------------
  free energy    TOTEN  =      -156.69201545 eV

  energy without entropy =     -156.69201545  energy(sigma->0) =     -156.69201545


--------------------------------------------------------------------------------------------------------




--------------------------------------- Iteration      1(  12)  ---------------------------------------


    POTLOK:  cpu time    0.0980: real time    0.0993
    SETDIJ:  cpu time    0.0110: real time    0.0104
    EDDIAG:  cpu time    0.5649: real time    0.5654
  RMM-DIIS:  cpu time    6.1551: real time    6.1548
    ORTHCH:  cpu time    0.0860: real time    0.0874
 BZINTS: Fermi energy:  0.360198;128.000000 electrons
         Band energy:***********;  BLOECHL correction:  0.000000
       DOS:  cpu time    0.0020: real time    0.0014
    CHARGE:  cpu time    0.2080: real time    0.2087
    MIXING:  cpu time    0.0050: real time    0.0041
    --------------------------------------------
      LOOP:  cpu time    7.1299: real time    7.1314

 eigenvalue-minimisations  :  2429
 total energy-change (2. order) : 0.1274366E-01  (-0.5098936E-02)
 number of electron     127.9999839 magnetization 
 augmentation part       13.6363358 magnetization 

 Broyden mixing:
  rms(total) = 0.30078E-01    rms(broyden)= 0.30073E-01
  rms(prec ) = 0.38300E-01
  weight for this iteration     100.00

 eigenvalues of (default mixing * dielectric matrix)
  average eigenvalue GAMMA=   1.2571
  2.3437  2.2674  1.0017  1.0017  0.8221  0.7165  0.6470

 Free energy of the ion-electron system (eV)
  ---------------------------------------------------
  alpha Z        PSCENC =       451.31605171
  Ewald energy   TEWEN  =     24913.70541863
  -Hartree energ DENC   =    -33752.09468888
  -exchange      EXHF   =         0.00000000
  -V(xc)+E(xc)   XCENC  =       342.98196889
  PAW double counting   =      6212.20138916    -6042.98339412
  entropy T*S    EENTRO =         0.00000000
  eigenvalues    EBANDS =     -1219.07426735
  atomic energy  EATOM  =      8937.26825017
  Solvation  Ediel_sol  =         0.00000000
  ---------------------------------------------------
  free energy    TOTEN  =      -156.67927179 eV

  energy without entropy =     -156.67927179  energy(sigma->0) =     -156.67927179


--------------------------------------------------------------------------------------------------------




--------------------------------------- Iteration      1(  13)  ---------------------------------------


    POTLOK:  cpu time    0.1020: real time    0.1078
    SETDIJ:  cpu time    0.0120: real time    0.0107
    EDDIAG:  cpu time    0.5799: real time    0.5813
  RMM-DIIS:  cpu time    6.3330: real time    6.3325
    ORTHCH:  cpu time    0.0870: real time    0.0874
 BZINTS: Fermi energy:  0.413919;128.000000 electrons
         Band energy:***********;  BLOECHL correction:  0.000000
       DOS:  cpu time    0.0010: real time    0.0014
    CHARGE:  cpu time    0.2080: real time    0.2076
    MIXING:  cpu time    0.0050: real time    0.0045
    --------------------------------------------
      LOOP:  cpu time    7.3279: real time    7.3332

 eigenvalue-minimisations  :  2512
 total energy-change (2. order) : 0.5529082E-02  (-0.2166033E-02)
 number of electron     127.9999839 magnetization 
 augmentation part       13.6510990 magnetization 

 Broyden mixing:
  rms(total) = 0.16418E-01    rms(broyden)= 0.16415E-01
  rms(prec ) = 0.24560E-01
  weight for this iteration     100.00

 eigenvalues of (default mixing * dielectric matrix)
  average eigenvalue GAMMA=   1.4321
  2.8966  2.8966  1.4306  1.0518  0.9135  0.9135  0.7025  0.6513

 Free energy of the ion-electron system (eV)
  ---------------------------------------------------
  alpha Z        PSCENC =       451.31605171
  Ewald energy   TEWEN  =     24913.70541863
  -Hartree energ DENC   =    -33757.17610792
  -exchange      EXHF   =         0.00000000
  -V(xc)+E(xc)   XCENC  =       342.96088893
  PAW double counting   =      6212.15084005    -6042.85178083
  entropy T*S    EENTRO =         0.00000000
  eigenvalues    EBANDS =     -1214.04730346
  atomic energy  EATOM  =      8937.26825017
  Solvation  Ediel_sol  =         0.00000000
  ---------------------------------------------------
  free energy    TOTEN  =      -156.67374271 eV

  energy without entropy =     -156.67374271  energy(sigma->0) =     -156.67374271


--------------------------------------------------------------------------------------------------------




--------------------------------------- Iteration      1(  14)  ---------------------------------------


    POTLOK:  cpu time    0.1020: real time    0.1057
    SETDIJ:  cpu time    0.0110: real time    0.0109
    EDDIAG:  cpu time    0.5799: real time    0.5803
  RMM-DIIS:  cpu time    5.8501: real time    5.8491
    ORTHCH:  cpu time    0.0880: real time    0.0877
 BZINTS: Fermi energy:  0.539406;128.000000 electrons
         Band energy:***********;  BLOECHL correction:  0.000000
       DOS:  cpu time    0.0010: real time    0.0013
    CHARGE:  cpu time    0.2080: real time    0.2076
    MIXING:  cpu time    0.0050: real time    0.0047
    --------------------------------------------
      LOOP:  cpu time    6.8450: real time    6.8473

 eigenvalue-minimisations  :  2258
 total energy-change (2. order) : 0.4312376E-02  (-0.2158257E-02)
 number of electron     127.9999839 magnetization 
 augmentation part       13.6542625 magnetization 

 Broyden mixing:
  rms(total) = 0.16589E-01    rms(broyden)= 0.16583E-01
  rms(prec ) = 0.20047E-01
  weight for this iteration     100.00

 eigenvalues of (default mixing * dielectric matrix)
  average eigenvalue GAMMA=   1.4359
  3.5034  2.5262  1.5290  1.1448  1.1448  0.8826  0.8826  0.6712  0.6389

 Free energy of the ion-electron system (eV)
  ---------------------------------------------------
  alpha Z        PSCENC =       451.31605171
  Ewald energy   TEWEN  =     24913.70541863
  -Hartree energ DENC   =    -33768.65379458
  -exchange      EXHF   =         0.00000000
  -V(xc)+E(xc)   XCENC  =       342.88923419
  PAW double counting   =      6205.06170909    -6035.34599366
  entropy T*S    EENTRO =         0.00000000
  eigenvalues    EBANDS =     -1202.91030589
  atomic energy  EATOM  =      8937.26825017
  Solvation  Ediel_sol  =         0.00000000
  ---------------------------------------------------
  free energy    TOTEN  =      -156.66943033 eV

  energy without entropy =     -156.66943033  energy(sigma->0) =     -156.66943033


--------------------------------------------------------------------------------------------------------




--------------------------------------- Iteration      1(  15)  ---------------------------------------


    POTLOK:  cpu time    0.1030: real time    0.1077
    SETDIJ:  cpu time    0.0100: real time    0.0106
    EDDIAG:  cpu time    0.5719: real time    0.5713
  RMM-DIIS:  cpu time    6.1421: real time    6.1425
    ORTHCH:  cpu time    0.0870: real time    0.0869
 BZINTS: Fermi energy:  0.494573;128.000000 electrons
         Band energy:***********;  BLOECHL correction:  0.000000
       DOS:  cpu time    0.0010: real time    0.0012
    CHARGE:  cpu time    0.2090: real time    0.2089
    MIXING:  cpu time    0.0050: real time    0.0047
    --------------------------------------------
      LOOP:  cpu time    7.1289: real time    7.1337

 eigenvalue-minimisations  :  2420
 total energy-change (2. order) : 0.5339839E-03  (-0.8479654E-03)
 number of electron     127.9999839 magnetization 
 augmentation part       13.6533395 magnetization 

 Broyden mixing:
  rms(total) = 0.67089E-02    rms(broyden)= 0.67038E-02
  rms(prec ) = 0.10230E-01
  weight for this iteration     100.00

 eigenvalues of (default mixing * dielectric matrix)
  average eigenvalue GAMMA=   1.4886
  4.0401  2.4423  1.6927  1.6927  0.9877  0.9877  0.8826  0.8826  0.6387  0.6387

 Free energy of the ion-electron system (eV)
  ---------------------------------------------------
  alpha Z        PSCENC =       451.31605171
  Ewald energy   TEWEN  =     24913.70541863
  -Hartree energ DENC   =    -33774.67065966
  -exchange      EXHF   =         0.00000000
  -V(xc)+E(xc)   XCENC  =       342.97183461
  PAW double counting   =      6207.32006979    -6037.65532256
  entropy T*S    EENTRO =         0.00000000
  eigenvalues    EBANDS =     -1196.92453904
  atomic energy  EATOM  =      8937.26825017
  Solvation  Ediel_sol  =         0.00000000
  ---------------------------------------------------
  free energy    TOTEN  =      -156.66889635 eV

  energy without entropy =     -156.66889635  energy(sigma->0) =     -156.66889635


--------------------------------------------------------------------------------------------------------




--------------------------------------- Iteration      1(  16)  ---------------------------------------


    POTLOK:  cpu time    0.1020: real time    0.1052
    SETDIJ:  cpu time    0.0100: real time    0.0106
    EDDIAG:  cpu time    0.5839: real time    0.5826
  RMM-DIIS:  cpu time    6.0991: real time    6.0997
    ORTHCH:  cpu time    0.0850: real time    0.0856
 BZINTS: Fermi energy:  0.560156;128.000000 electrons
         Band energy:***********;  BLOECHL correction:  0.000000
       DOS:  cpu time    0.0010: real time    0.0012
    CHARGE:  cpu time    0.2030: real time    0.2030
    MIXING:  cpu time    0.0060: real time    0.0707
    --------------------------------------------
      LOOP:  cpu time    7.0899: real time    7.1585

 eigenvalue-minimisations  :  2368
 total energy-change (2. order) :-0.1090954E-02  (-0.4287700E-03)
 number of electron     127.9999839 magnetization 
 augmentation part       13.6415189 magnetization 

 Broyden mixing:
  rms(total) = 0.66335E-02    rms(broyden)= 0.66315E-02
  rms(prec ) = 0.80846E-02
  weight for this iteration     100.00

 eigenvalues of (default mixing * dielectric matrix)
  average eigenvalue GAMMA=   1.6379
  5.5382  2.5701  2.5701  1.2856  1.0922  1.0922  0.9547  0.8096  0.8096  0.6474
  0.6474

 Free energy of the ion-electron system (eV)
  ---------------------------------------------------
  alpha Z        PSCENC =       451.31605171
  Ewald energy   TEWEN  =     24913.70541863
  -Hartree energ DENC   =    -33780.87663452
  -exchange      EXHF   =         0.00000000
  -V(xc)+E(xc)   XCENC  =       342.98097386
  PAW double counting   =      6207.05923176    -6037.44296176
  entropy T*S    EENTRO =         0.00000000
  eigenvalues    EBANDS =     -1190.68031716
  atomic energy  EATOM  =      8937.26825017
  Solvation  Ediel_sol  =         0.00000000
  ---------------------------------------------------
  free energy    TOTEN  =      -156.66998730 eV

  energy without entropy =     -156.66998730  energy(sigma->0) =     -156.66998730


--------------------------------------------------------------------------------------------------------




--------------------------------------- Iteration      1(  17)  ---------------------------------------


    POTLOK:  cpu time    0.0970: real time    0.0992
    SETDIJ:  cpu time    0.0120: real time    0.0106
    EDDIAG:  cpu time    0.5709: real time    0.5711
  RMM-DIIS:  cpu time    6.0341: real time    6.0352
    ORTHCH:  cpu time    0.0870: real time    0.0872
 BZINTS: Fermi energy:  0.598714;128.000000 electrons
         Band energy:***********;  BLOECHL correction:  0.000000
       DOS:  cpu time    0.0020: real time    0.0012
    CHARGE:  cpu time    0.2070: real time    0.2078
    MIXING:  cpu time    0.0060: real time    0.0056
    --------------------------------------------
      LOOP:  cpu time    7.0159: real time    7.0178

 eigenvalue-minimisations  :  2315
 total energy-change (2. order) :-0.4029643E-03  (-0.1531356E-03)
 number of electron     127.9999839 magnetization 
 augmentation part       13.6429982 magnetization 

 Broyden mixing:
  rms(total) = 0.30547E-02    rms(broyden)= 0.30534E-02
  rms(prec ) = 0.39911E-02
  weight for this iteration     100.00

 eigenvalues of (default mixing * dielectric matrix)
  average eigenvalue GAMMA=   1.6657
  6.0600  3.0166  2.0674  1.4758  1.2585  1.2585  0.9877  0.9877  0.7907  0.7907
  0.6473  0.6473

 Free energy of the ion-electron system (eV)
  ---------------------------------------------------
  alpha Z        PSCENC =       451.31605171
  Ewald energy   TEWEN  =     24913.70541863
  -Hartree energ DENC   =    -33783.49581918
  -exchange      EXHF   =         0.00000000
  -V(xc)+E(xc)   XCENC  =       342.96105715
  PAW double counting   =      6205.83725827    -6036.19938127
  entropy T*S    EENTRO =         0.00000000
  eigenvalues    EBANDS =     -1188.06322575
  atomic energy  EATOM  =      8937.26825017
  Solvation  Ediel_sol  =         0.00000000
  ---------------------------------------------------
  free energy    TOTEN  =      -156.67039027 eV

  energy without entropy =     -156.67039027  energy(sigma->0) =     -156.67039027


--------------------------------------------------------------------------------------------------------




--------------------------------------- Iteration      1(  18)  ---------------------------------------


    POTLOK:  cpu time    0.1020: real time    0.1067
    SETDIJ:  cpu time    0.0110: real time    0.0108
    EDDIAG:  cpu time    0.5819: real time    0.5822
  RMM-DIIS:  cpu time    5.6991: real time    5.6995
    ORTHCH:  cpu time    0.0850: real time    0.0863
 BZINTS: Fermi energy:  0.614669;128.000000 electrons
         Band energy:***********;  BLOECHL correction:  0.000000
       DOS:  cpu time    0.0020: real time    0.0013
    CHARGE:  cpu time    0.2090: real time    0.2091
    MIXING:  cpu time    0.0050: real time    0.0054
    --------------------------------------------
      LOOP:  cpu time    6.6950: real time    6.7014

 eigenvalue-minimisations  :  2255
 total energy-change (2. order) :-0.1251860E-02  (-0.1086964E-03)
 number of electron     127.9999839 magnetization 
 augmentation part       13.6418378 magnetization 

 Broyden mixing:
  rms(total) = 0.39039E-02    rms(broyden)= 0.39024E-02
  rms(prec ) = 0.43261E-02
  weight for this iteration     100.00

 eigenvalues of (default mixing * dielectric matrix)
  average eigenvalue GAMMA=   1.7448
  6.8482  3.1572  2.2475  2.2475  1.2153  1.2153  1.2618  0.8780  0.8780  0.6512
  0.6512  0.7155  0.7155

 Free energy of the ion-electron system (eV)
  ---------------------------------------------------
  alpha Z        PSCENC =       451.31605171
  Ewald energy   TEWEN  =     24913.70541863
  -Hartree energ DENC   =    -33783.71612785
  -exchange      EXHF   =         0.00000000
  -V(xc)+E(xc)   XCENC  =       342.93852835
  PAW double counting   =      6204.88502641    -6035.19714661
  entropy T*S    EENTRO =         0.00000000
  eigenvalues    EBANDS =     -1187.87164294
  atomic energy  EATOM  =      8937.26825017
  Solvation  Ediel_sol  =         0.00000000
  ---------------------------------------------------
  free energy    TOTEN  =      -156.67164213 eV

  energy without entropy =     -156.67164213  energy(sigma->0) =     -156.67164213


--------------------------------------------------------------------------------------------------------




--------------------------------------- Iteration      1(  19)  ---------------------------------------


    POTLOK:  cpu time    0.1020: real time    0.1047
    SETDIJ:  cpu time    0.0110: real time    0.0106
    EDDIAG:  cpu time    0.5809: real time    0.5804
  RMM-DIIS:  cpu time    5.3092: real time    5.3094
    ORTHCH:  cpu time    0.0810: real time    0.0818
 BZINTS: Fermi energy:  0.627904;128.000000 electrons
         Band energy:***********;  BLOECHL correction:  0.000000
       DOS:  cpu time    0.0010: real time    0.0011
    CHARGE:  cpu time    0.2010: real time    0.2009
    MIXING:  cpu time    0.0060: real time    0.0055
    --------------------------------------------
      LOOP:  cpu time    6.2920: real time    6.2944

 eigenvalue-minimisations  :  2065
 total energy-change (2. order) :-0.1128538E-02  (-0.6622362E-04)
 number of electron     127.9999839 magnetization 
 augmentation part       13.6438719 magnetization 

 Broyden mixing:
  rms(total) = 0.15336E-02    rms(broyden)= 0.15328E-02
  rms(prec ) = 0.17713E-02
  weight for this iteration     100.00

 eigenvalues of (default mixing * dielectric matrix)
  average eigenvalue GAMMA=   1.7943
  7.5307  3.6726  2.2569  2.2569  1.4010  1.2244  1.2244  1.0322  0.8915  0.8915
  0.8262  0.6486  0.6486  0.6153

 Free energy of the ion-electron system (eV)
  ---------------------------------------------------
  alpha Z        PSCENC =       451.31605171
  Ewald energy   TEWEN  =     24913.70541863
  -Hartree energ DENC   =    -33784.36587850
  -exchange      EXHF   =         0.00000000
  -V(xc)+E(xc)   XCENC  =       342.95646402
  PAW double counting   =      6205.80034098    -6036.11278440
  entropy T*S    EENTRO =         0.00000000
  eigenvalues    EBANDS =     -1187.24063329
  atomic energy  EATOM  =      8937.26825017
  Solvation  Ediel_sol  =         0.00000000
  ---------------------------------------------------
  free energy    TOTEN  =      -156.67277067 eV

  energy without entropy =     -156.67277067  energy(sigma->0) =     -156.67277067


--------------------------------------------------------------------------------------------------------




--------------------------------------- Iteration      1(  20)  ---------------------------------------


    POTLOK:  cpu time    0.0940: real time    0.0956
    SETDIJ:  cpu time    0.0110: real time    0.0103
    EDDIAG:  cpu time    0.5689: real time    0.5697
  RMM-DIIS:  cpu time    4.9622: real time    4.9620
    ORTHCH:  cpu time    0.0870: real time    0.0870
 BZINTS: Fermi energy:  0.596190;128.000000 electrons
         Band energy:***********;  BLOECHL correction:  0.000000
       DOS:  cpu time    0.0010: real time    0.0013
    CHARGE:  cpu time    0.2080: real time    0.2080
    MIXING:  cpu time    0.0060: real time    0.0062
    --------------------------------------------
      LOOP:  cpu time    5.9381: real time    5.9400

 eigenvalue-minimisations  :  1890
 total energy-change (2. order) :-0.4618022E-03  (-0.2367718E-04)
 number of electron     127.9999839 magnetization 
 augmentation part       13.6417788 magnetization 

 Broyden mixing:
  rms(total) = 0.76722E-03    rms(broyden)= 0.76708E-03
  rms(prec ) = 0.86262E-03
  weight for this iteration     100.00

 eigenvalues of (default mixing * dielectric matrix)
  average eigenvalue GAMMA=   1.9290
  8.2002  4.5630  2.5086  2.5086  2.1704  1.2016  1.2016  1.2605  0.9017  0.9017
  0.8158  0.8158  0.6457  0.6457  0.5938

 Free energy of the ion-electron system (eV)
  ---------------------------------------------------
  alpha Z        PSCENC =       451.31605171
  Ewald energy   TEWEN  =     24913.70541863
  -Hartree energ DENC   =    -33784.33466372
  -exchange      EXHF   =         0.00000000
  -V(xc)+E(xc)   XCENC  =       342.95464091
  PAW double counting   =      6206.05614497    -6036.37739483
  entropy T*S    EENTRO =         0.00000000
  eigenvalues    EBANDS =     -1187.26168031
  atomic energy  EATOM  =      8937.26825017
  Solvation  Ediel_sol  =         0.00000000
  ---------------------------------------------------
  free energy    TOTEN  =      -156.67323247 eV

  energy without entropy =     -156.67323247  energy(sigma->0) =     -156.67323247


--------------------------------------------------------------------------------------------------------




--------------------------------------- Iteration      1(  21)  ---------------------------------------


    POTLOK:  cpu time    0.1030: real time    0.1062
    SETDIJ:  cpu time    0.0110: real time    0.0106
    EDDIAG:  cpu time    0.5599: real time    0.5610
  RMM-DIIS:  cpu time    4.3493: real time    4.3492
    ORTHCH:  cpu time    0.0870: real time    0.0875
 BZINTS: Fermi energy:  0.599610;128.000000 electrons
         Band energy:***********;  BLOECHL correction:  0.000000
       DOS:  cpu time    0.0020: real time    0.0014
    CHARGE:  cpu time    0.2090: real time    0.2095
    MIXING:  cpu time    0.0070: real time    0.0062
    --------------------------------------------
      LOOP:  cpu time    5.3282: real time    5.3315

 eigenvalue-minimisations  :  1697
 total energy-change (2. order) :-0.2609405E-03  (-0.1288990E-04)
 number of electron     127.9999839 magnetization 
 augmentation part       13.6408611 magnetization 

 Broyden mixing:
  rms(total) = 0.55816E-03    rms(broyden)= 0.55798E-03
  rms(prec ) = 0.61660E-03
  weight for this iteration     100.00

 eigenvalues of (default mixing * dielectric matrix)
  average eigenvalue GAMMA=   1.9214
  8.4941  4.6887  2.8509  2.4909  2.1653  1.3974  1.1765  1.1765  0.9056  0.9056
  0.8960  0.8960  0.7982  0.6420  0.6420  0.6172

 Free energy of the ion-electron system (eV)
  ---------------------------------------------------
  alpha Z        PSCENC =       451.31605171
  Ewald energy   TEWEN  =     24913.70541863
  -Hartree energ DENC   =    -33784.18300595
  -exchange      EXHF   =         0.00000000
  -V(xc)+E(xc)   XCENC  =       342.95182501
  PAW double counting   =      6206.01666227    -6036.32666827
  entropy T*S    EENTRO =         0.00000000
  eigenvalues    EBANDS =     -1187.42202698
  atomic energy  EATOM  =      8937.26825017
  Solvation  Ediel_sol  =         0.00000000
  ---------------------------------------------------
  free energy    TOTEN  =      -156.67349341 eV

  energy without entropy =     -156.67349341  energy(sigma->0) =     -156.67349341


--------------------------------------------------------------------------------------------------------




--------------------------------------- Iteration      1(  22)  ---------------------------------------


    POTLOK:  cpu time    0.1000: real time    0.1050
    SETDIJ:  cpu time    0.0120: real time    0.0107
    EDDIAG:  cpu time    0.5829: real time    0.5828
  RMM-DIIS:  cpu time    3.7794: real time    3.7799
    ORTHCH:  cpu time    0.0880: real time    0.0878
 BZINTS: Fermi energy:  0.603141;128.000000 electrons
         Band energy:***********;  BLOECHL correction:  0.000000
       DOS:  cpu time    0.0010: real time    0.0013
    CHARGE:  cpu time    0.2100: real time    0.2096
    MIXING:  cpu time    0.0060: real time    0.0065
    --------------------------------------------
      LOOP:  cpu time    4.7793: real time    4.7837

 eigenvalue-minimisations  :  1409
 total energy-change (2. order) :-0.3476443E-04  (-0.4673931E-05)
 number of electron     127.9999839 magnetization 
 augmentation part       13.6411202 magnetization 

 Broyden mixing:
  rms(total) = 0.29133E-03    rms(broyden)= 0.29127E-03
  rms(prec ) = 0.32533E-03
  weight for this iteration     100.00

 eigenvalues of (default mixing * dielectric matrix)
  average eigenvalue GAMMA=   1.9160
  8.3471  5.2209  2.8448  2.8448  1.9556  1.6650  1.2238  1.2238  0.9691  0.9691
  0.9030  0.9030  0.8526  0.7539  0.6390  0.6390  0.6173

 Free energy of the ion-electron system (eV)
  ---------------------------------------------------
  alpha Z        PSCENC =       451.31605171
  Ewald energy   TEWEN  =     24913.70541863
  -Hartree energ DENC   =    -33784.21045717
  -exchange      EXHF   =         0.00000000
  -V(xc)+E(xc)   XCENC  =       342.95385350
  PAW double counting   =      6206.05802460    -6036.36345129
  entropy T*S    EENTRO =         0.00000000
  eigenvalues    EBANDS =     -1187.40121833
  atomic energy  EATOM  =      8937.26825017
  Solvation  Ediel_sol  =         0.00000000
  ---------------------------------------------------
  free energy    TOTEN  =      -156.67352817 eV

  energy without entropy =     -156.67352817  energy(sigma->0) =     -156.67352817


--------------------------------------------------------------------------------------------------------




--------------------------------------- Iteration      1(  23)  ---------------------------------------


    POTLOK:  cpu time    0.1000: real time    0.1054
    SETDIJ:  cpu time    0.0110: real time    0.0108
    EDDIAG:  cpu time    0.5819: real time    0.5817
  RMM-DIIS:  cpu time    3.2935: real time    3.2938
    ORTHCH:  cpu time    0.0770: real time    0.0776
 BZINTS: Fermi energy:  0.605139;128.000000 electrons
         Band energy:***********;  BLOECHL correction:  0.000000
       DOS:  cpu time    0.0020: real time    0.0013
    CHARGE:  cpu time    0.1960: real time    0.1964
    MIXING:  cpu time    0.0070: real time    0.0064
    --------------------------------------------
      LOOP:  cpu time    4.2684: real time    4.2732

 eigenvalue-minimisations  :  1224
 total energy-change (2. order) :-0.1536142E-04  (-0.1759372E-05)
 number of electron     127.9999839 magnetization 
 augmentation part       13.6410103 magnetization 

 Broyden mixing:
  rms(total) = 0.18395E-03    rms(broyden)= 0.18393E-03
  rms(prec ) = 0.20568E-03
  weight for this iteration     100.00

 eigenvalues of (default mixing * dielectric matrix)
  average eigenvalue GAMMA=   1.8890
  8.3723  5.3822  3.3086  2.3855  2.3855  1.4169  1.4169  1.2253  1.2253  0.9273
  0.9273  0.7751  0.7751  0.7939  0.7939  0.6444  0.6444  0.6031

 Free energy of the ion-electron system (eV)
  ---------------------------------------------------
  alpha Z        PSCENC =       451.31605171
  Ewald energy   TEWEN  =     24913.70541863
  -Hartree energ DENC   =    -33784.16285958
  -exchange      EXHF   =         0.00000000
  -V(xc)+E(xc)   XCENC  =       342.95307401
  PAW double counting   =      6206.00717640    -6036.30854565
  entropy T*S    EENTRO =         0.00000000
  eigenvalues    EBANDS =     -1187.45210923
  atomic energy  EATOM  =      8937.26825017
  Solvation  Ediel_sol  =         0.00000000
  ---------------------------------------------------
  free energy    TOTEN  =      -156.67354353 eV

  energy without entropy =     -156.67354353  energy(sigma->0) =     -156.67354353


--------------------------------------------------------------------------------------------------------




--------------------------------------- Iteration      1(  24)  ---------------------------------------


    POTLOK:  cpu time    0.0840: real time    0.0850
    SETDIJ:  cpu time    0.0100: real time    0.0098
    EDDIAG:  cpu time    0.5259: real time    0.5259
  RMM-DIIS:  cpu time    3.1785: real time    3.1868
    ORTHCH:  cpu time    0.0880: real time    0.0878
 BZINTS: Fermi energy:  0.606490;128.000000 electrons
         Band energy:***********;  BLOECHL correction:  0.000000
       DOS:  cpu time    0.0010: real time    0.0014
    --------------------------------------------
      LOOP:  cpu time    3.8874: real time    3.8967

 eigenvalue-minimisations  :  1156
 total energy-change (2. order) :-0.6774111E-05  (-0.1299241E-05)
 number of electron     127.9999839 magnetization 
 augmentation part       13.6410103 magnetization 

 Free energy of the ion-electron system (eV)
  ---------------------------------------------------
  alpha Z        PSCENC =       451.31605171
  Ewald energy   TEWEN  =     24913.70541863
  -Hartree energ DENC   =    -33784.15117322
  -exchange      EXHF   =         0.00000000
  -V(xc)+E(xc)   XCENC  =       342.95309723
  PAW double counting   =      6206.01636393    -6036.31677031
  entropy T*S    EENTRO =         0.00000000
  eigenvalues    EBANDS =     -1187.46478845
  atomic energy  EATOM  =      8937.26825017
  Solvation  Ediel_sol  =         0.00000000
  ---------------------------------------------------
  free energy    TOTEN  =      -156.67355031 eV

  energy without entropy =     -156.67355031  energy(sigma->0) =     -156.67355031


--------------------------------------------------------------------------------------------------------




 average (electrostatic) potential at core
  the test charge radii are     0.7215  1.1929  1.2598
  (the norm of the test charge is              1.0000)
       1 -73.1608       2 -73.6844       3 -73.6844       4 -73.6458       5 -73.7300
       6 -73.7300       7 -73.8092       8 -73.8316       9 -73.8316      10 -74.0655
      11 -73.4435      12 -73.4435      13 -39.8940      14 -38.7717      15 -38.8610
      16 -38.7284      17 -29.2817      18 -29.4637      19 -29.6141      20 -29.6593
 
 
 
[...]
     43      -3.0614      2.00000
     44      -2.9756      2.00000
     45      -2.6437      2.00000
     46      -2.6034      2.00000
     47      -2.4684      2.00000
     48      -2.3427      2.00000
     49      -2.2059      2.00000
     50      -1.9077      2.00000
     51      -1.7122      2.00000
     52      -1.6996      2.00000
     53      -1.4018      2.00000
     54      -1.3375      2.00000
     55      -1.2726      2.00000
     56      -1.2512      2.00000
     57      -1.2183      2.00000
     58      -1.1075      2.00000
     59      -1.0766      2.00000
     60      -0.9711      2.00000
     61      -0.7359      2.00000
     62      -0.5727      2.00000
     63      -0.4216      2.00000
     64      -0.2320      2.00000
     65       2.1622      0.00000
     66       2.6053      0.00000
     67       3.0782      0.00000
     68       3.4327      0.00000
     69       3.4431      0.00000
     70       3.5143      0.00000
     71       3.5631      0.00000
     72       3.5972      0.00000
     73       3.6549      0.00000
     74       3.7354      0.00000
     75       3.8400      0.00000
     76       7.6042      0.00000

 k-point     8 :       0.2857    0.2857    0.0000
  band No.  band energies     occupation 
      1     -33.7604      2.00000
      2     -32.7711      2.00000
      3     -32.6810      2.00000
      4     -32.6354      2.00000
      5     -17.3931      2.00000
      6     -17.2197      2.00000
      7     -17.0728      2.00000
      8     -16.8437      2.00000
      9     -16.6579      2.00000
     10     -16.5760      2.00000
     11     -16.5281      2.00000
     12     -16.4394      2.00000
     13     -16.4301      2.00000
     14     -16.2535      2.00000
     15     -16.1561      2.00000
     16     -15.9156      2.00000
     17     -15.7585      2.00000
     18     -15.6588      2.00000
     19     -15.0116      2.00000
     20     -14.8926      2.00000
     21     -14.8006      2.00000
     22     -14.7252      2.00000
     23     -14.6785      2.00000
     24     -14.5941      2.00000
     25     -14.5898      2.00000
     26     -14.4881      2.00000
     27     -14.4432      2.00000
     28     -14.4352      2.00000
     29      -4.3301      2.00000
     30      -4.1768      2.00000
     31      -4.0462      2.00000
     32      -4.0313      2.00000
     33      -3.7606      2.00000
     34      -3.6847      2.00000
     35      -3.5816      2.00000
     36      -3.5592      2.00000
     37      -3.5344      2.00000
     38      -3.4744      2.00000
     39      -3.4672      2.00000
     40      -3.4399      2.00000
     41      -3.3080      2.00000
     42      -3.2647      2.00000
     43      -3.2038      2.00000
     44      -3.1481      2.00000
     45      -3.1250      2.00000
     46      -3.0923      2.00000
     47      -2.7872      2.00000
     48      -2.7602      2.00000
     49      -2.5769      2.00000
     50      -2.2669      2.00000
     51      -2.0979      2.00000
     52      -1.5910      2.00000
     53      -1.4690      2.00000
     54      -1.2326      2.00000
     55      -0.9889      2.00000
     56      -0.9470      2.00000
     57      -0.8337      2.00000
     58      -0.8161      2.00000
     59      -0.7130      2.00000
     60      -0.7021      2.00000
     61      -0.5816      2.00000
     62      -0.5531      2.00000
     63      -0.3952      2.00000
     64       0.0493      2.00000
     65       2.7188      0.00000
     66       2.9746      0.00000
     67       3.0617      0.00000
     68       3.1762      0.00000
     69       3.2636      0.00000
     70       3.3447      0.00000
     71       3.4026      0.00000
     72       3.4160      0.00000
     73       3.5192      0.00000
     74       3.6549      0.00000
     75       3.6773      0.00000
     76       3.7243      0.00000

 k-point     9 :       0.4286    0.2857    0.0000
  band No.  band energies     occupation 
      1     -33.7545      2.00000
      2     -32.7642      2.00000
      3     -32.6742      2.00000
      4     -32.6285      2.00000
      5     -17.3238      2.00000
      6     -17.1188      2.00000
      7     -16.9037      2.00000
      8     -16.6760      2.00000
      9     -16.6376      2.00000
     10     -16.6197      2.00000
     11     -16.4923      2.00000
     12     -16.4807      2.00000
     13     -16.3868      2.00000
     14     -16.0981      2.00000
     15     -16.0283      2.00000
     16     -15.9108      2.00000
     17     -15.8757      2.00000
     18     -15.6179      2.00000
     19     -15.0843      2.00000
     20     -14.9275      2.00000
     21     -14.8711      2.00000
     22     -14.7534      2.00000
     23     -14.6787      2.00000
     24     -14.6225      2.00000
     25     -14.5731      2.00000
     26     -14.5429      2.00000
     27     -14.4917      2.00000
     28     -14.4230      2.00000
     29      -4.4945      2.00000
     30      -4.3935      2.00000
     31      -4.2900      2.00000
     32      -4.1774      2.00000
     33      -4.1051      2.00000
     34      -4.0669      2.00000
     35      -4.0020      2.00000
     36      -3.9042      2.00000
     37      -3.7575      2.00000
     38      -3.7257      2.00000
     39      -3.6421      2.00000
     40      -3.6024      2.00000
     41      -3.5456      2.00000
     42      -3.4762      2.00000
     43      -3.4337      2.00000
     44      -3.2824      2.00000
     45      -3.1673      2.00000
     46      -3.1192      2.00000
     47      -3.0579      2.00000
     48      -2.9706      2.00000
     49      -2.6718      2.00000
     50      -2.5451      2.00000
     51      -2.1408      2.00000
     52      -1.5525      2.00000
     53      -1.4314      2.00000
     54      -1.3203      2.00000
     55      -1.0029      2.00000
     56      -0.9453      2.00000
     57      -0.7440      2.00000
     58      -0.6665      2.00000
     59      -0.6016      2.00000
     60      -0.5714      2.00000
     61      -0.5508      2.00000
     62      -0.4526      2.00000
     63      -0.2123      2.00000
     64       0.2127      2.00000
     65       2.8488      0.00000
     66       3.1607      0.00000
     67       3.4319      0.00000
     68       3.4648      0.00000
     69       3.6038      0.00000
     70       3.6346      0.00000
     71       3.7323      0.00000
     72       3.7711      0.00000
     73       3.7868      0.00000
     74       3.8570      0.00000
     75       3.8806      0.00000
     76       3.9962      0.00000

 k-point    10 :       0.4286    0.4286    0.0000
  band No.  band energies     occupation 
      1     -33.7489      2.00000
      2     -32.7576      2.00000
      3     -32.6677      2.00000
      4     -32.6219      2.00000
      5     -17.0458      2.00000
      6     -16.8479      2.00000
      7     -16.7208      2.00000
      8     -16.6846      2.00000
      9     -16.6278      2.00000
     10     -16.5857      2.00000
     11     -16.4487      2.00000
     12     -16.4194      2.00000
     13     -16.3830      2.00000
     14     -16.0089      2.00000
     15     -15.9211      2.00000
     16     -15.8900      2.00000
     17     -15.8141      2.00000
     18     -15.6521      2.00000
     19     -15.3833      2.00000
     20     -14.9784      2.00000
     21     -14.9273      2.00000
     22     -14.9194      2.00000
     23     -14.7733      2.00000
     24     -14.7022      2.00000
     25     -14.6275      2.00000
     26     -14.5734      2.00000
     27     -14.4893      2.00000
     28     -14.4683      2.00000
     29      -4.6026      2.00000
     30      -4.5251      2.00000
     31      -4.4641      2.00000
     32      -4.3933      2.00000
     33      -4.2709      2.00000
     34      -4.2372      2.00000
     35      -4.1675      2.00000
     36      -4.1569      2.00000
     37      -4.0729      2.00000
     38      -4.0287      2.00000
     39      -3.9145      2.00000
     40      -3.8499      2.00000
     41      -3.7899      2.00000
     42      -3.7311      2.00000
     43      -3.5248      2.00000
     44      -3.4715      2.00000
     45      -3.4550      2.00000
     46      -3.3912      2.00000
     47      -3.1468      2.00000
     48      -3.1138      2.00000
     49      -2.7557      2.00000
     50      -2.6599      2.00000
     51      -2.4029      2.00000
     52      -1.4229      2.00000
     53      -1.3508      2.00000
     54      -1.3423      2.00000
     55      -0.9448      2.00000
     56      -0.8997      2.00000
     57      -0.5445      2.00000
     58      -0.5013      2.00000
     59      -0.2894      2.00000
     60      -0.2510      2.00000
     61      -0.2253      2.00000
     62      -0.1784      2.00000
     63      -0.1507      2.00000
     64       0.5563      2.00000
     65       3.4115      0.00000
     66       3.4866      0.00000
     67       3.6608      0.00000
     68       3.7226      0.00000
     69       3.8758      0.00000
     70       3.9281      0.00000
     71       4.0289      0.00000
     72       4.0469      0.00000
     73       4.0850      0.00000
     74       7.2655      0.00000
     75       7.3754      0.00000
     76       7.5110      0.00000


--------------------------------------------------------------------------------------------------------


 soft charge-density along one line, spin component           1
         0         1         2         3         4         5         6         7         8         9
 total charge-density along one line
 
 pseudopotential strength for first ion, spin component:           1
 12.657  -0.342  -0.000  -0.022   0.000   0.000   0.001  -0.000
 -0.342   0.083   0.000   0.002  -0.000  -0.000  -0.000   0.000
 -0.000   0.000  -8.948  -0.000  -0.000  -0.092   0.000   0.000
 -0.022   0.002  -0.000  -8.969   0.000   0.000  -0.089  -0.000
  0.000  -0.000  -0.000   0.000  -8.948   0.000  -0.000  -0.092
  0.000  -0.000  -0.092   0.000   0.000   0.247  -0.000  -0.000
  0.001  -0.000   0.000  -0.089  -0.000  -0.000   0.246   0.000
 -0.000   0.000   0.000  -0.000  -0.092  -0.000   0.000   0.247
 total augmentation occupancy for first ion, spin component:           1
  1.865   0.125   0.000  -0.006  -0.000   0.000   0.013   0.000
  0.125   0.012   0.000   0.026  -0.000   0.000   0.005  -0.000
  0.000   0.000   1.520   0.000   0.000   0.123  -0.000   0.000
 -0.006   0.026   0.000   1.520   0.000   0.000   0.133   0.000
 -0.000  -0.000   0.000   0.000   1.520   0.000   0.000   0.123
  0.000   0.000   0.123   0.000   0.000   0.011  -0.000   0.000
  0.013   0.005   0.000   0.133   0.000   0.000   0.013   0.000
  0.000  -0.000   0.000   0.000   0.123   0.000   0.000   0.011


------------------------ aborting loop because EDIFF is reached ----------------------------------------


    CHARGE:  cpu time    0.2100: real time    0.2103
    FORLOC:  cpu time    0.0230: real time    0.0227
    FORNL :  cpu time    2.3126: real time    2.3131
    STRESS:  cpu time    4.4523: real time    4.4509
    FORCOR:  cpu time    0.1030: real time    0.1031
    FORHAR:  cpu time    0.0390: real time    0.0384
    MIXING:  cpu time    0.0060: real time    0.0066
    OFIELD:  cpu time    0.0000: real time    0.0000

  FORCE on cell =-STRESS in cart. coord.  units (eV):
  Direction    XX          YY          ZZ          XY          YZ          ZX
  --------------------------------------------------------------------------------------
  Alpha Z   451.31605   451.31605   451.31605
  Ewald   30025.31756 30025.31756-35136.94585     0.00000     0.00000     0.00000
  Hartree 32581.88099 32581.88099-31379.65782    -0.00000    -0.00000    -0.00000
  E(xc)    -579.82564  -579.82564  -579.32382    -0.00000     0.00000     0.00000
  Local  -64348.61238-64348.61238 64783.26142    -0.00000    -0.00000    -0.00000
  n-local  -488.46806  -465.39584  -479.19614    -1.74985     0.00009     0.00003
  augment   115.93604   115.93604   114.94224    -0.00000    -0.00000    -0.00000
  Kinetic  2211.11718  2256.84869  2229.83763    -9.55590    -0.00010    -0.00006
  Fock        0.00000     0.00000     0.00000     0.00000     0.00000     0.00000
  -------------------------------------------------------------------------------------
  Total       3.06361     3.06361     4.23371     0.00000     0.00000     0.00000
  in kB      12.53843    12.53843    17.32729     0.00000     0.00000     0.00000
  external pressure =       14.13 kB  Pullay stress =        0.00 kB


 VOLUME and BASIS-vectors are now :
 -----------------------------------------------------------------------------
  energy-cutoff  :      500.00
  volume of cell :      391.47
      direct lattice vectors                 reciprocal lattice vectors
     3.905268000  0.000000000  0.000000000     0.256064373  0.000000000  0.000000000
     0.000000000  3.905268000  0.000000000     0.000000000  0.256064373  0.000000000
     0.000000000  0.000000000 25.668438000     0.000000000  0.000000000  0.038958350

  length of vectors
     3.905268000  3.905268000 25.668438000     0.256064373  0.256064373  0.038958350


 FORCES acting on ions
    electron-ion (+dipol)            ewald-force                    non-local-force                 convergence-correction
 -----------------------------------------------------------------------------------------------
   0.163E-12 0.109E-12 0.157E+04   -.276E-14 0.267E-14 -.158E+04   0.000E+00 0.000E+00 0.790E+01   -.216E-13 0.185E-13 0.126E-02
   0.149E-12 0.328E-13 0.112E+04   -.723E-14 -.374E-14 -.111E+04   0.212E-21 0.000E+00 -.245E+00   -.728E-14 0.179E-13 0.138E-02
   -.606E-15 0.167E-12 0.112E+04   0.548E-14 -.847E-14 -.111E+04   0.000E+00 0.000E+00 -.245E+00   -.901E-14 0.233E-13 0.138E-02
   0.157E-12 0.252E-12 0.669E+03   -.956E-14 -.300E-14 -.669E+03   0.000E+00 0.212E-21 0.674E+00   -.207E-13 0.462E-13 0.221E-03
   0.157E-12 0.910E-15 0.223E+03   -.458E-14 -.321E-14 -.223E+03   -.212E-21 -.847E-21 0.210E+00   0.154E-13 -.495E-15 0.171E-03
   -.250E-14 -.637E-13 0.223E+03   0.843E-14 -.119E-13 -.223E+03   0.000E+00 -.318E-21 0.210E+00   0.139E-13 0.667E-14 0.171E-03
   0.164E-12 -.435E-12 -.223E+03   0.148E-14 0.548E-14 0.223E+03   0.424E-21 0.000E+00 0.548E+00   -.119E-13 0.611E-14 0.584E-04
   0.161E-12 0.910E-14 -.669E+03   -.364E-14 -.423E-14 0.669E+03   0.000E+00 0.000E+00 0.402E-01   0.196E-13 -.388E-13 -.514E-03
   -.140E-13 -.673E-13 -.669E+03   0.918E-14 -.129E-13 0.669E+03   0.265E-22 0.000E+00 0.402E-01   0.124E-13 -.323E-13 -.514E-03
   0.155E-12 -.149E-12 -.112E+04   -.275E-14 -.659E-17 0.111E+04   0.000E+00 0.000E+00 0.272E+01   0.163E-13 -.467E-14 -.114E-02
   0.160E-12 0.466E-12 -.154E+04   -.662E-14 -.619E-14 0.154E+04   -.339E-20 0.629E-21 -.220E+01   0.133E-13 -.939E-14 0.445E-04
   -.338E-14 0.211E-12 -.154E+04   0.656E-14 -.517E-14 0.154E+04   0.000E+00 -.508E-20 -.220E+01   0.658E-14 -.104E-13 0.445E-04
   -.785E-14 -.400E-12 0.255E+04   0.718E-14 0.728E-15 -.255E+04   0.000E+00 -.106E-21 -.499E+01   -.890E-14 0.257E-13 0.356E-02
   -.119E-13 0.133E-12 0.111E+04   0.107E-13 0.217E-14 -.111E+04   0.000E+00 -.847E-21 0.176E-01   -.221E-13 0.397E-13 0.964E-03
   -.592E-14 0.743E-13 -.372E+03   0.231E-14 0.116E-13 0.372E+03   0.424E-21 0.000E+00 0.105E+00   -.200E-13 0.400E-14 -.145E-03
   -.378E-14 -.204E-12 -.186E+04   0.115E-13 0.210E-14 0.186E+04   0.847E-21 0.127E-20 -.810E+00   -.855E-14 -.469E-14 -.130E-02
   0.650E-14 -.121E-12 0.743E+03   -.881E-14 0.112E-13 -.744E+03   0.000E+00 0.000E+00 -.382E+00   -.388E-14 -.349E-14 0.119E-02
   0.414E-14 -.711E-13 0.148E+03   -.903E-14 0.795E-14 -.149E+03   0.000E+00 0.000E+00 -.861E-01   -.600E-14 0.388E-15 0.151E-03
   0.737E-14 -.573E-13 -.446E+03   -.935E-14 0.112E-13 0.446E+03   0.662E-23 0.000E+00 -.128E-01   -.134E-14 0.791E-14 -.250E-03
   0.887E-15 -.582E-13 -.105E+04   -.597E-14 0.907E-14 0.104E+04   0.106E-21 0.000E+00 0.144E+01   0.520E-14 0.286E-14 -.352E-04
 -----------------------------------------------------------------------------------------------
   0.124E-11 -.171E-12 -.275E+01   -.747E-14 0.527E-14 0.909E-12   -.156E-20 -.509E-20 0.274E+01   -.385E-13 0.950E-13 0.669E-02
 
 
 POSITION                                       TOTAL-FORCE (eV/Angst)
 -----------------------------------------------------------------------------------
      1.95263      1.95263      6.00000         0.000000     -0.000000     -1.076127
      1.95263      0.00000      7.95263         0.000000      0.000000     -0.003426
      0.00000      1.95263      7.95263         0.000000      0.000000     -0.003426
      1.95263      1.95263      9.90527         0.000000      0.000000      0.379656
      1.95263      0.00000     11.85790        -0.000000     -0.000000      0.068053
      0.00000      1.95263     11.85790         0.000000      0.000000      0.068053
      1.95263      1.95263     13.81054         0.000000     -0.000000      0.304994
      1.95263      0.00000     15.76317         0.000000      0.000000      0.020527
      0.00000      1.95263     15.76317        -0.000000      0.000000      0.020527
      1.95263      1.95263     17.71580         0.000000      0.000000      1.064378
      1.95263      0.00000     19.66844         0.000000      0.000000      0.456209
      0.00000      1.95263     19.66844         0.000000      0.000000      0.456209
      0.00000      0.00000      6.00000         0.000000      0.000000      1.189790
      0.00000      0.00000      9.90527         0.000000     -0.000000     -0.006412
      0.00000      0.00000     13.81054         0.000000     -0.000000     -0.058343
      0.00000      0.00000     17.71580         0.000000      0.000000      0.662309
      1.95263      1.95263      7.95263         0.000000     -0.000000     -1.025873
      1.95263      1.95263     11.85790         0.000000      0.000000     -0.310038
      1.95263      1.95263     15.76317         0.000000      0.000000     -0.368220
      1.95263      1.95263     19.66844         0.000000     -0.000000     -1.838840
 -----------------------------------------------------------------------------------
    total drift:                                0.000000     -0.000000      0.001181


--------------------------------------------------------------------------------------------------------



  FREE ENERGIE OF THE ION-ELECTRON SYSTEM (eV)
  ---------------------------------------------------
  free  energy   TOTEN  =      -156.67355031 eV

  energy  without entropy=     -156.67355031  energy(sigma->0) =     -156.67355031
 


--------------------------------------------------------------------------------------------------------


    POTLOK:  cpu time    0.1080: real time    0.1080


--------------------------------------------------------------------------------------------------------


     LOOP+:  cpu time  157.0781: real time  157.3716
    4ORBIT:  cpu time    0.0000: real time    0.0000
 BZINTS: Fermi energy:  0.606490;128.000000 electrons
         Band energy:***********;  BLOECHL correction:  0.000000

 total amount of memory used by VASP MPI-rank0   103002. kBytes
=======================================================================

   base      :      30000. kBytes
   nonl-proj :      23153. kBytes
   fftplans  :       6668. kBytes
   grid      :      11994. kBytes
   one-center:        155. kBytes
   wavefun   :      31032. kBytes
 
  
  
 General timing and accounting informations for this job:
 ========================================================
  
                  Total CPU time used (sec):      159.123
                            User time (sec):      156.700
                          System time (sec):        2.423
                         Elapsed time (sec):      159.966
  
                   Maximum memory used (kb):      105692.
                   Average memory used (kb):           0.
  
                          Minor page faults:        33082
                          Major page faults:          227
                 Voluntary context switches:         3203
