  20  20   0   0
  0.1543269E+02  0.3946846E-09  0.3946846E-09  0.1981396E-08  0.5000000E-15
  1.000000000000000E-004
  CAR 
 unknown system                          
     10.53292756    -34.57531777  301      1.43609809      1.00000000
    -34.575  0.0000E+00  0.0000E+00
    -34.425  0.0000E+00  0.0000E+00
    -34.275  0.0000E+00  0.0000E+00
    -34.124  0.0000E+00  0.0000E+00
    -33.974  0.0000E+00  0.0000E+00
    -33.824  0.0000E+00  0.0000E+00
    -33.673  0.0000E+00  0.0000E+00
    -33.523  0.0000E+00  0.0000E+00
    -33.372  0.0000E+00  0.0000E+00
    -33.222  0.0000E+00  0.0000E+00
    -33.072  0.0000E+00  0.0000E+00
    -32.921  0.0000E+00  0.0000E+00
    -32.771  0.0000E+00  0.0000E+00
    -32.621  0.0000E+00  0.0000E+00
    -32.470  0.0000E+00  0.2000E+01
    -32.320  0.0000E+00  0.2000E+01
    -32.170  0.0000E+00  0.2000E+01
    -32.019  0.0000E+00  0.2000E+01
    -31.869  0.0000E+00  0.2000E+01
    -31.718  0.0000E+00  0.6000E+01
    -31.568  0.6231E+02  0.6519E+01
    -31.418  0.0000E+00  0.8000E+01
    -31.267  0.0000E+00  0.8000E+01
    -31.117  0.0000E+00  0.8000E+01
    -30.967  0.0000E+00  0.8000E+01
    -30.816  0.0000E+00  0.8000E+01
    -30.666  0.0000E+00  0.8000E+01
    -30.516  0.0000E+00  0.8000E+01
    -30.365  0.0000E+00  0.8000E+01
    -30.215  0.0000E+00  0.8000E+01
    -30.064  0.0000E+00  0.8000E+01
    -29.914  0.0000E+00  0.8000E+01
    -29.764  0.0000E+00  0.8000E+01
    -29.613  0.0000E+00  0.8000E+01
    -29.463  0.0000E+00  0.8000E+01
    -29.313  0.0000E+00  0.8000E+01
    -29.162  0.0000E+00  0.8000E+01
    -29.012  0.0000E+00  0.8000E+01
    -28.862  0.0000E+00  0.8000E+01
    -28.711  0.0000E+00  0.8000E+01
    -28.561  0.0000E+00  0.8000E+01
    -28.411  0.0000E+00  0.8000E+01
    -28.260  0.0000E+00  0.8000E+01
    -28.110  0.0000E+00  0.8000E+01
    -27.959  0.0000E+00  0.8000E+01
    -27.809  0.0000E+00  0.8000E+01
    -27.659  0.0000E+00  0.8000E+01
    -27.508  0.0000E+00  0.8000E+01
    -27.358  0.0000E+00  0.8000E+01
    -27.208  0.0000E+00  0.8000E+01
    -27.057  0.0000E+00  0.8000E+01
    -26.907  0.0000E+00  0.8000E+01
    -26.757  0.0000E+00  0.8000E+01
    -26.606  0.0000E+00  0.8000E+01
    -26.456  0.0000E+00  0.8000E+01
    -26.305  0.0000E+00  0.8000E+01
    -26.155  0.0000E+00  0.8000E+01
    -26.005  0.0000E+00  0.8000E+01
    -25.854  0.0000E+00  0.8000E+01
    -25.704  0.0000E+00  0.8000E+01
    -25.554  0.0000E+00  0.8000E+01
    -25.403  0.0000E+00  0.8000E+01
    -25.253  0.0000E+00  0.8000E+01
    -25.103  0.0000E+00  0.8000E+01
    -24.952  0.0000E+00  0.8000E+01
    -24.802  0.0000E+00  0.8000E+01
    -24.652  0.0000E+00  0.8000E+01
    -24.501  0.0000E+00  0.8000E+01
    -24.351  0.0000E+00  0.8000E+01
    -24.200  0.0000E+00  0.8000E+01
    -24.050  0.0000E+00  0.8000E+01
    -23.900  0.0000E+00  0.8000E+01
    -23.749  0.0000E+00  0.8000E+01
    -23.599  0.0000E+00  0.8000E+01
    -23.449  0.0000E+00  0.8000E+01
    -23.298  0.0000E+00  0.8000E+01
    -23.148  0.0000E+00  0.8000E+01
    -22.998  0.0000E+00  0.8000E+01
    -22.847  0.0000E+00  0.8000E+01
    -22.697  0.0000E+00  0.8000E+01
    -22.546  0.0000E+00  0.8000E+01
    -22.396  0.0000E+00  0.8000E+01
    -22.246  0.0000E+00  0.8000E+01
    -22.095  0.0000E+00  0.8000E+01
    -21.945  0.0000E+00  0.8000E+01
    -21.795  0.0000E+00  0.8000E+01
    -21.644  0.0000E+00  0.8000E+01
    -21.494  0.0000E+00  0.8000E+01
    -21.344  0.0000E+00  0.8000E+01
    -21.193  0.0000E+00  0.8000E+01
    -21.043  0.0000E+00  0.8000E+01
    -20.892  0.0000E+00  0.8000E+01
    -20.742  0.0000E+00  0.8000E+01
    -20.592  0.0000E+00  0.8000E+01
    -20.441  0.0000E+00  0.8000E+01
    -20.291  0.0000E+00  0.8000E+01
    -20.141  0.0000E+00  0.8000E+01
    -19.990  0.0000E+00  0.8000E+01
    -19.840  0.0000E+00  0.8000E+01
    -19.690  0.0000E+00  0.8000E+01
    -19.539  0.0000E+00  0.8000E+01
    -19.389  0.0000E+00  0.8000E+01
    -19.239  0.0000E+00  0.8000E+01
    -19.088  0.0000E+00  0.8000E+01
    -18.938  0.0000E+00  0.8000E+01
    -18.787  0.0000E+00  0.8000E+01
    -18.637  0.0000E+00  0.8000E+01
    -18.487  0.0000E+00  0.8000E+01
    -18.336  0.0000E+00  0.8000E+01
    -18.186  0.0000E+00  0.8000E+01
    -18.036  0.0000E+00  0.8000E+01
    -17.885  0.0000E+00  0.8000E+01
    -17.735  0.0000E+00  0.8000E+01
    -17.585  0.0000E+00  0.8000E+01
    -17.434  0.0000E+00  0.8000E+01
    -17.284  0.0000E+00  0.8000E+01
    -17.133  0.0000E+00  0.8000E+01
    -16.983  0.0000E+00  0.8000E+01
    -16.833  0.0000E+00  0.8000E+01
    -16.682  0.0000E+00  0.8000E+01
    -16.532  0.5088E+01  0.8076E+01
    -16.382  0.3630E+01  0.9258E+01
    -16.231  0.5746E+01  0.9888E+01
    -16.081  0.8550E+01  0.1124E+02
    -15.931  0.1159E+02  0.1312E+02
    -15.780  0.8644E+01  0.1437E+02
    -15.630  0.6333E+01  0.1551E+02
    -15.479  0.9308E+01  0.1805E+02
    -15.329  0.3293E+02  0.2130E+02
    -15.179  0.3692E+02  0.2538E+02
    -15.028  0.3513E+02  0.2942E+02
    -14.878  0.5117E+01  0.3005E+02
    -14.728  0.6750E+01  0.3179E+02
    -14.577  0.7265E+01  0.3199E+02
    -14.427  0.1768E+02  0.3408E+02
    -14.277  0.0000E+00  0.3600E+02
    -14.126  0.2222E+00  0.3601E+02
    -13.976  0.7209E+01  0.3641E+02
    -13.826  0.1348E+02  0.4087E+02
    -13.675  0.3044E+02  0.4533E+02
    -13.525  0.3189E+02  0.5101E+02
    -13.374  0.1268E+02  0.5414E+02
    -13.224  0.4792E+01  0.5586E+02
    -13.074  0.0000E+00  0.5600E+02
    -12.923  0.0000E+00  0.5600E+02
    -12.773  0.0000E+00  0.5600E+02
    -12.623  0.0000E+00  0.5600E+02
    -12.472  0.0000E+00  0.5600E+02
    -12.322  0.0000E+00  0.5600E+02
    -12.172  0.0000E+00  0.5600E+02
    -12.021  0.0000E+00  0.5600E+02
    -11.871  0.0000E+00  0.5600E+02
    -11.720  0.0000E+00  0.5600E+02
    -11.570  0.0000E+00  0.5600E+02
    -11.420  0.0000E+00  0.5600E+02
    -11.269  0.0000E+00  0.5600E+02
    -11.119  0.0000E+00  0.5600E+02
    -10.969  0.0000E+00  0.5600E+02
    -10.818  0.0000E+00  0.5600E+02
    -10.668  0.0000E+00  0.5600E+02
    -10.518  0.0000E+00  0.5600E+02
    -10.367  0.0000E+00  0.5600E+02
    -10.217  0.0000E+00  0.5600E+02
    -10.067  0.0000E+00  0.5600E+02
     -9.916  0.0000E+00  0.5600E+02
     -9.766  0.0000E+00  0.5600E+02
     -9.615  0.0000E+00  0.5600E+02
     -9.465  0.0000E+00  0.5600E+02
     -9.315  0.0000E+00  0.5600E+02
     -9.164  0.0000E+00  0.5600E+02
     -9.014  0.0000E+00  0.5600E+02
     -8.864  0.0000E+00  0.5600E+02
     -8.713  0.0000E+00  0.5600E+02
     -8.563  0.0000E+00  0.5600E+02
     -8.413  0.0000E+00  0.5600E+02
     -8.262  0.0000E+00  0.5600E+02
     -8.112  0.0000E+00  0.5600E+02
     -7.961  0.0000E+00  0.5600E+02
     -7.811  0.0000E+00  0.5600E+02
     -7.661  0.0000E+00  0.5600E+02
     -7.510  0.0000E+00  0.5600E+02
     -7.360  0.0000E+00  0.5600E+02
     -7.210  0.0000E+00  0.5600E+02
     -7.059  0.0000E+00  0.5600E+02
     -6.909  0.0000E+00  0.5600E+02
     -6.759  0.0000E+00  0.5600E+02
     -6.608  0.0000E+00  0.5600E+02
     -6.458  0.0000E+00  0.5600E+02
     -6.307  0.0000E+00  0.5600E+02
     -6.157  0.0000E+00  0.5600E+02
     -6.007  0.0000E+00  0.5600E+02
     -5.856  0.0000E+00  0.5600E+02
     -5.706  0.0000E+00  0.5600E+02
     -5.556  0.0000E+00  0.5600E+02
     -5.405  0.0000E+00  0.5600E+02
     -5.255  0.0000E+00  0.5600E+02
     -5.105  0.0000E+00  0.5600E+02
     -4.954  0.0000E+00  0.5600E+02
     -4.804  0.0000E+00  0.5600E+02
     -4.654  0.0000E+00  0.5600E+02
     -4.503  0.0000E+00  0.5600E+02
     -4.353  0.0000E+00  0.5600E+02
     -4.202  0.0000E+00  0.5600E+02
     -4.052  0.0000E+00  0.5600E+02
     -3.902  0.0000E+00  0.5600E+02
     -3.751  0.0000E+00  0.5600E+02
     -3.601  0.0000E+00  0.5600E+02
     -3.451  0.2261E+01  0.5619E+02
     -3.300  0.7114E+01  0.5719E+02
     -3.150  0.1077E+02  0.5947E+02
     -3.000  0.1002E+02  0.6136E+02
     -2.849  0.1263E+02  0.6405E+02
     -2.699  0.1260E+02  0.6615E+02
     -2.548  0.1427E+02  0.6839E+02
     -2.398  0.1696E+02  0.7094E+02
     -2.248  0.2119E+02  0.7392E+02
     -2.097  0.2127E+02  0.7722E+02
     -1.947  0.2016E+02  0.8043E+02
     -1.797  0.1981E+02  0.8371E+02
     -1.646  0.1815E+02  0.8669E+02
     -1.496  0.1540E+02  0.8950E+02
     -1.346  0.1123E+02  0.9136E+02
     -1.195  0.1296E+02  0.9318E+02
     -1.045  0.1229E+02  0.9520E+02
     -0.894  0.1310E+02  0.9709E+02
     -0.744  0.8604E+01  0.9903E+02
     -0.594  0.6055E+01  0.1004E+03
     -0.443  0.1142E+02  0.1020E+03
     -0.293  0.1794E+02  0.1044E+03
     -0.143  0.2013E+02  0.1078E+03
      0.008  0.2676E+02  0.1109E+03
      0.158  0.2412E+02  0.1142E+03
      0.308  0.1235E+02  0.1172E+03
      0.459  0.1587E+02  0.1196E+03
      0.609  0.1885E+02  0.1224E+03
      0.759  0.9794E+01  0.1243E+03
      0.910  0.9174E+01  0.1260E+03
      1.060  0.3230E+01  0.1275E+03
      1.211  0.8046E+00  0.1279E+03
      1.361  0.5146E+00  0.1280E+03
      1.511  0.0000E+00  0.1280E+03
      1.662  0.0000E+00  0.1280E+03
      1.812  0.0000E+00  0.1280E+03
      1.962  0.0000E+00  0.1280E+03
      2.113  0.0000E+00  0.1280E+03
      2.263  0.0000E+00  0.1280E+03
      2.413  0.0000E+00  0.1280E+03
      2.564  0.9816E+00  0.1280E+03
      2.714  0.3684E+01  0.1284E+03
      2.865  0.3842E+01  0.1289E+03
      3.015  0.3027E+01  0.1295E+03
      3.165  0.3461E+01  0.1300E+03
      3.316  0.5716E+01  0.1306E+03
      3.466  0.7805E+01  0.1317E+03
      3.616  0.7547E+01  0.1329E+03
      3.767  0.8249E+01  0.1341E+03
      3.917  0.1070E+02  0.1355E+03
      4.067  0.1354E+02  0.1373E+03
      4.218  0.1695E+02  0.1396E+03
      4.368  0.1326E+02  0.1420E+03
      4.518  0.1731E+02  0.1441E+03
      4.669  0.9805E+01  0.1461E+03
      4.819  0.9868E+01  0.1476E+03
      4.970  0.5372E+01  0.1486E+03
      5.120  0.1711E+01  0.1491E+03
      5.270  0.8437E+00  0.1493E+03
      5.421  0.8344E+00  0.1494E+03
      5.571  0.8250E+00  0.1496E+03
      5.721  0.8157E+00  0.1497E+03
      5.872  0.8063E+00  0.1498E+03
      6.022  0.7970E+00  0.1499E+03
      6.172  0.7876E+00  0.1500E+03
      6.323  0.7783E+00  0.1502E+03
      6.473  0.7689E+00  0.1503E+03
      6.624  0.9027E+00  0.1504E+03
      6.774  0.1123E+01  0.1505E+03
      6.924  0.1447E+01  0.1507E+03
      7.075  0.1271E+01  0.1510E+03
      7.225  0.9649E+00  0.1511E+03
      7.375  0.7503E+00  0.1512E+03
      7.526  0.5755E+00  0.1514E+03
      7.676  0.3872E+00  0.1514E+03
      7.826  0.4041E+00  0.1515E+03
      7.977  0.4209E+00  0.1515E+03
      8.127  0.4378E+00  0.1516E+03
      8.278  0.3584E+00  0.1517E+03
      8.428  0.1032E+01  0.1519E+03
      8.578  0.0000E+00  0.1520E+03
      8.729  0.0000E+00  0.1520E+03
      8.879  0.0000E+00  0.1520E+03
      9.029  0.0000E+00  0.1520E+03
      9.180  0.0000E+00  0.1520E+03
      9.330  0.0000E+00  0.1520E+03
      9.480  0.0000E+00  0.1520E+03
      9.631  0.0000E+00  0.1520E+03
      9.781  0.0000E+00  0.1520E+03
      9.931  0.0000E+00  0.1520E+03
     10.082  0.0000E+00  0.1520E+03
     10.232  0.0000E+00  0.1520E+03
     10.383  0.0000E+00  0.1520E+03
     10.533  0.0000E+00  0.1520E+03
