Starting job 28531576 ("jobname") on c16-31 at Fri Nov 8 10:19:16 CET 2019
 running on    4 total cores
 distrk:  each k-point on    4 cores,    1 groups
 distr:  one band on    2 cores,    2 groups
 using from now: INCAR     
 vasp.5.4.4.18Apr17-6-g9f103f2a35 (build Jun 30 2017 11:15:00) complex          
  
 POSCAR found type information on POSCAR  O  Sr Ti
 POSCAR found :  3 types and      20 ions
 scaLAPACK will be used

 ----------------------------------------------------------------------------- 
|                                                                             |
|  ADVICE TO THIS USER RUNNING 'VASP/VAMP'   (HEAR YOUR MASTER'S VOICE ...):  |
|                                                                             |
|      You have a (more or less) 'large supercell' and for larger cells       |
|      it might be more efficient to use real space projection operators      |
|      So try LREAL= Auto  in the INCAR   file.                               |
|      Mind: If you want to do a very accurate calculations keep the          |
|      reciprocal projection scheme          (i.e. LREAL=.FALSE.)             |
|                                                                             |
 ----------------------------------------------------------------------------- 

 LDA part: xc-table for Pade appr. of Perdew
 POSCAR, INCAR and KPOINTS ok, starting setup
 FFT: planning ...
 WAVECAR not read
 entering main loop
       N       E                     dE             d eps       ncg     rms          rms(c)
DAV:   1     0.159601703868E+04    0.15960E+04   -0.55814E+04  1528   0.156E+03
DAV:   2     0.175768254455E+03   -0.14202E+04   -0.13479E+04  1676   0.414E+02
DAV:   3    -0.173736548426E+03   -0.34950E+03   -0.33686E+03  1964   0.195E+02
DAV:   4    -0.200623555187E+03   -0.26887E+02   -0.26752E+02  1936   0.597E+01
DAV:   5    -0.202246281808E+03   -0.16227E+01   -0.16217E+01  2544   0.141E+01    0.371E+01
RMM:   6    -0.161817496092E+03    0.40429E+02   -0.29619E+02  1692   0.505E+01    0.147E+01
RMM:   7    -0.157727749101E+03    0.40897E+01   -0.15358E+01  1790   0.149E+01    0.725E+00
RMM:   8    -0.156977285834E+03    0.75046E+00   -0.29959E+00  2061   0.601E+00    0.369E+00
RMM:   9    -0.156738414122E+03    0.23887E+00   -0.14917E+00  2034   0.436E+00    0.104E+00
RMM:  10    -0.156698588937E+03    0.39825E-01   -0.26255E-01  2345   0.158E+00    0.706E-01
RMM:  11    -0.156688624218E+03    0.99647E-02   -0.17338E-01  2265   0.111E+00    0.385E-01
RMM:  12    -0.156695369838E+03   -0.67456E-02   -0.62435E-02  2357   0.656E-01    0.323E-01
RMM:  13    -0.156695922981E+03   -0.55314E-03   -0.20146E-02  2623   0.358E-01    0.218E-01
RMM:  14    -0.156701079248E+03   -0.51563E-02   -0.25658E-02  2169   0.437E-01    0.171E-01
RMM:  15    -0.156701109160E+03   -0.29912E-04   -0.72731E-03  2340   0.250E-01    0.645E-02
RMM:  16    -0.156701228889E+03   -0.11973E-03   -0.24691E-03  2590   0.114E-01    0.276E-02
RMM:  17    -0.156701364879E+03   -0.13599E-03   -0.10003E-03  2445   0.715E-02    0.251E-02
RMM:  18    -0.156701397473E+03   -0.32594E-04   -0.45076E-04  2302   0.514E-02    0.817E-03
RMM:  19    -0.156701418475E+03   -0.21002E-04   -0.20317E-04  1796   0.309E-02    0.880E-03
RMM:  20    -0.156701427655E+03   -0.91803E-05   -0.99331E-05  1624   0.240E-02
   1 F= -.15670143E+03 E0= -.15670143E+03  d E =0.000000E+00

Currently Loaded Modulefiles:
  1) intel/2017.4         2) perf-reports/7.0.6

Job script resource usage:
       JobID  MaxVMSize     MaxRSS 
------------ ---------- ---------- 
28531576.ba+    499232K      4923K 

Job step resource usage:
       JobID    JobName  AllocCPUS  MaxVMSize     MaxRSS    Elapsed ExitCode 
------------ ---------- ---------- ---------- ---------- ---------- -------- 
28531576        jobname          4                         00:01:51      0:0 
28531576.0    pmi_proxy          1   1533016K    330745K   00:01:49      0:0 

Job 28531576 ("jobname") completed on c16-31 at Fri Nov 8 10:21:07 CET 2019
